Protein in INSANE! Membrane UpperLeaflet>POPC=1.0 LowerLeaflet>POPC=1.0
11125
    1AU     AUC    1   5.227   5.309   5.990
    1AU     AUC    2   5.398   5.280   5.930
    1AU     AUC    3   5.395   5.267   6.067
    1AU     AUC    4   5.116   5.325   5.899
    1AU     AUC    5   5.105   5.292   6.065
    1AU     AUC    6   5.165   5.443   5.990
    1AU     AUC    7   5.354   5.434   5.994
    1AU     AUC    8   5.143   5.166   5.989
    1AU     AUC    9   5.340   5.151   6.026
    1AU     AUC   10   5.225   5.210   6.138
    1AU     AUC   11   5.248   5.387   6.147
    1AU     AUC   12   5.260   5.216   5.835
    1AU     AUC   13   5.249   5.411   5.868
    1AU     AUC   14   5.518   5.312   5.807
    1AU     AUC   15   5.586   5.273   5.994
    1AU     AUC   16   5.525   5.287   6.186
    1AU     AUC   17   4.986   5.312   5.800
    1AU     AUC   18   4.913   5.322   6.007
    1AU     AUC   19   4.968   5.328   6.155
    1AU     AUC   20   5.082   5.582   6.012
    1AU     AUC   21   5.265   5.639   6.036
    1AU     AUC   22   5.439   5.547   6.016
    1AU     AUC   23   5.084   5.031   5.962
    1AU     AUC   24   5.265   4.984   5.986
    1AU     AUC   25   5.375   4.994   5.999
    1AU     AUC   26   5.221   5.141   6.276
    1AU     AUC   27   5.248   5.281   6.303
    1AU     AUC   28   5.257   5.456   6.262
    1AU     AUC   29   5.256   5.144   5.733
    1AU     AUC   30   5.252   5.275   5.667
    1AU     AUC   31   5.267   5.482   5.726
    1AU     AUC   32   5.455   5.242   6.274
    1AU     AUC   33   5.440   5.366   6.244
    1AU     AUC   34   5.401   5.203   5.766
    1AU     AUC   35   5.363   5.441   5.706
    1AU     AUC   36   5.080   5.197   6.262
    1AU     AUC   37   5.055   5.402   6.245
    1AU     AUC   38   5.092   5.239   5.720
    1AU     AUC   39   5.074   5.409   5.733
    1AU     AUC   40   5.523   5.435   5.876
    1AU     AUC   41   5.529   5.478   6.058
    1AU     AUC   42   4.954   5.443   5.892
    1AU     AUC   43   5.008   5.511   6.070
    1AU     AUC   44   5.514   5.089   5.877
    1AU     AUC   45   5.481   5.094   6.143
    1AU     AUC   46   4.992   5.147   5.846
    1AU     AUC   47   4.946   5.186   6.055
    1AU     AUC   48   5.168   5.536   6.188
    1AU     AUC   49   5.357   5.521   6.169
    1AU     AUC   50   5.110   5.016   6.121
    1AU     AUC   51   5.295   5.035   6.184
    1AU     AUC   52   5.176   5.598   5.860
    1AU     AUC   53   5.357   5.545   5.828
    1AU     AUC   54   5.149   5.056   5.841
    1AU     AUC   55   5.338   5.038   5.817
    1AU    AUSL   56   5.647   5.165   6.458
    1AU    AUSL   57   5.481   4.923   6.449
    1AU     AUL   58   5.374   5.187   6.703
    1AU       S   59   5.612   4.476   6.613
    1AU     LIG   60   5.671   4.298   6.997
    1AU     LIG   61   5.991   4.092   7.240
    1AU     LIG   62   6.231   3.746   7.450
    1AU     LIG   63   6.380   3.511   7.837
    1AU       S   64   6.026   4.993   6.718
    1AU     LIG   65   6.229   4.989   7.136
    1AU     LIG   66   6.251   4.948   7.610
    1AU     LIG   67   6.494   5.018   8.022
    1AU     LIG   68   6.837   5.134   8.340
    1AU    AUSL   69   5.376   5.166   6.420
    1AU    AUSL   70   5.213   5.379   6.430
    1AU     AUL   71   5.368   5.466   6.775
    1AU       S   72   5.785   4.859   6.877
    1AU     LIG   73   5.880   4.656   7.308
    1AU     LIG   74   5.845   4.657   7.785
    1AU     LIG   75   5.769   4.606   8.254
    1AU     LIG   76   5.909   4.654   8.700
    1AU       S   77   4.875   5.530   6.958
    1AU     LIG   78   4.663   5.512   7.365
    1AU     LIG   79   4.673   5.297   7.781
    1AU     LIG   80   4.551   5.226   8.227
    1AU     LIG   81   4.522   5.381   8.672
    1AU    AUSL   82   5.490   5.391   6.531
    1AU    AUSL   83   5.684   5.424   6.338
    1AU     AUL   84   5.625   5.337   6.774
    1AU       S   85   5.527   5.904   6.913
    1AU     LIG   86   5.643   5.999   7.378
    1AU     LIG   87   5.678   5.987   7.872
    1AU     LIG   88   5.755   5.982   8.356
    1AU     LIG   89   5.793   5.914   8.832
    1AU       S   90   6.055   5.571   6.564
    1AU     LIG   91   6.387   5.648   6.855
    1AU     LIG   92   6.597   5.980   7.094
    1AU     LIG   93   6.868   6.299   7.310
    1AU     LIG   94   7.209   6.432   7.612
    1AU    AUSL   95   5.543   5.349   5.439
    1AU    AUSL   96   5.504   5.596   5.564
    1AU     AUL   97   5.864   5.453   5.645
    1AU       S   98   5.809   5.333   5.103
    1AU     LIG   99   6.128   5.108   4.851
    1AU     LIG  100   6.188   5.006   4.394
    1AU     LIG  101   6.272   4.977   3.921
    1AU     LIG  102   6.474   5.032   3.493
    1AU       S  103   5.704   5.878   5.282
    1AU     LIG  104   5.921   6.078   4.891
    1AU     LIG  105   6.179   6.323   4.550
    1AU     LIG  106   6.447   6.653   4.326
    1AU     LIG  107   6.705   6.939   4.058
    1AU    AUSL  108   5.382   5.113   5.474
    1AU    AUSL  109   5.526   5.219   5.681
    1AU     AUL  110   5.710   5.212   5.625
    1AU       S  111   5.961   4.860   5.317
    1AU     LIG  112   6.139   4.534   5.018
    1AU     LIG  113   6.401   4.199   4.793
    1AU     LIG  114   6.684   3.895   4.552
    1AU     LIG  115   6.941   3.801   4.157
    1AU       S  116   5.637   5.079   4.999
    1AU     LIG  117   5.789   4.761   4.684
    1AU     LIG  118   5.814   4.709   4.204
    1AU     LIG  119   5.841   4.769   3.727
    1AU     LIG  120   6.034   4.850   3.298
    1AU    AUSL  121   5.319   5.387   5.588
    1AU    AUSL  122   5.134   5.175   5.585
    1AU     AUL  123   5.282   5.295   5.289
    1AU       S  124   4.827   5.124   4.994
    1AU     LIG  125   4.736   4.835   4.615
    1AU     LIG  126   4.623   4.685   4.167
    1AU     LIG  127   4.524   4.702   3.700
    1AU     LIG  128   4.612   4.822   3.244
    1AU       S  129   5.611   5.467   4.960
    1AU     LIG  130   5.746   5.268   4.530
    1AU     LIG  131   5.828   5.208   4.056
    1AU     LIG  132   5.956   5.265   3.598
    1AU     LIG  133   5.901   5.472   3.172
    1AU    AUSL  134   4.970   5.365   6.298
    1AU    AUSL  135   5.124   5.629   6.292
    1AU     AUL  136   5.214   5.379   6.563
    1AU       S  137   4.629   5.388   6.846
    1AU     LIG  138   4.301   5.233   7.119
    1AU     LIG  139   4.246   5.096   7.578
    1AU     LIG  140   4.116   5.013   8.037
    1AU     LIG  141   3.878   5.086   8.451
    1AU       S  142   4.909   5.998   6.720
    1AU     LIG  143   4.764   6.003   7.156
    1AU     LIG  144   4.515   6.303   7.416
    1AU     LIG  145   4.274   6.651   7.636
    1AU     LIG  146   4.049   6.820   8.016
    1AU    AUSL  147   4.978   5.238   6.536
    1AU    AUSL  148   4.766   5.185   6.348
    1AU     AUL  149   5.143   5.103   6.548
    1AU       S  150   4.496   4.950   6.628
    1AU     LIG  151   4.099   4.744   6.635
    1AU     LIG  152   3.925   4.372   6.823
    1AU     LIG  153   3.728   4.040   7.070
    1AU     LIG  154   3.474   3.757   7.328
    1AU       S  155   4.799   5.227   6.935
    1AU     LIG  156   4.703   4.985   7.322
    1AU     LIG  157   4.628   4.782   7.748
    1AU     LIG  158   4.511   4.701   8.193
    1AU     LIG  159   4.462   4.532   8.627
    1AU    AUSL  160   4.884   5.234   5.485
    1AU    AUSL  161   4.941   4.976   5.567
    1AU     AUL  162   5.181   4.997   5.316
    1AU       S  163   4.632   5.219   5.139
    1AU     LIG  164   4.329   5.016   4.871
    1AU     LIG  165   4.271   4.989   4.398
    1AU     LIG  166   4.133   4.986   3.935
    1AU     LIG  167   3.706   5.007   3.683
    1AU       S  168   4.621   4.749   5.331
    1AU     LIG  169   4.312   4.507   5.059
    1AU     LIG  170   4.036   4.154   4.868
    1AU     LIG  171   3.766   3.892   4.571
    1AU     LIG  172   3.672   3.665   4.165
    1AU    AUSL  173   5.080   5.413   5.439
    1AU    AUSL  174   4.842   5.484   5.593
    1AU     AUL  175   5.248   5.575   5.409
    1AU       S  176   4.557   5.679   5.295
    1AU     LIG  177   4.312   5.901   4.941
    1AU     LIG  178   4.036   6.177   4.643
    1AU     LIG  179   3.698   6.423   4.409
    1AU     LIG  180   3.233   6.399   4.253
    1AU       S  181   4.865   5.440   4.992
    1AU     LIG  182   4.646   5.339   4.561
    1AU     LIG  183   4.628   5.197   4.087
    1AU     LIG  184   4.617   5.208   3.605
    1AU     LIG  185   4.695   5.342   3.147
    1AU    AUSL  186   5.820   5.530   5.955
    1AU    AUSL  187   5.623   5.453   5.780
    1AU     AUL  188   5.795   5.827   6.037
    1AU       S  189   5.924   5.914   5.483
    1AU     LIG  190   6.281   5.931   5.229
    1AU     LIG  191   6.469   5.998   4.827
    1AU     LIG  192   6.717   6.288   4.572
    1AU     LIG  193   6.985   6.592   4.318
    1AU       S  194   6.285   5.600   5.970
    1AU     LIG  195   6.740   5.857   5.972
    1AU     LIG  196   7.196   6.086   6.036
    1AU     LIG  197   7.437   6.529   6.077
    1AU     LIG  198   7.706   6.795   6.376
    1AU    AUSL  199   5.838   5.269   5.863
    1AU    AUSL  200   5.825   5.069   6.069
    1AU     AUL  201   5.836   5.200   6.261
    1AU       S  202   6.308   5.264   5.879
    1AU     LIG  203   6.786   5.349   5.944
    1AU     LIG  204   7.207   5.590   5.842
    1AU     LIG  205   7.648   5.749   5.725
    1AU     LIG  206   8.043   5.503   5.586
    1AU       S  207   6.199   4.803   6.120
    1AU     LIG  208   6.651   4.657   6.172
    1AU     LIG  209   7.123   4.547   6.225
    1AU     LIG  210   7.575   4.434   6.292
    1AU     LIG  211   8.029   4.512   6.448
    1AU    AUSL  212   5.670   5.314   6.076
    1AU    AUSL  213   5.604   5.578   6.117
    1AU     AUL  214   5.591   5.731   6.210
    1AU       S  215   6.101   5.772   6.424
    1AU     LIG  216   6.347   6.128   6.652
    1AU     LIG  217   6.512   6.479   6.974
    1AU     LIG  218   6.734   6.871   7.190
    1AU     LIG  219   6.834   7.381   7.187
    1AU       S  220   6.289   5.373   6.154
    1AU     LIG  221   6.616   5.586   6.388
    1AU     LIG  222   7.086   5.661   6.334
    1AU     LIG  223   7.560   5.754   6.364
    1AU     LIG  224   8.002   5.884   6.544
    1AU    AUSL  225   4.932   5.604   6.065
    1AU    AUSL  226   4.795   5.570   6.342
    1AU     AUL  227   4.764   5.661   6.033
    1AU       S  228   4.561   5.813   6.643
    1AU     LIG  229   4.327   5.774   7.023
    1AU     LIG  230   4.080   6.087   7.257
    1AU     LIG  231   3.858   6.362   7.568
    1AU     LIG  232   3.595   6.455   7.953
    1AU       S  233   4.459   6.053   6.119
    1AU     LIG  234   4.067   6.267   5.933
    1AU     LIG  235   3.651   6.529   5.935
    1AU     LIG  236   3.211   6.737   5.979
    1AU     LIG  237   2.758   6.674   6.060
    1AU    AUSL  238   4.836   5.422   5.872
    1AU    AUSL  239   4.882   5.686   5.785
    1AU     AUL  240   4.603   5.480   5.887
    1AU       S  241   4.229   5.401   5.568
    1AU     LIG  242   3.789   5.590   5.658
    1AU     LIG  243   3.353   5.801   5.656
    1AU     LIG  244   3.064   6.123   5.454
    1AU     LIG  245   2.599   6.164   5.453
    1AU       S  246   4.602   6.036   5.611
    1AU     LIG  247   4.357   6.283   5.294
    1AU     LIG  248   4.239   6.558   4.917
    1AU     LIG  249   3.927   6.847   4.676
    1AU     LIG  250   3.694   7.279   4.659
    1AU    AUSL  251   4.748   5.395   6.133
    1AU    AUSL  252   4.660   5.207   5.913
    1AU     AUL  253   4.558   5.518   6.167
    1AU       S  254   4.233   4.941   5.875
    1AU     LIG  255   3.828   5.079   5.755
    1AU     LIG  256   3.465   4.828   5.671
    1AU     LIG  257   3.033   4.692   5.767
    1AU     LIG  258   2.604   4.798   5.606
    1AU       S  259   4.245   5.401   6.539
    1AU     LIG  260   3.767   5.423   6.394
    1AU     LIG  261   3.324   5.651   6.416
    1AU     LIG  262   2.900   5.902   6.363
    1AU     LIG  263   2.509   6.213   6.350
    1AU    AUSL  264   5.643   4.843   6.008
    1AU    AUSL  265   5.569   5.064   6.196
    1AU     AUL  266   5.710   4.944   6.293
    1AU       S  267   5.983   4.542   5.999
    1AU     LIG  268   6.351   4.262   5.955
    1AU     LIG  269   6.819   4.204   5.959
    1AU     LIG  270   7.268   4.070   6.053
    1AU     LIG  271   7.601   3.835   6.299
    1AU       S  272   5.892   4.544   6.489
    1AU     LIG  273   6.143   4.485   6.879
    1AU     LIG  274   6.463   4.221   7.096
    1AU     LIG  275   6.700   3.955   7.396
    1AU     LIG  276   6.966   3.838   7.764
    1AU    AUSL  277   5.616   5.093   5.901
    1AU    AUSL  278   5.501   4.757   5.781
    1AU     AUL  279   5.796   5.000   5.788
    1AU       S  280   6.187   4.729   5.847
    1AU     LIG  281   6.607   4.614   5.666
    1AU     LIG  282   7.085   4.575   5.717
    1AU     LIG  283   7.523   4.411   5.768
    1AU     LIG  284   7.891   4.323   5.525
    1AU       S  285   5.836   4.533   5.517
    1AU     LIG  286   6.105   4.173   5.397
    1AU     LIG  287   6.265   3.815   5.105
    1AU     LIG  288   6.518   3.470   4.868
    1AU     LIG  289   6.742   3.017   4.891
    1AU    AUSL  290   4.785   4.959   5.911
    1AU    AUSL  291   4.901   5.174   5.763
    1AU     AUL  292   4.694   5.266   5.690
    1AU       S  293   4.468   4.848   5.465
    1AU     LIG  294   4.039   4.787   5.396
    1AU     LIG  295   3.766   4.490   5.180
    1AU     LIG  296   3.508   4.165   4.948
    1AU     LIG  297   3.211   3.935   4.648
    1AU       S  298   4.377   4.707   5.937
    1AU     LIG  299   3.888   4.561   5.861
    1AU     LIG  300   3.435   4.498   6.065
    1AU     LIG  301   3.010   4.439   6.316
    1AU     LIG  302   2.624   4.099   6.334
    1AU    AUSL  303   4.862   5.154   6.087
    1AU    AUSL  304   4.813   4.917   6.211
    1AU     AUL  305   4.529   5.225   6.158
    1AU       S  306   4.574   4.695   6.469
    1AU     LIG  307   4.334   4.260   6.513
    1AU     LIG  308   4.040   3.870   6.685
    1AU     LIG  309   3.731   3.530   6.916
    1AU     LIG  310   3.279   3.359   7.049
    1AU       S  311   4.283   4.812   6.083
    1AU     LIG  312   3.809   4.908   6.229
    1AU     LIG  313   3.318   4.993   6.156
    1AU     LIG  314   2.827   4.923   6.181
    1AU     LIG  315   2.501   4.668   6.434
    1AU    AUSL  316   5.337   5.807   6.332
    1AU    AUSL  317   4.911   5.806   6.247
    1AU     AUL  318   5.044   5.587   6.473
    1AU       S  319   4.820   6.177   6.472
    1AU     LIG  320   4.474   6.288   6.842
    1AU     LIG  321   4.185   6.584   7.124
    1AU     LIG  322   3.973   6.986   7.328
    1AU     LIG  323   3.753   7.442   7.358
    1AU       S  324   5.375   6.182   6.500
    1AU     LIG  325   5.488   6.415   6.859
    1AU     LIG  326   5.479   6.854   6.956
    1AU     LIG  327   5.497   7.308   7.054
    1AU     LIG  328   5.654   7.666   7.301
    1AU    AUSL  329   5.150   5.871   6.128
    1AU    AUSL  330   5.329   5.904   5.894
    1AU     AUL  331   4.938   5.883   5.974
    1AU       S  332   5.221   6.322   6.231
    1AU     LIG  333   5.176   6.693   6.534
    1AU     LIG  334   5.230   7.176   6.629
    1AU     LIG  335   5.170   7.646   6.781
    1AU     LIG  336   4.942   8.095   6.848
    1AU       S  337   5.336   6.294   5.728
    1AU     LIG  338   5.601   6.688   5.530
    1AU     LIG  339   5.758   7.157   5.365
    1AU     LIG  340   5.992   7.625   5.321
    1AU     LIG  341   6.166   8.104   5.290
    1AU    AUSL  342   5.354   5.701   6.080
    1AU    AUSL  343   5.419   5.536   6.314
    1AU     AUL  344   5.339   5.623   6.484
    1AU       S  345   5.886   5.827   6.610
    1AU     LIG  346   6.036   5.988   7.031
    1AU     LIG  347   6.248   6.251   7.363
    1AU     LIG  348   6.538   6.525   7.629
    1AU     LIG  349   6.720   6.715   8.030
    1AU       S  350   5.520   6.275   6.220
    1AU     LIG  351   5.678   6.676   6.454
    1AU     LIG  352   5.759   7.132   6.622
    1AU     LIG  353   5.840   7.581   6.778
    1AU     LIG  354   5.895   8.031   6.674
    1AU    AUSL  355   5.268   4.960   6.267
    1AU    AUSL  356   5.475   4.784   6.215
    1AU     AUL  357   5.321   4.908   6.642
    1AU       S  358   5.080   4.411   6.543
    1AU     LIG  359   5.100   4.008   6.724
    1AU     LIG  360   4.875   3.619   6.819
    1AU     LIG  361   4.881   3.160   6.863
    1AU     LIG  362   4.730   2.764   7.077
    1AU       S  363   5.656   4.389   6.362
    1AU     LIG  364   5.951   4.062   6.633
    1AU     LIG  365   6.254   3.779   6.911
    1AU     LIG  366   6.586   3.508   7.147
    1AU     LIG  367   6.895   3.127   7.142
    1AU    AUSL  368   5.056   4.920   6.082
    1AU    AUSL  369   5.021   5.084   6.305
    1AU     AUL  370   5.192   4.866   6.391
    1AU       S  371   4.879   4.351   6.298
    1AU     LIG  372   4.740   3.860   6.372
    1AU     LIG  373   4.640   3.343   6.427
    1AU     LIG  374   4.603   2.849   6.562
    1AU     LIG  375   4.548   2.395   6.752
    1AU       S  376   4.737   4.768   6.703
    1AU     LIG  377   4.449   4.502   6.952
    1AU     LIG  378   4.263   4.084   7.093
    1AU     LIG  379   4.046   3.731   7.334
    1AU     LIG  380   4.080   3.513   7.760
    1AU    AUSL  381   5.219   4.707   6.143
    1AU    AUSL  382   5.199   4.717   5.816
    1AU     AUL  383   4.952   4.761   6.005
    1AU       S  384   5.166   4.277   5.780
    1AU     LIG  385   4.987   3.788   5.760
    1AU     LIG  386   4.843   3.288   5.655
    1AU     LIG  387   4.815   2.799   5.547
    1AU     LIG  388   4.694   2.456   5.246
    1AU       S  389   5.160   4.321   6.293
    1AU     LIG  390   5.236   3.884   6.237
    1AU     LIG  391   5.156   3.449   6.418
    1AU     LIG  392   5.291   3.007   6.576
    1AU     LIG  393   5.590   2.657   6.731
    1AU    AUSL  394   5.283   5.755   5.646
    1AU    AUSL  395   5.464   5.668   5.835
    1AU     AUL  396   5.606   5.717   5.872
    1AU       S  397   5.254   6.136   5.417
    1AU     LIG  398   5.528   6.358   5.137
    1AU     LIG  399   5.587   6.799   5.012
    1AU     LIG  400   5.490   7.209   4.780
    1AU     LIG  401   5.527   7.488   4.371
    1AU       S  402   5.738   6.088   5.535
    1AU     LIG  403   6.024   6.391   5.284
    1AU     LIG  404   6.399   6.493   4.982
    1AU     LIG  405   6.733   6.774   4.749
    1AU     LIG  406   7.109   7.069   4.641
    1AU    AUSL  407   5.139   5.706   5.897
    1AU    AUSL  408   5.100   5.541   5.679
    1AU     AUL  409   5.057   5.665   5.587
    1AU       S  410   5.056   6.247   5.623
    1AU     LIG  411   5.126   6.628   5.340
    1AU     LIG  412   5.244   7.085   5.280
    1AU     LIG  413   5.112   7.548   5.246
    1AU     LIG  414   4.844   7.933   5.135
    1AU       S  415   4.757   5.936   5.311
    1AU     LIG  416   4.725   6.210   4.935
    1AU     LIG  417   4.513   6.340   4.537
    1AU     LIG  418   4.197   6.606   4.308
    1AU     LIG  419   4.134   7.011   4.053
    1AU    AUSL  420   5.309   4.952   5.703
    1AU    AUSL  421   5.049   4.947   5.810
    1AU     AUL  422   5.135   4.715   5.413
    1AU       S  423   4.653   4.563   5.571
    1AU     LIG  424   4.241   4.343   5.546
    1AU     LIG  425   3.919   4.034   5.355
    1AU     LIG  426   3.722   3.705   5.053
    1AU     LIG  427   3.470   3.333   4.847
    1AU       S  428   5.403   4.304   5.587
    1AU     LIG  429   5.285   3.916   5.347
    1AU     LIG  430   5.034   3.521   5.232
    1AU     LIG  431   4.820   3.104   5.127
    1AU     LIG  432   4.765   2.746   4.823
    1AU    AUSL  433   5.353   4.876   5.975
    1AU    AUSL  434   5.572   4.962   5.615
    1AU     AUL  435   5.217   4.906   5.590
    1AU       S  436   5.472   4.276   5.905
    1AU     LIG  437   5.508   3.834   5.803
    1AU     LIG  438   5.348   3.435   5.629
    1AU     LIG  439   5.253   3.025   5.410
    1AU     LIG  440   5.250   2.534   5.402
    1AU       S  441   5.732   4.691   5.306
    1AU     LIG  442   5.684   4.286   5.097
    1AU     LIG  443   5.910   4.035   4.794
    1AU     LIG  444   6.190   3.759   4.541
    1AU     LIG  445   6.426   3.654   4.137
    2POPC   NC3  446  10.094   5.925   8.080
    2POPC   PO4  447  10.486   5.374   7.942
    2POPC   GL1  448  10.291   5.449   7.655
    2POPC   GL2  449   9.981   5.558   7.736
    2POPC   C1A  450  10.149   5.342   7.274
    2POPC   D2A  451  10.353   5.380   6.904
    2POPC   C3A  452  10.151   5.447   6.486
    2POPC   C4A  453  10.122   5.433   6.012
    2POPC   C1B  454  10.219   5.864   7.417
    2POPC   C2B  455  10.255   5.905   7.001
    2POPC   C3B  456  10.110   5.980   6.625
    2POPC   C4B  457  10.275   5.876   6.249
    3POPC   NC3  458   0.495   9.284   8.349
    3POPC   PO4  459   0.728   9.636   7.855
    3POPC   GL1  460   0.535   9.483   7.493
    3POPC   GL2  461   0.375   9.178   7.570
    3POPC   C1A  462   0.260   9.555   7.184
    3POPC   D2A  463   0.371   9.712   6.806
    3POPC   C3A  464   0.089   9.693   6.493
    3POPC   C4A  465   0.276   9.729   6.135
    3POPC   C1B  466   0.288   9.010   7.165
    3POPC   C2B  467   0.552   9.109   6.797
    3POPC   C3B  468   0.448   9.333   6.421
    3POPC   C4B  469   0.510   9.312   5.928
    4POPC   NC3  470   9.465   7.393   8.228
    4POPC   PO4  471   8.945   7.009   8.068
    4POPC   GL1  472   9.121   7.113   7.694
    4POPC   GL2  473   9.466   7.152   7.766
    4POPC   C1A  474   9.233   7.005   7.277
    4POPC   D2A  475   9.083   6.840   6.894
    4POPC   C3A  476   9.186   7.104   6.563
    4POPC   C4A  477   9.200   7.126   6.140
    4POPC   C1B  478   9.720   7.165   7.399
    4POPC   C2B  479   9.802   7.016   7.003
    4POPC   C3B  480   9.881   7.242   6.633
    4POPC   C4B  481   9.634   7.405   6.296
    5POPC   NC3  482   5.886   8.558   8.085
    5POPC   PO4  483   5.718   9.242   8.146
    5POPC   GL1  484   5.904   8.972   7.804
    5POPC   GL2  485   5.619   8.963   7.547
    5POPC   C1A  486   6.100   9.012   7.413
    5POPC   D2A  487   5.841   9.221   7.078
    5POPC   C3A  488   5.802   9.053   6.650
    5POPC   C4A  489   5.666   8.802   6.304
    5POPC   C1B  490   5.753   8.711   7.188
    5POPC   C2B  491   5.639   8.553   6.779
    5POPC   C3B  492   5.542   8.310   6.411
    5POPC   C4B  493   5.712   8.250   5.995
    6POPC   NC3  494   6.439   1.967   8.133
    6POPC   PO4  495   6.046   2.430   8.008
    6POPC   GL1  496   6.347   2.145   7.654
    6POPC   GL2  497   6.485   1.797   7.651
    6POPC   C1A  498   6.516   2.001   7.188
    6POPC   D2A  499   6.341   2.198   6.777
    6POPC   C3A  500   6.574   2.203   6.354
    6POPC   C4A  501   6.390   2.161   5.920
    6POPC   C1B  502   6.677   1.500   7.346
    6POPC   C2B  503   6.757   1.611   6.922
    6POPC   C3B  504   6.538   1.759   6.612
    6POPC   C4B  505   6.327   1.750   6.235
    7POPC   NC3  506   8.811   5.850   7.877
    7POPC   PO4  507   8.833   5.254   8.106
    7POPC   GL1  508   8.687   5.325   7.672
    7POPC   GL2  509   8.487   5.610   7.566
    7POPC   C1A  510   8.896   5.492   7.305
    7POPC   D2A  511   8.988   5.650   6.879
    7POPC   C3A  512   8.914   5.513   6.444
    7POPC   C4A  513   8.928   5.652   6.041
    7POPC   C1B  514   8.463   5.674   7.117
    7POPC   C2B  515   8.509   5.430   6.731
    7POPC   C3B  516   8.404   5.553   6.301
    7POPC   C4B  517   8.042   5.697   6.057
    8POPC   NC3  518   3.732   9.702   8.070
    8POPC   PO4  519   3.088   9.732   8.206
    8POPC   GL1  520   3.211   9.635   7.781
    8POPC   GL2  521   3.434   9.347   7.806
    8POPC   C1A  522   3.338   9.769   7.349
    8POPC   D2A  523   3.171   9.687   6.916
    8POPC   C3A  524   3.473   9.560   6.595
    8POPC   C4A  525   3.466   9.415   6.157
    8POPC   C1B  526   3.444   9.198   7.393
    8POPC   C2B  527   3.448   9.208   6.966
    8POPC   C3B  528   3.559   9.033   6.550
    8POPC   C4B  529   3.745   8.954   6.153
    9POPC   NC3  530   2.603   7.866   8.394
    9POPC   PO4  531   3.056   8.227   8.108
    9POPC   GL1  532   2.697   7.980   7.886
    9POPC   GL2  533   2.442   8.154   7.706
    9POPC   C1A  534   2.625   7.746   7.457
    9POPC   D2A  535   2.857   7.657   7.052
    9POPC   C3A  536   2.667   7.743   6.641
    9POPC   C4A  537   2.507   7.524   6.264
    9POPC   C1B  538   2.878   8.196   7.454
    9POPC   C2B  539   3.028   8.147   7.035
    9POPC   C3B  540   3.017   8.109   6.560
    9POPC   C4B  541   2.799   7.962   6.171
   10POPC   NC3  542   8.508   7.041   8.201
   10POPC   PO4  543   8.462   7.604   8.409
   10POPC   GL1  544   8.668   7.454   7.922
   10POPC   GL2  545   8.599   7.099   7.702
   10POPC   C1A  546   8.721   7.518   7.412
   10POPC   D2A  547   8.564   7.728   6.972
   10POPC   C3A  548   8.426   7.532   6.532
   10POPC   C4A  549   8.420   7.518   6.046
   10POPC   C1B  550   8.720   7.028   7.247
   10POPC   C2B  551   8.703   7.159   6.788
   10POPC   C3B  552   8.717   7.017   6.341
   10POPC   C4B  553   8.767   7.169   5.889
   11POPC   NC3  554   6.124   9.081   8.256
   11POPC   PO4  555   6.290   8.398   8.200
   11POPC   GL1  556   6.307   8.607   7.775
   11POPC   GL2  557   6.618   8.794   7.741
   11POPC   C1A  558   6.335   8.580   7.300
   11POPC   D2A  559   6.662   8.415   6.995
   11POPC   C3A  560   6.545   8.505   6.549
   11POPC   C4A  561   6.437   8.543   6.103
   11POPC   C1B  562   6.728   8.886   7.322
   11POPC   C2B  563   6.650   8.910   6.878
   11POPC   C3B  564   6.634   8.993   6.460
   11POPC   C4B  565   6.194   8.971   6.260
   12POPC   NC3  566   5.055   1.171   8.105
   12POPC   PO4  567   5.257   1.819   8.073
   12POPC   GL1  568   4.924   1.588   7.775
   12POPC   GL2  569   4.908   1.280   7.654
   12POPC   C1A  570   4.710   1.527   7.294
   12POPC   D2A  571   4.991   1.416   6.923
   12POPC   C3A  572   4.865   1.601   6.551
   12POPC   C4A  573   4.907   1.447   6.150
   12POPC   C1B  574   4.922   1.047   7.299
   12POPC   C2B  575   4.702   1.015   6.919
   12POPC   C3B  576   4.923   1.091   6.525
   12POPC   C4B  577   4.718   0.952   6.172
   13POPC   NC3  578   0.255   9.525   7.904
   13POPC   PO4  579  10.036   9.419   8.067
   13POPC   GL1  580  10.253   9.548   7.724
   13POPC   GL2  581  10.368   9.208   7.670
   13POPC   C1A  582  10.186   9.805   7.349
   13POPC   D2A  583  10.329   9.783   6.922
   13POPC   C3A  584  10.095   9.890   6.529
   13POPC   C4A  585  10.213   9.664   6.125
   13POPC   C1B  586  10.329   9.289   7.243
   13POPC   C2B  587  10.498   9.276   6.818
   13POPC   C3B  588  10.171   9.377   6.557
   13POPC   C4B  589   9.998   9.213   6.202
   14POPC   NC3  590   1.725   5.533   8.418
   14POPC   PO4  591   1.110   5.445   8.175
   14POPC   GL1  592   1.154   5.546   7.729
   14POPC   GL2  593   1.340   5.277   7.573
   14POPC   C1A  594   1.110   5.809   7.350
   14POPC   D2A  595   1.257   5.674   6.920
   14POPC   C3A  596   1.103   5.883   6.512
   14POPC   C4A  597   1.154   5.689   6.103
   14POPC   C1B  598   0.926   5.350   7.302
   14POPC   C2B  599   0.807   5.376   6.838
   14POPC   C3B  600   0.859   5.375   6.368
   14POPC   C4B  601   0.860   5.301   5.882
   15POPC   NC3  602   8.562   3.370   8.017
   15POPC   PO4  603   8.697   3.994   7.782
   15POPC   GL1  604   8.699   3.660   7.471
   15POPC   GL2  605   8.686   3.273   7.520
   15POPC   C1A  606   8.823   3.522   7.050
   15POPC   D2A  607   8.608   3.426   6.658
   15POPC   C3A  608   8.850   3.317   6.321
   15POPC   C4A  609   8.803   3.536   5.957
   15POPC   C1B  610   8.355   3.381   7.194
   15POPC   C2B  611   8.208   3.668   6.862
   15POPC   C3B  612   8.103   3.527   6.445
   15POPC   C4B  613   8.354   3.368   6.120
   16POPC   NC3  614   0.501   2.749   8.073
   16POPC   PO4  615   0.297   2.092   8.170
   16POPC   GL1  616   0.358   2.382   7.746
   16POPC   GL2  617   0.127   2.669   7.716
   16POPC   C1A  618   0.128   2.388   7.312
   16POPC   D2A  619   0.148   2.638   6.924
   16POPC   C3A  620   0.427   2.534   6.569
   16POPC   C4A  621   0.106   2.444   6.261
   16POPC   C1B  622   0.402   2.815   7.348
   16POPC   C2B  623   0.452   3.060   6.966
   16POPC   C3B  624   0.323   3.042   6.536
   16POPC   C4B  625   0.453   2.855   6.153
   17POPC   NC3  626   8.896   7.798   8.302
   17POPC   PO4  627   8.493   8.090   7.888
   17POPC   GL1  628   8.731   8.118   7.575
   17POPC   GL2  629   8.952   7.863   7.710
   17POPC   C1A  630   8.599   8.259   7.181
   17POPC   D2A  631   8.291   8.198   6.885
   17POPC   C3A  632   8.493   8.099   6.552
   17POPC   C4A  633   8.622   8.198   6.141
   17POPC   C1B  634   9.040   7.882   7.235
   17POPC   C2B  635   8.950   8.086   6.829
   17POPC   C3B  636   8.939   7.911   6.420
   17POPC   C4B  637   8.888   7.492   6.288
   18POPC   NC3  638   2.822  10.079   8.385
   18POPC   PO4  639   3.306  10.285   7.943
   18POPC   GL1  640   3.591  10.203   7.640
   18POPC   GL2  641   3.916  10.094   7.767
   18POPC   C1A  642   3.543  10.275   7.214
   18POPC   D2A  643   3.416  10.150   6.786
   18POPC   C3A  644   3.596  10.390   6.410
   18POPC   C4A  645   3.408  10.332   5.976
   18POPC   C1B  646   3.857   9.840   7.400
   18POPC   C2B  647   3.754   9.817   6.997
   18POPC   C3B  648   3.823   9.916   6.588
   18POPC   C4B  649   3.541   9.920   6.243
   19POPC   NC3  650   9.627   8.329   7.914
   19POPC   PO4  651   9.365   7.810   8.427
   19POPC   GL1  652   9.439   7.725   7.873
   19POPC   GL2  653   9.435   7.967   7.622
   19POPC   C1A  654   9.328   7.513   7.435
   19POPC   D2A  655   9.107   7.425   7.004
   19POPC   C3A  656   9.294   7.610   6.605
   19POPC   C4A  657   9.317   7.740   6.121
   19POPC   C1B  658   9.560   8.142   7.270
   19POPC   C2B  659   9.459   8.006   6.887
   19POPC   C3B  660   9.430   8.107   6.466
   19POPC   C4B  661   9.692   8.097   6.110
   20POPC   NC3  662   8.395   9.146   8.135
   20POPC   PO4  663   8.996   8.946   8.010
   20POPC   GL1  664   8.682   9.125   7.679
   20POPC   GL2  665   8.481   9.437   7.681
   20POPC   C1A  666   8.581   9.196   7.215
   20POPC   D2A  667   8.732   9.087   6.800
   20POPC   C3A  668   8.555   9.161   6.413
   20POPC   C4A  669   8.835   9.251   6.111
   20POPC   C1B  670   8.892   9.528   7.448
   20POPC   C2B  671   8.916   9.583   7.000
   20POPC   C3B  672   8.595   9.598   6.682
   20POPC   C4B  673   8.557   9.657   6.242
   21POPC   NC3  674   9.500   4.598   8.549
   21POPC   PO4  675   9.406   4.462   7.897
   21POPC   GL1  676   9.479   4.734   7.635
   21POPC   GL2  677   9.515   5.026   7.805
   21POPC   C1A  678   9.462   4.722   7.214
   21POPC   D2A  679   9.351   4.878   6.849
   21POPC   C3A  680   9.324   4.619   6.501
   21POPC   C4A  681   9.010   4.640   6.212
   21POPC   C1B  682   9.639   5.181   7.403
   21POPC   C2B  683   9.366   5.355   7.102
   21POPC   C3B  684   9.338   5.357   6.672
   21POPC   C4B  685   9.440   5.093   6.366
   22POPC   NC3  686   0.832   0.889   8.085
   22POPC   PO4  687   1.409   0.800   8.044
   22POPC   GL1  688   1.178   0.912   7.687
   22POPC   GL2  689   1.023   1.233   7.761
   22POPC   C1A  690   1.179   1.096   7.278
   22POPC   D2A  691   1.396   1.095   6.907
   22POPC   C3A  692   1.206   0.895   6.587
   22POPC   C4A  693   1.161   1.081   6.209
   22POPC   C1B  694   1.236   1.543   7.527
   22POPC   C2B  695   1.237   1.577   7.086
   22POPC   C3B  696   1.092   1.456   6.671
   22POPC   C4B  697   1.391   1.516   6.358
   23POPC   NC3  698   6.859   8.765   8.192
   23POPC   PO4  699   7.298   9.259   8.218
   23POPC   GL1  700   7.056   9.092   7.843
   23POPC   GL2  701   7.169   8.729   7.770
   23POPC   C1A  702   7.197   9.048   7.397
   23POPC   D2A  703   7.154   8.806   6.998
   23POPC   C3A  704   7.256   8.921   6.552
   23POPC   C4A  705   7.045   8.824   6.152
   23POPC   C1B  706   7.043   8.470   7.400
   23POPC   C2B  707   7.160   8.269   7.010
   23POPC   C3B  708   7.051   8.463   6.619
   23POPC   C4B  709   6.913   8.345   6.221
   24POPC   NC3  710   0.088   6.416   8.294
   24POPC   PO4  711   9.968   6.383   8.148
   24POPC   GL1  712   9.864   6.415   7.723
   24POPC   GL2  713  10.161   6.285   7.668
   24POPC   C1A  714   9.828   6.250   7.240
   24POPC   D2A  715   9.964   6.445   6.823
   24POPC   C3A  716   9.687   6.289   6.500
   24POPC   C4A  717   9.810   6.028   6.188
   24POPC   C1B  718  10.308   6.387   7.260
   24POPC   C2B  719  10.458   6.377   6.820
   24POPC   C3B  720  10.305   6.391   6.384
   24POPC   C4B  721  10.415   6.601   6.002
   25POPC   NC3  722   5.362   0.386   8.205
   25POPC   PO4  723   4.653   0.203   8.177
   25POPC   GL1  724   4.862   0.401   7.789
   25POPC   GL2  725   4.946   0.766   7.745
   25POPC   C1A  726   4.936   0.260   7.317
   25POPC   D2A  727   5.083   0.356   6.881
   25POPC   C3A  728   4.950   0.179   6.467
   25POPC   C4A  729   5.184   0.211   6.072
   25POPC   C1B  730   4.626   0.659   7.431
   25POPC   C2B  731   4.557   0.536   7.001
   25POPC   C3B  732   4.738   0.624   6.594
   25POPC   C4B  733   5.129   0.651   6.348
   26POPC   NC3  734   5.956   1.234   8.041
   26POPC   PO4  735   5.417   0.832   8.031
   26POPC   GL1  736   5.366   1.051   7.612
   26POPC   GL2  737   5.430   1.413   7.685
   26POPC   C1A  738   5.401   1.146   7.128
   26POPC   D2A  739   5.805   1.236   6.854
   26POPC   C3A  740   5.760   1.131   6.424
   26POPC   C4A  741   5.367   1.083   6.148
   26POPC   C1B  742   5.688   1.512   7.282
   26POPC   C2B  743   5.483   1.626   6.859
   26POPC   C3B  744   5.402   1.546   6.409
   26POPC   C4B  745   5.710   1.481   6.067
   27POPC   NC3  746   9.412   5.163   8.286
   27POPC   PO4  747   9.638   5.827   8.216
   27POPC   GL1  748   9.454   5.788   7.800
   27POPC   GL2  749   9.691   5.961   7.632
   27POPC   C1A  750   9.281   5.813   7.355
   27POPC   D2A  751   9.469   5.931   6.937
   27POPC   C3A  752   9.268   5.895   6.516
   27POPC   C4A  753   9.340   5.955   6.084
   27POPC   C1B  754   9.764   5.678   7.289
   27POPC   C2B  755   9.828   5.487   6.906
   27POPC   C3B  756   9.714   5.673   6.550
   27POPC   C4B  757   9.632   5.528   6.180
   28POPC   NC3  758   5.318   9.155   7.921
   28POPC   PO4  759   5.710   9.735   8.059
   28POPC   GL1  760   5.540   9.552   7.721
   28POPC   GL2  761   5.839   9.432   7.638
   28POPC   C1A  762   5.396   9.348   7.306
   28POPC   D2A  763   5.217   9.466   6.912
   28POPC   C3A  764   5.373   9.306   6.518
   28POPC   C4A  765   5.410   9.542   6.146
   28POPC   C1B  766   5.789   9.722   7.323
   28POPC   C2B  767   5.611   9.832   6.938
   28POPC   C3B  768   5.734   9.647   6.551
   28POPC   C4B  769   5.936   9.430   6.223
   29POPC   NC3  770   9.515   2.598   8.383
   29POPC   PO4  771   9.721   3.213   8.165
   29POPC   GL1  772   9.644   2.850   7.862
   29POPC   GL2  773   9.275   2.746   7.778
   29POPC   C1A  774   9.621   2.712   7.405
   29POPC   D2A  775   9.291   2.775   7.075
   29POPC   C3A  776   9.425   2.876   6.666
   29POPC   C4A  777   9.649   2.627   6.354
   29POPC   C1B  778   9.215   2.400   7.448
   29POPC   C2B  779   9.127   2.293   7.015
   29POPC   C3B  780   9.241   2.398   6.597
   29POPC   C4B  781   9.232   2.385   6.154
   30POPC   NC3  782   2.689   3.448   8.509
   30POPC   PO4  783   2.293   3.298   8.156
   30POPC   GL1  784   2.325   3.460   7.754
   30POPC   GL2  785   2.336   3.150   7.584
   30POPC   C1A  786   2.568   3.546   7.355
   30POPC   D2A  787   2.712   3.346   6.969
   30POPC   C3A  788   2.568   3.487   6.535
   30POPC   C4A  789   2.439   3.426   6.089
   30POPC   C1B  790   2.805   3.088   7.472
   30POPC   C2B  791   2.986   2.915   7.074
   30POPC   C3B  792   2.960   3.050   6.630
   30POPC   C4B  793   3.143   3.266   6.260
   31POPC   NC3  794   4.666  10.184   8.355
   31POPC   PO4  795   4.179   9.834   8.130
   31POPC   GL1  796   4.443   9.950   7.807
   31POPC   GL2  797   4.398  10.275   7.680
   31POPC   C1A  798   4.405   9.854   7.359
   31POPC   D2A  799   4.317  10.035   6.935
   31POPC   C3A  800   4.321   9.812   6.557
   31POPC   C4A  801   4.414   9.953   6.167
   31POPC   C1B  802   4.091  10.280   7.317
   31POPC   C2B  803   3.898  10.339   6.873
   31POPC   C3B  804   4.136  10.298   6.491
   31POPC   C4B  805   4.157   0.048   6.149
   32POPC   NC3  806   2.786   5.304   8.618
   32POPC   PO4  807   2.362   5.222   8.150
   32POPC   GL1  808   2.437   5.332   7.650
   32POPC   GL2  809   2.436   5.716   7.597
   32POPC   C1A  810   2.574   5.433   7.196
   32POPC   D2A  811   2.679   5.628   6.790
   32POPC   C3A  812   2.862   5.394   6.412
   32POPC   C4A  813   3.109   5.443   5.999
   32POPC   C1B  814   2.427   5.942   7.171
   32POPC   C2B  815   2.256   5.940   6.735
   32POPC   C3B  816   2.427   5.716   6.362
   32POPC   C4B  817   2.402   5.873   5.927
   33POPC   NC3  818   5.684  10.195   8.148
   33POPC   PO4  819   6.332  10.114   8.046
   33POPC   GL1  820   5.976  10.075   7.686
   33POPC   GL2  821   5.595  10.097   7.675
   33POPC   C1A  822   5.805  10.212   7.250
   33POPC   D2A  823   5.945  10.373   6.882
   33POPC   C3A  824   5.808  10.143   6.539
   33POPC   C4A  825   5.977  10.154   6.127
   33POPC   C1B  826   5.310  10.329   7.352
   33POPC   C2B  827   5.414  10.326   6.904
   33POPC   C3B  828   5.358  10.384   6.465
   33POPC   C4B  829   5.476  10.214   6.069
   34POPC   NC3  830   6.176   9.680   7.973
   34POPC   PO4  831   6.565   9.149   8.166
   34POPC   GL1  832   6.397   9.270   7.746
   34POPC   GL2  833   6.698   9.349   7.555
   34POPC   C1A  834   6.236   9.487   7.341
   34POPC   D2A  835   6.104   9.629   6.925
   34POPC   C3A  836   6.236   9.327   6.619
   34POPC   C4A  837   6.482   9.409   6.225
   34POPC   C1B  838   6.662   9.682   7.214
   34POPC   C2B  839   6.604   9.597   6.807
   34POPC   C3B  840   6.750   9.766   6.465
   34POPC   C4B  841   6.943   9.834   6.101
   35POPC   NC3  842   0.609   1.849   7.914
   35POPC   PO4  843  10.402   1.760   7.979
   35POPC   GL1  844   0.175   1.641   7.756
   35POPC   GL2  845   0.198   1.936   7.608
   35POPC   C1A  846   0.218   1.530   7.328
   35POPC   D2A  847   0.414   1.652   6.951
   35POPC   C3A  848   0.483   1.505   6.582
   35POPC   C4A  849   0.400   1.685   6.203
   35POPC   C1B  850   0.470   2.017   7.308
   35POPC   C2B  851   0.398   2.166   6.927
   35POPC   C3B  852   0.275   2.036   6.550
   35POPC   C4B  853   0.557   2.162   6.198
   36POPC   NC3  854   3.456   0.987   8.257
   36POPC   PO4  855   3.138   1.420   7.936
   36POPC   GL1  856   3.393   1.148   7.686
   36POPC   GL2  857   3.562   0.801   7.638
   36POPC   C1A  858   3.279   1.079   7.283
   36POPC   D2A  859   3.036   1.059   6.944
   36POPC   C3A  860   3.303   1.185   6.607
   36POPC   C4A  861   3.175   1.337   6.210
   36POPC   C1B  862   3.785   1.031   7.304
   36POPC   C2B  863   3.789   1.249   6.947
   36POPC   C3B  864   3.844   1.081   6.576
   36POPC   C4B  865   3.679   1.214   6.223
   37POPC   NC3  866   9.803   4.275   8.045
   37POPC   PO4  867   0.016   4.377   8.018
   37POPC   GL1  868  10.333   4.440   7.682
   37POPC   GL2  869  10.085   4.180   7.629
   37POPC   C1A  870  10.406   4.436   7.287
   37POPC   D2A  871  10.136   4.455   6.978
   37POPC   C3A  872  10.368   4.487   6.642
   37POPC   C4A  873  10.251   4.629   6.241
   37POPC   C1B  874  10.294   3.938   7.306
   37POPC   C2B  875  10.159   3.945   6.913
   37POPC   C3B  876   9.990   4.179   6.577
   37POPC   C4B  877  10.149   4.130   6.177
   38POPC   NC3  878   7.591   0.107   7.867
   38POPC   PO4  879   7.663   0.763   7.996
   38POPC   GL1  880   7.849   0.504   7.675
   38POPC   GL2  881   7.983   0.142   7.558
   38POPC   C1A  882   7.817   0.582   7.267
   38POPC   D2A  883   7.940   0.898   7.031
   38POPC   C3A  884   7.904   0.787   6.639
   38POPC   C4A  885   8.001   0.775   6.259
   38POPC   C1B  886   7.971   0.108   7.139
   38POPC   C2B  887   7.702   0.296   6.836
   38POPC   C3B  888   7.904   0.264   6.476
   38POPC   C4B  889   7.901   0.292   6.063
   39POPC   NC3  890   8.047   1.973   8.102
   39POPC   PO4  891   7.472   1.607   8.197
   39POPC   GL1  892   7.598   1.687   7.741
   39POPC   GL2  893   7.946   1.777   7.657
   39POPC   C1A  894   7.658   1.638   7.267
   39POPC   D2A  895   7.896   1.706   6.890
   39POPC   C3A  896   7.580   1.722   6.554
   39POPC   C4A  897   7.393   1.766   6.146
   39POPC   C1B  898   8.029   2.003   7.306
   39POPC   C2B  899   8.210   2.122   6.901
   39POPC   C3B  900   7.997   2.018   6.504
   39POPC   C4B  901   7.820   2.120   6.157
   40POPC   NC3  902  10.346   7.894   8.012
   40POPC   PO4  903   9.876   7.369   8.011
   40POPC   GL1  904   9.875   7.598   7.626
   40POPC   GL2  905   9.942   7.957   7.654
   40POPC   C1A  906   9.791   7.669   7.185
   40POPC   D2A  907   9.970   7.946   6.862
   40POPC   C3A  908  10.040   7.827   6.416
   40POPC   C4A  909  10.415   7.794   6.111
   40POPC   C1B  910  10.267   7.830   7.346
   40POPC   C2B  911  10.470   8.004   6.974
   40POPC   C3B  912  10.402   8.183   6.556
   40POPC   C4B  913  10.201   8.258   6.142
   41POPC   NC3  914   2.184   4.751   8.042
   41POPC   PO4  915   1.716   5.291   8.027
   41POPC   GL1  916   1.878   5.264   7.595
   41POPC   GL2  917   1.818   4.933   7.540
   41POPC   C1A  918   2.202   5.092   7.256
   41POPC   D2A  919   2.192   4.957   6.796
   41POPC   C3A  920   2.395   5.160   6.417
   41POPC   C4A  921   2.318   4.945   6.006
   41POPC   C1B  922   1.741   5.201   7.111
   41POPC   C2B  923   1.693   5.129   6.673
   41POPC   C3B  924   1.929   4.912   6.342
   41POPC   C4B  925   1.805   4.637   5.979
   42POPC   NC3  926   7.655   8.475   8.103
   42POPC   PO4  927   8.321   8.445   8.332
   42POPC   GL1  928   8.143   8.461   7.827
   42POPC   GL2  929   7.814   8.652   7.645
   42POPC   C1A  930   8.112   8.385   7.343
   42POPC   D2A  931   7.888   8.503   6.934
   42POPC   C3A  932   7.919   8.322   6.513
   42POPC   C4A  933   8.162   8.385   6.143
   42POPC   C1B  934   7.628   8.818   7.245
   42POPC   C2B  935   7.776   8.973   6.817
   42POPC   C3B  936   7.743   8.873   6.382
   42POPC   C4B  937   7.508   9.010   5.993
   43POPC   NC3  938   1.180   5.901   8.098
   43POPC   PO4  939   1.255   6.600   8.087
   43POPC   GL1  940   1.353   6.268   7.796
   43POPC   GL2  941   1.038   6.203   7.659
   43POPC   C1A  942   1.482   6.141   7.402
   43POPC   D2A  943   1.252   6.200   7.034
   43POPC   C3A  944   1.437   6.361   6.670
   43POPC   C4A  945   1.489   6.168   6.280
   43POPC   C1B  946   1.158   6.583   7.418
   43POPC   C2B  947   1.166   6.812   7.034
   43POPC   C3B  948   1.235   6.896   6.598
   43POPC   C4B  949   1.127   6.588   6.313
   44POPC   NC3  950   1.443   3.195   8.386
   44POPC   PO4  951   0.884   3.015   8.031
   44POPC   GL1  952   1.153   3.192   7.698
   44POPC   GL2  953   1.256   3.555   7.756
   44POPC   C1A  954   1.216   3.326   7.271
   44POPC   D2A  955   1.154   3.578   6.918
   44POPC   C3A  956   1.266   3.304   6.625
   44POPC   C4A  957   1.071   3.275   6.260
   44POPC   C1B  958   1.461   3.762   7.381
   44POPC   C2B  959   1.659   3.556   7.025
   44POPC   C3B  960   1.603   3.693   6.620
   44POPC   C4B  961   1.423   3.623   6.236
   45POPC   NC3  962   1.210   9.554   7.951
   45POPC   PO4  963   0.807   8.991   8.161
   45POPC   GL1  964   0.876   9.152   7.718
   45POPC   GL2  965   1.047   9.440   7.505
   45POPC   C1A  966   0.794   9.106   7.263
   45POPC   D2A  967   1.075   9.358   6.988
   45POPC   C3A  968   0.916   9.442   6.606
   45POPC   C4A  969   0.894   9.176   6.255
   45POPC   C1B  970   1.411   9.586   7.327
   45POPC   C2B  971   1.458   9.735   6.928
   45POPC   C3B  972   1.423   9.516   6.579
   45POPC   C4B  973   1.251   9.503   6.208
   46POPC   NC3  974   8.840   2.496   8.415
   46POPC   PO4  975   8.434   2.996   8.271
   46POPC   GL1  976   8.497   2.810   7.791
   46POPC   GL2  977   8.754   2.527   7.774
   46POPC   C1A  978   8.363   2.857   7.312
   46POPC   D2A  979   8.575   2.986   6.925
   46POPC   C3A  980   8.422   2.974   6.487
   46POPC   C4A  981   8.618   2.919   6.089
   46POPC   C1B  982   8.810   2.652   7.312
   46POPC   C2B  983   8.636   2.469   6.917
   46POPC   C3B  984   8.754   2.590   6.495
   46POPC   C4B  985   9.076   2.841   6.288
   47POPC   NC3  986   0.583   8.601   8.018
   47POPC   PO4  987   0.137   9.108   8.099
   47POPC   GL1  988   0.151   8.753   7.749
   47POPC   GL2  989   0.495   8.690   7.529
   47POPC   C1A  990   0.042   8.502   7.380
   47POPC   D2A  991   0.199   8.459   6.971
   47POPC   C3A  992   0.280   8.710   6.630
   47POPC   C4A  993   0.138   8.535   6.219
   47POPC   C1B  994   0.654   8.648   7.104
   47POPC   C2B  995   0.820   8.426   6.766
   47POPC   C3B  996   0.841   8.720   6.452
   47POPC   C4B  997   0.494   8.877   6.189
   48POPC   NC3  998   2.820   0.543   8.121
   48POPC   PO4  999   2.662  10.425   8.109
   48POPC   GL1 1000   2.560   0.264   7.746
   48POPC   GL2 1001   2.654   0.630   7.631
   48POPC   C1A 1002   2.602   0.256   7.290
   48POPC   D2A 1003   2.581   0.521   6.944
   48POPC   C3A 1004   2.725   0.347   6.563
   48POPC   C4A 1005   2.516   0.379   6.176
   48POPC   C1B 1006   2.954   0.665   7.284
   48POPC   C2B 1007   3.091   0.563   6.863
   48POPC   C3B 1008   3.041   0.761   6.524
   48POPC   C4B 1009   2.921   0.680   6.172
   49POPC   NC3 1010   9.655   0.255   8.381
   49POPC   PO4 1011   9.632   0.731   7.918
   49POPC   GL1 1012   9.575   0.445   7.617
   49POPC   GL2 1013   9.219   0.419   7.633
   49POPC   C1A 1014   9.502   0.300   7.197
   49POPC   D2A 1015   9.137   0.152   6.956
   49POPC   C3A 1016   9.336   0.186   6.553
   49POPC   C4A 1017   9.639   0.208   6.219
   49POPC   C1B 1018   9.289   0.740   7.294
   49POPC   C2B 1019   9.311   0.640   6.844
   49POPC   C3B 1020   9.345   0.673   6.385
   49POPC   C4B 1021   9.272   0.452   5.994
   50POPC   NC3 1022   3.870   1.064   7.924
   50POPC   PO4 1023   4.544   1.193   8.177
   50POPC   GL1 1024   4.480   1.028   7.781
   50POPC   GL2 1025   4.252   0.778   7.762
   50POPC   C1A 1026   4.399   1.110   7.341
   50POPC   D2A 1027   4.320   1.359   6.959
   50POPC   C3A 1028   4.444   1.290   6.536
   50POPC   C4A 1029   4.394   1.579   6.191
   50POPC   C1B 1030   4.125   0.660   7.354
   50POPC   C2B 1031   4.151   0.863   6.962
   50POPC   C3B 1032   4.227   0.723   6.573
   50POPC   C4B 1033   4.198   0.974   6.211
   51POPC   NC3 1034   3.173   2.715   8.030
   51POPC   PO4 1035   3.744   2.774   8.093
   51POPC   GL1 1036   3.593   2.726   7.645
   51POPC   GL2 1037   3.387   2.414   7.639
   51POPC   C1A 1038   3.582   2.927   7.192
   51POPC   D2A 1039   3.436   2.978   6.754
   51POPC   C3A 1040   3.634   3.041   6.345
   51POPC   C4A 1041   3.545   3.177   5.900
   51POPC   C1B 1042   3.272   2.496   7.206
   51POPC   C2B 1043   3.154   2.529   6.774
   51POPC   C3B 1044   3.347   2.620   6.376
   51POPC   C4B 1045   3.252   2.351   6.009
   52POPC   NC3 1046   2.525   1.183   7.952
   52POPC   PO4 1047   2.865   1.611   8.368
   52POPC   GL1 1048   2.715   1.611   7.779
   52POPC   GL2 1049   2.852   1.256   7.566
   52POPC   C1A 1050   2.650   1.590   7.259
   52POPC   D2A 1051   2.884   1.522   6.828
   52POPC   C3A 1052   2.759   1.208   6.491
   52POPC   C4A 1053   2.570   1.346   6.083
   52POPC   C1B 1054   2.594   1.026   7.266
   52POPC   C2B 1055   2.355   0.986   6.880
   52POPC   C3B 1056   2.463   0.786   6.504
   52POPC   C4B 1057   2.437   0.867   6.083
   53POPC   NC3 1058   3.469   7.960   8.101
   53POPC   PO4 1059   3.915   8.474   7.999
   53POPC   GL1 1060   3.676   8.344   7.620
   53POPC   GL2 1061   3.352   8.154   7.656
   53POPC   C1A 1062   3.545   8.226   7.185
   53POPC   D2A 1063   3.435   8.296   6.775
   53POPC   C3A 1064   3.493   8.026   6.415
   53POPC   C4A 1065   3.297   8.066   6.008
   53POPC   C1B 1066   3.287   7.818   7.355
   53POPC   C2B 1067   3.366   7.784   6.894
   53POPC   C3B 1068   3.160   7.622   6.507
   53POPC   C4B 1069   3.158   7.587   6.060
   54POPC   NC3 1070   3.626   8.839   7.912
   54POPC   PO4 1071   3.059   9.025   7.984
   54POPC   GL1 1072   3.028   8.917   7.583
   54POPC   GL2 1073   3.254   8.652   7.588
   54POPC   C1A 1074   2.952   8.687   7.189
   54POPC   D2A 1075   3.234   8.752   6.880
   54POPC   C3A 1076   3.172   8.655   6.493
   54POPC   C4A 1077   3.219   8.927   6.154
   54POPC   C1B 1078   3.596   8.727   7.249
   54POPC   C2B 1079   3.785   8.661   6.818
   54POPC   C3B 1080   3.665   8.512   6.379
   54POPC   C4B 1081   3.509   8.550   5.931
   55POPC   NC3 1082   1.382   4.159   8.127
   55POPC   PO4 1083   0.984   4.613   8.102
   55POPC   GL1 1084   0.930   4.355   7.726
   55POPC   GL2 1085   1.072   4.038   7.727
   55POPC   C1A 1086   1.165   4.400   7.316
   55POPC   D2A 1087   1.266   4.570   6.885
   55POPC   C3A 1088   1.019   4.514   6.538
   55POPC   C4A 1089   1.099   4.417   6.128
   55POPC   C1B 1090   0.993   3.922   7.292
   55POPC   C2B 1091   1.332   4.057   6.952
   55POPC   C3B 1092   1.249   4.050   6.501
   55POPC   C4B 1093   0.927   3.748   6.385
   56POPC   NC3 1094   9.513   8.256   8.430
   56POPC   PO4 1095   9.691   8.788   8.061
   56POPC   GL1 1096   9.463   8.788   7.659
   56POPC   GL2 1097   9.255   9.074   7.573
   56POPC   C1A 1098   9.444   8.710   7.206
   56POPC   D2A 1099   9.283   8.480   6.834
   56POPC   C3A 1100   9.475   8.614   6.509
   56POPC   C4A 1101   9.461   8.577   6.081
   56POPC   C1B 1102   9.111   9.128   7.182
   56POPC   C2B 1103   9.220   8.974   6.800
   56POPC   C3B 1104   9.075   8.915   6.395
   56POPC   C4B 1105   9.295   9.056   6.014
   57POPC   NC3 1106   1.095   7.835   8.174
   57POPC   PO4 1107   1.357   8.317   7.872
   57POPC   GL1 1108   1.271   7.948   7.681
   57POPC   GL2 1109   0.905   7.913   7.701
   57POPC   C1A 1110   1.397   7.999   7.264
   57POPC   D2A 1111   1.487   7.752   6.930
   57POPC   C3A 1112   1.341   7.889   6.557
   57POPC   C4A 1113   1.529   7.856   6.200
   57POPC   C1B 1114   0.842   7.765   7.289
   57POPC   C2B 1115   0.984   7.936   6.927
   57POPC   C3B 1116   0.821   7.933   6.526
   57POPC   C4B 1117   0.979   7.954   6.151
   58POPC   NC3 1118   2.097   7.314   7.984
   58POPC   PO4 1119   1.470   7.575   8.029
   58POPC   GL1 1120   1.612   7.284   7.674
   58POPC   GL2 1121   1.925   7.256   7.524
   58POPC   C1A 1122   1.540   7.083   7.271
   58POPC   D2A 1123   1.739   7.304   6.906
   58POPC   C3A 1124   1.618   7.206   6.464
   58POPC   C4A 1125   1.682   6.761   6.277
   58POPC   C1B 1126   2.327   7.327   7.345
   58POPC   C2B 1127   2.399   7.408   6.920
   58POPC   C3B 1128   2.116   7.452   6.592
   58POPC   C4B 1129   2.065   7.210   6.208
   59POPC   NC3 1130   6.911   9.498   8.168
   59POPC   PO4 1131   7.534   9.901   8.148
   59POPC   GL1 1132   7.285   9.615   7.830
   59POPC   GL2 1133   7.480   9.333   7.710
   59POPC   C1A 1134   7.132   9.561   7.378
   59POPC   D2A 1135   6.919   9.290   7.062
   59POPC   C3A 1136   7.005   9.349   6.638
   59POPC   C4A 1137   7.024   9.323   6.209
   59POPC   C1B 1138   7.634   9.327   7.319
   59POPC   C2B 1139   7.410   9.271   6.978
   59POPC   C3B 1140   7.517   9.360   6.603
   59POPC   C4B 1141   7.559   9.442   6.245
   60POPC   NC3 1142   0.556   7.560   7.878
   60POPC   PO4 1143   0.665   8.163   8.109
   60POPC   GL1 1144   0.457   8.198   7.711
   60POPC   GL2 1145   0.198   7.964   7.633
   60POPC   C1A 1146   0.553   8.197   7.290
   60POPC   D2A 1147   0.480   8.043   6.896
   60POPC   C3A 1148   0.408   8.233   6.528
   60POPC   C4A 1149   0.640   8.346   6.203
   60POPC   C1B 1150   0.308   7.722   7.264
   60POPC   C2B 1151   0.486   7.555   6.865
   60POPC   C3B 1152   0.287   7.740   6.483
   60POPC   C4B 1153   0.448   7.907   6.074
   61POPC   NC3 1154   2.645   1.948   8.164
   61POPC   PO4 1155   2.043   2.176   8.293
   61POPC   GL1 1156   2.308   2.180   7.804
   61POPC   GL2 1157   2.641   2.115   7.688
   61POPC   C1A 1158   2.379   2.041   7.281
   61POPC   D2A 1159   2.581   1.921   6.835
   61POPC   C3A 1160   2.475   2.163   6.420
   61POPC   C4A 1161   2.341   2.195   5.935
   61POPC   C1B 1162   2.979   1.970   7.428
   61POPC   C2B 1163   3.081   2.049   6.992
   61POPC   C3B 1164   3.011   2.039   6.557
   61POPC   C4B 1165   2.765   1.712   6.360
   62POPC   NC3 1166   4.165   2.597   8.081
   62POPC   PO4 1167   4.592   3.072   7.905
   62POPC   GL1 1168   4.374   2.765   7.571
   62POPC   GL2 1169   4.090   2.506   7.585
   62POPC   C1A 1170   4.206   2.712   7.112
   62POPC   D2A 1171   3.963   2.968   6.806
   62POPC   C3A 1172   4.157   3.046   6.409
   62POPC   C4A 1173   4.025   2.991   5.997
   62POPC   C1B 1174   3.773   2.459   7.242
   62POPC   C2B 1175   3.679   2.542   6.801
   62POPC   C3B 1176   3.899   2.585   6.396
   62POPC   C4B 1177   4.340   2.494   6.290
   63POPC   NC3 1178   2.840   8.628   8.006
   63POPC   PO4 1179   2.325   9.092   8.115
   63POPC   GL1 1180   2.521   8.941   7.745
   63POPC   GL2 1181   2.599   8.617   7.578
   63POPC   C1A 1182   2.604   9.051   7.336
   63POPC   D2A 1183   2.511   8.878   6.981
   63POPC   C3A 1184   2.727   8.896   6.610
   63POPC   C4A 1185   2.599   8.893   6.211
   63POPC   C1B 1186   2.494   8.408   7.209
   63POPC   C2B 1187   2.685   8.428   6.806
   63POPC   C3B 1188   2.679   8.425   6.381
   63POPC   C4B 1189   2.999   8.468   6.063
   64POPC   NC3 1190   5.799   0.527   7.928
   64POPC   PO4 1191   5.299  10.455   8.021
   64POPC   GL1 1192   5.554   0.131   7.702
   64POPC   GL2 1193   5.370   0.452   7.642
   64POPC   C1A 1194   5.661   0.193   7.239
   64POPC   D2A 1195   5.587   0.275   6.785
   64POPC   C3A 1196   5.805   0.138   6.426
   64POPC   C4A 1197   5.687   0.163   5.982
   64POPC   C1B 1198   5.583   0.691   7.292
   64POPC   C2B 1199   5.604   0.773   6.834
   64POPC   C3B 1200   5.638   0.635   6.413
   64POPC   C4B 1201   5.935   0.572   6.127
   65POPC   NC3 1202   8.963   4.353   7.911
   65POPC   PO4 1203   9.501   4.110   8.365
   65POPC   GL1 1204   9.346   3.973   7.870
   65POPC   GL2 1205   9.624   3.879   7.684
   65POPC   C1A 1206   9.306   4.161   7.368
   65POPC   D2A 1207   9.431   4.297   6.929
   65POPC   C3A 1208   9.105   4.187   6.634
   65POPC   C4A 1209   9.191   4.146   6.212
   65POPC   C1B 1210   9.752   3.918   7.240
   65POPC   C2B 1211   9.677   3.828   6.793
   65POPC   C3B 1212   9.627   3.907   6.363
   65POPC   C4B 1213   9.667   4.348   6.215
   66POPC   NC3 1214   1.455  10.239   8.236
   66POPC   PO4 1215   0.903   0.064   8.170
   66POPC   GL1 1216   1.180  10.416   7.802
   66POPC   GL2 1217   1.218  10.065   7.761
   66POPC   C1A 1218   1.354  10.466   7.379
   66POPC   D2A 1219   1.331  10.224   6.958
   66POPC   C3A 1220   1.432  10.395   6.596
   66POPC   C4A 1221   1.330  10.355   6.195
   66POPC   C1B 1222   1.093   9.991   7.341
   66POPC   C2B 1223   0.954   9.875   6.900
   66POPC   C3B 1224   1.118   9.948   6.466
   66POPC   C4B 1225   1.137   9.938   5.988
   67POPC   NC3 1226  10.330   1.326   8.139
   67POPC   PO4 1227   0.481   1.157   8.165
   67POPC   GL1 1228   0.219   1.131   7.787
   67POPC   GL2 1229   0.522   1.268   7.658
   67POPC   C1A 1230   0.245   1.028   7.311
   67POPC   D2A 1231   0.068   1.235   6.945
   67POPC   C3A 1232   0.191   1.088   6.567
   67POPC   C4A 1233   0.261   0.976   6.150
   67POPC   C1B 1234   0.753   1.449   7.318
   67POPC   C2B 1235   0.759   1.197   6.960
   67POPC   C3B 1236   0.721   1.050   6.543
   67POPC   C4B 1237   0.721   1.300   6.179
   68POPC   NC3 1238   8.725   6.615   7.972
   68POPC   PO4 1239   8.466   6.093   7.703
   68POPC   GL1 1240   8.822   6.257   7.543
   68POPC   GL2 1241   8.946   6.631   7.517
   68POPC   C1A 1242   8.843   6.027   7.163
   68POPC   D2A 1243   8.615   5.995   6.747
   68POPC   C3A 1244   8.803   6.055   6.361
   68POPC   C4A 1245   8.928   6.188   5.966
   68POPC   C1B 1246   8.756   6.524   7.121
   68POPC   C2B 1247   8.658   6.550   6.699
   68POPC   C3B 1248   8.579   6.524   6.282
   68POPC   C4B 1249   8.401   6.841   5.957
   69POPC   NC3 1250   7.707   9.473   8.126
   69POPC   PO4 1251   8.017   8.905   8.031
   69POPC   GL1 1252   8.010   9.172   7.669
   69POPC   GL2 1253   7.956   9.543   7.689
   69POPC   C1A 1254   8.074   9.064   7.233
   69POPC   D2A 1255   8.241   9.200   6.826
   69POPC   C3A 1256   8.036   9.299   6.434
   69POPC   C4A 1257   8.236   9.353   6.019
   69POPC   C1B 1258   8.124   9.570   7.287
   69POPC   C2B 1259   7.882   9.543   6.913
   69POPC   C3B 1260   7.798   9.809   6.565
   69POPC   C4B 1261   7.964   9.761   6.167
   70POPC   NC3 1262   1.271   5.003   8.095
   70POPC   PO4 1263   1.743   4.437   8.144
   70POPC   GL1 1264   1.441   4.610   7.735
   70POPC   GL2 1265   1.129   4.813   7.664
   70POPC   C1A 1266   1.410   4.852   7.277
   70POPC   D2A 1267   1.250   5.141   6.989
   70POPC   C3A 1268   1.197   5.022   6.588
   70POPC   C4A 1269   1.431   4.769   6.303
   70POPC   C1B 1270   0.879   4.841   7.321
   70POPC   C2B 1271   0.810   4.808   6.930
   70POPC   C3B 1272   0.703   4.911   6.543
   70POPC   C4B 1273   0.935   4.894   6.166
   71POPC   NC3 1274  10.407   2.233   7.921
   71POPC   PO4 1275   9.822   2.233   8.337
   71POPC   GL1 1276   9.872   2.222   7.848
   71POPC   GL2 1277   9.979   1.917   7.736
   71POPC   C1A 1278   9.986   2.268   7.364
   71POPC   D2A 1279  10.270   2.257   6.976
   71POPC   C3A 1280  10.251   2.043   6.575
   71POPC   C4A 1281  10.447   1.939   6.173
   71POPC   C1B 1282  10.260   1.837   7.354
   71POPC   C2B 1283  10.401   1.742   6.962
   71POPC   C3B 1284  10.465   1.578   6.571
   71POPC   C4B 1285  10.479   1.408   6.193
   72POPC   NC3 1286   7.335   1.357   8.558
   72POPC   PO4 1287   7.175   0.918   8.121
   72POPC   GL1 1288   7.160   1.000   7.669
   72POPC   GL2 1289   6.956   1.291   7.753
   72POPC   C1A 1290   6.923   1.031   7.285
   72POPC   D2A 1291   6.764   1.094   6.880
   72POPC   C3A 1292   7.069   0.970   6.570
   72POPC   C4A 1293   7.071   0.802   6.155
   72POPC   C1B 1294   7.199   1.450   7.414
   72POPC   C2B 1295   7.196   1.371   6.983
   72POPC   C3B 1296   7.126   1.464   6.561
   72POPC   C4B 1297   7.166   1.306   6.148
   73POPC   NC3 1298  10.471   3.933   7.925
   73POPC   PO4 1299   0.638   3.947   8.021
   73POPC   GL1 1300   0.542   4.023   7.631
   73POPC   GL2 1301   0.345   4.317   7.614
   73POPC   C1A 1302   0.358   3.919   7.248
   73POPC   D2A 1303   0.130   4.132   6.946
   73POPC   C3A 1304   0.017   4.014   6.545
   73POPC   C4A 1305   0.131   4.290   6.235
   73POPC   C1B 1306   0.662   4.358   7.272
   73POPC   C2B 1307   0.812   4.193   6.890
   73POPC   C3B 1308   0.615   4.171   6.497
   73POPC   C4B 1309   0.601   4.493   6.204
   74POPC   NC3 1310   1.679   6.423   8.158
   74POPC   PO4 1311   1.852   6.935   7.994
   74POPC   GL1 1312   1.624   6.707   7.674
   74POPC   GL2 1313   1.837   6.389   7.659
   74POPC   C1A 1314   1.632   6.587   7.209
   74POPC   D2A 1315   1.664   6.800   6.821
   74POPC   C3A 1316   2.042   6.910   6.632
   74POPC   C4A 1317   2.307   6.717   6.316
   74POPC   C1B 1318   1.971   6.196   7.242
   74POPC   C2B 1319   2.010   6.409   6.860
   74POPC   C3B 1320   1.963   6.333   6.453
   74POPC   C4B 1321   1.972   5.936   6.240
   75POPC   NC3 1322   9.989   0.270   7.908
   75POPC   PO4 1323  10.185   0.873   8.225
   75POPC   GL1 1324  10.103   0.874   7.780
   75POPC   GL2 1325  10.392   0.697   7.709
   75POPC   C1A 1326   9.992   0.619   7.360
   75POPC   D2A 1327  10.005   0.318   7.008
   75POPC   C3A 1328   9.785   0.478   6.648
   75POPC   C4A 1329   9.921   0.622   6.246
   75POPC   C1B 1330   0.000   0.569   7.288
   75POPC   C2B 1331   0.042   0.514   6.863
   75POPC   C3B 1332  10.393   0.629   6.473
   75POPC   C4B 1333  10.363   0.254   6.226
   76POPC   NC3 1334   6.466   7.977   8.245
   76POPC   PO4 1335   6.804   7.555   8.044
   76POPC   GL1 1336   6.526   7.813   7.757
   76POPC   GL2 1337   6.196   8.026   7.813
   76POPC   C1A 1338   6.500   8.129   7.426
   76POPC   D2A 1339   6.223   8.134   7.069
   76POPC   C3A 1340   6.408   8.047   6.693
   76POPC   C4A 1341   6.497   8.054   6.271
   76POPC   C1B 1342   6.162   7.744   7.407
   76POPC   C2B 1343   6.332   7.617   6.981
   76POPC   C3B 1344   6.283   7.600   6.505
   76POPC   C4B 1345   6.038   7.847   6.190
   77POPC   NC3 1346   1.899   8.930   8.154
   77POPC   PO4 1347   1.607   8.416   8.330
   77POPC   GL1 1348   1.801   8.529   7.840
   77POPC   GL2 1349   2.168   8.575   7.876
   77POPC   C1A 1350   1.646   8.576   7.341
   77POPC   D2A 1351   1.609   8.806   6.914
   77POPC   C3A 1352   1.699   8.636   6.481
   77POPC   C4A 1353   1.766   8.712   6.017
   77POPC   C1B 1354   2.130   8.737   7.438
   77POPC   C2B 1355   2.073   8.607   7.011
   77POPC   C3B 1356   2.243   8.615   6.619
   77POPC   C4B 1357   2.209   8.566   6.218
   78POPC   NC3 1358   1.989   9.962   8.240
   78POPC   PO4 1359   1.680   0.107   8.060
   78POPC   GL1 1360   1.718  10.258   7.746
   78POPC   GL2 1361   2.000  10.319   7.523
   78POPC   C1A 1362   1.642  10.055   7.314
   78POPC   D2A 1363   1.869  10.109   6.897
   78POPC   C3A 1364   1.666   9.965   6.515
   78POPC   C4A 1365   1.636   9.793   6.114
   78POPC   C1B 1366   2.162   0.037   7.178
   78POPC   C2B 1367   2.322   0.070   6.763
   78POPC   C3B 1368   2.167  10.322   6.432
   78POPC   C4B 1369   2.116   9.909   6.300
   79POPC   NC3 1370   0.492   7.168   8.380
   79POPC   PO4 1371   0.087   7.491   7.914
   79POPC   GL1 1372   0.276   7.146   7.705
   79POPC   GL2 1373   0.627   7.040   7.778
   79POPC   C1A 1374   0.361   7.220   7.281
   79POPC   D2A 1375   0.160   7.160   6.904
   79POPC   C3A 1376   0.359   7.215   6.497
   79POPC   C4A 1377   0.676   7.489   6.293
   79POPC   C1B 1378   0.617   6.779   7.367
   79POPC   C2B 1379   0.397   6.680   6.950
   79POPC   C3B 1380   0.310   6.632   6.505
   79POPC   C4B 1381   0.451   6.855   6.149
   80POPC   NC3 1382   1.869   0.846   8.061
   80POPC   PO4 1383   2.139   1.476   7.942
   80POPC   GL1 1384   2.083   1.106   7.656
   80POPC   GL2 1385   1.714   0.994   7.585
   80POPC   C1A 1386   2.154   1.279   7.260
   80POPC   D2A 1387   2.182   1.633   7.004
   80POPC   C3A 1388   2.356   1.489   6.636
   80POPC   C4A 1389   2.166   1.194   6.355
   80POPC   C1B 1390   1.817   0.920   7.148
   80POPC   C2B 1391   1.889   1.216   6.801
   80POPC   C3B 1392   1.670   1.109   6.415
   80POPC   C4B 1393   1.539   0.732   6.222
   81POPC   NC3 1394   2.907  10.075   7.887
   81POPC   PO4 1395   2.250  10.058   7.867
   81POPC   GL1 1396   2.530  10.269   7.567
   81POPC   GL2 1397   2.892  10.420   7.547
   81POPC   C1A 1398   2.553  10.236   7.117
   81POPC   D2A 1399   2.402   9.984   6.785
   81POPC   C3A 1400   2.613  10.012   6.409
   81POPC   C4A 1401   2.667  10.424   6.284
   81POPC   C1B 1402   3.041  10.181   7.175
   81POPC   C2B 1403   2.957  10.392   6.750
   81POPC   C3B 1404   3.107  10.195   6.376
   81POPC   C4B 1405   3.057   9.745   6.363
   82POPC   NC3 1406   7.896  10.159   8.270
   82POPC   PO4 1407   8.237   9.588   8.121
   82POPC   GL1 1408   8.172   9.987   7.839
   82POPC   GL2 1409   7.833  10.139   7.760
   82POPC   C1A 1410   8.173  10.120   7.371
   82POPC   D2A 1411   8.199   9.955   6.935
   82POPC   C3A 1412   8.167  10.248   6.593
   82POPC   C4A 1413   7.926  10.286   6.214
   82POPC   C1B 1414   7.677  10.271   7.338
   82POPC   C2B 1415   7.726  10.215   6.894
   82POPC   C3B 1416   7.523  10.294   6.502
   82POPC   C4B 1417   7.505  10.431   5.986
   83POPC   NC3 1418   1.406   7.065   8.062
   83POPC   PO4 1419   0.839   7.445   8.224
   83POPC   GL1 1420   1.057   7.413   7.782
   83POPC   GL2 1421   1.141   7.068   7.632
   83POPC   C1A 1422   1.278   7.517   7.372
   83POPC   D2A 1423   1.219   7.309   6.955
   83POPC   C3A 1424   1.076   7.453   6.596
   83POPC   C4A 1425   1.196   7.478   6.168
   83POPC   C1B 1426   0.867   7.227   7.323
   83POPC   C2B 1427   0.716   7.094   6.930
   83POPC   C3B 1428   0.742   6.880   6.572
   83POPC   C4B 1429   0.918   7.058   6.223
   84POPC   NC3 1430   6.827  10.046   8.185
   84POPC   PO4 1431   7.155   0.090   7.982
   84POPC   GL1 1432   7.209  10.415   7.588
   84POPC   GL2 1433   7.319  10.112   7.713
   84POPC   C1A 1434   7.198  10.195   7.193
   84POPC   D2A 1435   6.936   9.981   6.919
   84POPC   C3A 1436   6.828  10.252   6.597
   84POPC   C4A 1437   7.084  10.315   6.244
   84POPC   C1B 1438   7.561   9.810   7.438
   84POPC   C2B 1439   7.433   9.778   6.983
   84POPC   C3B 1440   7.266   9.815   6.549
   84POPC   C4B 1441   7.460   9.929   6.166
   85POPC   NC3 1442   4.391   0.626   8.228
   85POPC   PO4 1443   3.745   0.639   8.095
   85POPC   GL1 1444   3.925   0.369   7.738
   85POPC   GL2 1445   4.291   0.273   7.811
   85POPC   C1A 1446   3.868   0.222   7.298
   85POPC   D2A 1447   3.877   0.437   6.930
   85POPC   C3A 1448   3.921   0.274   6.548
   85POPC   C4A 1449   3.955   0.519   6.170
   85POPC   C1B 1450   4.397   0.203   7.382
   85POPC   C2B 1451   4.303   0.105   6.957
   85POPC   C3B 1452   4.440   0.211   6.553
   85POPC   C4B 1453   4.482   0.477   6.181
   86POPC   NC3 1454   1.607   2.353   8.393
   86POPC   PO4 1455   1.515   2.972   7.995
   86POPC   GL1 1456   1.647   2.812   7.595
   86POPC   GL2 1457   2.002   2.769   7.646
   86POPC   C1A 1458   1.624   2.539   7.228
   86POPC   D2A 1459   1.658   2.363   6.796
   86POPC   C3A 1460   1.488   2.509   6.467
   86POPC   C4A 1461   1.767   2.668   6.194
   86POPC   C1B 1462   2.150   2.500   7.344
   86POPC   C2B 1463   2.063   2.603   6.965
   86POPC   C3B 1464   2.117   2.576   6.558
   86POPC   C4B 1465   2.345   2.614   6.193
   87POPC   NC3 1466   8.410   5.068   8.032
   87POPC   PO4 1467   8.794   4.589   8.314
   87POPC   GL1 1468   9.031   4.840   7.919
   87POPC   GL2 1469   8.744   4.817   7.737
   87POPC   C1A 1470   9.098   5.021   7.436
   87POPC   D2A 1471   8.898   5.123   6.982
   87POPC   C3A 1472   8.925   4.997   6.567
   87POPC   C4A 1473   8.668   5.101   6.218
   87POPC   C1B 1474   8.655   4.796   7.287
   87POPC   C2B 1475   8.834   4.575   6.910
   87POPC   C3B 1476   8.666   4.437   6.501
   87POPC   C4B 1477   8.442   4.638   6.158
   88POPC   NC3 1478  10.191   9.851   8.171
   88POPC   PO4 1479   9.817  10.389   8.172
   88POPC   GL1 1480   9.979  10.277   7.742
   88POPC   GL2 1481  10.329  10.126   7.758
   88POPC   C1A 1482   9.823  10.407   7.311
   88POPC   D2A 1483   9.568  10.360   6.929
   88POPC   C3A 1484   9.794  10.350   6.559
   88POPC   C4A 1485  10.028  10.372   6.191
   88POPC   C1B 1486  10.319  10.318   7.346
   88POPC   C2B 1487  10.181  10.286   6.925
   88POPC   C3B 1488   0.002  10.208   6.618
   88POPC   C4B 1489  10.451  10.106   6.210
   89POPC   NC3 1490   0.686   1.963   8.414
   89POPC   PO4 1491   1.349   1.975   8.298
   89POPC   GL1 1492   1.409   2.096   7.882
   89POPC   GL2 1493   1.099   1.986   7.797
   89POPC   C1A 1494   1.465   1.987   7.447
   89POPC   D2A 1495   1.355   2.086   7.064
   89POPC   C3A 1496   1.285   1.944   6.649
   89POPC   C4A 1497   1.415   2.009   6.235
   89POPC   C1B 1498   0.968   1.991   7.380
   89POPC   C2B 1499   0.861   1.896   6.991
   89POPC   C3B 1500   0.766   1.938   6.613
   89POPC   C4B 1501   0.928   1.764   6.285
   90POPC   NC3 1502   8.630   5.089   8.501
   90POPC   PO4 1503   8.285   5.514   8.035
   90POPC   GL1 1504   8.161   5.241   7.623
   90POPC   GL2 1505   8.242   4.890   7.589
   90POPC   C1A 1506   8.355   5.182   7.179
   90POPC   D2A 1507   8.446   4.901   6.791
   90POPC   C3A 1508   8.211   5.030   6.418
   90POPC   C4A 1509   8.099   5.159   5.996
   90POPC   C1B 1510   8.154   4.699   7.179
   90POPC   C2B 1511   7.915   4.853   6.804
   90POPC   C3B 1512   7.709   4.930   6.366
   90POPC   C4B 1513   7.455   4.875   5.970
   91POPC   NC3 1514   5.583   2.159   7.969
   91POPC   PO4 1515   6.100   1.670   8.010
   91POPC   GL1 1516   5.762   1.824   7.660
   91POPC   GL2 1517   5.854   2.186   7.553
   91POPC   C1A 1518   5.564   1.998   7.201
   91POPC   D2A 1519   5.781   2.161   6.813
   91POPC   C3A 1520   5.562   2.240   6.416
   91POPC   C4A 1521   5.577   1.966   6.095
   91POPC   C1B 1522   6.054   1.878   7.272
   91POPC   C2B 1523   6.021   1.702   6.882
   91POPC   C3B 1524   5.880   1.766   6.481
   91POPC   C4B 1525   6.049   2.156   6.311
   92POPC   NC3 1526   1.677   8.028   8.054
   92POPC   PO4 1527   2.281   7.705   8.127
   92POPC   GL1 1528   2.136   7.723   7.660
   92POPC   GL2 1529   1.775   7.767   7.619
   92POPC   C1A 1530   2.141   7.782   7.173
   92POPC   D2A 1531   2.311   8.087   6.844
   92POPC   C3A 1532   2.321   8.021   6.382
   92POPC   C4A 1533   2.033   7.718   6.176
   92POPC   C1B 1534   1.929   8.162   7.435
   92POPC   C2B 1535   1.809   8.178   6.999
   92POPC   C3B 1536   1.853   7.972   6.608
   92POPC   C4B 1537   1.871   8.207   6.226
   93POPC   NC3 1538   9.558   3.654   8.225
   93POPC   PO4 1539   8.849   3.700   8.228
   93POPC   GL1 1540   9.060   3.544   7.825
   93POPC   GL2 1541   9.415   3.391   7.794
   93POPC   C1A 1542   9.217   3.660   7.400
   93POPC   D2A 1543   9.228   3.831   6.990
   93POPC   C3A 1544   9.113   3.666   6.601
   93POPC   C4A 1545   9.246   3.631   6.170
   93POPC   C1B 1546   9.266   3.155   7.421
   93POPC   C2B 1547   9.305   3.323   6.980
   93POPC   C3B 1548   9.551   3.382   6.594
   93POPC   C4B 1549   9.465   3.165   6.232
   94POPC   NC3 1550   0.525   4.421   8.096
   94POPC   PO4 1551   0.270   5.039   8.305
   94POPC   GL1 1552   0.271   4.817   7.822
   94POPC   GL2 1553   0.615   4.783   7.745
   94POPC   C1A 1554   0.329   4.730   7.319
   94POPC   D2A 1555   0.367   4.571   6.858
   94POPC   C3A 1556   0.237   4.763   6.451
   94POPC   C4A 1557   0.199   4.743   5.990
   94POPC   C1B 1558   0.487   5.174   7.496
   94POPC   C2B 1559   0.386   5.158   7.033
   94POPC   C3B 1560   0.338   5.266   6.589
   94POPC   C4B 1561   0.461   5.145   6.144
   95POPC   NC3 1562   1.260   8.670   8.152
   95POPC   PO4 1563   1.649   9.267   7.983
   95POPC   GL1 1564   1.395   8.922   7.722
   95POPC   GL2 1565   1.053   8.681   7.664
   95POPC   C1A 1566   1.280   8.954   7.292
   95POPC   D2A 1567   1.083   8.848   6.905
   95POPC   C3A 1568   1.277   9.018   6.559
   95POPC   C4A 1569   1.283   8.817   6.179
   95POPC   C1B 1570   1.113   8.439   7.246
   95POPC   C2B 1571   1.331   8.350   6.836
   95POPC   C3B 1572   1.223   8.353   6.376
   95POPC   C4B 1573   1.056   8.424   5.935
   96POPC   NC3 1574   6.813   0.733   7.918
   96POPC   PO4 1575   6.157   0.779   8.085
   96POPC   GL1 1576   6.389   0.972   7.768
   96POPC   GL2 1577   6.431   1.315   7.811
   96POPC   C1A 1578   6.424   0.932   7.342
   96POPC   D2A 1579   6.056   0.860   7.111
   96POPC   C3A 1580   6.108   0.838   6.679
   96POPC   C4A 1581   6.247   0.922   6.279
   96POPC   C1B 1582   6.183   1.383   7.412
   96POPC   C2B 1583   6.304   1.304   6.994
   96POPC   C3B 1584   6.257   1.338   6.564
   96POPC   C4B 1585   6.657   1.235   6.376
   97POPC   NC3 1586   3.276   1.740   8.227
   97POPC   PO4 1587   3.835   1.376   8.258
   97POPC   GL1 1588   3.672   1.554   7.833
   97POPC   GL2 1589   3.404   1.822   7.728
   97POPC   C1A 1590   3.618   1.517   7.364
   97POPC   D2A 1591   3.371   1.574   6.980
   97POPC   C3A 1592   3.483   1.662   6.529
   97POPC   C4A 1593   3.274   1.856   6.159
   97POPC   C1B 1594   3.497   2.017   7.315
   97POPC   C2B 1595   3.587   2.052   6.882
   97POPC   C3B 1596   3.555   2.169   6.455
   97POPC   C4B 1597   3.757   2.201   6.060
   98POPC   NC3 1598   6.354   0.414   8.329
   98POPC   PO4 1599   5.774   0.174   8.225
   98POPC   GL1 1600   6.076   0.080   7.826
   98POPC   GL2 1601   6.284   0.390   7.730
   98POPC   C1A 1602   6.164   0.063   7.330
   98POPC   D2A 1603   6.067   0.372   6.949
   98POPC   C3A 1604   6.254   0.380   6.506
   98POPC   C4A 1605   6.192   0.161   6.100
   98POPC   C1B 1606   6.528   0.413   7.322
   98POPC   C2B 1607   6.523   0.618   6.934
   98POPC   C3B 1608   6.631   0.729   6.546
   98POPC   C4B 1609   6.607   0.582   6.161
   99POPC   NC3 1610   1.275   2.596   7.912
   99POPC   PO4 1611   0.761   2.267   8.058
   99POPC   GL1 1612   0.855   2.431   7.637
   99POPC   GL2 1613   0.828   2.779   7.599
   99POPC   C1A 1614   0.768   2.447   7.177
   99POPC   D2A 1615   1.038   2.375   6.804
   99POPC   C3A 1616   1.012   2.328   6.361
   99POPC   C4A 1617   0.873   2.571   5.996
   99POPC   C1B 1618   1.177   2.804   7.308
   99POPC   C2B 1619   1.307   2.816   6.887
   99POPC   C3B 1620   1.067   2.823   6.510
   99POPC   C4B 1621   1.273   2.853   6.134
  100POPC   NC3 1622   1.953   4.010   8.130
  100POPC   PO4 1623   2.319   4.340   7.891
  100POPC   GL1 1624   1.915   4.402   7.673
  100POPC   GL2 1625   1.651   4.130   7.706
  100POPC   C1A 1626   1.683   4.426   7.275
  100POPC   D2A 1627   1.760   4.681   6.910
  100POPC   C3A 1628   1.793   4.442   6.523
  100POPC   C4A 1629   2.147   4.359   6.230
  100POPC   C1B 1630   1.922   3.987   7.376
  100POPC   C2B 1631   1.891   4.013   6.938
  100POPC   C3B 1632   2.054   3.945   6.530
  100POPC   C4B 1633   1.735   4.020   6.236
  101POPC   NC3 1634   8.140   2.657   8.139
  101POPC   PO4 1635   8.171   3.203   7.805
  101POPC   GL1 1636   7.971   2.819   7.649
  101POPC   GL2 1637   8.107   2.431   7.692
  101POPC   C1A 1638   7.863   2.974   7.212
  101POPC   D2A 1639   8.062   3.146   6.823
  101POPC   C3A 1640   7.926   2.988   6.405
  101POPC   C4A 1641   8.104   2.948   5.973
  101POPC   C1B 1642   7.996   2.492   7.269
  101POPC   C2B 1643   8.132   2.641   6.902
  101POPC   C3B 1644   8.011   2.510   6.548
  101POPC   C4B 1645   8.258   2.522   6.213
  102POPC   NC3 1646   1.251   0.355   8.048
  102POPC   PO4 1647   0.591   0.494   8.042
  102POPC   GL1 1648   0.779   0.247   7.702
  102POPC   GL2 1649   1.070   0.413   7.561
  102POPC   C1A 1650   0.848   0.001   7.322
  102POPC   D2A 1651   1.093   0.163   6.959
  102POPC   C3A 1652   0.923  10.460   6.577
  102POPC   C4A 1653   0.763   0.121   6.202
  102POPC   C1B 1654   1.404   0.618   7.307
  102POPC   C2B 1655   1.508   0.571   6.862
  102POPC   C3B 1656   1.315   0.371   6.494
  102POPC   C4B 1657   1.205   0.321   6.047
  103POPC   NC3 1658  10.373   4.956   8.104
  103POPC   PO4 1659   9.754   4.834   8.250
  103POPC   GL1 1660   9.949   4.728   7.858
  103POPC   GL2 1661  10.026   5.031   7.725
  103POPC   C1A 1662   9.936   4.658   7.402
  103POPC   D2A 1663   9.916   4.933   7.022
  103POPC   C3A 1664   9.840   4.740   6.604
  103POPC   C4A 1665   9.923   5.010   6.244
  103POPC   C1B 1666  10.377   4.927   7.447
  103POPC   C2B 1667  10.445   4.874   7.004
  103POPC   C3B 1668  10.300   4.981   6.611
  103POPC   C4B 1669  10.468   5.141   6.236
  104POPC   NC3 1670  10.256   7.135   7.911
  104POPC   PO4 1671   0.298   6.811   8.148
  104POPC   GL1 1672   0.002   6.699   7.759
  104POPC   GL2 1673  10.140   6.818   7.537
  104POPC   C1A 1674   0.087   6.804   7.331
  104POPC   D2A 1675  10.279   6.832   7.014
  104POPC   C3A 1676  10.378   6.874   6.610
  104POPC   C4A 1677  10.094   6.862   6.364
  104POPC   C1B 1678  10.221   7.258   7.292
  104POPC   C2B 1679  10.274   7.514   6.928
  104POPC   C3B 1680  10.378   7.419   6.517
  104POPC   C4B 1681  10.116   7.376   6.190
  105POPC   NC3 1682   8.245   5.971   8.081
  105POPC   PO4 1683   8.319   6.631   8.227
  105POPC   GL1 1684   8.276   6.583   7.744
  105POPC   GL2 1685   8.010   6.332   7.692
  105POPC   C1A 1686   8.272   6.576   7.272
  105POPC   D2A 1687   8.228   6.306   6.906
  105POPC   C3A 1688   8.133   6.468   6.503
  105POPC   C4A 1689   8.221   6.174   6.190
  105POPC   C1B 1690   7.761   6.502   7.330
  105POPC   C2B 1691   7.753   6.533   6.858
  105POPC   C3B 1692   7.661   6.277   6.478
  105POPC   C4B 1693   7.728   6.120   6.067
  106POPC   NC3 1694   1.775   1.822   8.123
  106POPC   PO4 1695   1.735   2.493   7.973
  106POPC   GL1 1696   1.841   2.240   7.625
  106POPC   GL2 1697   1.936   1.865   7.633
  106POPC   C1A 1698   1.884   2.088   7.168
  106POPC   D2A 1699   2.103   2.088   6.776
  106POPC   C3A 1700   1.897   2.145   6.382
  106POPC   C4A 1701   1.838   2.207   5.958
  106POPC   C1B 1702   1.739   1.592   7.291
  106POPC   C2B 1703   1.683   1.698   6.853
  106POPC   C3B 1704   1.884   1.631   6.472
  106POPC   C4B 1705   2.230   1.758   6.213
  107POPC   NC3 1706   9.542   6.279   8.246
  107POPC   PO4 1707   8.968   6.244   8.054
  107POPC   GL1 1708   9.298   6.295   7.735
  107POPC   GL2 1709   9.384   6.634   7.803
  107POPC   C1A 1710   9.259   6.308   7.263
  107POPC   D2A 1711   9.091   6.281   6.806
  107POPC   C3A 1712   9.127   6.560   6.448
  107POPC   C4A 1713   9.382   6.489   6.091
  107POPC   C1B 1714   9.590   6.673   7.392
  107POPC   C2B 1715   9.510   6.589   6.943
  107POPC   C3B 1716   9.596   6.789   6.570
  107POPC   C4B 1717   9.639   6.917   6.178
  108POPC   NC3 1718   2.185   2.584   8.108
  108POPC   PO4 1719   2.852   2.372   8.070
  108POPC   GL1 1720   2.869   2.566   7.649
  108POPC   GL2 1721   2.524   2.659   7.639
  108POPC   C1A 1722   2.771   2.412   7.247
  108POPC   D2A 1723   2.512   2.403   6.922
  108POPC   C3A 1724   2.618   2.675   6.646
  108POPC   C4A 1725   2.864   2.498   6.343
  108POPC   C1B 1726   2.478   2.845   7.189
  108POPC   C2B 1727   2.288   3.061   6.860
  108POPC   C3B 1728   2.316   3.053   6.421
  108POPC   C4B 1729   2.708   2.977   6.204
  109POPC   NC3 1730   6.612  10.406   7.839
  109POPC   PO4 1731   6.643   9.737   7.883
  109POPC   GL1 1732   6.489   9.965   7.589
  109POPC   GL2 1733   6.822  10.066   7.505
  109POPC   C1A 1734   6.269  10.020   7.231
  109POPC   D2A 1735   6.405  10.046   6.827
  109POPC   C3A 1736   6.221   9.815   6.446
  109POPC   C4A 1737   6.236   9.740   5.943
  109POPC   C1B 1738   6.678  10.365   7.186
  109POPC   C2B 1739   6.470   0.066   6.848
  109POPC   C3B 1740   6.276  10.365   6.485
  109POPC   C4B 1741   6.517  10.118   6.178
  110POPC   NC3 1742   2.101   5.542   7.945
  110POPC   PO4 1743   1.708   5.971   8.252
  110POPC   GL1 1744   1.619   5.775   7.805
  110POPC   GL2 1745   1.913   5.867   7.615
  110POPC   C1A 1746   1.582   5.645   7.324
  110POPC   D2A 1747   1.761   5.824   6.909
  110POPC   C3A 1748   1.567   5.696   6.502
  110POPC   C4A 1749   1.633   5.563   6.068
  110POPC   C1B 1750   2.075   5.598   7.265
  110POPC   C2B 1751   2.160   5.458   6.865
  110POPC   C3B 1752   2.001   5.462   6.468
  110POPC   C4B 1753   2.129   5.456   6.066
  111POPC   NC3 1754   0.778   3.461   7.975
  111POPC   PO4 1755   0.168   3.071   8.012
  111POPC   GL1 1756   0.450   3.168   7.706
  111POPC   GL2 1757   0.366   3.537   7.682
  111POPC   C1A 1758   0.708   3.287   7.352
  111POPC   D2A 1759   0.639   3.563   6.990
  111POPC   C3A 1760   0.733   3.337   6.622
  111POPC   C4A 1761   0.574   3.368   6.180
  111POPC   C1B 1762   0.210   3.421   7.286
  111POPC   C2B 1763   0.064   3.608   6.911
  111POPC   C3B 1764   0.297   3.593   6.546
  111POPC   C4B 1765   0.375   3.849   6.176
  112POPC   NC3 1766   6.444   2.657   8.044
  112POPC   PO4 1767   6.909   3.041   7.974
  112POPC   GL1 1768   6.684   2.868   7.603
  112POPC   GL2 1769   6.694   2.517   7.631
  112POPC   C1A 1770   6.417   2.999   7.229
  112POPC   D2A 1771   6.451   3.165   6.791
  112POPC   C3A 1772   6.755   3.027   6.469
  112POPC   C4A 1773   6.651   2.985   6.016
  112POPC   C1B 1774   6.517   2.501   7.224
  112POPC   C2B 1775   6.590   2.665   6.811
  112POPC   C3B 1776   6.370   2.669   6.419
  112POPC   C4B 1777   5.906   2.643   6.310
  113POPC   NC3 1778  10.146   8.946   8.079
  113POPC   PO4 1779  10.078   8.281   8.048
  113POPC   GL1 1780  10.088   8.477   7.654
  113POPC   GL2 1781   9.982   8.830   7.607
  113POPC   C1A 1782  10.062   8.301   7.243
  113POPC   D2A 1783   9.790   8.435   6.922
  113POPC   C3A 1784   9.895   8.338   6.536
  113POPC   C4A 1785   9.931   8.687   6.287
  113POPC   C1B 1786  10.142   8.803   7.178
  113POPC   C2B 1787  10.251   8.663   6.757
  113POPC   C3B 1788  10.371   8.919   6.405
  113POPC   C4B 1789   0.021   9.253   6.172
  114POPC   NC3 1790  10.154   3.072   8.045
  114POPC   PO4 1791  10.022   3.820   8.016
  114POPC   GL1 1792   9.970   3.498   7.742
  114POPC   GL2 1793  10.345   3.412   7.697
  114POPC   C1A 1794   9.706   3.411   7.351
  114POPC   D2A 1795   9.732   3.061   7.045
  114POPC   C3A 1796   9.922   3.017   6.618
  114POPC   C4A 1797   9.957   3.258   6.229
  114POPC   C1B 1798  10.197   3.442   7.265
  114POPC   C2B 1799  10.013   3.456   6.872
  114POPC   C3B 1800  10.083   3.680   6.485
  114POPC   C4B 1801  10.417   3.646   6.198
  115POPC   NC3 1802   7.333   0.480   8.174
  115POPC   PO4 1803   6.685   0.311   8.035
  115POPC   GL1 1804   6.929   0.348   7.624
  115POPC   GL2 1805   7.283   0.486   7.670
  115POPC   C1A 1806   7.039   0.253   7.211
  115POPC   D2A 1807   7.032   0.525   6.849
  115POPC   C3A 1808   6.917   0.302   6.503
  115POPC   C4A 1809   6.655   0.095   6.258
  115POPC   C1B 1810   7.309   0.690   7.285
  115POPC   C2B 1811   7.451   0.808   6.879
  115POPC   C3B 1812   7.453   0.637   6.466
  115POPC   C4B 1813   7.399   0.252   6.349
  116POPC   NC3 1814   9.247  10.177   8.225
  116POPC   PO4 1815   9.257   0.380   8.193
  116POPC   GL1 1816   9.428   0.012   7.856
  116POPC   GL2 1817   9.488  10.122   7.800
  116POPC   C1A 1818   9.314  10.371   7.407
  116POPC   D2A 1819   9.173  10.051   7.096
  116POPC   C3A 1820   9.135  10.209   6.652
  116POPC   C4A 1821   9.355  10.267   6.268
  116POPC   C1B 1822   9.680   9.934   7.440
  116POPC   C2B 1823   9.768   9.884   6.987
  116POPC   C3B 1824   9.561   9.886   6.572
  116POPC   C4B 1825   9.740   9.935   6.141
  117POPC   NC3 1826   7.517   1.201   7.953
  117POPC   PO4 1827   8.194   1.459   7.975
  117POPC   GL1 1828   8.110   1.281   7.563
  117POPC   GL2 1829   7.834   1.022   7.560
  117POPC   C1A 1830   8.364   1.027   7.278
  117POPC   D2A 1831   8.400   0.942   6.827
  117POPC   C3A 1832   8.115   1.251   6.556
  117POPC   C4A 1833   7.850   1.448   6.205
  117POPC   C1B 1834   7.563   1.136   7.262
  117POPC   C2B 1835   7.660   1.271   6.835
  117POPC   C3B 1836   7.544   1.142   6.460
  117POPC   C4B 1837   7.597   0.997   6.048
  118POPC   NC3 1838   9.403   9.173   8.046
  118POPC   PO4 1839   9.097   9.761   8.061
  118POPC   GL1 1840   9.340   9.599   7.696
  118POPC   GL2 1841   9.680   9.414   7.668
  118POPC   C1A 1842   9.381   9.567   7.246
  118POPC   D2A 1843   9.465   9.421   6.836
  118POPC   C3A 1844   9.105   9.422   6.544
  118POPC   C4A 1845   9.071   9.801   6.303
  118POPC   C1B 1846   9.712   9.145   7.281
  118POPC   C2B 1847   9.748   8.954   6.841
  118POPC   C3B 1848   9.576   9.099   6.443
  118POPC   C4B 1849   9.507   9.488   6.228
  119POPC   NC3 1850   0.391   5.476   8.132
  119POPC   PO4 1851   0.736   6.030   8.025
  119POPC   GL1 1852   0.649   5.722   7.726
  119POPC   GL2 1853   0.279   5.714   7.691
  119POPC   C1A 1854   0.615   5.772   7.294
  119POPC   D2A 1855   0.809   5.894   6.925
  119POPC   C3A 1856   0.597   5.771   6.552
  119POPC   C4A 1857   0.629   5.864   6.130
  119POPC   C1B 1858   0.151   5.541   7.310
  119POPC   C2B 1859   0.283   5.659   6.936
  119POPC   C3B 1860   0.078   5.717   6.614
  119POPC   C4B 1861   0.196   5.605   6.223
  120POPC   NC3 1862   4.260   1.569   8.291
  120POPC   PO4 1863   4.410   2.181   8.115
  120POPC   GL1 1864   4.345   1.939   7.717
  120POPC   GL2 1865   4.418   1.561   7.768
  120POPC   C1A 1866   4.028   2.043   7.366
  120POPC   D2A 1867   4.086   2.228   6.911
  120POPC   C3A 1868   4.080   2.085   6.467
  120POPC   C4A 1869   4.253   2.049   6.005
  120POPC   C1B 1870   4.135   1.549   7.400
  120POPC   C2B 1871   3.964   1.719   6.988
  120POPC   C3B 1872   3.999   1.575   6.565
  120POPC   C4B 1873   3.884   1.722   6.168
  121POPC   NC3 1874   2.099   9.500   8.010
  121POPC   PO4 1875   1.581   9.842   8.024
  121POPC   GL1 1876   1.822   9.719   7.634
  121POPC   GL2 1877   2.182   9.689   7.548
  121POPC   C1A 1878   1.896   9.624   7.153
  121POPC   D2A 1879   2.088   9.604   6.750
  121POPC   C3A 1880   1.893   9.460   6.406
  121POPC   C4A 1881   1.631   9.188   6.171
  121POPC   C1B 1882   2.150   9.261   7.412
  121POPC   C2B 1883   2.067   9.125   7.001
  121POPC   C3B 1884   2.267   9.133   6.601
  121POPC   C4B 1885   2.130   9.077   6.179
  122POPC   NC3 1886   8.701   1.586   8.023
  122POPC   PO4 1887   8.409   2.239   8.208
  122POPC   GL1 1888   8.495   2.037   7.800
  122POPC   GL2 1889   8.871   2.013   7.765
  122POPC   C1A 1890   8.442   1.754   7.413
  122POPC   D2A 1891   8.375   1.513   7.006
  122POPC   C3A 1892   8.397   1.740   6.595
  122POPC   C4A 1893   8.263   1.727   6.153
  122POPC   C1B 1894   8.761   2.142   7.347
  122POPC   C2B 1895   8.732   1.947   6.936
  122POPC   C3B 1896   8.802   2.075   6.487
  122POPC   C4B 1897   8.722   2.289   6.076
  123POPC   NC3 1898   8.644   9.804   8.015
  123POPC   PO4 1899   8.833  10.364   8.327
  123POPC   GL1 1900   8.927  10.370   7.846
  123POPC   GL2 1901   8.981  10.041   7.652
  123POPC   C1A 1902   8.809  10.451   7.389
  123POPC   D2A 1903   8.480   0.032   7.088
  123POPC   C3A 1904   8.628   0.046   6.670
  123POPC   C4A 1905   8.900   0.061   6.286
  123POPC   C1B 1906   8.676   9.967   7.293
  123POPC   C2B 1907   8.690  10.075   6.856
  123POPC   C3B 1908   8.647  10.125   6.391
  123POPC   C4B 1909   8.343  10.077   6.041
  124POPC   NC3 1910   1.908   3.192   7.940
  124POPC   PO4 1911   1.566   3.735   8.152
  124POPC   GL1 1912   1.795   3.627   7.729
  124POPC   GL2 1913   1.652   3.315   7.531
  124POPC   C1A 1914   2.058   3.508   7.333
  124POPC   D2A 1915   2.233   3.596   6.942
  124POPC   C3A 1916   2.027   3.424   6.606
  124POPC   C4A 1917   1.952   3.557   6.194
  124POPC   C1B 1918   1.859   3.048   7.187
  124POPC   C2B 1919   1.778   2.960   6.732
  124POPC   C3B 1920   1.668   3.147   6.339
  124POPC   C4B 1921   1.933   3.104   5.966
  125POPC   NC3 1922   4.857   2.055   8.001
  125POPC   PO4 1923   5.294   2.391   7.698
  125POPC   GL1 1924   5.220   1.974   7.599
  125POPC   GL2 1925   4.837   2.000   7.489
  125POPC   C1A 1926   5.192   1.668   7.313
  125POPC   D2A 1927   4.963   1.903   6.993
  125POPC   C3A 1928   5.188   1.993   6.647
  125POPC   C4A 1929   5.102   1.937   6.233
  125POPC   C1B 1930   4.480   1.956   7.172
  125POPC   C2B 1931   4.434   1.824   6.743
  125POPC   C3B 1932   4.607   2.027   6.381
  125POPC   C4B 1933   4.854   2.407   6.299
  126POPC   NC3 1934   2.810   9.339   8.204
  126POPC   PO4 1935   2.440   9.810   8.312
  126POPC   GL1 1936   2.597   9.683   7.863
  126POPC   GL2 1937   2.744   9.393   7.714
  126POPC   C1A 1938   2.643   9.767   7.374
  126POPC   D2A 1939   2.497   9.469   7.056
  126POPC   C3A 1940   2.655   9.516   6.649
  126POPC   C4A 1941   2.416   9.510   6.292
  126POPC   C1B 1942   2.983   9.391   7.350
  126POPC   C2B 1943   2.945   9.191   6.970
  126POPC   C3B 1944   3.091   9.237   6.558
  126POPC   C4B 1945   2.884   9.310   6.178
  127POPC   NC3 1946   7.380   2.048   8.088
  127POPC   PO4 1947   6.795   2.338   8.112
  127POPC   GL1 1948   7.072   2.188   7.723
  127POPC   GL2 1949   7.070   1.823   7.735
  127POPC   C1A 1950   7.455   2.100   7.395
  127POPC   D2A 1951   7.691   2.176   6.973
  127POPC   C3A 1952   7.512   2.256   6.590
  127POPC   C4A 1953   7.299   2.256   6.225
  127POPC   C1B 1954   7.007   1.894   7.286
  127POPC   C2B 1955   7.230   1.892   6.893
  127POPC   C3B 1956   7.013   1.940   6.485
  127POPC   C4B 1957   6.819   1.673   6.172
  128POPC   NC3 1958   3.521   0.186   8.007
  128POPC   PO4 1959   3.183   0.757   7.957
  128POPC   GL1 1960   3.127   0.371   7.653
  128POPC   GL2 1961   3.425   0.186   7.529
  128POPC   C1A 1962   3.102   0.180   7.173
  128POPC   D2A 1963   3.425   0.173   6.828
  128POPC   C3A 1964   3.219   0.260   6.412
  128POPC   C4A 1965   3.020   0.203   5.992
  128POPC   C1B 1966   3.459   0.544   7.240
  128POPC   C2B 1967   3.526   0.812   6.913
  128POPC   C3B 1968   3.562   0.645   6.540
  128POPC   C4B 1969   3.431   0.770   6.177
  129POPC   NC3 1970   8.073   0.978   7.998
  129POPC   PO4 1971   8.662   0.740   8.037
  129POPC   GL1 1972   8.624   1.082   7.739
  129POPC   GL2 1973   8.857   0.889   7.546
  129POPC   C1A 1974   8.745   1.364   7.373
  129POPC   D2A 1975   8.901   1.439   6.934
  129POPC   C3A 1976   8.641   1.314   6.584
  129POPC   C4A 1977   8.481   0.954   6.329
  129POPC   C1B 1978   8.852   0.944   7.099
  129POPC   C2B 1979   8.957   0.951   6.675
  129POPC   C3B 1980   9.025   1.104   6.270
  129POPC   C4B 1981   9.184   0.943   5.906
  130POPC   NC3 1982   8.220   7.997   8.249
  130POPC   PO4 1983   7.596   8.001   8.106
  130POPC   GL1 1984   7.755   8.139   7.715
  130POPC   GL2 1985   8.046   7.970   7.675
  130POPC   C1A 1986   7.600   8.306   7.305
  130POPC   D2A 1987   7.630   8.062   6.889
  130POPC   C3A 1988   7.420   8.129   6.483
  130POPC   C4A 1989   7.422   8.497   6.246
  130POPC   C1B 1990   8.000   7.896   7.220
  130POPC   C2B 1991   7.854   7.603   6.880
  130POPC   C3B 1992   7.865   7.600   6.437
  130POPC   C4B 1993   8.141   7.885   6.277
  131POPC   NC3 1994   7.211   7.768   8.048
  131POPC   PO4 1995   7.176   8.421   8.173
  131POPC   GL1 1996   7.253   8.196   7.768
  131POPC   GL2 1997   6.892   8.162   7.810
  131POPC   C1A 1998   7.440   7.857   7.414
  131POPC   D2A 1999   7.240   7.739   6.992
  131POPC   C3A 2000   7.358   7.630   6.546
  131POPC   C4A 2001   7.454   7.689   6.090
  131POPC   C1B 2002   6.946   7.915   7.427
  131POPC   C2B 2003   6.762   7.907   7.031
  131POPC   C3B 2004   6.916   7.975   6.618
  131POPC   C4B 2005   6.979   7.827   6.214
  132POPC   NC3 2006   0.214   0.744   8.139
  132POPC   PO4 2007  10.439   0.140   7.920
  132POPC   GL1 2008   0.277   0.325   7.645
  132POPC   GL2 2009   0.401   0.680   7.631
  132POPC   C1A 2010   0.499   0.396   7.223
  132POPC   D2A 2011   0.479   0.764   6.935
  132POPC   C3A 2012   0.404   0.640   6.527
  132POPC   C4A 2013   0.374   0.478   6.173
  132POPC   C1B 2014   0.745   0.843   7.392
  132POPC   C2B 2015   0.980   0.689   7.026
  132POPC   C3B 2016   0.857   0.494   6.650
  132POPC   C4B 2017   0.864   0.650   6.244
  133POPC   NC3 2018   4.200   8.076   8.054
  133POPC   PO4 2019   3.805   7.653   8.092
  133POPC   GL1 2020   3.854   7.866   7.689
  133POPC   GL2 2021   4.186   7.748   7.657
  133POPC   C1A 2022   3.943   7.916   7.213
  133POPC   D2A 2023   3.925   8.136   6.784
  133POPC   C3A 2024   3.986   7.909   6.365
  133POPC   C4A 2025   3.676   7.659   6.081
  133POPC   C1B 2026   4.390   8.072   7.419
  133POPC   C2B 2027   4.428   8.068   7.004
  133POPC   C3B 2028   4.485   8.039   6.580
  133POPC   C4B 2029   4.460   8.062   6.155
  134POPC   NC3 2030   8.649   8.518   8.000
  134POPC   PO4 2031   9.235   8.135   8.071
  134POPC   GL1 2032   9.139   8.389   7.719
  134POPC   GL2 2033   8.906   8.672   7.598
  134POPC   C1A 2034   9.094   8.364   7.284
  134POPC   D2A 2035   8.873   8.683   7.074
  134POPC   C3A 2036   8.757   8.559   6.676
  134POPC   C4A 2037   9.027   8.410   6.357
  134POPC   C1B 2038   8.481   8.731   7.411
  134POPC   C2B 2039   8.354   8.715   6.983
  134POPC   C3B 2040   8.259   8.734   6.548
  134POPC   C4B 2041   8.572   8.700   6.213
  135POPC   NC3 2042   0.443  10.497   8.038
  135POPC   PO4 2043   0.165   9.860   8.202
  135POPC   GL1 2044   0.349  10.035   7.762
  135POPC   GL2 2045   0.706  10.156   7.711
  135POPC   C1A 2046   0.338  10.377   7.398
  135POPC   D2A 2047   0.153   0.042   7.004
  135POPC   C3A 2048   0.368   0.109   6.581
  135POPC   C4A 2049   0.284  10.473   6.138
  135POPC   C1B 2050   0.592   9.965   7.281
  135POPC   C2B 2051   0.540  10.201   6.889
  135POPC   C3B 2052   0.498  10.095   6.448
  135POPC   C4B 2053   0.660  10.133   6.034
  136POPC   NC3 2054   9.773   1.081   8.164
  136POPC   PO4 2055   9.961   1.608   8.268
  136POPC   GL1 2056   9.923   1.426   7.820
  136POPC   GL2 2057  10.245   1.385   7.637
  136POPC   C1A 2058   9.832   1.555   7.377
  136POPC   D2A 2059  10.020   1.375   6.998
  136POPC   C3A 2060   9.844   1.516   6.615
  136POPC   C4A 2061  10.004   1.706   6.274
  136POPC   C1B 2062  10.244   1.061   7.337
  136POPC   C2B 2063  10.207   0.878   6.933
  136POPC   C3B 2064  10.188   1.117   6.570
  136POPC   C4B 2065  10.111   1.073   6.162
  137POPC   NC3 2066   0.611   6.464   7.985
  137POPC   PO4 2067   0.078   6.002   8.120
  137POPC   GL1 2068   0.170   6.207   7.703
  137POPC   GL2 2069   0.511   6.197   7.579
  137POPC   C1A 2070   0.187   6.065   7.238
  137POPC   D2A 2071   0.409   6.171   6.857
  137POPC   C3A 2072   0.254   6.138   6.442
  137POPC   C4A 2073   0.146   6.155   6.042
  137POPC   C1B 2074   0.763   6.299   7.235
  137POPC   C2B 2075   0.857   6.451   6.835
  137POPC   C3B 2076   0.758   6.269   6.476
  137POPC   C4B 2077   0.588   6.375   6.108
  138POPC   NC3 2078   9.135   0.785   7.977
  138POPC   PO4 2079   9.170   1.511   8.105
  138POPC   GL1 2080   9.119   1.298   7.735
  138POPC   GL2 2081   9.455   1.175   7.743
  138POPC   C1A 2082   9.234   1.247   7.296
  138POPC   D2A 2083   9.505   1.357   6.986
  138POPC   C3A 2084   9.329   1.380   6.581
  138POPC   C4A 2085   9.501   1.544   6.189
  138POPC   C1B 2086   9.723   1.067   7.390
  138POPC   C2B 2087   9.717   0.883   7.010
  138POPC   C3B 2088   9.692   1.001   6.599
  138POPC   C4B 2089   9.607   1.052   6.177
  139POPC   NC3 2090   2.182  10.496   7.987
  139POPC   PO4 2091   2.381   0.740   8.047
  139POPC   GL1 2092   2.110   0.559   7.713
  139POPC   GL2 2093   1.708   0.500   7.733
  139POPC   C1A 2094   2.217   0.633   7.309
  139POPC   D2A 2095   2.045   0.487   6.955
  139POPC   C3A 2096   1.952   0.732   6.625
  139POPC   C4A 2097   2.051   0.565   6.252
  139POPC   C1B 2098   1.777   0.278   7.384
  139POPC   C2B 2099   1.688   0.103   6.989
  139POPC   C3B 2100   1.833   0.209   6.574
  139POPC   C4B 2101   1.687   0.232   6.164
  140POPC   NC3 2102   5.308   9.579   8.214
  140POPC   PO4 2103   4.841   9.088   8.056
  140POPC   GL1 2104   4.814   9.247   7.690
  140POPC   GL2 2105   5.020   9.492   7.663
  140POPC   C1A 2106   4.928   9.092   7.302
  140POPC   D2A 2107   4.710   9.136   6.950
  140POPC   C3A 2108   4.895   9.173   6.587
  140POPC   C4A 2109   4.718   8.988   6.246
  140POPC   C1B 2110   4.840   9.590   7.246
  140POPC   C2B 2111   4.761   9.667   6.793
  140POPC   C3B 2112   4.806   9.630   6.374
  140POPC   C4B 2113   4.935   9.482   5.970
  141POPC   NC3 2114   9.577   1.860   8.185
  141POPC   PO4 2115   9.195   2.363   8.131
  141POPC   GL1 2116   9.386   2.068   7.767
  141POPC   GL2 2117   9.458   1.702   7.715
  141POPC   C1A 2118   9.556   2.013   7.318
  141POPC   D2A 2119   9.863   1.911   6.973
  141POPC   C3A 2120   9.746   2.125   6.578
  141POPC   C4A 2121   9.628   2.067   6.154
  141POPC   C1B 2122   9.126   1.747   7.380
  141POPC   C2B 2123   9.254   1.806   6.935
  141POPC   C3B 2124   9.283   1.894   6.497
  141POPC   C4B 2125   9.124   1.909   6.064
  142POPC   NC3 2126  10.206   1.992   8.318
  142POPC   PO4 2127  10.161   2.604   8.020
  142POPC   GL1 2128  10.105   2.695   7.615
  142POPC   GL2 2129  10.011   3.028   7.549
  142POPC   C1A 2130  10.087   2.714   7.153
  142POPC   D2A 2131   9.801   2.561   6.876
  142POPC   C3A 2132  10.102   2.530   6.557
  142POPC   C4A 2133  10.068   2.330   6.182
  142POPC   C1B 2134  10.431   3.002   7.371
  142POPC   C2B 2135  10.441   3.113   6.945
  142POPC   C3B 2136  10.374   3.266   6.553
  142POPC   C4B 2137  10.351   2.918   6.317
  143POPC   NC3 2138   4.506   9.511   8.067
  143POPC   PO4 2139   3.915   9.191   8.008
  143POPC   GL1 2140   4.249   9.209   7.727
  143POPC   GL2 2141   4.141   9.545   7.683
  143POPC   C1A 2142   4.438   9.298   7.350
  143POPC   D2A 2143   4.332   9.510   6.985
  143POPC   C3A 2144   4.414   9.320   6.567
  143POPC   C4A 2145   4.426   9.435   6.116
  143POPC   C1B 2146   3.931   9.343   7.284
  143POPC   C2B 2147   3.892   9.362   6.807
  143POPC   C3B 2148   3.939   9.357   6.395
  143POPC   C4B 2149   3.983   9.674   6.183
  144POPC   NC3 2150   4.920   8.613   8.132
  144POPC   PO4 2151   5.484   8.738   7.988
  144POPC   GL1 2152   5.144   8.751   7.663
  144POPC   GL2 2153   4.777   8.736   7.663
  144POPC   C1A 2154   5.233   8.699   7.238
  144POPC   D2A 2155   5.358   8.975   6.934
  144POPC   C3A 2156   5.228   8.800   6.567
  144POPC   C4A 2157   5.124   8.549   6.246
  144POPC   C1B 2158   4.780   8.448   7.298
  144POPC   C2B 2159   4.809   8.619   6.874
  144POPC   C3B 2160   4.660   8.518   6.461
  144POPC   C4B 2161   4.526   8.556   6.035
  145POPC   NC3 2162   8.676   4.126   8.235
  145POPC   PO4 2163   8.324   4.623   8.017
  145POPC   GL1 2164   8.457   4.412   7.625
  145POPC   GL2 2165   8.804   4.366   7.446
  145POPC   C1A 2166   8.342   4.204   7.245
  145POPC   D2A 2167   8.320   4.328   6.833
  145POPC   C3A 2168   8.249   4.052   6.442
  145POPC   C4A 2169   7.941   4.143   6.083
  145POPC   C1B 2170   8.822   4.085   7.119
  145POPC   C2B 2171   8.665   3.929   6.752
  145POPC   C3B 2172   8.736   3.899   6.319
  145POPC   C4B 2173   8.737   4.227   6.013
  146POPC   NC3 2174   7.141   2.678   8.098
  146POPC   PO4 2175   7.736   2.343   8.071
  146POPC   GL1 2176   7.521   2.514   7.680
  146POPC   GL2 2177   7.185   2.690   7.598
  146POPC   C1A 2178   7.496   2.591   7.212
  146POPC   D2A 2179   7.630   2.746   6.813
  146POPC   C3A 2180   7.388   2.758   6.443
  146POPC   C4A 2181   7.659   2.594   6.190
  146POPC   C1B 2182   7.023   2.402   7.270
  146POPC   C2B 2183   6.857   2.231   6.902
  146POPC   C3B 2184   7.000   2.439   6.592
  146POPC   C4B 2185   6.911   2.601   6.236
  147POPC   NC3 2186   4.863  10.407   7.873
  147POPC   PO4 2187   4.887   9.797   8.181
  147POPC   GL1 2188   5.140   9.949   7.829
  147POPC   GL2 2189   4.880  10.004   7.564
  147POPC   C1A 2190   5.292   9.830   7.374
  147POPC   D2A 2191   5.078   9.981   7.017
  147POPC   C3A 2192   5.223   9.889   6.588
  147POPC   C4A 2193   5.023  10.044   6.211
  147POPC   C1B 2194   4.688  10.278   7.257
  147POPC   C2B 2195   4.782  10.423   6.892
  147POPC   C3B 2196   4.666  10.210   6.553
  147POPC   C4B 2197   4.646  10.397   6.169
  148POPC   NC3 2198   8.672   0.286   8.201
  148POPC   PO4 2199   8.003   0.059   8.069
  148POPC   GL1 2200   8.334   0.386   7.816
  148POPC   GL2 2201   8.703   0.354   7.699
  148POPC   C1A 2202   8.340   0.506   7.348
  148POPC   D2A 2203   8.200   0.476   6.904
  148POPC   C3A 2204   8.383   0.471   6.506
  148POPC   C4A 2205   8.348   0.089   6.242
  148POPC   C1B 2206   8.852   0.449   7.294
  148POPC   C2B 2207   8.710   0.492   6.924
  148POPC   C3B 2208   8.905   0.461   6.587
  148POPC   C4B 2209   8.851   0.620   6.240
  149POPC   NC3 2210   4.212   8.825   8.063
  149POPC   PO4 2211   4.593   8.297   8.090
  149POPC   GL1 2212   4.330   8.499   7.679
  149POPC   GL2 2213   4.021   8.743   7.584
  149POPC   C1A 2214   4.420   8.791   7.282
  149POPC   D2A 2215   4.198   8.998   6.951
  149POPC   C3A 2216   4.158   8.888   6.491
  149POPC   C4A 2217   4.239   8.982   6.049
  149POPC   C1B 2218   4.050   8.440   7.225
  149POPC   C2B 2219   4.281   8.506   6.823
  149POPC   C3B 2220   4.161   8.396   6.394
  149POPC   C4B 2221   4.022   8.541   6.001
  150POPC   NC3 2222   9.775  10.348   4.027
  150POPC   PO4 2223   9.165  10.273   3.683
  150POPC   GL1 2224   9.225   9.951   4.131
  150POPC   GL2 2225   9.490  10.045   4.340
  150POPC   C1A 2226   9.074  10.088   4.663
  150POPC   D2A 2227   9.055  10.359   5.076
  150POPC   C3A 2228   9.293  10.197   5.443
  150POPC   C4A 2229   9.315   9.987   5.849
  150POPC   C1B 2230   9.567  10.155   4.778
  150POPC   C2B 2231   9.880  10.131   5.108
  150POPC   C3B 2232   9.883  10.394   5.502
  150POPC   C4B 2233   9.655  10.360   5.851
  151POPC   NC3 2234   6.344   9.823   3.902
  151POPC   PO4 2235   6.836  10.085   3.687
  151POPC   GL1 2236   6.757  10.035   4.152
  151POPC   GL2 2237   6.575  10.345   4.239
  151POPC   C1A 2238   6.510   9.916   4.548
  151POPC   D2A 2239   6.302  10.003   4.936
  151POPC   C3A 2240   6.542   9.929   5.275
  151POPC   C4A 2241   6.626   9.931   5.703
  151POPC   C1B 2242   6.259  10.383   4.584
  151POPC   C2B 2243   6.265   0.062   4.993
  151POPC   C3B 2244   6.344  10.406   5.374
  151POPC   C4B 2245   6.302  10.311   5.769
  152POPC   NC3 2246   0.794   9.552   4.100
  152POPC   PO4 2247   1.312   9.182   3.895
  152POPC   GL1 2248   1.268   9.399   4.280
  152POPC   GL2 2249   1.549   9.653   4.222
  152POPC   C1A 2250   1.010   9.263   4.666
  152POPC   D2A 2251   1.030   9.020   5.064
  152POPC   C3A 2252   0.819   9.162   5.448
  152POPC   C4A 2253   1.007   9.383   5.790
  152POPC   C1B 2254   1.460   9.728   4.642
  152POPC   C2B 2255   1.382   9.435   4.962
  152POPC   C3B 2256   1.299   9.355   5.368
  152POPC   C4B 2257   1.512   9.490   5.740
  153POPC   NC3 2258   1.404  10.326   3.957
  153POPC   PO4 2259   0.861  10.027   3.606
  153POPC   GL1 2260   0.928  10.175   4.079
  153POPC   GL2 2261   1.125   9.927   4.243
  153POPC   C1A 2262   1.060  10.324   4.535
  153POPC   D2A 2263   0.837  10.350   4.926
  153POPC   C3A 2264   0.926  10.299   5.371
  153POPC   C4A 2265   1.029  10.407   5.793
  153POPC   C1B 2266   0.936   9.839   4.663
  153POPC   C2B 2267   1.080   9.889   5.061
  153POPC   C3B 2268   1.157   9.834   5.487
  153POPC   C4B 2269   1.503  10.051   5.670
  154POPC   NC3 2270   1.187   1.489   4.084
  154POPC   PO4 2271   1.554   0.939   3.831
  154POPC   GL1 2272   1.490   1.114   4.253
  154POPC   GL2 2273   1.163   1.040   4.402
  154POPC   C1A 2274   1.481   1.347   4.691
  154POPC   D2A 2275   1.328   1.472   5.096
  154POPC   C3A 2276   1.563   1.490   5.506
  154POPC   C4A 2277   1.544   1.242   5.909
  154POPC   C1B 2278   0.915   1.316   4.673
  154POPC   C2B 2279   0.805   1.420   5.075
  154POPC   C3B 2280   0.796   1.173   5.413
  154POPC   C4B 2281   1.053   1.237   5.728
  155POPC   NC3 2282   8.780   7.805   3.883
  155POPC   PO4 2283   8.247   8.311   3.852
  155POPC   GL1 2284   8.268   8.136   4.269
  155POPC   GL2 2285   8.591   7.961   4.319
  155POPC   C1A 2286   8.274   8.053   4.705
  155POPC   D2A 2287   8.563   8.126   5.011
  155POPC   C3A 2288   8.525   8.027   5.445
  155POPC   C4A 2289   8.267   7.996   5.805
  155POPC   C1B 2290   8.833   7.847   4.664
  155POPC   C2B 2291   8.826   7.700   5.092
  155POPC   C3B 2292   9.022   7.853   5.479
  155POPC   C4B 2293   8.840   7.828   5.904
  156POPC   NC3 2294   2.690   1.204   3.810
  156POPC   PO4 2295   3.156   1.593   3.655
  156POPC   GL1 2296   3.066   1.296   4.128
  156POPC   GL2 2297   2.710   1.302   4.300
  156POPC   C1A 2298   3.075   1.327   4.647
  156POPC   D2A 2299   3.035   1.014   4.993
  156POPC   C3A 2300   3.058   1.159   5.420
  156POPC   C4A 2301   2.883   1.049   5.831
  156POPC   C1B 2302   2.543   1.268   4.693
  156POPC   C2B 2303   2.703   1.402   5.104
  156POPC   C3B 2304   2.581   1.315   5.518
  156POPC   C4B 2305   2.315   0.992   5.616
  157POPC   NC3 2306   0.602   3.291   4.009
  157POPC   PO4 2307  10.446   3.404   3.870
  157POPC   GL1 2308   0.142   3.561   4.259
  157POPC   GL2 2309   0.357   3.316   4.440
  157POPC   C1A 2310   0.041   3.618   4.704
  157POPC   D2A 2311   0.287   3.444   5.020
  157POPC   C3A 2312   0.165   3.420   5.441
  157POPC   C4A 2313   0.341   3.146   5.744
  157POPC   C1B 2314   0.712   3.359   4.690
  157POPC   C2B 2315   0.815   3.501   5.068
  157POPC   C3B 2316   0.736   3.360   5.465
  157POPC   C4B 2317   0.535   3.642   5.746
  158POPC   NC3 2318   8.790   5.377   3.822
  158POPC   PO4 2319   8.872   6.047   3.937
  158POPC   GL1 2320   8.825   5.766   4.319
  158POPC   GL2 2321   8.488   5.752   4.294
  158POPC   C1A 2322   8.948   5.534   4.732
  158POPC   D2A 2323   8.763   5.497   5.134
  158POPC   C3A 2324   8.862   5.541   5.543
  158POPC   C4A 2325   8.531   5.383   5.817
  158POPC   C1B 2326   8.471   5.706   4.737
  158POPC   C2B 2327   8.275   5.687   5.124
  158POPC   C3B 2328   8.431   5.832   5.485
  158POPC   C4B 2329   8.509   5.884   5.906
  159POPC   NC3 2330   7.918   4.888   3.852
  159POPC   PO4 2331   8.448   4.705   3.915
  159POPC   GL1 2332   8.238   4.772   4.310
  159POPC   GL2 2333   7.868   4.747   4.350
  159POPC   C1A 2334   8.229   4.852   4.780
  159POPC   D2A 2335   8.113   4.705   5.213
  159POPC   C3A 2336   7.829   4.823   5.576
  159POPC   C4A 2337   7.928   4.659   5.981
  159POPC   C1B 2338   7.752   5.020   4.738
  159POPC   C2B 2339   7.818   5.179   5.195
  159POPC   C3B 2340   7.580   5.258   5.610
  159POPC   C4B 2341   7.632   5.352   6.057
  160POPC   NC3 2342   2.143  10.338   3.892
  160POPC   PO4 2343   1.558   0.261   3.893
  160POPC   GL1 2344   1.793  10.491   4.258
  160POPC   GL2 2345   1.590  10.187   4.406
  160POPC   C1A 2346   2.088   0.074   4.672
  160POPC   D2A 2347   2.228  10.426   5.109
  160POPC   C3A 2348   2.033   0.054   5.534
  160POPC   C4A 2349   2.144   0.095   5.996
  160POPC   C1B 2350   1.792  10.169   4.807
  160POPC   C2B 2351   1.930  10.024   5.224
  160POPC   C3B 2352   2.003  10.046   5.677
  160POPC   C4B 2353   1.807  10.246   6.052
  161POPC   NC3 2354   1.880   4.502   4.033
  161POPC   PO4 2355   1.851   3.840   3.840
  161POPC   GL1 2356   2.032   4.031   4.219
  161POPC   GL2 2357   1.773   4.095   4.427
  161POPC   C1A 2358   2.194   3.997   4.689
  161POPC   D2A 2359   1.951   4.102   5.075
  161POPC   C3A 2360   2.184   4.006   5.484
  161POPC   C4A 2361   2.242   3.935   5.957
  161POPC   C1B 2362   1.775   4.472   4.679
  161POPC   C2B 2363   1.782   4.654   5.079
  161POPC   C3B 2364   1.796   4.426   5.444
  161POPC   C4B 2365   1.802   4.168   5.776
  162POPC   NC3 2366   7.094   0.636   3.966
  162POPC   PO4 2367   7.684   0.492   3.825
  162POPC   GL1 2368   7.633   0.578   4.254
  162POPC   GL2 2369   7.365   0.344   4.298
  162POPC   C1A 2370   7.552   0.526   4.722
  162POPC   D2A 2371   7.493   0.434   5.159
  162POPC   C3A 2372   7.491   0.694   5.521
  162POPC   C4A 2373   7.464   0.537   5.934
  162POPC   C1B 2374   7.152   0.205   4.704
  162POPC   C2B 2375   7.153   0.075   5.131
  162POPC   C3B 2376   7.193   0.195   5.583
  162POPC   C4B 2377   7.023   0.309   5.988
  163POPC   NC3 2378   7.979   0.165   3.922
  163POPC   PO4 2379   8.650   0.121   3.858
  163POPC   GL1 2380   8.358   0.188   4.252
  163POPC   GL2 2381   8.176   0.542   4.211
  163POPC   C1A 2382   7.967   0.222   4.549
  163POPC   D2A 2383   7.664   0.017   4.827
  163POPC   C3A 2384   7.831   0.040   5.239
  163POPC   C4A 2385   7.706   0.224   5.606
  163POPC   C1B 2386   7.995   0.739   4.590
  163POPC   C2B 2387   7.985   0.488   4.976
  163POPC   C3B 2388   7.966   0.593   5.363
  163POPC   C4B 2389   7.939   0.708   5.767
  164POPC   NC3 2390   8.790  10.234   4.100
  164POPC   PO4 2391   8.676   9.622   3.891
  164POPC   GL1 2392   8.835   9.759   4.345
  164POPC   GL2 2393   8.587  10.000   4.493
  164POPC   C1A 2394   8.786   9.654   4.793
  164POPC   D2A 2395   8.751   9.967   5.090
  164POPC   C3A 2396   8.935   9.856   5.490
  164POPC   C4A 2397   8.818   9.978   5.905
  164POPC   C1B 2398   8.659  10.392   4.729
  164POPC   C2B 2399   8.513  10.468   5.127
  164POPC   C3B 2400   8.609  10.267   5.497
  164POPC   C4B 2401   8.631  10.449   5.862
  165POPC   NC3 2402   2.187   2.673   3.920
  165POPC   PO4 2403   1.550   2.654   3.791
  165POPC   GL1 2404   1.646   2.766   4.224
  165POPC   GL2 2405   1.979   2.782   4.354
  165POPC   C1A 2406   1.553   2.782   4.684
  165POPC   D2A 2407   1.769   2.778   5.087
  165POPC   C3A 2408   1.511   2.856   5.356
  165POPC   C4A 2409   1.578   2.803   5.731
  165POPC   C1B 2410   2.079   2.634   4.735
  165POPC   C2B 2411   2.332   2.503   5.060
  165POPC   C3B 2412   2.164   2.372   5.457
  165POPC   C4B 2413   2.045   2.616   5.783
  166POPC   NC3 2414   6.643   8.362   3.738
  166POPC   PO4 2415   6.127   8.799   3.817
  166POPC   GL1 2416   6.135   8.759   4.360
  166POPC   GL2 2417   6.515   8.781   4.531
  166POPC   C1A 2418   6.244   8.438   4.739
  166POPC   D2A 2419   6.499   8.558   5.110
  166POPC   C3A 2420   6.328   8.534   5.542
  166POPC   C4A 2421   6.204   8.190   5.819
  166POPC   C1B 2422   6.232   8.945   4.848
  166POPC   C2B 2423   6.210   9.025   5.278
  166POPC   C3B 2424   6.559   8.985   5.526
  166POPC   C4B 2425   6.615   9.001   5.953
  167POPC   NC3 2426  10.200   7.257   3.962
  167POPC   PO4 2427   9.781   6.796   3.828
  167POPC   GL1 2428   9.829   7.036   4.271
  167POPC   GL2 2429  10.174   7.157   4.440
  167POPC   C1A 2430   9.825   7.012   4.749
  167POPC   D2A 2431   9.963   6.880   5.137
  167POPC   C3A 2432  10.007   7.107   5.493
  167POPC   C4A 2433  10.055   6.994   5.885
  167POPC   C1B 2434  10.223   7.402   4.831
  167POPC   C2B 2435  10.413   7.208   5.211
  167POPC   C3B 2436   0.005   6.971   5.640
  167POPC   C4B 2437   0.004   7.073   6.125
  168POPC   NC3 2438   8.370   1.588   4.157
  168POPC   PO4 2439   8.177   0.927   3.890
  168POPC   GL1 2440   8.205   1.098   4.255
  168POPC   GL2 2441   7.843   1.120   4.298
  168POPC   C1A 2442   8.412   1.081   4.654
  168POPC   D2A 2443   8.187   0.947   5.048
  168POPC   C3A 2444   8.314   0.964   5.493
  168POPC   C4A 2445   8.195   1.143   5.924
  168POPC   C1B 2446   7.962   1.269   4.707
  168POPC   C2B 2447   7.871   1.345   5.145
  168POPC   C3B 2448   7.822   1.167   5.559
  168POPC   C4B 2449   7.533   1.416   5.799
  169POPC   NC3 2450   4.905   8.436   4.038
  169POPC   PO4 2451   4.864   9.137   3.966
  169POPC   GL1 2452   4.894   8.983   4.359
  169POPC   GL2 2453   4.615   8.769   4.330
  169POPC   C1A 2454   4.751   9.021   4.778
  169POPC   D2A 2455   4.602   9.012   5.192
  169POPC   C3A 2456   4.813   8.791   5.434
  169POPC   C4A 2457   4.943   8.703   5.813
  169POPC   C1B 2458   4.768   8.492   4.667
  169POPC   C2B 2459   4.911   8.446   5.087
  169POPC   C3B 2460   4.790   8.297   5.511
  169POPC   C4B 2461   4.901   8.195   5.940
  170POPC   NC3 2462   7.776   6.513   3.907
  170POPC   PO4 2463   7.539   7.034   4.069
  170POPC   GL1 2464   7.812   6.743   4.393
  170POPC   GL2 2465   8.032   6.462   4.347
  170POPC   C1A 2466   7.940   6.539   4.838
  170POPC   D2A 2467   7.775   6.323   5.216
  170POPC   C3A 2468   7.775   6.556   5.615
  170POPC   C4A 2469   7.974   6.578   6.005
  170POPC   C1B 2470   8.207   6.145   4.614
  170POPC   C2B 2471   8.335   6.199   5.021
  170POPC   C3B 2472   8.248   6.403   5.379
  170POPC   C4B 2473   8.058   6.120   5.694
  171POPC   NC3 2474   5.639   2.277   3.993
  171POPC   PO4 2475   5.345   1.683   3.862
  171POPC   GL1 2476   5.518   1.653   4.254
  171POPC   GL2 2477   5.821   1.847   4.226
  171POPC   C1A 2478   5.673   1.656   4.677
  171POPC   D2A 2479   5.901   1.551   5.020
  171POPC   C3A 2480   5.704   1.677   5.402
  171POPC   C4A 2481   5.525   2.019   5.598
  171POPC   C1B 2482   5.875   2.118   4.636
  171POPC   C2B 2483   5.751   2.090   5.079
  171POPC   C3B 2484   5.801   2.396   5.422
  171POPC   C4B 2485   5.860   2.331   5.868
  172POPC   NC3 2486   1.468   3.789   4.102
  172POPC   PO4 2487   0.938   3.443   3.746
  172POPC   GL1 2488   1.005   3.558   4.201
  172POPC   GL2 2489   1.065   3.232   4.348
  172POPC   C1A 2490   1.089   3.719   4.653
  172POPC   D2A 2491   1.296   3.721   5.088
  172POPC   C3A 2492   1.003   3.788   5.465
  172POPC   C4A 2493   1.028   3.582   5.868
  172POPC   C1B 2494   1.324   3.253   4.699
  172POPC   C2B 2495   1.199   3.187   5.113
  172POPC   C3B 2496   1.342   3.378   5.484
  172POPC   C4B 2497   1.431   3.254   5.884
  173POPC   NC3 2498   0.789   2.309   4.042
  173POPC   PO4 2499   0.748   2.885   4.165
  173POPC   GL1 2500   0.681   2.586   4.445
  173POPC   GL2 2501   0.353   2.584   4.442
  173POPC   C1A 2502   0.681   2.335   4.778
  173POPC   D2A 2503   0.483   2.486   5.127
  173POPC   C3A 2504   0.645   2.637   5.540
  173POPC   C4A 2505   0.399   2.468   5.837
  173POPC   C1B 2506   0.453   2.906   4.784
  173POPC   C2B 2507   0.461   2.995   5.223
  173POPC   C3B 2508   0.162   2.735   5.463
  173POPC   C4B 2509  -0.001   2.787   5.867
  174POPC   NC3 2510   1.799   7.176   4.020
  174POPC   PO4 2511   2.468   7.170   3.924
  174POPC   GL1 2512   2.206   7.103   4.321
  174POPC   GL2 2513   1.920   7.314   4.480
  174POPC   C1A 2514   2.160   7.007   4.788
  174POPC   D2A 2515   2.098   7.238   5.189
  174POPC   C3A 2516   2.145   6.922   5.491
  174POPC   C4A 2517   2.045   6.821   5.896
  174POPC   C1B 2518   1.668   7.141   4.799
  174POPC   C2B 2519   1.681   6.962   5.203
  174POPC   C3B 2520   1.699   7.134   5.616
  174POPC   C4B 2521   1.660   7.422   5.956
  175POPC   NC3 2522   7.210   7.352   4.008
  175POPC   PO4 2523   6.757   7.924   3.881
  175POPC   GL1 2524   7.032   7.894   4.322
  175POPC   GL2 2525   7.393   7.992   4.377
  175POPC   C1A 2526   7.101   7.783   4.773
  175POPC   D2A 2527   7.273   7.761   5.216
  175POPC   C3A 2528   7.096   7.712   5.655
  175POPC   C4A 2529   7.061   7.378   5.971
  175POPC   C1B 2530   7.339   8.256   4.741
  175POPC   C2B 2531   7.396   8.393   5.163
  175POPC   C3B 2532   7.209   8.192   5.503
  175POPC   C4B 2533   7.259   8.134   5.923
  176POPC   NC3 2534   1.565   2.192   3.719
  176POPC   PO4 2535   1.663   1.591   4.116
  176POPC   GL1 2536   1.447   1.869   4.372
  176POPC   GL2 2537   1.146   1.728   4.530
  176POPC   C1A 2538   1.507   1.905   4.808
  176POPC   D2A 2539   1.412   1.979   5.201
  176POPC   C3A 2540   1.100   1.755   5.460
  176POPC   C4A 2541   1.239   1.649   5.903
  176POPC   C1B 2542   1.003   1.864   4.921
  176POPC   C2B 2543   0.924   2.187   5.191
  176POPC   C3B 2544   0.747   2.151   5.571
  176POPC   C4B 2545   0.992   2.091   5.905
  177POPC   NC3 2546   4.998   0.608   3.822
  177POPC   PO4 2547   4.349   0.531   3.969
  177POPC   GL1 2548   4.658   0.537   4.344
  177POPC   GL2 2549   5.023   0.402   4.293
  177POPC   C1A 2550   4.709   0.704   4.786
  177POPC   D2A 2551   4.571   0.474   5.102
  177POPC   C3A 2552   4.671   0.492   5.483
  177POPC   C4A 2553   4.714   0.223   5.805
  177POPC   C1B 2554   4.950   0.273   4.713
  177POPC   C2B 2555   5.090   0.429   5.123
  177POPC   C3B 2556   5.156   0.351   5.562
  177POPC   C4B 2557   4.977   0.657   5.859
  178POPC   NC3 2558   3.446   1.841   3.958
  178POPC   PO4 2559   2.835   1.726   4.070
  178POPC   GL1 2560   3.160   1.743   4.374
  178POPC   GL2 2561   3.369   2.023   4.426
  178POPC   C1A 2562   3.111   1.818   4.819
  178POPC   D2A 2563   3.317   1.947   5.182
  178POPC   C3A 2564   3.228   1.634   5.459
  178POPC   C4A 2565   2.974   1.575   5.815
  178POPC   C1B 2566   3.264   2.310   4.769
  178POPC   C2B 2567   3.494   2.442   5.121
  178POPC   C3B 2568   3.653   2.329   5.517
  178POPC   C4B 2569   3.476   2.003   5.698
  179POPC   NC3 2570   6.529   2.313   3.914
  179POPC   PO4 2571   6.805   1.704   3.844
  179POPC   GL1 2572   6.634   1.837   4.243
  179POPC   GL2 2573   6.311   1.832   4.096
  179POPC   C1A 2574   6.686   1.969   4.711
  179POPC   D2A 2575   6.855   1.872   5.128
  179POPC   C3A 2576   6.612   2.009   5.469
  179POPC   C4A 2577   6.489   1.683   5.746
  179POPC   C1B 2578   6.221   1.760   4.562
  179POPC   C2B 2579   6.251   1.929   5.011
  179POPC   C3B 2580   6.111   1.974   5.449
  179POPC   C4B 2581   5.997   1.826   5.843
  180POPC   NC3 2582   8.947   0.451   3.947
  180POPC   PO4 2583   9.206  10.429   4.162
  180POPC   GL1 2584   8.870   0.202   4.376
  180POPC   GL2 2585   8.679   0.581   4.338
  180POPC   C1A 2586   8.924   0.409   4.765
  180POPC   D2A 2587   9.151   0.388   5.136
  180POPC   C3A 2588   8.892   0.215   5.436
  180POPC   C4A 2589   8.818   0.404   5.799
  180POPC   C1B 2590   8.448   0.568   4.728
  180POPC   C2B 2591   8.481   0.503   5.174
  180POPC   C3B 2592   8.362   0.354   5.582
  180POPC   C4B 2593   8.366   0.537   5.997
  181POPC   NC3 2594  10.273   0.534   3.847
  181POPC   PO4 2595   9.561   0.558   3.935
  181POPC   GL1 2596   9.862   0.371   4.218
  181POPC   GL2 2597  10.194   0.374   4.314
  181POPC   C1A 2598   9.824   0.144   4.617
  181POPC   D2A 2599   9.707   0.430   4.957
  181POPC   C3A 2600   9.842   0.417   5.407
  181POPC   C4A 2601   9.995   0.292   5.834
  181POPC   C1B 2602  10.158   0.491   4.730
  181POPC   C2B 2603  10.168   0.681   5.122
  181POPC   C3B 2604  10.354   0.687   5.507
  181POPC   C4B 2605  10.374   0.675   5.960
  182POPC   NC3 2606   8.505   2.564   3.982
  182POPC   PO4 2607   8.989   3.011   3.876
  182POPC   GL1 2608   8.943   2.829   4.261
  182POPC   GL2 2609   8.588   2.954   4.331
  182POPC   C1A 2610   9.116   2.709   4.662
  182POPC   D2A 2611   8.915   2.857   5.013
  182POPC   C3A 2612   8.980   2.559   5.341
  182POPC   C4A 2613   8.957   2.642   5.790
  182POPC   C1B 2614   8.614   2.597   4.623
  182POPC   C2B 2615   8.565   2.485   5.037
  182POPC   C3B 2616   8.528   2.788   5.365
  182POPC   C4B 2617   8.437   2.608   5.745
  183POPC   NC3 2618   4.648  10.171   3.832
  183POPC   PO4 2619   5.223   0.068   3.837
  183POPC   GL1 2620   5.219  10.422   4.250
  183POPC   GL2 2621   5.047  10.131   4.159
  183POPC   C1A 2622   5.333  10.436   4.684
  183POPC   D2A 2623   5.075  10.423   5.067
  183POPC   C3A 2624   5.256  10.355   5.461
  183POPC   C4A 2625   5.015  10.325   5.795
  183POPC   C1B 2626   4.814  10.252   4.561
  183POPC   C2B 2627   4.785  10.027   4.977
  183POPC   C3B 2628   4.946   9.925   5.370
  183POPC   C4B 2629   4.730   9.906   5.777
  184POPC   NC3 2630   9.242   1.324   3.988
  184POPC   PO4 2631   9.843   1.353   4.175
  184POPC   GL1 2632   9.727   1.043   4.435
  184POPC   GL2 2633   9.425   1.074   4.382
  184POPC   C1A 2634   9.856   0.890   4.768
  184POPC   D2A 2635   9.692   0.873   5.165
  184POPC   C3A 2636   9.839   1.065   5.496
  184POPC   C4A 2637   9.539   1.269   5.729
  184POPC   C1B 2638   9.451   1.267   4.793
  184POPC   C2B 2639   9.443   1.329   5.227
  184POPC   C3B 2640   9.099   1.246   5.484
  184POPC   C4B 2641   9.077   1.448   5.875
  185POPC   NC3 2642   2.474   8.797   3.966
  185POPC   PO4 2643   2.873   8.309   3.730
  185POPC   GL1 2644   2.770   8.455   4.220
  185POPC   GL2 2645   2.412   8.534   4.387
  185POPC   C1A 2646   2.791   8.632   4.688
  185POPC   D2A 2647   2.960   8.698   5.100
  185POPC   C3A 2648   2.751   9.029   5.357
  185POPC   C4A 2649   2.855   8.909   5.789
  185POPC   C1B 2650   2.234   8.386   4.761
  185POPC   C2B 2651   2.430   8.541   5.101
  185POPC   C3B 2652   2.635   8.563   5.492
  185POPC   C4B 2653   2.544   8.387   5.893
  186POPC   NC3 2654   7.265  10.203   3.816
  186POPC   PO4 2655   6.922   0.215   4.073
  186POPC   GL1 2656   7.122  10.371   4.296
  186POPC   GL2 2657   7.291  10.013   4.282
  186POPC   C1A 2658   6.922  10.213   4.642
  186POPC   D2A 2659   6.710  10.335   5.000
  186POPC   C3A 2660   6.866  10.287   5.423
  186POPC   C4A 2661   6.816  10.376   5.828
  186POPC   C1B 2662   7.281   9.858   4.697
  186POPC   C2B 2663   7.158  10.047   5.075
  186POPC   C3B 2664   7.050   9.820   5.451
  186POPC   C4B 2665   7.215  10.078   5.757
  187POPC   NC3 2666   7.112   9.215   3.777
  187POPC   PO4 2667   7.547   9.503   4.082
  187POPC   GL1 2668   7.423   9.241   4.399
  187POPC   GL2 2669   7.108   9.239   4.283
  187POPC   C1A 2670   7.211   9.329   4.791
  187POPC   D2A 2671   7.324   9.577   5.115
  187POPC   C3A 2672   7.358   9.372   5.480
  187POPC   C4A 2673   7.285   9.559   5.840
  187POPC   C1B 2674   6.913   9.610   4.466
  187POPC   C2B 2675   6.837   9.677   4.933
  187POPC   C3B 2676   6.891   9.320   5.270
  187POPC   C4B 2677   7.044   9.044   5.667
  188POPC   NC3 2678   9.114   8.928   3.852
  188POPC   PO4 2679   9.664   8.596   3.814
  188POPC   GL1 2680   9.723   8.747   4.220
  188POPC   GL2 2681   9.422   8.613   4.325
  188POPC   C1A 2682   9.748   8.790   4.685
  188POPC   D2A 2683   9.606   8.898   5.098
  188POPC   C3A 2684   9.887   8.843   5.449
  188POPC   C4A 2685   9.776   8.923   5.871
  188POPC   C1B 2686   9.227   8.788   4.723
  188POPC   C2B 2687   9.145   8.698   5.148
  188POPC   C3B 2688   9.272   8.719   5.587
  188POPC   C4B 2689   8.970   8.679   5.915
  189POPC   NC3 2690   3.751  10.106   3.751
  189POPC   PO4 2691   3.083   9.759   3.911
  189POPC   GL1 2692   3.208   9.864   4.308
  189POPC   GL2 2693   3.491  10.062   4.238
  189POPC   C1A 2694   3.012   9.868   4.722
  189POPC   D2A 2695   3.082  10.093   5.094
  189POPC   C3A 2696   2.998   9.888   5.484
  189POPC   C4A 2697   3.207   9.808   5.882
  189POPC   C1B 2698   3.422  10.188   4.673
  189POPC   C2B 2699   3.608  10.050   5.082
  189POPC   C3B 2700   3.495  10.168   5.509
  189POPC   C4B 2701   3.829   0.010   5.722
  190POPC   NC3 2702   8.256   9.400   3.868
  190POPC   PO4 2703   8.344  10.039   4.008
  190POPC   GL1 2704   8.397   9.561   4.306
  190POPC   GL2 2705   8.729   9.277   4.241
  190POPC   C1A 2706   8.451   9.252   4.649
  190POPC   D2A 2707   8.638   9.206   5.067
  190POPC   C3A 2708   8.586   9.542   5.305
  190POPC   C4A 2709   8.637   9.527   5.744
  190POPC   C1B 2710   8.970   9.217   4.621
  190POPC   C2B 2711   9.153   9.245   5.051
  190POPC   C3B 2712   9.010   9.299   5.477
  190POPC   C4B 2713   9.160   9.520   5.840
  191POPC   NC3 2714   2.614   0.538   3.790
  191POPC   PO4 2715   3.124   0.879   3.727
  191POPC   GL1 2716   2.754   0.824   4.152
  191POPC   GL2 2717   2.827   0.450   4.244
  191POPC   C1A 2718   2.707   0.784   4.645
  191POPC   D2A 2719   2.514   0.896   5.048
  191POPC   C3A 2720   2.710   0.798   5.381
  191POPC   C4A 2721   2.673   0.589   5.748
  191POPC   C1B 2722   2.565   0.288   4.573
  191POPC   C2B 2723   2.434   0.385   4.986
  191POPC   C3B 2724   2.470   0.291   5.399
  191POPC   C4B 2725   2.586   0.088   5.758
  192POPC   NC3 2726   8.776   6.520   3.879
  192POPC   PO4 2727   8.148   6.785   3.972
  192POPC   GL1 2728   8.490   6.648   4.281
  192POPC   GL2 2729   8.529   6.281   4.256
  192POPC   C1A 2730   8.461   6.614   4.736
  192POPC   D2A 2731   8.745   6.532   5.098
  192POPC   C3A 2732   8.737   6.736   5.531
  192POPC   C4A 2733   8.915   6.689   5.970
  192POPC   C1B 2734   8.739   6.152   4.654
  192POPC   C2B 2735   8.791   6.000   5.080
  192POPC   C3B 2736   8.773   6.197   5.485
  192POPC   C4B 2737   8.494   6.377   5.805
  193POPC   NC3 2738   9.684   8.107   3.851
  193POPC   PO4 2739   9.013   8.196   3.981
  193POPC   GL1 2740   9.200   8.161   4.356
  193POPC   GL2 2741   9.534   8.085   4.340
  193POPC   C1A 2742   9.451   8.338   4.761
  193POPC   D2A 2743   9.585   8.088   5.113
  193POPC   C3A 2744   9.429   8.217   5.527
  193POPC   C4A 2745   9.185   8.192   5.916
  193POPC   C1B 2746   9.343   7.850   4.713
  193POPC   C2B 2747   9.335   7.636   5.110
  193POPC   C3B 2748   9.557   7.700   5.513
  193POPC   C4B 2749   9.860   7.676   5.873
  194POPC   NC3 2750   1.209   2.929   3.947
  194POPC   PO4 2751   1.087   2.262   3.709
  194POPC   GL1 2752   1.289   2.325   4.165
  194POPC   GL2 2753   1.174   2.630   4.337
  194POPC   C1A 2754   1.187   2.268   4.660
  194POPC   D2A 2755   1.351   2.462   5.054
  194POPC   C3A 2756   1.186   2.450   5.531
  194POPC   C4A 2757   1.368   2.415   5.958
  194POPC   C1B 2758   1.038   2.802   4.744
  194POPC   C2B 2759   0.945   2.748   5.159
  194POPC   C3B 2760   1.061   2.943   5.561
  194POPC   C4B 2761   0.840   3.067   5.875
  195POPC   NC3 2762   6.599   1.038   3.480
  195POPC   PO4 2763   7.199   1.135   3.855
  195POPC   GL1 2764   7.320   0.993   4.229
  195POPC   GL2 2765   7.272   1.301   4.388
  195POPC   C1A 2766   7.110   0.726   4.580
  195POPC   D2A 2767   7.158   0.829   4.996
  195POPC   C3A 2768   7.020   0.649   5.344
  195POPC   C4A 2769   6.806   0.705   5.711
  195POPC   C1B 2770   7.522   1.032   4.677
  195POPC   C2B 2771   7.657   0.910   5.065
  195POPC   C3B 2772   7.380   1.165   5.332
  195POPC   C4B 2773   7.177   1.054   5.708
  196POPC   NC3 2774   1.903   1.259   3.889
  196POPC   PO4 2775   2.409   1.578   3.733
  196POPC   GL1 2776   2.232   1.497   4.204
  196POPC   GL2 2777   2.199   1.112   4.299
  196POPC   C1A 2778   2.037   1.433   4.650
  196POPC   D2A 2779   2.093   1.173   5.017
  196POPC   C3A 2780   2.089   1.395   5.405
  196POPC   C4A 2781   2.114   1.399   5.851
  196POPC   C1B 2782   1.823   0.977   4.598
  196POPC   C2B 2783   1.628   0.968   5.051
  196POPC   C3B 2784   1.775   0.994   5.504
  196POPC   C4B 2785   1.933   0.941   5.952
  197POPC   NC3 2786   3.366   9.261   4.059
  197POPC   PO4 2787   4.108   9.166   4.044
  197POPC   GL1 2788   3.769   9.191   4.363
  197POPC   GL2 2789   3.650   9.561   4.354
  197POPC   C1A 2790   3.725   9.210   4.828
  197POPC   D2A 2791   3.677   9.213   5.269
  197POPC   C3A 2792   3.836   9.602   5.399
  197POPC   C4A 2793   3.692   9.767   5.767
  197POPC   C1B 2794   3.347   9.502   4.672
  197POPC   C2B 2795   3.331   9.638   5.089
  197POPC   C3B 2796   3.330   9.513   5.483
  197POPC   C4B 2797   2.975   9.389   5.686
  198POPC   NC3 2798   8.474  10.230   3.580
  198POPC   PO4 2799   7.774  10.204   3.820
  198POPC   GL1 2800   7.953  10.276   4.228
  198POPC   GL2 2801   7.644  10.405   4.313
  198POPC   C1A 2802   8.171  10.263   4.641
  198POPC   D2A 2803   8.250   9.965   4.988
  198POPC   C3A 2804   8.114  10.135   5.388
  198POPC   C4A 2805   8.111  10.433   5.746
  198POPC   C1B 2806   7.730  10.027   4.589
  198POPC   C2B 2807   7.708   9.952   5.015
  198POPC   C3B 2808   7.576  10.092   5.395
  198POPC   C4B 2809   7.769  10.026   5.779
  199POPC   NC3 2810   4.879   1.824   3.768
  199POPC   PO4 2811   4.516   2.259   3.951
  199POPC   GL1 2812   4.721   1.922   4.257
  199POPC   GL2 2813   4.994   1.689   4.296
  199POPC   C1A 2814   4.624   1.680   4.669
  199POPC   D2A 2815   4.739   1.784   5.110
  199POPC   C3A 2816   4.803   1.609   5.526
  199POPC   C4A 2817   4.737   1.855   5.906
  199POPC   C1B 2818   5.142   1.609   4.747
  199POPC   C2B 2819   5.246   1.793   5.183
  199POPC   C3B 2820   5.027   2.069   5.506
  199POPC   C4B 2821   5.160   2.300   5.878
  200POPC   NC3 2822   2.453   1.962   4.118
  200POPC   PO4 2823   2.058   2.280   3.693
  200POPC   GL1 2824   1.864   2.307   4.115
  200POPC   GL2 2825   1.952   1.999   4.232
  200POPC   C1A 2826   1.694   2.324   4.554
  200POPC   D2A 2827   1.847   2.269   5.028
  200POPC   C3A 2828   1.671   2.348   5.452
  200POPC   C4A 2829   1.468   2.022   5.685
  200POPC   C1B 2830   1.992   1.934   4.671
  200POPC   C2B 2831   1.875   1.732   5.097
  200POPC   C3B 2832   1.948   1.865   5.560
  200POPC   C4B 2833   1.750   1.712   5.981
  201POPC   NC3 2834   3.009   3.519   4.032
  201POPC   PO4 2835   2.422   3.134   3.896
  201POPC   GL1 2836   2.313   3.243   4.298
  201POPC   GL2 2837   2.678   3.306   4.407
  201POPC   C1A 2838   2.283   3.461   4.696
  201POPC   D2A 2839   2.608   3.367   5.018
  201POPC   C3A 2840   2.542   3.291   5.435
  201POPC   C4A 2841   2.841   3.255   5.793
  201POPC   C1B 2842   2.706   3.731   4.684
  201POPC   C2B 2843   2.554   3.867   5.149
  201POPC   C3B 2844   2.621   3.754   5.644
  201POPC   C4B 2845   2.861   3.705   6.065
  202POPC   NC3 2846   5.263   9.358   3.887
  202POPC   PO4 2847   4.703   9.721   3.949
  202POPC   GL1 2848   4.833   9.712   4.366
  202POPC   GL2 2849   5.094   9.476   4.345
  202POPC   C1A 2850   4.900   9.564   4.793
  202POPC   D2A 2851   4.609   9.497   5.072
  202POPC   C3A 2852   4.716   9.449   5.494
  202POPC   C4A 2853   4.635   9.118   5.767
  202POPC   C1B 2854   5.258   9.210   4.695
  202POPC   C2B 2855   5.115   9.086   5.146
  202POPC   C3B 2856   5.140   9.131   5.629
  202POPC   C4B 2857   5.198   9.057   6.101
  203POPC   NC3 2858   9.470   2.815   3.910
  203POPC   PO4 2859   9.502   2.161   3.753
  203POPC   GL1 2860   9.420   2.307   4.180
  203POPC   GL2 2861   9.522   2.635   4.372
  203POPC   C1A 2862   9.402   2.209   4.619
  203POPC   D2A 2863   9.340   2.272   5.071
  203POPC   C3A 2864   9.732   2.390   5.301
  203POPC   C4A 2865   9.754   2.378   5.765
  203POPC   C1B 2866   9.624   2.624   4.806
  203POPC   C2B 2867   9.402   2.795   5.116
  203POPC   C3B 2868   9.421   2.699   5.532
  203POPC   C4B 2869   9.456   2.780   5.918
  204POPC   NC3 2870   2.241   5.111   4.099
  204POPC   PO4 2871   1.605   4.945   3.962
  204POPC   GL1 2872   1.717   5.158   4.317
  204POPC   GL2 2873   1.920   4.870   4.400
  204POPC   C1A 2874   1.680   5.430   4.726
  204POPC   D2A 2875   1.880   5.441   5.148
  204POPC   C3A 2876   1.641   5.415   5.547
  204POPC   C4A 2877   1.817   5.127   5.884
  204POPC   C1B 2878   2.042   5.052   4.794
  204POPC   C2B 2879   2.191   4.938   5.198
  204POPC   C3B 2880   2.086   4.828   5.567
  204POPC   C4B 2881   2.211   4.460   5.733
  205POPC   NC3 2882   2.183   5.696   3.651
  205POPC   PO4 2883   1.581   5.743   3.865
  205POPC   GL1 2884   1.942   5.569   4.113
  205POPC   GL2 2885   2.139   5.860   4.156
  205POPC   C1A 2886   2.147   5.535   4.561
  205POPC   D2A 2887   2.147   5.792   4.905
  205POPC   C3A 2888   2.270   5.758   5.361
  205POPC   C4A 2889   2.162   5.356   5.577
  205POPC   C1B 2890   1.795   5.906   4.483
  205POPC   C2B 2891   1.699   6.023   4.893
  205POPC   C3B 2892   1.787   5.931   5.324
  205POPC   C4B 2893   1.935   5.810   5.738
  206POPC   NC3 2894   5.829   0.677   4.007
  206POPC   PO4 2895   6.015   0.059   4.004
  206POPC   GL1 2896   5.775   0.004   4.367
  206POPC   GL2 2897   5.570   0.295   4.307
  206POPC   C1A 2898   5.804   0.092   4.790
  206POPC   D2A 2899   5.529   0.148   5.137
  206POPC   C3A 2900   5.666   0.357   5.483
  206POPC   C4A 2901   6.052   0.282   5.631
  206POPC   C1B 2902   5.456   0.449   4.719
  206POPC   C2B 2903   5.540   0.699   5.087
  206POPC   C3B 2904   5.366   0.811   5.497
  206POPC   C4B 2905   5.479   0.632   5.903
  207POPC   NC3 2906   6.562   1.330   3.957
  207POPC   PO4 2907   6.659   0.715   3.816
  207POPC   GL1 2908   6.796   0.994   4.228
  207POPC   GL2 2909   6.436   1.113   4.398
  207POPC   C1A 2910   6.836   1.134   4.694
  207POPC   D2A 2911   6.622   0.908   5.055
  207POPC   C3A 2912   6.529   1.082   5.482
  207POPC   C4A 2913   6.718   1.226   5.874
  207POPC   C1B 2914   6.343   1.325   4.807
  207POPC   C2B 2915   6.346   1.488   5.244
  207POPC   C3B 2916   6.074   1.361   5.581
  207POPC   C4B 2917   6.214   1.329   6.002
  208POPC   NC3 2918   6.852   3.212   3.621
  208POPC   PO4 2919   6.783   2.692   3.999
  208POPC   GL1 2920   7.128   2.660   4.297
  208POPC   GL2 2921   7.246   2.307   4.310
  208POPC   C1A 2922   7.219   2.940   4.668
  208POPC   D2A 2923   7.222   3.166   5.083
  208POPC   C3A 2924   7.227   3.025   5.536
  208POPC   C4A 2925   7.166   3.048   6.034
  208POPC   C1B 2926   7.347   2.457   4.716
  208POPC   C2B 2927   7.258   2.647   5.087
  208POPC   C3B 2928   7.438   2.568   5.469
  208POPC   C4B 2929   7.241   2.578   5.846
  209POPC   NC3 2930   9.889   3.695   3.682
  209POPC   PO4 2931  10.343   4.051   3.918
  209POPC   GL1 2932  10.201   4.162   4.276
  209POPC   GL2 2933  10.322   4.420   4.373
  209POPC   C1A 2934   9.956   4.186   4.645
  209POPC   D2A 2935   9.731   4.330   5.020
  209POPC   C3A 2936   9.932   4.072   5.319
  209POPC   C4A 2937  10.003   4.115   5.698
  209POPC   C1B 2938  10.477   4.123   4.687
  209POPC   C2B 2939  10.391   3.963   5.086
  209POPC   C3B 2940  10.418   4.251   5.416
  209POPC   C4B 2941  10.385   4.423   5.792
  210POPC   NC3 2942   7.850   3.309   4.107
  210POPC   PO4 2943   8.254   3.681   3.983
  210POPC   GL1 2944   8.194   3.525   4.419
  210POPC   GL2 2945   8.125   3.148   4.521
  210POPC   C1A 2946   8.205   3.547   4.898
  210POPC   D2A 2947   8.127   3.210   5.217
  210POPC   C3A 2948   8.066   3.355   5.649
  210POPC   C4A 2949   7.952   3.652   5.959
  210POPC   C1B 2950   7.768   3.306   4.822
  210POPC   C2B 2951   7.648   3.390   5.283
  210POPC   C3B 2952   7.542   3.417   5.730
  210POPC   C4B 2953   7.622   3.321   6.180
  211POPC   NC3 2954   0.204   8.904   4.026
  211POPC   PO4 2955   0.536   8.355   3.935
  211POPC   GL1 2956   0.543   8.560   4.317
  211POPC   GL2 2957   0.220   8.665   4.464
  211POPC   C1A 2958   0.510   8.329   4.695
  211POPC   D2A 2959   0.464   8.080   5.032
  211POPC   C3A 2960   0.424   8.329   5.398
  211POPC   C4A 2961   0.505   8.559   5.773
  211POPC   C1B 2962   0.497   8.978   4.640
  211POPC   C2B 2963   0.497   9.101   5.040
  211POPC   C3B 2964   0.376   8.871   5.392
  211POPC   C4B 2965   0.177   8.968   5.776
  212POPC   NC3 2966   2.290   6.747   3.868
  212POPC   PO4 2967   1.657   6.736   3.962
  212POPC   GL1 2968   1.767   6.806   4.379
  212POPC   GL2 2969   2.075   6.601   4.345
  212POPC   C1A 2970   1.767   6.636   4.794
  212POPC   D2A 2971   1.700   6.434   5.173
  212POPC   C3A 2972   1.739   6.600   5.566
  212POPC   C4A 2973   1.843   6.357   5.961
  212POPC   C1B 2974   2.125   6.264   4.666
  212POPC   C2B 2975   2.173   6.240   5.119
  212POPC   C3B 2976   2.115   6.256   5.548
  212POPC   C4B 2977   2.353   6.393   5.898
  213POPC   NC3 2978  10.113   4.459   3.861
  213POPC   PO4 2979   9.986   5.128   3.706
  213POPC   GL1 2980   9.989   4.884   4.128
  213POPC   GL2 2981  10.300   4.936   4.229
  213POPC   C1A 2982   9.996   4.706   4.603
  213POPC   D2A 2983  10.220   4.474   4.985
  213POPC   C3A 2984  10.018   4.569   5.398
  213POPC   C4A 2985   9.901   4.593   5.846
  213POPC   C1B 2986  10.273   5.132   4.637
  213POPC   C2B 2987  10.153   4.969   5.035
  213POPC   C3B 2988  10.079   5.059   5.465
  213POPC   C4B 2989  10.233   4.954   5.838
  214POPC   NC3 2990   3.388   2.627   3.726
  214POPC   PO4 2991   3.210   3.128   4.107
  214POPC   GL1 2992   3.533   2.786   4.229
  214POPC   GL2 2993   3.349   2.527   4.320
  214POPC   C1A 2994   3.742   2.693   4.660
  214POPC   D2A 2995   3.728   2.925   5.072
  214POPC   C3A 2996   3.805   2.810   5.522
  214POPC   C4A 2997   3.628   2.676   5.933
  214POPC   C1B 2998   3.269   2.830   4.693
  214POPC   C2B 2999   3.205   2.848   5.143
  214POPC   C3B 3000   3.211   2.639   5.560
  214POPC   C4B 3001   3.143   2.849   5.962
  215POPC   NC3 3002   1.549   8.784   3.836
  215POPC   PO4 3003   2.152   9.181   3.819
  215POPC   GL1 3004   2.009   8.919   4.180
  215POPC   GL2 3005   1.768   8.636   4.269
  215POPC   C1A 3006   2.047   8.843   4.635
  215POPC   D2A 3007   1.894   8.684   5.043
  215POPC   C3A 3008   2.096   8.731   5.426
  215POPC   C4A 3009   2.305   8.815   5.785
  215POPC   C1B 3010   1.663   8.424   4.666
  215POPC   C2B 3011   1.669   8.163   5.020
  215POPC   C3B 3012   1.898   8.224   5.377
  215POPC   C4B 3013   2.048   8.355   5.770
  216POPC   NC3 3014   0.375   9.445   3.725
  216POPC   PO4 3015  10.314   9.033   3.799
  216POPC   GL1 3016  10.401   9.159   4.297
  216POPC   GL2 3017   0.239   9.368   4.322
  216POPC   C1A 3018   0.022   9.220   4.760
  216POPC   D2A 3019   0.187   9.529   5.056
  216POPC   C3A 3020   0.319   9.375   5.448
  216POPC   C4A 3021   0.062   9.523   5.748
  216POPC   C1B 3022   0.537   9.498   4.700
  216POPC   C2B 3023   0.715   9.556   5.166
  216POPC   C3B 3024   0.674   9.736   5.663
  216POPC   C4B 3025   0.766   9.666   6.169
  217POPC   NC3 3026   4.158   7.915   3.887
  217POPC   PO4 3027   3.655   8.298   3.865
  217POPC   GL1 3028   3.810   8.077   4.272
  217POPC   GL2 3029   4.180   7.962   4.394
  217POPC   C1A 3030   3.802   7.823   4.691
  217POPC   D2A 3031   3.801   8.038   5.108
  217POPC   C3A 3032   3.933   7.833   5.502
  217POPC   C4A 3033   4.169   7.744   5.887
  217POPC   C1B 3034   4.388   8.137   4.807
  217POPC   C2B 3035   4.350   8.022   5.254
  217POPC   C3B 3036   4.607   7.832   5.612
  217POPC   C4B 3037   4.778   7.684   6.018
  218POPC   NC3 3038   0.602   7.097   3.994
  218POPC   PO4 3039   0.032   7.145   3.657
  218POPC   GL1 3040   0.146   7.170   4.187
  218POPC   GL2 3041   0.407   7.457   4.307
  218POPC   C1A 3042   0.165   7.189   4.671
  218POPC   D2A 3043   0.406   7.333   5.054
  218POPC   C3A 3044   0.302   7.366   5.503
  218POPC   C4A 3045   0.291   7.446   5.963
  218POPC   C1B 3046   0.689   7.215   4.631
  218POPC   C2B 3047   0.853   7.046   5.025
  218POPC   C3B 3048   0.806   7.270   5.392
  218POPC   C4B 3049   0.656   7.134   5.788
  219POPC   NC3 3050   0.864   0.642   4.166
  219POPC   PO4 3051   0.251   0.282   3.849
  219POPC   GL1 3052   0.409   0.460   4.223
  219POPC   GL2 3053   0.145   0.658   4.266
  219POPC   C1A 3054   0.527   0.544   4.697
  219POPC   D2A 3055   0.709   0.357   5.061
  219POPC   C3A 3056   0.774   0.634   5.407
  219POPC   C4A 3057   0.732   0.427   5.794
  219POPC   C1B 3058   0.104   0.319   4.585
  219POPC   C2B 3059   0.067   0.379   5.021
  219POPC   C3B 3060   0.314   0.365   5.386
  219POPC   C4B 3061   0.184   0.333   5.754
  220POPC   NC3 3062   6.448   2.780   4.306
  220POPC   PO4 3063   6.080   2.342   4.049
  220POPC   GL1 3064   6.351   2.256   4.401
  220POPC   GL2 3065   6.717   2.337   4.374
  220POPC   C1A 3066   6.368   2.375   4.817
  220POPC   D2A 3067   6.417   2.668   5.136
  220POPC   C3A 3068   6.307   2.465   5.510
  220POPC   C4A 3069   6.245   2.659   5.922
  220POPC   C1B 3070   6.856   2.503   4.732
  220POPC   C2B 3071   6.829   2.377   5.111
  220POPC   C3B 3072   6.872   2.649   5.431
  220POPC   C4B 3073   6.722   2.536   5.786
  221POPC   NC3 3074   1.713   8.158   4.080
  221POPC   PO4 3075   1.537   7.533   3.956
  221POPC   GL1 3076   1.986   7.727   4.198
  221POPC   GL2 3077   2.004   8.050   4.460
  221POPC   C1A 3078   2.270   7.658   4.622
  221POPC   D2A 3079   2.280   7.918   5.001
  221POPC   C3A 3080   2.129   7.719   5.383
  221POPC   C4A 3081   2.136   7.429   5.730
  221POPC   C1B 3082   1.747   7.773   4.665
  221POPC   C2B 3083   1.742   7.577   5.048
  221POPC   C3B 3084   1.629   7.629   5.461
  221POPC   C4B 3085   1.816   7.888   5.764
  222POPC   NC3 3086   1.060   7.819   3.784
  222POPC   PO4 3087   1.336   8.414   4.031
  222POPC   GL1 3088   1.283   8.220   4.379
  222POPC   GL2 3089   1.301   7.890   4.230
  222POPC   C1A 3090   1.135   8.249   4.799
  222POPC   D2A 3091   0.942   8.191   5.191
  222POPC   C3A 3092   1.272   8.256   5.482
  222POPC   C4A 3093   1.528   8.289   5.868
  222POPC   C1B 3094   1.243   7.775   4.619
  222POPC   C2B 3095   1.293   7.809   5.035
  222POPC   C3B 3096   1.117   7.766   5.400
  222POPC   C4B 3097   1.284   7.845   5.776
  223POPC   NC3 3098   0.172   7.956   3.878
  223POPC   PO4 3099   0.694   7.875   3.485
  223POPC   GL1 3100   0.643   7.875   4.071
  223POPC   GL2 3101   0.344   8.000   4.334
  223POPC   C1A 3102   0.751   7.871   4.572
  223POPC   D2A 3103   0.812   7.632   4.977
  223POPC   C3A 3104   0.614   7.766   5.384
  223POPC   C4A 3105   0.766   8.088   5.689
  223POPC   C1B 3106   0.231   7.737   4.722
  223POPC   C2B 3107   0.086   7.723   5.171
  223POPC   C3B 3108   0.160   7.838   5.621
  223POPC   C4B 3109   0.123   8.227   5.829
  224POPC   NC3 3110  10.162   3.683   4.121
  224POPC   PO4 3111   9.711   3.252   3.759
  224POPC   GL1 3112   9.879   3.221   4.232
  224POPC   GL2 3113  10.229   3.213   4.296
  224POPC   C1A 3114   9.970   3.418   4.693
  224POPC   D2A 3115  10.217   3.453   5.099
  224POPC   C3A 3116  10.036   3.566   5.522
  224POPC   C4A 3117   9.975   3.699   5.971
  224POPC   C1B 3118  10.465   3.108   4.652
  224POPC   C2B 3119  10.476   3.006   5.071
  224POPC   C3B 3120  10.294   3.077   5.468
  224POPC   C4B 3121  10.319   3.272   5.867
  225POPC   NC3 3122   1.845   0.617   3.972
  225POPC   PO4 3123   2.326   0.898   3.833
  225POPC   GL1 3124   2.274   0.599   4.238
  225POPC   GL2 3125   1.873   0.467   4.428
  225POPC   C1A 3126   2.227   0.706   4.660
  225POPC   D2A 3127   1.931   0.560   4.934
  225POPC   C3A 3128   2.106   0.639   5.319
  225POPC   C4A 3129   2.162   0.526   5.750
  225POPC   C1B 3130   1.586   0.176   4.677
  225POPC   C2B 3131   1.716   0.105   5.099
  225POPC   C3B 3132   1.629   0.461   5.346
  225POPC   C4B 3133   1.633   0.565   5.760
  226POPC   NC3 3134   7.275   1.646   3.897
  226POPC   PO4 3135   7.982   1.475   3.931
  226POPC   GL1 3136   7.696   1.610   4.287
  226POPC   GL2 3137   7.391   1.821   4.349
  226POPC   C1A 3138   7.574   1.581   4.741
  226POPC   D2A 3139   7.717   1.823   5.078
  226POPC   C3A 3140   7.440   1.745   5.433
  226POPC   C4A 3141   7.074   1.666   5.721
  226POPC   C1B 3142   7.220   1.969   4.745
  226POPC   C2B 3143   7.298   2.146   5.149
  226POPC   C3B 3144   7.075   2.189   5.530
  226POPC   C4B 3145   6.911   2.106   5.947
  227POPC   NC3 3146   7.882   8.020   3.947
  227POPC   PO4 3147   8.384   7.562   3.990
  227POPC   GL1 3148   8.192   7.640   4.366
  227POPC   GL2 3149   7.886   7.852   4.421
  227POPC   C1A 3150   8.072   7.567   4.784
  227POPC   D2A 3151   8.182   7.794   5.151
  227POPC   C3A 3152   8.112   7.587   5.543
  227POPC   C4A 3153   7.921   7.573   5.927
  227POPC   C1B 3154   7.635   7.828   4.800
  227POPC   C2B 3155   7.715   7.985   5.204
  227POPC   C3B 3156   7.639   7.906   5.635
  227POPC   C4B 3157   7.751   8.093   6.042
  228POPC   NC3 3158   4.368   2.681   3.918
  228POPC   PO4 3159   3.798   2.331   3.865
  228POPC   GL1 3160   3.808   2.276   4.283
  228POPC   GL2 3161   4.075   2.505   4.311
  228POPC   C1A 3162   3.920   2.232   4.724
  228POPC   D2A 3163   3.988   2.481   5.093
  228POPC   C3A 3164   4.170   2.434   5.457
  228POPC   C4A 3165   4.103   2.511   5.853
  228POPC   C1B 3166   4.267   2.652   4.710
  228POPC   C2B 3167   4.353   2.836   5.147
  228POPC   C3B 3168   4.330   2.906   5.600
  228POPC   C4B 3169   4.543   2.888   6.024
  229POPC   NC3 3170   9.682   5.359   3.966
  229POPC   PO4 3171   9.138   5.091   3.654
  229POPC   GL1 3172   9.257   4.932   4.200
  229POPC   GL2 3173   9.546   5.048   4.326
  229POPC   C1A 3174   9.172   5.057   4.666
  229POPC   D2A 3175   9.317   5.294   5.060
  229POPC   C3A 3176   9.199   5.127   5.512
  229POPC   C4A 3177   9.117   5.170   5.984
  229POPC   C1B 3178   9.700   5.120   4.732
  229POPC   C2B 3179   9.659   4.894   5.130
  229POPC   C3B 3180   9.532   4.734   5.528
  229POPC   C4B 3181   9.444   4.758   5.986
  230POPC   NC3 3182   7.934   7.211   3.915
  230POPC   PO4 3183   7.479   7.725   3.936
  230POPC   GL1 3184   7.593   7.461   4.343
  230POPC   GL2 3185   7.903   7.240   4.409
  230POPC   C1A 3186   7.594   7.315   4.796
  230POPC   D2A 3187   7.760   7.461   5.204
  230POPC   C3A 3188   7.539   7.399   5.624
  230POPC   C4A 3189   7.565   7.191   6.050
  230POPC   C1B 3190   8.075   7.026   4.781
  230POPC   C2B 3191   8.019   6.898   5.263
  230POPC   C3B 3192   7.964   7.060   5.728
  230POPC   C4B 3193   8.068   7.152   6.194
  231POPC   NC3 3194  10.415   6.374   3.921
  231POPC   PO4 3195   9.927   6.051   4.086
  231POPC   GL1 3196  10.196   6.280   4.370
  231POPC   GL2 3197  10.213   6.652   4.321
  231POPC   C1A 3198  10.325   6.306   4.800
  231POPC   D2A 3199  10.054   6.346   5.135
  231POPC   C3A 3200  10.158   6.086   5.485
  231POPC   C4A 3201  10.175   6.159   5.859
  231POPC   C1B 3202  10.327   6.806   4.764
  231POPC   C2B 3203  10.425   6.687   5.201
  231POPC   C3B 3204  10.119   6.594   5.582
  231POPC   C4B 3205   9.909   6.518   6.049
  232POPC   NC3 3206   5.613  10.325   3.918
  232POPC   PO4 3207   5.899   9.708   3.892
  232POPC   GL1 3208   5.876   9.992   4.241
  232POPC   GL2 3209   5.524  10.021   4.312
  232POPC   C1A 3210   5.828  10.081   4.705
  232POPC   D2A 3211   5.879  10.220   5.129
  232POPC   C3A 3212   6.050   9.983   5.464
  232POPC   C4A 3213   5.794  10.286   5.668
  232POPC   C1B 3214   5.211   9.955   4.620
  232POPC   C2B 3215   5.382  10.016   5.016
  232POPC   C3B 3216   5.524   9.933   5.406
  232POPC   C4B 3217   5.247   9.870   5.779
  233POPC   NC3 3218   0.563  10.424   3.801
  233POPC   PO4 3219   0.396   9.806   4.013
  233POPC   GL1 3220   0.452  10.125   4.289
  233POPC   GL2 3221   0.268  10.451   4.238
  233POPC   C1A 3222   0.437  10.029   4.718
  233POPC   D2A 3223   0.536  10.014   5.149
  233POPC   C3A 3224   0.251   9.874   5.429
  233POPC   C4A 3225   0.202  10.068   5.782
  233POPC   C1B 3226   0.542   0.044   4.565
  233POPC   C2B 3227   0.337  10.470   4.957
  233POPC   C3B 3228   0.246  10.380   5.370
  233POPC   C4B 3229   0.531  10.469   5.683
  234POPC   NC3 3230   0.005  10.078   4.026
  234POPC   PO4 3231  10.143   0.096   3.871
  234POPC   GL1 3232  10.227  10.382   4.306
  234POPC   GL2 3233   9.984  10.178   4.471
  234POPC   C1A 3234  10.307  10.455   4.752
  234POPC   D2A 3235  10.088   0.107   5.077
  234POPC   C3A 3236  10.315   0.172   5.431
  234POPC   C4A 3237  10.379  10.453   5.812
  234POPC   C1B 3238  10.356   9.958   4.648
  234POPC   C2B 3239   0.006  10.048   5.028
  234POPC   C3B 3240  10.305  10.133   5.411
  234POPC   C4B 3241  10.121  10.035   5.811
  235POPC   NC3 3242   3.500   0.651   4.004
  235POPC   PO4 3243   3.522  10.478   3.866
  235POPC   GL1 3244   3.548   0.124   4.271
  235POPC   GL2 3245   3.222   0.036   4.321
  235POPC   C1A 3246   3.694   0.143   4.727
  235POPC   D2A 3247   3.706   0.033   5.208
  235POPC   C3A 3248   3.403   0.174   5.552
  235POPC   C4A 3249   3.526   0.319   5.987
  235POPC   C1B 3250   3.096   0.270   4.667
  235POPC   C2B 3251   2.939   0.490   5.008
  235POPC   C3B 3252   2.982   0.386   5.414
  235POPC   C4B 3253   3.190   0.621   5.734
  236POPC   NC3 3254   9.665   6.352   3.850
  236POPC   PO4 3255   9.136   6.635   4.140
  236POPC   GL1 3256   9.602   6.536   4.308
  236POPC   GL2 3257   9.601   6.168   4.455
  236POPC   C1A 3258   9.861   6.525   4.677
  236POPC   D2A 3259   9.544   6.647   4.955
  236POPC   C3A 3260   9.638   6.544   5.341
  236POPC   C4A 3261   9.644   6.751   5.691
  236POPC   C1B 3262   9.614   6.151   4.939
  236POPC   C2B 3263   9.214   6.300   5.180
  236POPC   C3B 3264   9.224   6.420   5.609
  236POPC   C4B 3265   9.635   6.219   5.735
  237POPC   NC3 3266   1.160   4.581   3.922
  237POPC   PO4 3267   0.845   5.177   3.872
  237POPC   GL1 3268   1.137   4.968   4.273
  237POPC   GL2 3269   1.425   4.693   4.357
  237POPC   C1A 3270   1.069   4.790   4.731
  237POPC   D2A 3271   0.971   5.050   5.107
  237POPC   C3A 3272   1.072   4.946   5.550
  237POPC   C4A 3273   1.323   5.117   5.914
  237POPC   C1B 3274   1.535   4.945   4.726
  237POPC   C2B 3275   1.486   5.114   5.132
  237POPC   C3B 3276   1.575   4.889   5.506
  237POPC   C4B 3277   1.372   4.544   5.724
  238POPC   NC3 3278   8.628   8.406   4.081
  238POPC   PO4 3279   8.397   8.983   4.000
  238POPC   GL1 3280   8.546   8.814   4.372
  238POPC   GL2 3281   8.915   8.740   4.332
  238POPC   C1A 3282   8.692   8.807   4.781
  238POPC   D2A 3283   8.642   8.596   5.142
  238POPC   C3A 3284   8.752   8.853   5.457
  238POPC   C4A 3285   8.544   9.013   5.784
  238POPC   C1B 3286   8.912   8.373   4.691
  238POPC   C2B 3287   9.064   8.189   5.090
  238POPC   C3B 3288   8.912   8.352   5.506
  238POPC   C4B 3289   8.507   8.478   5.727
  239POPC   NC3 3290   7.210   8.133   3.926
  239POPC   PO4 3291   6.914   8.775   3.795
  239POPC   GL1 3292   6.991   8.747   4.232
  239POPC   GL2 3293   7.200   8.500   4.325
  239POPC   C1A 3294   7.026   8.873   4.663
  239POPC   D2A 3295   7.218   8.902   5.086
  239POPC   C3A 3296   6.961   8.639   5.347
  239POPC   C4A 3297   6.804   8.564   5.754
  239POPC   C1B 3298   7.528   8.732   4.614
  239POPC   C2B 3299   7.739   8.747   5.034
  239POPC   C3B 3300   7.585   8.856   5.464
  239POPC   C4B 3301   7.303   8.619   5.741
  240POPC   NC3 3302   4.302   0.996   3.815
  240POPC   PO4 3303   3.811   1.550   3.939
  240POPC   GL1 3304   3.983   1.225   4.214
  240POPC   GL2 3305   4.305   1.186   4.273
  240POPC   C1A 3306   3.987   1.244   4.691
  240POPC   D2A 3307   4.212   1.378   5.085
  240POPC   C3A 3308   4.158   1.191   5.484
  240POPC   C4A 3309   4.034   1.325   5.892
  240POPC   C1B 3310   4.307   0.884   4.552
  240POPC   C2B 3311   4.258   0.863   4.985
  240POPC   C3B 3312   4.212   0.702   5.384
  240POPC   C4B 3313   4.389   0.796   5.784
  241POPC   NC3 3314   9.824   9.358   3.893
  241POPC   PO4 3315  10.059   9.975   4.017
  241POPC   GL1 3316   9.858   9.708   4.275
  241POPC   GL2 3317  10.173   9.595   4.348
  241POPC   C1A 3318   9.870   9.752   4.720
  241POPC   D2A 3319  10.176   9.593   5.024
  241POPC   C3A 3320  10.151   9.647   5.483
  241POPC   C4A 3321   9.820   9.512   5.823
  241POPC   C1B 3322  10.004   9.256   4.607
  241POPC   C2B 3323  10.083   9.063   4.996
  241POPC   C3B 3324  10.350   9.177   5.324
  241POPC   C4B 3325  10.200   9.180   5.733
  242POPC   NC3 3326   6.329   7.774   3.991
  242POPC   PO4 3327   6.319   8.377   4.076
  242POPC   GL1 3328   6.691   8.325   4.263
  242POPC   GL2 3329   6.552   8.039   4.404
  242POPC   C1A 3330   6.831   8.388   4.683
  242POPC   D2A 3331   6.939   8.178   5.067
  242POPC   C3A 3332   6.682   8.181   5.420
  242POPC   C4A 3333   6.741   8.065   5.827
  242POPC   C1B 3334   6.505   8.014   4.858
  242POPC   C2B 3335   6.534   7.743   5.209
  242POPC   C3B 3336   6.398   7.745   5.635
  242POPC   C4B 3337   6.547   7.602   6.040
  243POPC   NC3 3338   8.621   0.930   3.869
  243POPC   PO4 3339   8.832   1.549   4.005
  243POPC   GL1 3340   8.810   1.184   4.279
  243POPC   GL2 3341   9.022   1.356   4.470
  243POPC   C1A 3342   8.886   0.922   4.671
  243POPC   D2A 3343   8.691   0.994   5.087
  243POPC   C3A 3344   8.818   0.789   5.459
  243POPC   C4A 3345   8.683   0.908   5.864
  243POPC   C1B 3346   8.765   1.456   4.829
  243POPC   C2B 3347   8.709   1.508   5.276
  243POPC   C3B 3348   8.618   1.352   5.651
  243POPC   C4B 3349   8.625   1.381   6.089
  244POPC   NC3 3350   2.524   9.459   3.844
  244POPC   PO4 3351   2.916   8.952   4.028
  244POPC   GL1 3352   2.605   9.206   4.276
  244POPC   GL2 3353   2.807   9.516   4.287
  244POPC   C1A 3354   2.324   9.289   4.642
  244POPC   D2A 3355   2.317   9.039   5.039
  244POPC   C3A 3356   2.293   9.208   5.447
  244POPC   C4A 3357   2.489   9.275   5.848
  244POPC   C1B 3358   2.832   9.383   4.719
  244POPC   C2B 3359   2.794   9.531   5.149
  244POPC   C3B 3360   2.544   9.655   5.512
  244POPC   C4B 3361   2.698   9.744   5.943
  245POPC   NC3 3362   5.772   8.604   4.023
  245POPC   PO4 3363   5.323   8.254   4.071
  245POPC   GL1 3364   5.293   8.665   4.300
  245POPC   GL2 3365   5.569   8.843   4.442
  245POPC   C1A 3366   5.217   8.715   4.759
  245POPC   D2A 3367   5.431   8.515   5.086
  245POPC   C3A 3368   5.322   8.685   5.446
  245POPC   C4A 3369   5.451   8.680   5.859
  245POPC   C1B 3370   5.791   8.663   4.739
  245POPC   C2B 3371   5.954   8.593   5.146
  245POPC   C3B 3372   5.819   8.482   5.537
  245POPC   C4B 3373   5.975   8.698   5.894
  246POPC   NC3 3374   9.226   3.413   3.804
  246POPC   PO4 3375   9.695   3.685   4.103
  246POPC   GL1 3376   9.383   3.516   4.312
  246POPC   GL2 3377   9.370   3.168   4.243
  246POPC   C1A 3378   9.416   3.603   4.729
  246POPC   D2A 3379   9.699   3.773   5.000
  246POPC   C3A 3380   9.534   3.688   5.423
  246POPC   C4A 3381   9.572   3.454   5.826
  246POPC   C1B 3382   9.566   3.105   4.650
  246POPC   C2B 3383   9.628   3.269   5.087
  246POPC   C3B 3384   9.362   3.184   5.469
  246POPC   C4B 3385   9.095   3.140   5.856
  247POPC   NC3 3386   0.347   1.687   3.884
  247POPC   PO4 3387   0.911   1.874   4.116
  247POPC   GL1 3388   0.613   1.596   4.325
  247POPC   GL2 3389   0.228   1.741   4.356
  247POPC   C1A 3390   0.563   1.725   4.724
  247POPC   D2A 3391   0.491   1.936   5.096
  247POPC   C3A 3392   0.573   1.691   5.436
  247POPC   C4A 3393   0.745   1.664   5.819
  247POPC   C1B 3394   0.214   2.111   4.618
  247POPC   C2B 3395   0.034   2.145   5.023
  247POPC   C3B 3396   0.198   2.208   5.431
  247POPC   C4B 3397   0.319   1.967   5.790
  248POPC   NC3 3398   9.336   0.189   3.795
  248POPC   PO4 3399   9.078   0.889   3.927
  248POPC   GL1 3400   9.187   0.647   4.333
  248POPC   GL2 3401   9.369   0.361   4.363
  248POPC   C1A 3402   9.354   0.717   4.741
  248POPC   D2A 3403   9.188   0.900   5.102
  248POPC   C3A 3404   9.339   0.712   5.492
  248POPC   C4A 3405   9.671   0.701   5.805
  248POPC   C1B 3406   9.342   0.119   4.748
  248POPC   C2B 3407   9.535   0.023   5.153
  248POPC   C3B 3408   9.408   0.192   5.556
  248POPC   C4B 3409   9.140  10.479   5.847
  249POPC   NC3 3410   8.488   3.275   3.911
  249POPC   PO4 3411   8.887   3.807   3.875
  249POPC   GL1 3412   8.700   3.608   4.234
  249POPC   GL2 3413   8.898   3.360   4.235
  249POPC   C1A 3414   8.605   3.376   4.647
  249POPC   D2A 3415   8.612   3.267   5.091
  249POPC   C3A 3416   8.440   3.603   5.365
  249POPC   C4A 3417   8.416   3.796   5.782
  249POPC   C1B 3418   9.070   3.223   4.637
  249POPC   C2B 3419   9.124   3.342   5.058
  249POPC   C3B 3420   8.922   3.447   5.469
  249POPC   C4B 3421   8.561   3.201   5.663
  250POPC   NC3 3422  10.225   5.748   3.869
  250POPC   PO4 3423   0.304   5.582   3.984
  250POPC   GL1 3424   0.120   5.583   4.390
  250POPC   GL2 3425  10.333   5.771   4.357
  250POPC   C1A 3426  10.476   5.559   4.825
  250POPC   D2A 3427  10.474   5.325   5.202
  250POPC   C3A 3428  10.236   5.545   5.497
  250POPC   C4A 3429  10.461   5.754   5.791
  250POPC   C1B 3430  10.089   5.876   4.672
  250POPC   C2B 3431  10.091   5.847   5.061
  250POPC   C3B 3432   9.734   5.848   5.346
  250POPC   C4B 3433   9.824   5.748   5.758
  251POPC   NC3 3434   8.989   9.855   3.656
  251POPC   PO4 3435   9.373   9.301   3.789
  251POPC   GL1 3436   9.234   9.426   4.183
  251POPC   GL2 3437   9.328   9.110   4.288
  251POPC   C1A 3438   9.293   9.647   4.592
  251POPC   D2A 3439   9.230   9.784   5.035
  251POPC   C3A 3440   9.411   9.664   5.398
  251POPC   C4A 3441   9.715   9.917   5.550
  251POPC   C1B 3442   9.500   9.212   4.666
  251POPC   C2B 3443   9.655   9.412   4.998
  251POPC   C3B 3444   9.804   9.325   5.345
  251POPC   C4B 3445   9.489   9.184   5.564
  252POPC   NC3 3446   3.089   5.516   4.033
  252POPC   PO4 3447   2.448   5.490   3.952
  252POPC   GL1 3448   2.619   5.593   4.314
  252POPC   GL2 3449   2.551   5.935   4.442
  252POPC   C1A 3450   2.632   5.507   4.748
  252POPC   D2A 3451   2.412   5.367   5.092
  252POPC   C3A 3452   2.651   5.300   5.502
  252POPC   C4A 3453   2.608   5.367   5.961
  252POPC   C1B 3454   2.604   5.994   4.909
  252POPC   C2B 3455   2.772   5.725   5.239
  252POPC   C3B 3456   2.826   5.753   5.692
  252POPC   C4B 3457   2.837   6.161   5.928
  253POPC   NC3 3458   2.063   3.435   3.823
  253POPC   PO4 3459   1.451   3.330   4.034
  253POPC   GL1 3460   1.793   3.257   4.247
  253POPC   GL2 3461   1.893   3.561   4.318
  253POPC   C1A 3462   1.876   3.162   4.674
  253POPC   D2A 3463   1.683   3.285   5.076
  253POPC   C3A 3464   1.855   3.228   5.475
  253POPC   C4A 3465   2.145   3.500   5.683
  253POPC   C1B 3466   1.810   3.668   4.748
  253POPC   C2B 3467   2.072   3.608   5.135
  253POPC   C3B 3468   1.758   3.726   5.400
  253POPC   C4B 3469   1.670   3.681   5.796
  254POPC   NC3 3470   0.245   4.200   3.793
  254POPC   PO4 3471   0.911   4.180   3.833
  254POPC   GL1 3472   0.559   4.283   4.180
  254POPC   GL2 3473   0.237   4.090   4.268
  254POPC   C1A 3474   0.457   4.370   4.634
  254POPC   D2A 3475   0.242   4.359   5.039
  254POPC   C3A 3476   0.409   4.428   5.429
  254POPC   C4A 3477   0.379   4.234   5.803
  254POPC   C1B 3478   0.496   3.849   4.551
  254POPC   C2B 3479   0.510   3.913   4.987
  254POPC   C3B 3480   0.311   3.919   5.387
  254POPC   C4B 3481  10.477   3.855   5.733
  255POPC   NC3 3482   5.072   1.321   3.965
  255POPC   PO4 3483   4.731   0.929   3.631
  255POPC   GL1 3484   4.724   0.975   4.097
  255POPC   GL2 3485   5.001   0.909   4.246
  255POPC   C1A 3486   4.734   1.175   4.558
  255POPC   D2A 3487   4.706   1.274   5.000
  255POPC   C3A 3488   4.649   1.035   5.393
  255POPC   C4A 3489   4.551   1.261   5.814
  255POPC   C1B 3490   5.162   0.841   4.623
  255POPC   C2B 3491   5.095   0.944   5.046
  255POPC   C3B 3492   5.122   1.267   5.325
  255POPC   C4B 3493   5.038   1.157   5.754
  256POPC   NC3 3494   8.006   8.803   3.829
  256POPC   PO4 3495   7.591   8.349   4.054
  256POPC   GL1 3496   7.819   8.369   4.380
  256POPC   GL2 3497   8.038   8.645   4.317
  256POPC   C1A 3498   7.841   8.295   4.804
  256POPC   D2A 3499   8.103   8.342   5.171
  256POPC   C3A 3500   7.810   8.381   5.512
  256POPC   C4A 3501   7.769   8.576   5.891
  256POPC   C1B 3502   8.220   8.623   4.736
  256POPC   C2B 3503   8.224   8.881   5.129
  256POPC   C3B 3504   8.119   8.798   5.573
  256POPC   C4B 3505   8.124   8.881   6.048
  257POPC   NC3 3506   2.797   4.415   3.643
  257POPC   PO4 3507   2.342   4.666   4.048
  257POPC   GL1 3508   2.242   4.455   4.425
  257POPC   GL2 3509   2.502   4.215   4.338
  257POPC   C1A 3510   2.242   4.488   4.890
  257POPC   D2A 3511   2.569   4.475   5.201
  257POPC   C3A 3512   2.647   4.264   5.576
  257POPC   C4A 3513   2.629   4.462   5.989
  257POPC   C1B 3514   2.672   4.232   4.754
  257POPC   C2B 3515   2.985   4.158   5.075
  257POPC   C3B 3516   3.165   4.280   5.471
  257POPC   C4B 3517   3.045   4.162   5.895
  258POPC   NC3 3518   5.741   1.352   3.886
  258POPC   PO4 3519   5.398   0.845   3.965
  258POPC   GL1 3520   5.517   1.129   4.327
  258POPC   GL2 3521   5.877   1.279   4.374
  258POPC   C1A 3522   5.478   1.205   4.802
  258POPC   D2A 3523   5.634   1.179   5.233
  258POPC   C3A 3524   5.512   1.287   5.648
  258POPC   C4A 3525   5.256   1.638   5.824
  258POPC   C1B 3526   5.951   0.978   4.712
  258POPC   C2B 3527   6.099   1.001   5.145
  258POPC   C3B 3528   5.889   0.835   5.513
  258POPC   C4B 3529   5.835   1.007   5.919
  259POPC   NC3 3530   9.256   5.857   4.089
  259POPC   PO4 3531   9.794   5.730   3.712
  259POPC   GL1 3532   9.696   5.685   4.323
  259POPC   GL2 3533   9.386   5.544   4.478
  259POPC   C1A 3534   9.677   5.645   4.839
  259POPC   D2A 3535   9.892   5.394   5.117
  259POPC   C3A 3536   9.663   5.341   5.445
  259POPC   C4A 3537   9.693   5.163   5.823
  259POPC   C1B 3538   9.234   5.920   4.729
  259POPC   C2B 3539   9.245   5.796   5.151
  259POPC   C3B 3540   9.228   5.908   5.565
  259POPC   C4B 3541   9.345   5.560   5.769
  260POPC   NC3 3542   6.118   9.262   3.871
  260POPC   PO4 3543   5.562   9.023   3.985
  260POPC   GL1 3544   5.780   9.268   4.266
  260POPC   GL2 3545   5.595   9.527   4.256
  260POPC   C1A 3546   5.816   9.197   4.725
  260POPC   D2A 3547   5.611   9.001   5.080
  260POPC   C3A 3548   5.741   8.997   5.509
  260POPC   C4A 3549   5.668   9.138   5.922
  260POPC   C1B 3550   5.560   9.623   4.691
  260POPC   C2B 3551   5.420   9.496   5.123
  260POPC   C3B 3552   5.489   9.473   5.587
  260POPC   C4B 3553   5.747   9.771   5.849
  261POPC   NC3 3554   9.348   6.982   3.907
  261POPC   PO4 3555   9.652   7.597   3.801
  261POPC   GL1 3556   9.550   7.580   4.239
  261POPC   GL2 3557   9.359   7.299   4.307
  261POPC   C1A 3558   9.648   7.457   4.674
  261POPC   D2A 3559   9.783   7.398   5.088
  261POPC   C3A 3560   9.529   7.197   5.376
  261POPC   C4A 3561   9.603   7.248   5.806
  261POPC   C1B 3562   9.127   7.390   4.678
  261POPC   C2B 3563   9.273   7.101   4.946
  261POPC   C3B 3564   9.184   6.817   5.271
  261POPC   C4B 3565   9.193   6.948   5.669
  262POPC   NC3 3566   2.738   1.884   3.648
  262POPC   PO4 3567   3.014   2.418   3.954
  262POPC   GL1 3568   2.850   2.152   4.390
  262POPC   GL2 3569   2.683   1.781   4.533
  262POPC   C1A 3570   2.729   2.166   4.854
  262POPC   D2A 3571   2.971   2.337   5.206
  262POPC   C3A 3572   2.999   2.134   5.606
  262POPC   C4A 3573   2.826   2.067   6.019
  262POPC   C1B 3574   2.410   1.733   4.844
  262POPC   C2B 3575   2.297   2.000   5.128
  262POPC   C3B 3576   2.526   2.028   5.471
  262POPC   C4B 3577   2.494   1.742   5.780
  263POPC   NC3 3578   4.119   1.973   3.922
  263POPC   PO4 3579   4.633   1.490   3.956
  263POPC   GL1 3580   4.269   1.677   4.306
  263POPC   GL2 3581   4.254   2.031   4.391
  263POPC   C1A 3582   4.070   1.752   4.770
  263POPC   D2A 3583   3.819   1.987   5.149
  263POPC   C3A 3584   3.965   1.902   5.566
  263POPC   C4A 3585   4.305   1.662   5.656
  263POPC   C1B 3586   4.443   2.163   4.747
  263POPC   C2B 3587   4.319   2.062   5.141
  263POPC   C3B 3588   4.514   2.084   5.525
  263POPC   C4B 3589   4.621   2.395   5.829
  264POPC   NC3 3590   3.136  10.224   3.917
  264POPC   PO4 3591   2.529   0.091   3.888
  264POPC   GL1 3592   2.739  10.386   4.223
  264POPC   GL2 3593   2.719  10.023   4.196
  264POPC   C1A 3594   2.816  10.328   4.677
  264POPC   D2A 3595   2.764   0.000   5.105
  264POPC   C3A 3596   2.985  10.390   5.503
  264POPC   C4A 3597   2.908  10.207   5.896
  264POPC   C1B 3598   2.514   9.847   4.599
  264POPC   C2B 3599   2.560   9.991   5.055
  264POPC   C3B 3600   2.506  10.166   5.486
  264POPC   C4B 3601   2.398  10.150   5.951
  265POPC   NC3 3602   4.085   0.196   3.814
  265POPC   PO4 3603   3.845   0.888   3.825
  265POPC   GL1 3604   3.945   0.701   4.256
  265POPC   GL2 3605   4.022   0.327   4.306
  265POPC   C1A 3606   3.835   0.679   4.717
  265POPC   D2A 3607   3.583   0.516   5.098
  265POPC   C3A 3608   3.782   0.497   5.526
  265POPC   C4A 3609   3.860   0.857   5.807
  265POPC   C1B 3610   4.271   0.394   4.667
  265POPC   C2B 3611   4.088   0.326   5.032
  265POPC   C3B 3612   4.209   0.143   5.382
  265POPC   C4B 3613   4.223   0.331   5.752
  266POPC   NC3 3614   1.282   6.974   3.853
  266POPC   PO4 3615   0.916   7.434   4.025
  266POPC   GL1 3616   1.072   7.100   4.294
  266POPC   GL2 3617   1.402   7.243   4.349
  266POPC   C1A 3618   1.294   6.842   4.617
  266POPC   D2A 3619   1.268   6.699   5.052
  266POPC   C3A 3620   1.256   6.881   5.502
  266POPC   C4A 3621   1.350   6.993   5.973
  266POPC   C1B 3622   1.193   7.312   4.769
  266POPC   C2B 3623   1.302   7.306   5.209
  266POPC   C3B 3624   1.213   7.359   5.665
  266POPC   C4B 3625   0.830   7.597   5.819
  267POPC   NC3 3626   7.508   2.520   3.922
  267POPC   PO4 3627   8.102   2.938   3.994
  267POPC   GL1 3628   8.032   2.595   4.259
  267POPC   GL2 3629   7.692   2.600   4.372
  267POPC   C1A 3630   8.113   2.481   4.654
  267POPC   D2A 3631   8.147   2.750   4.996
  267POPC   C3A 3632   8.097   2.531   5.373
  267POPC   C4A 3633   7.910   2.497   5.777
  267POPC   C1B 3634   7.723   2.815   4.712
  267POPC   C2B 3635   7.681   2.905   5.127
  267POPC   C3B 3636   7.811   2.934   5.507
  267POPC   C4B 3637   7.619   2.933   5.846
  268POPC   NC3 3638   1.718   9.388   3.812
  268POPC   PO4 3639   1.795  10.049   3.944
  268POPC   GL1 3640   2.016   9.854   4.291
  268POPC   GL2 3641   2.061   9.486   4.220
  268POPC   C1A 3642   1.992   9.691   4.717
  268POPC   D2A 3643   2.218   9.577   5.091
  268POPC   C3A 3644   1.954   9.574   5.473
  268POPC   C4A 3645   2.055   9.562   5.917
  268POPC   C1B 3646   1.761   9.271   4.499
  268POPC   C2B 3647   1.845   9.217   4.927
  268POPC   C3B 3648   1.749   9.112   5.324
  268POPC   C4B 3649   1.884   9.113   5.732
  269POPC   NC3 3650   9.180   1.842   3.821
  269POPC   PO4 3651   8.523   2.093   3.947
  269POPC   GL1 3652   8.858   2.117   4.280
  269POPC   GL2 3653   8.767   1.812   4.447
  269POPC   C1A 3654   8.922   2.192   4.768
  269POPC   D2A 3655   8.693   2.006   5.128
  269POPC   C3A 3656   8.709   2.182   5.555
  269POPC   C4A 3657   8.669   1.831   5.840
  269POPC   C1B 3658   8.445   2.087   4.652
  269POPC   C2B 3659   8.174   2.137   5.025
  269POPC   C3B 3660   8.236   2.038   5.444
  269POPC   C4B 3661   8.261   2.143   5.871
  270POPC   NC3 3662   2.858   2.851   3.981
  270POPC   PO4 3663   2.395   2.402   4.243
  270POPC   GL1 3664   2.521   2.768   4.363
  270POPC   GL2 3665   2.858   2.664   4.433
  270POPC   C1A 3666   2.443   2.979   4.730
  270POPC   D2A 3667   2.181   3.091   5.066
  270POPC   C3A 3668   2.224   2.885   5.409
  270POPC   C4A 3669   2.403   2.973   5.811
  270POPC   C1B 3670   2.817   2.660   4.839
  270POPC   C2B 3671   2.691   2.843   5.196
  270POPC   C3B 3672   2.625   2.568   5.508
  270POPC   C4B 3673   2.743   2.547   5.871
  271POPC   NC3 3674  10.057   8.698   3.612
  271POPC   PO4 3675  10.119   8.055   3.672
  271POPC   GL1 3676  10.071   8.371   4.056
  271POPC   GL2 3677  10.245   8.666   4.158
  271POPC   C1A 3678   9.934   8.362   4.514
  271POPC   D2A 3679  10.043   8.495   4.977
  271POPC   C3A 3680   9.935   8.345   5.370
  271POPC   C4A 3681   9.855   8.432   5.783
  271POPC   C1B 3682  10.260   8.775   4.609
  271POPC   C2B 3683   0.007   8.755   5.018
  271POPC   C3B 3684  10.380   8.682   5.465
  271POPC   C4B 3685  10.266   8.709   5.907
  272POPC   NC3 3686   8.906   4.747   3.923
  272POPC   PO4 3687   9.171   5.397   4.076
  272POPC   GL1 3688   8.805   5.251   4.327
  272POPC   GL2 3689   8.745   4.915   4.351
  272POPC   C1A 3690   8.635   5.155   4.764
  272POPC   D2A 3691   8.895   5.011   5.092
  272POPC   C3A 3692   8.698   5.049   5.449
  272POPC   C4A 3693   8.803   4.822   5.804
  272POPC   C1B 3694   8.812   4.671   4.710
  272POPC   C2B 3695   8.609   4.594   5.061
  272POPC   C3B 3696   8.560   4.549   5.451
  272POPC   C4B 3697   8.314   4.814   5.693
  273POPC   NC3 3698  10.152   3.065   3.794
  273POPC   PO4 3699   9.876   2.570   4.015
  273POPC   GL1 3700  10.037   2.736   4.397
  273POPC   GL2 3701  10.377   2.725   4.299
  273POPC   C1A 3702  10.029   2.922   4.822
  273POPC   D2A 3703   9.880   2.869   5.241
  273POPC   C3A 3704   9.827   3.036   5.644
  273POPC   C4A 3705   9.978   2.805   5.988
  273POPC   C1B 3706  10.446   2.589   4.740
  273POPC   C2B 3707  10.239   2.538   5.130
  273POPC   C3B 3708  10.176   2.560   5.549
  273POPC   C4B 3709  10.404   2.295   5.819
  274POPC   NC3 3710   0.290   0.737   3.781
  274POPC   PO4 3711   0.823   1.078   4.024
  274POPC   GL1 3712   0.584   1.012   4.399
  274POPC   GL2 3713   0.317   1.149   4.210
  274POPC   C1A 3714   0.548   1.013   4.881
  274POPC   D2A 3715   0.294   0.810   5.180
  274POPC   C3A 3716   0.335   0.816   5.644
  274POPC   C4A 3717   0.676   0.925   5.858
  274POPC   C1B 3718   0.223   1.321   4.623
  274POPC   C2B 3719   0.297   1.441   5.035
  274POPC   C3B 3720   0.301   1.266   5.412
  274POPC   C4B 3721   0.363   1.352   5.816
  275POPC   NC3 3722   4.286   9.552   3.796
  275POPC   PO4 3723   4.213  10.263   3.683
  275POPC   GL1 3724   4.250  10.321   4.133
  275POPC   GL2 3725   3.941  10.277   4.221
  275POPC   C1A 3726   4.309  10.392   4.589
  275POPC   D2A 3727   4.564  10.500   4.956
  275POPC   C3A 3728   4.646  10.357   5.390
  275POPC   C4A 3729   4.380  10.295   5.749
  275POPC   C1B 3730   3.927  10.067   4.641
  275POPC   C2B 3731   4.106  10.233   5.058
  275POPC   C3B 3732   3.989  10.103   5.487
  275POPC   C4B 3733   3.952  10.123   5.993
  276POPC   NC3 3734   6.518   8.786   4.040
  276POPC   PO4 3735   6.562   9.410   3.918
  276POPC   GL1 3736   6.600   9.224   4.299
  276POPC   GL2 3737   6.272   9.255   4.404
  276POPC   C1A 3738   6.654   9.238   4.757
  276POPC   D2A 3739   6.368   9.468   5.046
  276POPC   C3A 3740   6.461   9.487   5.491
  276POPC   C4A 3741   6.775   9.458   5.783
  276POPC   C1B 3742   6.078   9.626   4.616
  276POPC   C2B 3743   5.902   9.691   5.059
  276POPC   C3B 3744   5.965   9.470   5.457
  276POPC   C4B 3745   6.162   9.208   5.797
  277POPC   NC3 3746   1.330   5.330   3.924
  277POPC   PO4 3747   1.041   5.950   4.014
  277POPC   GL1 3748   1.049   5.570   4.268
  277POPC   GL2 3749   1.412   5.594   4.331
  277POPC   C1A 3750   1.111   5.323   4.666
  277POPC   D2A 3751   0.911   5.550   5.007
  277POPC   C3A 3752   1.056   5.448   5.425
  277POPC   C4A 3753   0.876   5.765   5.693
  277POPC   C1B 3754   1.284   5.803   4.685
  277POPC   C2B 3755   1.397   5.660   5.095
  277POPC   C3B 3756   1.306   5.873   5.455
  277POPC   C4B 3757   1.477   6.006   5.806
  278POPC   NC3 3758   1.157   3.830   3.671
  278POPC   PO4 3759   1.467   4.264   4.053
  278POPC   GL1 3760   1.255   4.173   4.390
  278POPC   GL2 3761   0.998   4.412   4.392
  278POPC   C1A 3762   1.415   4.137   4.804
  278POPC   D2A 3763   1.350   4.379   5.172
  278POPC   C3A 3764   1.398   4.087   5.488
  278POPC   C4A 3765   1.312   4.015   5.922
  278POPC   C1B 3766   0.909   4.201   4.786
  278POPC   C2B 3767   0.845   4.241   5.220
  278POPC   C3B 3768   0.907   4.290   5.652
  278POPC   C4B 3769   0.804   4.033   5.994
  279POPC   NC3 3770  10.078   1.439   3.795
  279POPC   PO4 3771  10.473   1.948   3.858
  279POPC   GL1 3772  10.237   1.856   4.228
  279POPC   GL2 3773  10.224   2.225   4.320
  279POPC   C1A 3774  10.286   1.832   4.666
  279POPC   D2A 3775  10.316   1.636   5.051
  279POPC   C3A 3776   0.059   1.726   5.375
  279POPC   C4A 3777  10.435   1.650   5.752
  279POPC   C1B 3778  10.013   2.306   4.696
  279POPC   C2B 3779  10.016   2.063   5.045
  279POPC   C3B 3780  10.165   2.051   5.433
  279POPC   C4B 3781  10.023   1.949   5.830
  280POPC   NC3 3782   9.267   3.989   4.071
  280POPC   PO4 3783   9.805   4.145   3.670
  280POPC   GL1 3784   9.712   4.205   4.169
  280POPC   GL2 3785   9.622   4.528   4.244
  280POPC   C1A 3786   9.466   4.122   4.639
  280POPC   D2A 3787   9.259   4.054   5.050
  280POPC   C3A 3788   9.448   4.199   5.444
  280POPC   C4A 3789   9.545   3.992   5.859
  280POPC   C1B 3790   9.493   4.644   4.659
  280POPC   C2B 3791   9.239   4.598   5.007
  280POPC   C3B 3792   9.055   4.610   5.391
  280POPC   C4B 3793   9.138   4.420   5.772
  281POPC   NC3 3794   2.615   7.930   3.791
  281POPC   PO4 3795   2.130   8.335   4.035
  281POPC   GL1 3796   2.471   8.032   4.271
  281POPC   GL2 3797   2.540   7.644   4.205
  281POPC   C1A 3798   2.676   8.122   4.686
  281POPC   D2A 3799   2.774   8.179   5.157
  281POPC   C3A 3800   2.403   8.138   5.449
  281POPC   C4A 3801   2.342   7.923   5.840
  281POPC   C1B 3802   2.826   7.645   4.582
  281POPC   C2B 3803   2.782   7.702   4.987
  281POPC   C3B 3804   2.645   7.702   5.395
  281POPC   C4B 3805   2.714   7.581   5.811
  282POPC   NC3 3806   0.654   6.205   3.972
  282POPC   PO4 3807   0.249   6.674   4.050
  282POPC   GL1 3808   0.454   6.494   4.374
  282POPC   GL2 3809   0.687   6.750   4.360
  282POPC   C1A 3810   0.354   6.508   4.817
  282POPC   D2A 3811   0.227   6.221   5.138
  282POPC   C3A 3812   0.078   6.356   5.545
  282POPC   C4A 3813   0.359   6.602   5.729
  282POPC   C1B 3814   0.861   6.612   4.730
  282POPC   C2B 3815   0.794   6.499   5.130
  282POPC   C3B 3816   0.764   6.749   5.459
  282POPC   C4B 3817   0.902   6.703   5.870
  283POPC   NC3 3818  10.050   7.608   3.569
  283POPC   PO4 3819  10.436   7.624   4.091
  283POPC   GL1 3820  10.062   7.636   4.342
  283POPC   GL2 3821   9.988   7.899   4.205
  283POPC   C1A 3822   9.886   7.885   4.709
  283POPC   D2A 3823  10.085   7.938   5.089
  283POPC   C3A 3824  10.122   7.611   5.394
  283POPC   C4A 3825  10.329   7.440   5.735
  283POPC   C1B 3826  10.338   8.063   4.526
  283POPC   C2B 3827  10.494   8.238   4.902
  283POPC   C3B 3828  10.434   8.199   5.341
  283POPC   C4B 3829  10.176   8.024   5.687
  284POPC   NC3 3830   8.412   7.128   4.149
  284POPC   PO4 3831   8.909   6.963   3.749
  284POPC   GL1 3832   8.907   7.096   4.202
  284POPC   GL2 3833   8.792   7.452   4.299
  284POPC   C1A 3834   8.835   6.968   4.652
  284POPC   D2A 3835   8.752   7.052   5.097
  284POPC   C3A 3836   9.016   7.305   5.352
  284POPC   C4A 3837   9.153   7.454   5.744
  284POPC   C1B 3838   8.561   7.413   4.733
  284POPC   C2B 3839   8.316   7.299   5.131
  284POPC   C3B 3840   8.421   7.164   5.512
  284POPC   C4B 3841   8.622   7.537   5.569
  285POPC   NC3 3842   6.480   0.307   3.952
  285POPC   PO4 3843   6.123   1.053   3.958
  285POPC   GL1 3844   6.274   0.670   4.233
  285POPC   GL2 3845   6.606   0.558   4.359
  285POPC   C1A 3846   6.143   0.445   4.624
  285POPC   D2A 3847   6.007   0.488   5.080
  285POPC   C3A 3848   6.345   0.602   5.371
  285POPC   C4A 3849   6.296   0.750   5.800
  285POPC   C1B 3850   6.629   0.232   4.646
  285POPC   C2B 3851   6.725   0.372   5.017
  285POPC   C3B 3852   6.715   0.255   5.405
  285POPC   C4B 3853   6.537   0.280   5.764
  286POPC   NC3 3854   4.518   9.345   4.195
  286POPC   PO4 3855   3.943   9.773   3.985
  286POPC   GL1 3856   4.274   9.810   4.255
  286POPC   GL2 3857   4.143   9.530   4.474
  286POPC   C1A 3858   4.424   9.886   4.659
  286POPC   D2A 3859   4.174   9.736   4.999
  286POPC   C3A 3860   4.408   9.865   5.361
  286POPC   C4A 3861   4.241   9.731   5.741
  286POPC   C1B 3862   4.246   9.194   4.776
  286POPC   C2B 3863   4.114   9.004   5.152
  286POPC   C3B 3864   4.211   9.249   5.509
  286POPC   C4B 3865   3.928   9.324   5.843
  287POPC   NC3 3866   8.491   4.074   3.951
  287POPC   PO4 3867   9.053   4.395   4.187
  287POPC   GL1 3868   8.648   4.416   4.286
  287POPC   GL2 3869   8.701   4.081   4.413
  287POPC   C1A 3870   8.372   4.387   4.634
  287POPC   D2A 3871   8.506   4.106   4.955
  287POPC   C3A 3872   8.331   4.107   5.368
  287POPC   C4A 3873   8.306   4.300   5.794
  287POPC   C1B 3874   8.939   3.783   4.650
  287POPC   C2B 3875   8.837   3.753   5.067
  287POPC   C3B 3876   8.852   4.058   5.407
  287POPC   C4B 3877   9.062   3.913   5.758
  288POPC   NC3 3878   8.200   1.826   3.724
  288POPC   PO4 3879   7.558   2.068   3.898
  288POPC   GL1 3880   7.784   2.125   4.244
  288POPC   GL2 3881   8.096   2.011   4.264
  288POPC   C1A 3882   7.724   2.141   4.670
  288POPC   D2A 3883   7.735   2.398   5.041
  288POPC   C3A 3884   7.744   2.168   5.432
  288POPC   C4A 3885   7.496   2.125   5.781
  288POPC   C1B 3886   8.052   1.767   4.675
  288POPC   C2B 3887   8.274   1.633   5.052
  288POPC   C3B 3888   8.174   1.543   5.509
  288POPC   C4B 3889   7.889   1.780   5.779
  289POPC   NC3 3890   9.939   2.105   3.908
  289POPC   PO4 3891   9.567   1.540   3.747
  289POPC   GL1 3892   9.593   1.796   4.132
  289POPC   GL2 3893   9.285   1.779   4.300
  289POPC   C1A 3894   9.770   1.871   4.557
  289POPC   D2A 3895   9.653   1.723   4.967
  289POPC   C3A 3896   9.574   1.919   5.352
  289POPC   C4A 3897   9.539   1.779   5.747
  289POPC   C1B 3898   9.214   1.746   4.710
  289POPC   C2B 3899   9.139   1.726   5.112
  289POPC   C3B 3900   9.082   1.834   5.515
  289POPC   C4B 3901   9.257   2.227   5.664
  290POPC   NC3 3902   3.280   8.525   3.676
  290POPC   PO4 3903   3.003   7.847   4.010
  290POPC   GL1 3904   3.333   7.833   4.329
  290POPC   GL2 3905   3.333   7.479   4.332
  290POPC   C1A 3906   3.425   8.150   4.704
  290POPC   D2A 3907   3.292   8.251   5.141
  290POPC   C3A 3908   3.513   8.129   5.546
  290POPC   C4A 3909   3.799   8.115   5.917
  290POPC   C1B 3910   3.315   7.638   4.786
  290POPC   C2B 3911   3.402   7.729   5.214
  290POPC   C3B 3912   3.151   7.773   5.580
  290POPC   C4B 3913   2.870   8.078   5.679
  291POPC   NC3 3914   0.350   5.132   3.925
  291POPC   PO4 3915   0.055   4.572   3.971
  291POPC   GL1 3916   0.256   4.709   4.294
  291POPC   GL2 3917   0.255   5.087   4.419
  291POPC   C1A 3918   0.070   4.705   4.692
  291POPC   D2A 3919   0.160   4.871   5.041
  291POPC   C3A 3920   0.022   4.786   5.428
  291POPC   C4A 3921   0.161   5.142   5.671
  291POPC   C1B 3922   0.591   4.887   4.618
  291POPC   C2B 3923   0.637   4.687   5.007
  291POPC   C3B 3924   0.557   4.904   5.389
  291POPC   C4B 3925   0.654   4.751   5.775
  292POPC   NC3 3926   0.940   8.595   3.851
  292POPC   PO4 3927   0.587   9.148   3.996
  292POPC   GL1 3928   0.914   8.945   4.267
  292POPC   GL2 3929   1.283   8.864   4.295
  292POPC   C1A 3930   0.936   8.701   4.659
  292POPC   D2A 3931   0.700   8.623   5.057
  292POPC   C3A 3932   0.920   8.649   5.459
  292POPC   C4A 3933   0.884   8.884   5.855
  292POPC   C1B 3934   1.438   8.893   4.730
  292POPC   C2B 3935   1.389   8.612   5.101
  292POPC   C3B 3936   1.585   8.660   5.507
  292POPC   C4B 3937   1.383   8.991   5.725
  293POPC   NC3 3938   7.904   9.783   4.002
  293POPC   PO4 3939   7.881   9.222   3.663
  293POPC   GL1 3940   7.924   9.165   4.188
  293POPC   GL2 3941   7.923   9.478   4.403
  293POPC   C1A 3942   7.970   9.071   4.680
  293POPC   D2A 3943   8.153   9.393   5.023
  293POPC   C3A 3944   8.191   9.302   5.483
  293POPC   C4A 3945   8.189   9.734   5.690
  293POPC   C1B 3946   7.691   9.501   4.752
  293POPC   C2B 3947   7.688   9.250   5.103
  293POPC   C3B 3948   7.791   9.594   5.390
  293POPC   C4B 3949   7.784   9.429   5.798
  294POPC   NC3 3950   3.465   1.220   3.820
  294POPC   PO4 3951   3.210   0.826   4.294
  294POPC   GL1 3952   3.538   1.043   4.403
  294POPC   GL2 3953   3.518   1.384   4.324
  294POPC   C1A 3954   3.534   1.094   4.837
  294POPC   D2A 3955   3.800   0.989   5.164
  294POPC   C3A 3956   3.503   0.910   5.441
  294POPC   C4A 3957   3.383   1.088   5.805
  294POPC   C1B 3958   3.567   1.601   4.694
  294POPC   C2B 3959   3.700   1.501   5.100
  294POPC   C3B 3960   3.693   1.396   5.509
  294POPC   C4B 3961   3.533   1.546   5.871
  295POPC   NC3 3962   3.231   8.242   4.068
  295POPC   PO4 3963   3.518   8.858   3.895
  295POPC   GL1 3964   3.553   8.611   4.276
  295POPC   GL2 3965   3.238   8.579   4.446
  295POPC   C1A 3966   3.667   8.738   4.669
  295POPC   D2A 3967   3.480   8.792   5.042
  295POPC   C3A 3968   3.523   8.612   5.416
  295POPC   C4A 3969   3.135   8.503   5.578
  295POPC   C1B 3970   3.202   8.990   4.653
  295POPC   C2B 3971   3.159   9.173   5.058
  295POPC   C3B 3972   3.233   9.011   5.447
  295POPC   C4B 3973   3.472   9.100   5.755
  296POPC   NC3 3974   2.909   7.314   4.032
  296POPC   PO4 3975   3.439   6.999   4.090
  296POPC   GL1 3976   3.088   7.016   4.413
  296POPC   GL2 3977   2.734   6.891   4.284
  296POPC   C1A 3978   3.056   7.205   4.843
  296POPC   D2A 3979   3.028   7.369   5.291
  296POPC   C3A 3980   3.024   7.182   5.736
  296POPC   C4A 3981   2.913   7.167   6.201
  296POPC   C1B 3982   2.601   7.198   4.608
  296POPC   C2B 3983   2.579   7.242   5.050
  296POPC   C3B 3984   2.561   7.210   5.495
  296POPC   C4B 3985   2.486   7.100   5.928
  297POPC   NC3 3986   1.441   6.226   3.960
  297POPC   PO4 3987   0.890   6.722   3.863
  297POPC   GL1 3988   1.135   6.538   4.229
  297POPC   GL2 3989   0.931   6.264   4.388
  297POPC   C1A 3990   1.356   6.340   4.637
  297POPC   D2A 3991   1.214   6.174   5.044
  297POPC   C3A 3992   1.285   6.377   5.452
  297POPC   C4A 3993   1.368   6.503   5.879
  297POPC   C1B 3994   0.756   6.092   4.780
  297POPC   C2B 3995   0.758   6.003   5.247
  297POPC   C3B 3996   0.839   6.263   5.629
  297POPC   C4B 3997   1.033   6.167   6.029
  298POPC   NC3 3998   0.731   5.640   3.839
  298POPC   PO4 3999   0.272   6.175   3.696
  298POPC   GL1 4000   0.231   6.056   4.183
  298POPC   GL2 4001   0.575   5.858   4.326
  298POPC   C1A 4002   0.222   6.024   4.641
  298POPC   D2A 4003   0.415   5.752   4.957
  298POPC   C3A 4004   0.207   5.769   5.346
  298POPC   C4A 4005   0.417   6.012   5.655
  298POPC   C1B 4006   0.609   5.452   4.568
  298POPC   C2B 4007   0.494   5.247   4.972
  298POPC   C3B 4008   0.556   5.408   5.388
  298POPC   C4B 4009   0.429   5.537   5.789
  299POPC   NC3 4010   1.299   0.588   3.666
  299POPC   PO4 4011   0.871   0.225   3.986
  299POPC   GL1 4012   1.208   0.264   4.278
  299POPC   GL2 4013   1.383   0.597   4.223
  299POPC   C1A 4014   1.069   0.303   4.704
  299POPC   D2A 4015   1.204   0.160   5.098
  299POPC   C3A 4016   1.177   0.313   5.513
  299POPC   C4A 4017   1.522   0.067   5.716
  299POPC   C1B 4018   1.426   0.666   4.661
  299POPC   C2B 4019   1.189   0.676   5.050
  299POPC   C3B 4020   1.268   0.857   5.434
  299POPC   C4B 4021   1.159   0.755   5.824
  300POPC   NC3 4022   3.942   8.695   3.969
  300POPC   PO4 4023   4.462   8.231   4.026
  300POPC   GL1 4024   4.188   8.457   4.342
  300POPC   GL2 4025   4.113   8.811   4.435
  300POPC   C1A 4026   3.940   8.330   4.696
  300POPC   D2A 4027   3.913   8.540   5.093
  300POPC   C3A 4028   3.975   8.360   5.484
  300POPC   C4A 4029   4.305   8.228   5.712
  300POPC   C1B 4030   4.327   8.678   4.805
  300POPC   C2B 4031   4.418   8.526   5.215
  300POPC   C3B 4032   4.321   8.734   5.585
  300POPC   C4B 4033   3.900   8.863   5.633
  301POPC   NC3 4034   9.704   0.988   3.947
  301POPC   PO4 4035  10.394   0.993   3.774
  301POPC   GL1 4036  10.311   1.152   4.208
  301POPC   GL2 4037  10.187   0.872   4.336
  301POPC   C1A 4038  10.211   1.309   4.661
  301POPC   D2A 4039   9.930   1.308   5.037
  301POPC   C3A 4040   9.933   1.578   5.416
  301POPC   C4A 4041   9.989   1.440   5.843
  301POPC   C1B 4042  10.492   0.865   4.702
  301POPC   C2B 4043  10.423   1.112   5.059
  301POPC   C3B 4044  10.304   1.248   5.411
  301POPC   C4B 4045  10.419   1.132   5.770
  302W        W 4046  10.397   3.558   8.973
  303W        W 4047   3.396   7.423   2.203
  304W        W 4048   8.005   2.764   1.874
  305W        W 4049   6.081   0.500   0.265
  306W        W 4050   9.215   2.117   8.597
  307W        W 4051   9.851   3.083   8.675
  308W        W 4052   8.196   5.513   9.728
  309W        W 4053   2.280   3.568   0.842
  310W        W 4054  10.050   3.168   0.964
  311W        W 4055   0.252   7.406  10.547
  312W        W 4056   5.264   1.868   2.177
  313W        W 4057   9.768   7.158   9.552
  314W        W 4058   9.839   7.967   8.925
  315W        W 4059   8.435   5.668   0.081
  316W        W 4060   9.034   0.707   3.081
  317W        W 4061   5.251   6.457   1.658
  318W        W 4062   8.019   6.172   1.457
  319W        W 4063   5.651  10.453  11.894
  320W        W 4064   6.519  10.333   1.448
  321W        W 4065   1.853   5.697  11.743
  322W        W 4066   3.499   6.669  11.484
  323W        W 4067   6.431   8.059   0.334
  324W        W 4068   8.989   7.667   9.857
  325W        W 4069   0.965   1.859   9.791
  326W        W 4070  10.310   1.791   9.105
  327W        W 4071   4.629   0.756  10.133
  328W        W 4072  10.007   8.585  10.911
  329W        W 4073   9.753   2.275   0.767
  330W        W 4074   1.915   6.978   2.847
  331W        W 4075   1.373   6.986   1.769
  332W        W 4076   9.547   2.111  11.775
  333W        W 4077   6.348   3.130   9.999
  334W        W 4078   2.182   2.833   2.515
  335W        W 4079   0.407   1.015   9.405
  336W        W 4080   8.757   2.204   2.128
  337W        W 4081   8.933   8.819  10.583
  338W        W 4082   4.972   0.457   1.501
  339W        W 4083   2.733   9.478  11.140
  340W        W 4084   3.517   7.375   2.991
  341W        W 4085   9.075   0.939   2.643
  342W        W 4086   1.359   2.549   0.093
  343W        W 4087   2.360   4.684   2.644
  344W        W 4088   6.756   0.160   3.539
  345W        W 4089  10.467   4.197   9.646
  346W        W 4090   7.016  10.314   1.730
  347W        W 4091   7.414   3.679   9.880
  348W        W 4092   1.646   6.795  10.306
  349W        W 4093  10.261   5.069   2.007
  350W        W 4094   8.440   5.606   0.611
  351W        W 4095   3.562   6.897  11.024
  352W        W 4096   6.981   4.096   1.878
  353W        W 4097   4.694   4.163  10.395
  354W        W 4098   8.503   7.612   9.101
  355W        W 4099   5.153  10.111  10.716
  356W        W 4100   8.554   7.636   9.615
  357W        W 4101   6.449   9.128   2.059
  358W        W 4102   2.272   1.286   1.688
  359W        W 4103   7.551   4.664   9.461
  360W        W 4104   0.888   0.840   0.281
  361W        W 4105   4.807   8.447   9.712
  362W        W 4106   5.299   4.778   0.330
  363W        W 4107   8.382   3.198   1.905
  364W        W 4108   0.428   0.799   1.394
  365W        W 4109   8.903   8.150   0.211
  366W        W 4110   5.184   3.031  11.386
  367W        W 4111   9.351   2.616   3.465
  368W        W 4112   2.138   1.793   3.121
  369W        W 4113   4.860   0.935   1.760
  370W        W 4114   8.469   0.185   1.743
  371W        W 4115   8.992   9.126  10.167
  372W        W 4116   9.248   1.384   1.108
  373W        W 4117   8.040   6.035   2.897
  374W        W 4118   6.157   3.720   0.684
  375W        W 4119   4.915   7.935   0.228
  376W        W 4120   8.721   9.775  10.943
  377W        W 4121   0.961   8.623   9.472
  378W        W 4122   5.682   9.432  10.219
  379W        W 4123   1.020   7.167   2.568
  380W        W 4124   1.899   0.971   1.755
  381W        W 4125   4.594   9.905   9.797
  382W        W 4126   6.701   9.701  11.721
  383W        W 4127   0.960   4.690   2.966
  384W        W 4128   7.131   3.550  10.483
  385W        W 4129   8.125   7.316   1.655
  386W        W 4130   4.781   2.188   2.899
  387W        W 4131   9.647   9.857   0.733
  388W        W 4132   8.474   9.525   3.047
  389W        W 4133   6.683   4.592   9.152
  390W        W 4134   7.010   9.461  10.227
  391W        W 4135   0.758   7.756   0.028
  392W        W 4136   5.434   7.584  10.480
  393W        W 4137   7.504   6.261  11.811
  394W        W 4138   1.621   0.561   1.728
  395W        W 4139   7.900   1.244   2.999
  396W        W 4140   0.928   3.755   8.785
  397W        W 4141   3.523   2.399  11.380
  398W        W 4142   4.056   9.625   9.785
  399W        W 4143   3.091   5.270   2.793
  400W        W 4144   7.204   4.338   3.330
  401W        W 4145   9.396   8.073   2.561
  402W        W 4146   7.698   1.436   9.505
  403W        W 4147   2.254   5.508   8.563
  404W        W 4148   8.179   3.762   2.899
  405W        W 4149   9.793   8.559   1.542
  406W        W 4150   7.580   4.613   3.135
  407W        W 4151   0.770  10.367   0.640
  408W        W 4152   2.614   2.753   2.227
  409W        W 4153   8.166   9.305   9.333
  410W        W 4154   1.738   4.488   8.678
  411W        W 4155   0.400   4.359   9.929
  412W        W 4156   7.892  10.272  10.557
  413W        W 4157   1.158   9.166  11.189
  414W        W 4158   7.037   8.197  11.940
  415W        W 4159   1.272   3.598   9.615
  416W        W 4160   6.356   9.772  11.323
  417W        W 4161   3.657   0.453   0.484
  418W        W 4162   9.240   7.218   2.905
  419W        W 4163   6.704   9.398  11.231
  420W        W 4164   8.071   1.240  10.136
  421W        W 4165   7.860   0.443   0.010
  422W        W 4166   7.729   2.698   8.828
  423W        W 4167  10.064   3.348   3.367
  424W        W 4168   0.958   0.023   1.749
  425W        W 4169   4.200   2.497  11.777
  426W        W 4170   4.760   4.124   2.217
  427W        W 4171   5.322   6.099   3.378
  428W        W 4172   7.372   8.552   3.661
  429W        W 4173   2.037   0.885   3.388
  430W        W 4174   4.255   0.824   1.872
  431W        W 4175  10.092   6.838  11.788
  432W        W 4176   1.997   9.105   1.225
  433W        W 4177   7.515   7.677   2.724
  434W        W 4178   1.787   2.097   0.393
  435W        W 4179   9.916   2.814  10.056
  436W        W 4180   0.239   4.635   9.537
  437W        W 4181   4.456   3.169   3.648
  438W        W 4182   6.517   5.019  11.574
  439W        W 4183   7.935   1.641   3.331
  440W        W 4184   1.871   0.636   8.921
  441W        W 4185   4.994   6.694   0.310
  442W        W 4186   3.728   3.742   1.946
  443W        W 4187   4.114   8.517  10.938
  444W        W 4188   1.266   0.498   2.812
  445W        W 4189   4.544   1.707   1.916
  446W        W 4190   8.196   5.782   9.250
  447W        W 4191   6.913   9.908   0.359
  448W        W 4192   3.456   0.824   0.807
  449W        W 4193   9.565   5.558   2.165
  450W        W 4194   6.660   9.948   3.082
  451W        W 4195   8.930   4.284   3.708
  452W        W 4196   5.088   5.247  11.405
  453W        W 4197   6.779   9.473   2.932
  454W        W 4198  10.299  10.344   2.441
  455W        W 4199   8.392   0.226  11.334
  456W        W 4200   2.866   1.300   8.790
  457W        W 4201   6.085   3.787  11.200
  458W        W 4202   0.755   8.609   1.781
  459W        W 4203   2.147   7.194   1.278
  460W        W 4204   9.503   9.575   2.457
  461W        W 4205   6.683   4.095  11.838
  462W        W 4206   6.939   4.149   9.293
  463W        W 4207   3.188   2.372   2.920
  464W        W 4208   8.173   3.746   0.304
  465W        W 4209   1.776   2.259  11.875
  466W        W 4210   8.033   1.183   3.488
  467W        W 4211   1.494  10.311  11.890
  468W        W 4212   5.491   6.632   9.425
  469W        W 4213   2.079   0.792   0.899
  470W        W 4214   5.954   8.167   0.509
  471W        W 4215  10.373   2.015   1.558
  472W        W 4216   6.633   4.080   9.696
  473W        W 4217   9.039   0.286   9.144
  474W        W 4218   8.019   4.664   2.890
  475W        W 4219   5.133   2.499   1.709
  476W        W 4220   3.064   8.269   2.551
  477W        W 4221   7.409   8.936  11.727
  478W        W 4222   2.879   0.339  11.797
  479W        W 4223  10.377   0.229   1.670
  480W        W 4224   1.957   0.877   0.410
  481W        W 4225   9.254   8.351   3.556
  482W        W 4226   9.832   6.415   9.034
  483W        W 4227   6.049   9.170  11.942
  484W        W 4228   9.378   6.632  10.847
  485W        W 4229   7.526   8.840   9.314
  486W        W 4230   2.392   4.242   9.871
  487W        W 4231   5.495   3.290   1.260
  488W        W 4232   4.502   9.964  11.320
  489W        W 4233   5.231   3.739   1.159
  490W        W 4234   5.030   0.732   9.781
  491W        W 4235   5.105   0.797   9.276
  492W        W 4236   1.260   4.969   3.542
  493W        W 4237   8.122   4.176  10.032
  494W        W 4238   2.864   2.363   3.385
  495W        W 4239   8.538   8.439  11.458
  496W        W 4240   9.765   2.366  10.292
  497W        W 4241   2.345   6.292   8.807
  498W        W 4242   5.962   6.295   9.483
  499W        W 4243   6.136   3.735   1.198
  500W        W 4244   2.808   7.411   0.978
  501W        W 4245   9.324   5.144  10.491
  502W        W 4246   6.842   2.139   1.672
  503W        W 4247   7.216   5.344   2.101
  504W        W 4248   6.108   6.029   2.530
  505W        W 4249   3.278   1.362   2.517
  506W        W 4250   0.071   3.886   0.830
  507W        W 4251   0.172   1.260   2.260
  508W        W 4252  10.133   3.942   8.661
  509W        W 4253   7.366   5.913   8.146
  510W        W 4254   2.773   5.868   9.469
  511W        W 4255  10.149   4.221  10.052
  512W        W 4256   2.160   5.186   2.906
  513W        W 4257   3.833   2.792  11.533
  514W        W 4258   8.313   6.497   0.039
  515W        W 4259   6.860   0.117  10.810
  516W        W 4260   6.648   4.553   1.908
  517W        W 4261   5.643   6.518   3.258
  518W        W 4262   6.164   3.719   2.828
  519W        W 4263   7.717   3.575   2.904
  520W        W 4264   6.559   5.948   1.813
  521W        W 4265   4.611   5.454   2.405
  522W        W 4266   2.919   3.389   0.308
  523W        W 4267   5.055   0.822   0.679
  524W        W 4268   1.413   7.603   1.144
  525W        W 4269   2.819   2.721  11.763
  526W        W 4270   6.535   1.424   2.702
  527W        W 4271   1.804   5.894   9.393
  528W        W 4272   3.581   2.342   2.219
  529W        W 4273  10.002   0.034  10.469
  530W        W 4274   6.519   1.676  10.064
  531W        W 4275   5.810   6.224   4.204
  532W        W 4276   6.700   7.034   0.102
  533W        W 4277   7.715   4.324  11.842
  534W        W 4278   9.331   8.578   9.508
  535W        W 4279   9.064  10.220  10.883
  536W        W 4280   9.127   4.664  10.570
  537W        W 4281   4.235   1.246  10.581
  538W        W 4282   9.912   4.742   1.212
  539W        W 4283   1.662   6.106   0.754
  540W        W 4284   9.643   4.207   9.996
  541W        W 4285   3.504   2.320   3.316
  542W        W 4286   0.470   5.258   9.793
  543W        W 4287   0.355   4.525   2.464
  544W        W 4288   2.398   6.035  10.322
  545W        W 4289   5.543  10.451  10.467
  546W        W 4290   1.919   0.697   2.187
  547W        W 4291   7.690   3.542   8.925
  548W        W 4292   7.976   1.874   9.335
  549W        W 4293   6.636   5.461   0.460
  550W        W 4294   9.810   7.175  10.555
  551W        W 4295  10.179   4.637  10.401
  552W        W 4296   3.756   6.618  10.644
  553W        W 4297   9.581   2.671   3.015
  554W        W 4298   7.558   1.145  11.474
  555W        W 4299   6.609   8.631   2.693
  556W        W 4300   4.596   1.800   3.303
  557W        W 4301   5.015   2.749   7.990
  558W        W 4302   4.207   0.575   9.902
  559W        W 4303   6.468   5.669   2.253
  560W        W 4304   8.865   5.037   9.493
  561W        W 4305   8.932   2.168   0.498
  562W        W 4306   8.418   2.804   2.227
  563W        W 4307   2.172   4.715   9.876
  564W        W 4308   1.390   0.709   0.346
  565W        W 4309   7.875   7.440   1.217
  566W        W 4310   6.903   3.145   1.215
  567W        W 4311  10.153   5.062  10.103
  568W        W 4312   0.791   2.772   9.712
  569W        W 4313   5.230   4.323   2.317
  570W        W 4314   1.206   4.768   9.628
  571W        W 4315   6.586   5.887   0.198
  572W        W 4316   2.026   7.999  11.916
  573W        W 4317   4.727   4.950  11.634
  574W        W 4318   0.641   1.686   1.734
  575W        W 4319   7.098   5.591  11.926
  576W        W 4320   3.341   1.869   2.176
  577W        W 4321   8.854   4.228   1.553
  578W        W 4322   0.351   9.890   1.770
  579W        W 4323   0.484   5.638   1.890
  580W        W 4324   8.485   8.899   8.794
  581W        W 4325   6.070   6.943   2.763
  582W        W 4326   6.247   6.533   9.858
  583W        W 4327   2.737   5.183   3.172
  584W        W 4328   7.149   6.530   9.380
  585W        W 4329   3.784   2.584   0.043
  586W        W 4330   3.257   8.234   0.552
  587W        W 4331   9.381   7.308   9.187
  588W        W 4332   6.692   9.247   0.670
  589W        W 4333   3.080   3.350   2.567
  590W        W 4334   9.417   7.534   2.478
  591W        W 4335   9.063   4.113   0.414
  592W        W 4336   4.513   4.110   0.683
  593W        W 4337   5.206   7.073   9.317
  594W        W 4338   5.123   9.934   9.045
  595W        W 4339   1.964   6.722   9.901
  596W        W 4340   3.786   6.078  10.493
  597W        W 4341   5.958   9.767   3.399
  598W        W 4342   9.437   3.764   0.449
  599W        W 4343   0.881   0.331  10.503
  600W        W 4344   2.360   4.579   0.996
  601W        W 4345   6.664   1.798   8.648
  602W        W 4346   2.737   3.549   3.366
  603W        W 4347   7.712   3.777   3.867
  604W        W 4348   6.046   3.226  10.800
  605W        W 4349   1.303   3.809   9.139
  606W        W 4350   9.533   4.740   1.965
  607W        W 4351   0.886   8.340  11.200
  608W        W 4352   3.628   1.547   3.449
  609W        W 4353   1.166   7.531   8.782
  610W        W 4354   4.795   1.029   1.201
  611W        W 4355   7.674   2.835   1.351
  612W        W 4356   1.342   2.392  11.055
  613W        W 4357   4.604   2.161  10.591
  614W        W 4358   3.274   9.761   9.152
  615W        W 4359   9.274   6.303   9.809
  616W        W 4360   4.082   8.402   9.071
  617W        W 4361   6.981   1.842  11.010
  618W        W 4362   4.118   6.003  11.775
  619W        W 4363   3.505   0.971   2.199
  620W        W 4364   9.068   1.695   0.671
  621W        W 4365   5.140   3.831   0.652
  622W        W 4366   3.357   5.019   9.843
  623W        W 4367   2.137   5.689  10.008
  624W        W 4368   4.567   2.811   8.812
  625W        W 4369   1.601   0.223   9.079
  626W        W 4370   6.945   7.042   3.518
  627W        W 4371   7.677   1.054   9.845
  628W        W 4372   2.393   7.353   0.236
  629W        W 4373   7.615   4.131  10.016
  630W        W 4374   6.128   8.358   1.873
  631W        W 4375   4.805   4.600   2.436
  632W        W 4376   7.265   3.626  11.972
  633W        W 4377   3.607   6.144   2.674
  634W        W 4378   4.746   7.347   0.954
  635W        W 4379   2.426   6.542  10.085
  636W        W 4380   7.498   0.841  11.863
  637W        W 4381   5.038   6.490  10.358
  638W        W 4382   3.213  10.294  11.383
  639W        W 4383   9.855   8.466   9.034
  640W        W 4384   9.214   5.725   0.694
  641W        W 4385   0.393   5.960   0.374
  642W        W 4386  10.118   2.798   1.745
  643W        W 4387   5.519   5.132  10.927
  644W        W 4388   2.141   2.081   9.943
  645W        W 4389   3.291   8.420  10.492
  646W        W 4390   4.738   0.017   2.019
  647W        W 4391  10.064   8.272   9.935
  648W        W 4392   5.662   4.136   9.539
  649W        W 4393   4.078   2.349   2.307
  650W        W 4394   4.505   4.232   1.192
  651W        W 4395   7.983  10.433   0.432
  652W        W 4396   9.513   6.722   9.959
  653W        W 4397   0.037   6.564  11.059
  654W        W 4398   1.783   6.957   3.416
  655W        W 4399   9.023   4.243   1.002
  656W        W 4400   1.949   8.784  10.500
  657W        W 4401   8.628   7.222   2.310
  658W        W 4402   9.837   1.378   0.257
  659W        W 4403   3.341   5.063   8.382
  660W        W 4404   2.337   2.077   1.003
  661W        W 4405   9.321   7.714   2.955
  662W        W 4406   6.738   6.004   8.731
  663W        W 4407   5.231   5.776   9.074
  664W        W 4408   7.620   5.690   2.125
  665W        W 4409   4.842   2.679  11.262
  666W        W 4410   9.076   2.352   1.357
  667W        W 4411   5.648   5.591   1.085
  668W        W 4412   5.916   8.643   1.488
  669W        W 4413   4.059   3.279   2.303
  670W        W 4414   6.107   0.320   2.509
  671W        W 4415   9.479   9.430   8.939
  672W        W 4416   3.837   0.037   1.683
  673W        W 4417   4.986   3.236   3.633
  674W        W 4418  10.036   3.630   1.747
  675W        W 4419   1.215   4.219   1.947
  676W        W 4420   0.468   3.349   3.500
  677W        W 4421   8.046   8.625  11.000
  678W        W 4422   6.512   3.600  11.726
  679W        W 4423   5.352  10.381   2.957
  680W        W 4424   5.072   6.049   1.400
  681W        W 4425   8.013   1.730   0.841
  682W        W 4426   0.830   0.949  11.796
  683W        W 4427   9.826   6.974   0.951
  684W        W 4428   1.948   3.662  11.926
  685W        W 4429   6.551   0.528   2.225
  686W        W 4430   0.303   2.083   1.845
  687W        W 4431   0.358   3.954  10.543
  688W        W 4432   6.230   4.693   0.520
  689W        W 4433   9.629   0.586   0.100
  690W        W 4434   0.519   4.730   1.984
  691W        W 4435   9.958   2.303   1.709
  692W        W 4436  10.238   7.803   9.725
  693W        W 4437   6.739   7.265   2.210
  694W        W 4438   0.834   8.539   2.291
  695W        W 4439   2.343   1.564   9.990
  696W        W 4440   8.636   6.518   1.892
  697W        W 4441   4.670   0.432   3.449
  698W        W 4442   1.968  10.447   3.381
  699W        W 4443   0.283   4.826  11.133
  700W        W 4444   7.194   1.875   8.558
  701W        W 4445   2.021   3.960   9.337
  702W        W 4446   3.720   7.625   2.590
  703W        W 4447   8.928   3.114   0.564
  704W        W 4448   7.793   3.122   3.125
  705W        W 4449   3.741   0.225   3.458
  706W        W 4450   7.982   8.354   3.076
  707W        W 4451   4.744   0.343   0.034
  708W        W 4452   5.170   6.034   1.925
  709W        W 4453   8.599   9.504   2.567
  710W        W 4454   1.263   5.729   8.589
  711W        W 4455   5.600   3.432   8.987
  712W        W 4456   7.923   5.129   9.103
  713W        W 4457   1.003   8.101   9.491
  714W        W 4458   2.299   7.023   8.913
  715W        W 4459   7.015  10.414   8.514
  716W        W 4460   7.139   7.402   1.864
  717W        W 4461   1.652  10.331   2.425
  718W        W 4462   3.243   0.353   0.790
  719W        W 4463   5.162   7.876  10.831
  720W        W 4464   7.091   4.231  10.927
  721W        W 4465   8.436   8.858   9.300
  722W        W 4466   5.679   8.922   2.187
  723W        W 4467   9.802   6.955   9.092
  724W        W 4468   5.114   7.166   0.481
  725W        W 4469   5.516   5.129   2.617
  726W        W 4470   6.441   7.443   0.375
  727W        W 4471   8.168   4.863   8.462
  728W        W 4472   6.415   7.465  11.234
  729W        W 4473   7.732   0.552   9.886
  730W        W 4474   1.416   1.426   1.752
  731W        W 4475   0.298   7.881   2.342
  732W        W 4476   1.559   8.401   1.690
  733W        W 4477   6.035   4.231  11.471
  734W        W 4478   0.096   4.705   0.419
  735W        W 4479   3.646   9.941  10.002
  736W        W 4480   9.518   5.283  10.981
  737W        W 4481   9.708   0.117   9.999
  738W        W 4482   3.776   1.844   0.409
  739W        W 4483   1.261   3.794   0.034
  740W        W 4484   0.393   5.773  11.037
  741W        W 4485  10.000   2.855   3.291
  742W        W 4486   1.178   7.779   3.299
  743W        W 4487   5.660   1.819   0.033
  744W        W 4488   2.094   9.303   8.958
  745W        W 4489   7.560   6.656   1.107
  746W        W 4490   5.670   9.582   8.850
  747W        W 4491   5.686   2.193   2.915
  748W        W 4492  10.072   3.540  10.754
  749W        W 4493   7.400   9.672   8.973
  750W        W 4494   1.728   7.592  11.821
  751W        W 4495   1.457   0.072  11.297
  752W        W 4496   4.333   6.660   1.597
  753W        W 4497   9.983   8.800  10.003
  754W        W 4498   0.604  10.479  10.782
  755W        W 4499   4.202  10.051   2.405
  756W        W 4500   5.337  10.065   9.538
  757W        W 4501   4.532   1.344   8.713
  758W        W 4502   0.444   0.822  11.003
  759W        W 4503   9.378   9.873   9.469
  760W        W 4504   2.069   3.158   0.026
  761W        W 4505   9.038   2.714  11.242
  762W        W 4506   7.234   7.931   9.089
  763W        W 4507   3.271   7.925   2.249
  764W        W 4508   1.355   1.973  10.745
  765W        W 4509   6.986   2.634   1.859
  766W        W 4510   8.970   3.114   0.061
  767W        W 4511   2.600  10.484   8.971
  768W        W 4512   2.146   8.911  11.876
  769W        W 4513   6.559   4.039   1.001
  770W        W 4514   9.851   9.965   9.258
  771W        W 4515   3.097   6.235   3.714
  772W        W 4516   1.698  10.374   1.307
  773W        W 4517   2.382   9.491   2.750
  774W        W 4518   9.609   8.440   0.304
  775W        W 4519   3.349   1.931  10.366
  776W        W 4520   1.285   0.633   1.205
  777W        W 4521   7.400   8.189  10.061
  778W        W 4522   2.736   6.420  10.977
  779W        W 4523   3.791   4.772   0.575
  780W        W 4524   7.707   5.771   1.319
  781W        W 4525   6.184   7.055  11.464
  782W        W 4526   0.364   2.280   1.382
  783W        W 4527   6.149   5.486   0.991
  784W        W 4528   5.552   6.033  10.241
  785W        W 4529   5.080   3.333   2.209
  786W        W 4530   0.821   6.195  11.471
  787W        W 4531   5.750   1.248  10.264
  788W        W 4532   6.372   9.529   3.241
  789W        W 4533   5.598   6.736   2.803
  790W        W 4534   0.083   2.110   8.632
  791W        W 4535   4.297   3.080   1.874
  792W        W 4536   6.638   0.331   1.351
  793W        W 4537   2.681   5.606   9.020
  794W        W 4538   0.123   9.451   3.292
  795W        W 4539   3.239   0.790   1.721
  796W        W 4540   0.266   6.581  10.575
  797W        W 4541   3.103   4.274   2.794
  798W        W 4542   4.287   9.358   8.887
  799W        W 4543   1.241   1.889   2.979
  800W        W 4544   3.006   4.299   8.569
  801W        W 4545   8.274   1.066  10.993
  802W        W 4546   7.259   2.826   0.025
  803W        W 4547   5.220   6.501   1.161
  804W        W 4548   7.219   4.214   8.559
  805W        W 4549  10.015   4.011  10.910
  806W        W 4550   4.782   0.348  11.529
  807W        W 4551   4.145   2.766   9.606
  808W        W 4552   8.872   0.264   8.663
  809W        W 4553   6.788   5.351   1.296
  810W        W 4554   9.334   4.093   1.386
  811W        W 4555   8.959   7.916   1.788
  812W        W 4556   7.017   7.545  10.371
  813W        W 4557   0.945   0.836  10.225
  814W        W 4558   3.724   3.981   3.730
  815W        W 4559   4.671   9.345  10.952
  816W        W 4560   7.533   7.312   3.620
  817W        W 4561  10.241   9.481  10.464
  818W        W 4562   6.963   3.684   9.532
  819W        W 4563  10.231   7.455  10.568
  820W        W 4564   5.620   2.235  11.189
  821W        W 4565   1.036   1.394   8.984
  822W        W 4566   0.134   5.547   9.530
  823W        W 4567   5.221   0.993   3.511
  824W        W 4568   3.604   4.249   1.821
  825W        W 4569   3.745   7.831   2.092
  826W        W 4570   7.122   1.196   0.788
  827W        W 4571   5.983   8.358  11.500
  828W        W 4572   2.528   6.922   2.972
  829W        W 4573   6.681   1.500   2.222
  830W        W 4574   8.058   2.882  11.225
  831W        W 4575   4.498   1.645   0.904
  832W        W 4576   8.535   9.487  10.560
  833W        W 4577   2.657   2.663   9.448
  834W        W 4578   7.924  10.156  10.071
  835W        W 4579   2.559   0.773   3.327
  836W        W 4580   7.471   5.631   8.577
  837W        W 4581   7.934   6.556  11.187
  838W        W 4582   6.035   3.289   0.931
  839W        W 4583   5.616   6.745   1.932
  840W        W 4584   9.231   1.111   2.063
  841W        W 4585   7.124   4.723   0.237
  842W        W 4586   4.857   6.191   0.354
  843W        W 4587   1.087   9.678  11.310
  844W        W 4588   0.761   9.813   2.404
  845W        W 4589   4.775   4.723   0.433
  846W        W 4590   4.735   3.682   9.498
  847W        W 4591   2.218   7.381  11.762
  848W        W 4592   6.200   4.233  11.952
  849W        W 4593   9.804  10.025   3.218
  850W        W 4594   6.582   8.368  10.362
  851W        W 4595   2.887   2.662  10.314
  852W        W 4596   7.835   4.600   8.161
  853W        W 4597   3.340   5.743   2.820
  854W        W 4598   1.858   1.797   2.360
  855W        W 4599   3.093   6.463   2.224
  856W        W 4600   4.066   8.622  11.433
  857W        W 4601   3.344   8.521   1.434
  858W        W 4602   2.092   2.371   2.331
  859W        W 4603   7.737   2.481   9.992
  860W        W 4604   2.341   3.850   3.180
  861W        W 4605   6.679   7.083  11.423
  862W        W 4606   0.591   8.693   3.240
  863W        W 4607   2.749   5.989   0.045
  864W        W 4608   6.683   4.792   2.410
  865W        W 4609   1.309   7.264  11.648
  866W        W 4610   8.935   7.472  10.898
  867W        W 4611   1.106   9.331   3.126
  868W        W 4612   3.657   2.756  10.036
  869W        W 4613   8.061   6.466  10.703
  870W        W 4614   6.452   3.237   0.550
  871W        W 4615   8.689   3.557   2.068
  872W        W 4616   9.528   6.627   1.187
  873W        W 4617   4.171   9.820  10.960
  874W        W 4618   1.438   0.552   2.316
  875W        W 4619   7.875   3.289  10.489
  876W        W 4620   0.325   3.215   9.116
  877W        W 4621   1.781   5.052   3.240
  878W        W 4622   4.137   0.358  10.756
  879W        W 4623   2.597   6.590   2.143
  880W        W 4624   0.531   0.905   9.913
  881W        W 4625   7.531   9.972   1.038
  882W        W 4626   2.052   1.011  11.794
  883W        W 4627   7.358   5.009   9.795
  884W        W 4628   8.454   4.646  10.807
  885W        W 4629  10.056   0.921  10.600
  886W        W 4630   9.649   6.633   2.208
  887W        W 4631   9.345   6.117  10.801
  888W        W 4632   4.997   2.609   8.996
  889W        W 4633   8.510   4.596   8.752
  890W        W 4634   4.674   2.201  11.459
  891W        W 4635  10.230   7.966   1.445
  892W        W 4636   9.107   2.842   0.975
  893W        W 4637   6.571   5.125   0.874
  894W        W 4638   8.220   3.608   8.931
  895W        W 4639  10.420   3.226   9.420
  896W        W 4640   0.671   9.755  10.458
  897W        W 4641   0.870   0.935   1.198
  898W        W 4642   8.121   4.799  11.245
  899W        W 4643   9.387   9.419  10.459
  900W        W 4644   0.488   7.574   0.833
  901W        W 4645   4.004   7.687   1.278
  902W        W 4646   3.586  10.036   0.489
  903W        W 4647   4.719   1.749   8.964
  904W        W 4648   5.627   9.395  11.758
  905W        W 4649   4.267   3.631   0.671
  906W        W 4650   7.524   7.656  10.291
  907W        W 4651   0.784   8.034   2.455
  908W        W 4652   2.545   1.171  11.460
  909W        W 4653   0.944   9.148   1.892
  910W        W 4654   0.849   3.076   2.316
  911W        W 4655   8.030   9.304   3.165
  912W        W 4656   7.570   0.989   3.319
  913W        W 4657   8.528   0.508   0.609
  914W        W 4658   8.420   1.967  11.944
  915W        W 4659   6.971   1.476   0.404
  916W        W 4660   6.509   2.703   3.270
  917W        W 4661   2.247   9.352  11.258
  918W        W 4662   8.105   1.391   9.175
  919W        W 4663   1.817   7.217   8.841
  920W        W 4664   2.164   4.102  10.724
  921W        W 4665   6.518   0.727   0.402
  922W        W 4666   9.883   2.730  11.121
  923W        W 4667   6.397   6.818  10.567
  924W        W 4668   0.943   8.759  10.359
  925W        W 4669   3.523   0.928   1.301
  926W        W 4670   3.320   6.802   0.215
  927W        W 4671  10.019   7.344  11.869
  928W        W 4672   8.870   4.205  10.499
  929W        W 4673   7.018   6.951   9.975
  930W        W 4674   1.530   8.098  11.873
  931W        W 4675   9.079   9.478  11.833
  932W        W 4676   0.588   9.132  11.126
  933W        W 4677   5.492   6.637   4.062
  934W        W 4678   8.393  10.079   8.354
  935W        W 4679   0.575   4.829   0.543
  936W        W 4680   9.402   6.247   8.768
  937W        W 4681   6.619   3.765   1.430
  938W        W 4682   9.321   6.451  10.344
  939W        W 4683   4.364  10.350   2.899
  940W        W 4684   3.884   7.326   2.195
  941W        W 4685   8.412   0.732  11.360
  942W        W 4686   4.563   5.775  11.895
  943W        W 4687   8.728   9.276   2.139
  944W        W 4688   3.693   6.075   1.280
  945W        W 4689   8.313   9.442   0.880
  946W        W 4690   5.180   5.243   9.562
  947W        W 4691   7.907   4.033   1.128
  948W        W 4692   1.825   1.597   0.538
  949W        W 4693   5.080   5.197   0.818
  950W        W 4694   1.700   4.166   3.174
  951W        W 4695   3.251   8.383   9.541
  952W        W 4696   9.938   3.144   9.195
  953W        W 4697   6.100   2.471  10.369
  954W        W 4698   1.893   9.410  10.807
  955W        W 4699   5.615   6.487   2.367
  956W        W 4700   2.614   9.961   9.120
  957W        W 4701   0.999   9.025   2.416
  958W        W 4702   3.820   9.389  11.778
  959W        W 4703   2.711   8.024   3.293
  960W        W 4704   4.576   4.060   8.911
  961W        W 4705   3.662   7.587   3.438
  962W        W 4706   2.384   0.294  11.816
  963W        W 4707   5.654   8.040  11.288
  964W        W 4708   1.403   5.698   2.487
  965W        W 4709   5.250   0.944  11.336
  966W        W 4710   7.547   7.000   8.682
  967W        W 4711   2.905   3.196   8.909
  968W        W 4712   2.618   8.970   9.976
  969W        W 4713   5.651   7.573   8.856
  970W        W 4714   4.081   2.219   8.886
  971W        W 4715   5.970   6.797   9.504
  972W        W 4716   9.837  10.272  11.441
  973W        W 4717   4.235   0.334   2.724
  974W        W 4718   7.441   1.092   2.821
  975W        W 4719   4.314   8.604   2.729
  976W        W 4720   1.835   5.073   9.970
  977W        W 4721   8.889   4.522   2.025
  978W        W 4722   3.198   6.108   9.642
  979W        W 4723   9.019   0.839  11.428
  980W        W 4724   5.558   1.681  10.525
  981W        W 4725   2.809   8.084   1.797
  982W        W 4726   6.635   8.138   2.771
  983W        W 4727   6.650  10.025   1.021
  984W        W 4728   6.696   4.450   0.645
  985W        W 4729   4.831   9.798   0.868
  986W        W 4730  10.432   1.408   0.836
  987W        W 4731  10.319   4.723  11.414
  988W        W 4732   3.543   5.272   9.418
  989W        W 4733   5.464   4.328   1.668
  990W        W 4734   0.164   0.194   2.105
  991W        W 4735   0.906   7.173   3.562
  992W        W 4736   4.563   2.671   2.749
  993W        W 4737   1.161   6.090  10.839
  994W        W 4738   9.086   9.699   2.157
  995W        W 4739   8.808   9.868  11.521
  996W        W 4740   6.867   8.345   2.339
  997W        W 4741   0.201   9.182   2.423
  998W        W 4742   8.936   0.058  10.477
  999W        W 4743  10.275   3.246  11.350
 1000W        W 4744   2.360   2.076   2.032
 1001W        W 4745   7.825   3.299   1.123
 1002W        W 4746   0.789   0.515  11.557
 1003W        W 4747   4.976   4.496   3.039
 1004W        W 4748   2.279   7.837   0.357
 1005W        W 4749   9.869   9.231   2.597
 1006W        W 4750   4.040   3.954   9.147
 1007W        W 4751   5.351   7.889   2.651
 1008W        W 4752   6.587   5.714  11.722
 1009W        W 4753   5.944   2.230  10.779
 1010W        W 4754   5.686   8.561   0.716
 1011W        W 4755  10.306  10.017  11.774
 1012W        W 4756   1.672   9.060   9.104
 1013W        W 4757   2.632   2.802   3.540
 1014W        W 4758   7.468   1.345   1.719
 1015W        W 4759   1.158   1.857   1.599
 1016W        W 4760   3.147   6.122  11.773
 1017W        W 4761   7.921   9.141   0.789
 1018W        W 4762   3.529   7.686   1.649
 1019W        W 4763   3.684   4.672   8.214
 1020W        W 4764   7.093   4.752  10.387
 1021W        W 4765   9.428   3.764  10.142
 1022W        W 4766   8.574   5.679   3.073
 1023W        W 4767   4.013   4.435   1.551
 1024W        W 4768   9.131   3.582  11.338
 1025W        W 4769   9.544   6.362   0.172
 1026W        W 4770   2.569   2.644   3.063
 1027W        W 4771   9.331   7.823  11.506
 1028W        W 4772   8.369  10.194   0.199
 1029W        W 4773   5.566   0.006   8.888
 1030W        W 4774   5.800   9.863   9.599
 1031W        W 4775   1.335   0.754   9.528
 1032W        W 4776   1.245   5.101   3.024
 1033W        W 4777   5.672  10.391   1.982
 1034W        W 4778   5.761   0.658   1.291
 1035W        W 4779   1.875   8.566   3.175
 1036W        W 4780   1.120   1.071   3.603
 1037W        W 4781  10.443   1.785  10.109
 1038W        W 4782   2.363   3.721  11.078
 1039W        W 4783   8.884   5.725   2.671
 1040W        W 4784   8.134   9.267   9.833
 1041W        W 4785   5.220   3.549   1.707
 1042W        W 4786   1.883   8.447  10.132
 1043W        W 4787   5.583   3.681  11.955
 1044W        W 4788   8.326   3.322  10.806
 1045W        W 4789   6.545   8.545   9.836
 1046W        W 4790   2.805   0.396   9.772
 1047W        W 4791   7.560   0.308   2.272
 1048W        W 4792  10.219   5.077   3.219
 1049W        W 4793   1.308   5.901   3.437
 1050W        W 4794   4.581   1.886  11.058
 1051W        W 4795   4.289   3.326  11.259
 1052W        W 4796   8.236  10.227   8.817
 1053W        W 4797   9.744   4.042   1.685
 1054W        W 4798  10.142   5.970   9.036
 1055W        W 4799   2.566   4.526   8.751
 1056W        W 4800   6.656   7.525   1.752
 1057W        W 4801   5.785   6.200  11.518
 1058W        W 4802   6.886   5.176   9.569
 1059W        W 4803   0.928   3.569  10.815
 1060W        W 4804   4.068   0.200  11.237
 1061W        W 4805  10.013   3.228   9.730
 1062W        W 4806   0.849   7.929   2.973
 1063W        W 4807   1.356   9.990  10.600
 1064W        W 4808   0.620   0.535   9.126
 1065W        W 4809   7.099   1.067   8.934
 1066W        W 4810   0.794   2.610   2.985
 1067W        W 4811   8.697   7.308  11.855
 1068W        W 4812   7.172   3.388   8.939
 1069W        W 4813   4.419  10.495   2.405
 1070W        W 4814   7.839   5.189  11.444
 1071W        W 4815   9.539   7.119  10.987
 1072W        W 4816   4.151  10.062  10.036
 1073W        W 4817   7.020   6.081   9.617
 1074W        W 4818   0.162   7.515   9.640
 1075W        W 4819   7.114   4.606   4.257
 1076W        W 4820   7.459   0.857  10.896
 1077W        W 4821   5.252   8.280   0.481
 1078W        W 4822   4.735   9.306   0.933
 1079W        W 4823   9.264   1.626   1.982
 1080W        W 4824   5.147   8.971   1.963
 1081W        W 4825   3.618   8.569   8.940
 1082W        W 4826   6.934   0.175  11.821
 1083W        W 4827   9.902   1.857   1.436
 1084W        W 4828   7.567   5.409  11.002
 1085W        W 4829   8.667   6.831   1.474
 1086W        W 4830   5.782   4.640   1.371
 1087W        W 4831   5.127  10.413   1.516
 1088W        W 4832   8.353   6.199   2.166
 1089W        W 4833   6.145   3.689   1.703
 1090W        W 4834  10.342   1.228   2.633
 1091W        W 4835   3.562   2.715   1.845
 1092W        W 4836   5.252   9.003  11.466
 1093W        W 4837   1.782   7.183   9.837
 1094W        W 4838   9.881   7.042   2.987
 1095W        W 4839   3.682   9.607   0.222
 1096W        W 4840   6.861   2.229  10.697
 1097W        W 4841   9.427   1.200   9.975
 1098W        W 4842   5.367   0.420  10.590
 1099W        W 4843   3.283  10.179  10.868
 1100W        W 4844   8.146   8.390   0.302
 1101W        W 4845   6.504   3.340   2.792
 1102W        W 4846   4.633   7.874   2.318
 1103W        W 4847   2.265   8.352   1.387
 1104W        W 4848   6.084   9.677  10.472
 1105W        W 4849   6.091   1.033   0.179
 1106W        W 4850   3.273   0.516   2.753
 1107W        W 4851   3.904   4.660   2.730
 1108W        W 4852   2.834   3.526  11.796
 1109W        W 4853   5.272   1.356  11.008
 1110W        W 4854   2.939   4.596   9.627
 1111W        W 4855   6.202   1.282  10.564
 1112W        W 4856   3.187   4.633  11.604
 1113W        W 4857   6.561  10.220   0.548
 1114W        W 4858   9.870   1.392  10.688
 1115W        W 4859   0.149   8.320   0.363
 1116W        W 4860   3.400   3.670  10.429
 1117W        W 4861   0.175   6.192   9.861
 1118W        W 4862   4.944   5.639  10.267
 1119W        W 4863   6.163   6.500   1.217
 1120W        W 4864   5.633   3.128  11.135
 1121W        W 4865   4.705   9.115   9.145
 1122W        W 4866   9.541   9.580   0.029
 1123W        W 4867   5.008   4.526   1.891
 1124W        W 4868   1.753   6.016   9.909
 1125W        W 4869   2.190   9.482   9.843
 1126W        W 4870   0.373   2.752   1.174
 1127W        W 4871   2.932   5.955   0.517
 1128W        W 4872   2.228   0.941  10.551
 1129W        W 4873   0.180   1.674  11.077
 1130W        W 4874   3.528   1.702  11.986
 1131W        W 4875   9.968   6.160   1.378
 1132W        W 4876   8.054   7.052   8.496
 1133W        W 4877   5.976   7.486   1.507
 1134W        W 4878   3.681   3.507   1.466
 1135W        W 4879   8.492   5.951   9.619
 1136W        W 4880   1.024   5.956   9.506
 1137W        W 4881   2.822   8.874   2.166
 1138W        W 4882   4.807   3.150   2.699
 1139W        W 4883   9.900   6.023   0.008
 1140W        W 4884   4.995   4.201   8.668
 1141W        W 4885  10.385   7.220   0.221
 1142W        W 4886   9.563   7.066  11.934
 1143W        W 4887   7.584   5.780  11.919
 1144W        W 4888   3.723   1.425   9.346
 1145W        W 4889   0.769   7.043  10.599
 1146W        W 4890   9.181   1.748  10.800
 1147W        W 4891   8.944   3.317   1.082
 1148W        W 4892  10.316   0.463   0.697
 1149W        W 4893   0.303   6.998  10.243
 1150W        W 4894   8.381   5.048   9.641
 1151W        W 4895   0.329   2.813   3.125
 1152W        W 4896   4.417   9.540  10.125
 1153W        W 4897   7.890  10.230   9.566
 1154W        W 4898   2.673   5.656   1.729
 1155W        W 4899   7.186   7.009   0.207
 1156W        W 4900   5.421   7.304   3.705
 1157W        W 4901   8.349  10.487  11.776
 1158W        W 4902   6.461   1.393   9.609
 1159W        W 4903   1.769   4.279   0.623
 1160W        W 4904   9.861   8.909  11.583
 1161W        W 4905   3.516   7.555   1.158
 1162W        W 4906   1.666   3.171   3.016
 1163W        W 4907   6.970   6.051   0.950
 1164W        W 4908   0.496   2.094   0.918
 1165W        W 4909   7.141   9.291   3.249
 1166W        W 4910   2.692   1.931   9.924
 1167W        W 4911   3.702   8.858   0.902
 1168W        W 4912   1.361   0.872  10.532
 1169W        W 4913   9.963   5.730  10.301
 1170W        W 4914   8.746  10.060  10.511
 1171W        W 4915   3.124   9.799  11.358
 1172W        W 4916   1.828   5.745  11.227
 1173W        W 4917   0.983   1.407   3.249
 1174W        W 4918   9.545   7.064   3.442
 1175W        W 4919  10.342   9.848   1.671
 1176W        W 4920   5.748   7.015   2.364
 1177W        W 4921   7.362   5.651   9.105
 1178W        W 4922   2.844   4.813   2.808
 1179W        W 4923   9.478   3.604   3.389
 1180W        W 4924   9.546   4.506   0.417
 1181W        W 4925   5.621   1.307   8.742
 1182W        W 4926   7.040   3.972   2.395
 1183W        W 4927   5.646   3.744   1.978
 1184W        W 4928   7.696   3.829  11.851
 1185W        W 4929   7.170   2.651  10.631
 1186W        W 4930  10.424   4.367   0.759
 1187W        W 4931   7.183   1.248  11.855
 1188W        W 4932   2.928   2.962   8.434
 1189W        W 4933   5.531   2.235   8.809
 1190W        W 4934   8.152   1.899   2.777
 1191W        W 4935   3.320   0.488   2.237
 1192W        W 4936   7.934   7.382   2.702
 1193W        W 4937   0.271   1.345   9.819
 1194W        W 4938   2.420   1.865   8.646
 1195W        W 4939   0.650   8.914   0.929
 1196W        W 4940   6.170   6.004   1.031
 1197W        W 4941   9.097   3.745  10.538
 1198W        W 4942   4.278   1.190   0.906
 1199W        W 4943   2.692   3.745   0.609
 1200W        W 4944   7.891   5.109   0.213
 1201W        W 4945   7.823   8.292  11.323
 1202W        W 4946   7.930   6.620  11.689
 1203W        W 4947   1.208   7.340   3.032
 1204W        W 4948   1.430   6.484  11.016
 1205W        W 4949   7.568   7.912  11.055
 1206W        W 4950   1.636   2.718   3.261
 1207W        W 4951   6.053   1.966   0.751
 1208W        W 4952   2.148   8.590   2.314
 1209W        W 4953   6.876   7.850   9.978
 1210W        W 4954   1.379   5.572   9.409
 1211W        W 4955   1.876   5.912  10.403
 1212W        W 4956   1.797   7.715   8.649
 1213W        W 4957   7.190   1.481  11.326
 1214W        W 4958   2.279   3.786   8.887
 1215W        W 4959  10.025   3.775  10.283
 1216W        W 4960   0.036   9.384   1.426
 1217W        W 4961   9.830   5.545   9.843
 1218W        W 4962   7.644   9.388   8.618
 1219W        W 4963   3.154   2.763   9.365
 1220W        W 4964   7.300   4.414   0.597
 1221W        W 4965   2.953   7.585   8.644
 1222W        W 4966   4.013   7.959   3.358
 1223W        W 4967   3.493   3.152   3.323
 1224W        W 4968   8.194   4.689   0.173
 1225W        W 4969   5.611   1.660   2.493
 1226W        W 4970   3.190   4.104  10.842
 1227W        W 4971   9.522   0.702  11.613
 1228W        W 4972   5.649   8.459   0.214
 1229W        W 4973   2.170   7.341  11.255
 1230W        W 4974   4.591   5.027  10.802
 1231W        W 4975   3.769   1.320  10.364
 1232W        W 4976   2.314   8.369   8.929
 1233W        W 4977   8.957   0.017   1.850
 1234W        W 4978   6.000   5.807   9.576
 1235W        W 4979   0.695  10.217   3.187
 1236W        W 4980   5.718   9.578   3.003
 1237W        W 4981   9.429   1.728   1.503
 1238W        W 4982   3.508   1.687   0.796
 1239W        W 4983   6.952   0.272   9.513
 1240W        W 4984   9.497   0.964   0.913
 1241W        W 4985   9.391   9.603   2.965
 1242W        W 4986   9.318   5.074   9.229
 1243W        W 4987   1.495   7.777   2.910
 1244W        W 4988   2.178   5.808   2.336
 1245W        W 4989   6.180   6.463   3.905
 1246W        W 4990   5.274   3.796   2.332
 1247W        W 4991   0.525   8.293   9.453
 1248W        W 4992   6.222   2.722  10.784
 1249W        W 4993   4.990   3.717   7.863
 1250W        W 4994   4.276   3.892  10.339
 1251W        W 4995   7.390   6.787   3.661
 1252W        W 4996   5.388   7.090  10.566
 1253W        W 4997   5.999   8.370   9.531
 1254W        W 4998   7.208   7.318   0.656
 1255W        W 4999   5.111   0.720   2.153
 1256W        W 5000   4.753   2.705  10.758
 1257W        W 5001   3.376   2.800   0.271
 1258W        W 5002   7.962   0.968   8.875
 1259W        W 5003   5.985   3.905  10.205
 1260W        W 5004   2.203   5.783   8.985
 1261W        W 5005   2.789   4.703   1.935
 1262W        W 5006   9.723   7.141   1.445
 1263W        W 5007   8.571   3.371   3.376
 1264W        W 5008   5.016   7.989   9.763
 1265W        W 5009   1.698   4.685   9.675
 1266W        W 5010   9.088   8.194   9.278
 1267W        W 5011   7.515   5.196   3.600
 1268W        W 5012   6.507   7.336   2.755
 1269W        W 5013   4.564   8.122  10.031
 1270W        W 5014   4.519   9.700   8.546
 1271W        W 5015   7.809  10.419  11.950
 1272W        W 5016   4.105   1.390   0.420
 1273W        W 5017   1.288   6.477   0.322
 1274W        W 5018   8.105   8.911   0.331
 1275W        W 5019   0.131   6.844   8.646
 1276W        W 5020   4.608   5.031   2.677
 1277W        W 5021   9.348   2.433   9.957
 1278W        W 5022  10.129   0.414   9.965
 1279W        W 5023   1.820   1.667  10.047
 1280W        W 5024   1.276   2.170   1.175
 1281W        W 5025   7.928   8.821   3.319
 1282W        W 5026  10.261   6.440   9.664
 1283W        W 5027   0.479   3.455  10.594
 1284W        W 5028   7.049   5.384   0.768
 1285W        W 5029   5.590   9.425   1.462
 1286W        W 5030   3.523   8.324   3.282
 1287W        W 5031   7.471   5.031   0.480
 1288W        W 5032   7.229   9.297   1.906
 1289W        W 5033   9.098   1.335   0.243
 1290W        W 5034   2.862   4.032   3.276
 1291W        W 5035   9.759   0.484   1.828
 1292W        W 5036   1.828   5.565   0.250
 1293W        W 5037   3.114  10.486   9.616
 1294W        W 5038   1.847  10.327  11.527
 1295W        W 5039  10.259   1.953   2.053
 1296W        W 5040   6.879   7.594   1.226
 1297W        W 5041   6.491   3.539  10.742
 1298W        W 5042   8.734  10.431   9.447
 1299W        W 5043   3.218   5.987   2.348
 1300W        W 5044   4.438   4.622   0.813
 1301W        W 5045  10.466   5.408   2.349
 1302W        W 5046   3.059   0.666   3.263
 1303W        W 5047   6.706   5.562  10.842
 1304W        W 5048   8.911   7.652   0.367
 1305W        W 5049   8.396   8.602   3.303
 1306W        W 5050   2.404   0.295   9.429
 1307W        W 5051   8.364   1.823   0.432
 1308W        W 5052   0.774   2.446   8.583
 1309W        W 5053   0.673   4.160   2.247
 1310W        W 5054   6.929   2.257   8.822
 1311W        W 5055   4.648   7.071   1.653
 1312W        W 5056   0.388   6.416  11.898
 1313W        W 5057   3.160   7.657   3.224
 1314W        W 5058   4.160   7.874   9.797
 1315W        W 5059   2.540   9.566   8.790
 1316W        W 5060   7.670   6.523   1.561
 1317W        W 5061   6.837   2.312  11.739
 1318W        W 5062   1.169   7.585  11.262
 1319W        W 5063   4.607   9.945   2.695
 1320W        W 5064   7.856   6.040   4.144
 1321W        W 5065   4.837   1.314  11.261
 1322W        W 5066   6.552   5.845   2.733
 1323W        W 5067   9.922   7.479   1.814
 1324W        W 5068   6.483   0.974   9.283
 1325W        W 5069   2.397   1.471   9.022
 1326W        W 5070   4.764   6.509   1.832
 1327W        W 5071   4.623   6.151  10.372
 1328W        W 5072   6.996   9.447   1.454
 1329W        W 5073   4.144   4.698   9.968
 1330W        W 5074   2.700   3.258  10.869
 1331W        W 5075   4.205   0.361   1.218
 1332W        W 5076   7.694   8.309   0.523
 1333W        W 5077   9.362   0.218   9.554
 1334W        W 5078   2.821   1.440   9.829
 1335W        W 5079   3.252   4.063  11.350
 1336W        W 5080   7.423   9.752   0.458
 1337W        W 5081   1.216   6.484   1.770
 1338W        W 5082  10.420   0.167   1.142
 1339W        W 5083   8.832   3.161   9.546
 1340W        W 5084   6.084   7.358   3.080
 1341W        W 5085   5.076   7.417  10.075
 1342W        W 5086   7.696   7.345   9.927
 1343W        W 5087   3.813   2.241   1.789
 1344W        W 5088   2.590   3.125  11.986
 1345W        W 5089   3.938   2.625   8.580
 1346W        W 5090   7.859   7.037   9.519
 1347W        W 5091   3.906   3.648  11.069
 1348W        W 5092   6.081   0.370   0.841
 1349W        W 5093   2.180   4.389   8.427
 1350W        W 5094   6.227   0.055  10.851
 1351W        W 5095   7.543   2.924   2.281
 1352W        W 5096   5.553   4.366  11.413
 1353W        W 5097   8.216   5.796   3.856
 1354W        W 5098   9.004   7.684   9.333
 1355W        W 5099   4.730   7.234   9.487
 1356W        W 5100   7.926   1.186   1.935
 1357W        W 5101   7.865   8.367   9.839
 1358W        W 5102   3.690   1.392   1.454
 1359W        W 5103   7.434   7.441  11.254
 1360W        W 5104   6.569   6.849   2.717
 1361W        W 5105   8.463   4.599   3.106
 1362W        W 5106   7.907   5.099   8.059
 1363W        W 5107   4.573  10.355  10.045
 1364W        W 5108   5.767   4.638   2.929
 1365W        W 5109   9.703  10.424   1.262
 1366W        W 5110  10.072   0.512  11.813
 1367W        W 5111   5.107   6.157  11.051
 1368W        W 5112   2.278   6.190   3.781
 1369W        W 5113   1.953   1.149   8.797
 1370W        W 5114   1.797   3.206  10.989
 1371W        W 5115   4.109   2.378   0.448
 1372W        W 5116   9.322   0.474   8.709
 1373W        W 5117   2.899   4.015   2.370
 1374W        W 5118   8.954   2.723  10.733
 1375W        W 5119   4.473   6.777  11.814
 1376W        W 5120   0.148   9.331  11.277
 1377W        W 5121  10.245   6.343   2.520
 1378W        W 5122   5.840   7.684   1.961
 1379W        W 5123   2.692   9.888   3.224
 1380W        W 5124   8.386   4.125   9.593
 1381W        W 5125   5.730   8.314   1.156
 1382W        W 5126   4.715   3.222   9.698
 1383W        W 5127   2.623   1.216  10.276
 1384W        W 5128   7.792  10.358   1.263
 1385W        W 5129   8.289   0.249   0.223
 1386W        W 5130   7.059   8.778   3.311
 1387W        W 5131   7.840   9.377   2.666
 1388W        W 5132   2.280   9.834   1.439
 1389W        W 5133   5.997   2.971  10.347
 1390W        W 5134   7.239   7.893   1.708
 1391W        W 5135   1.701   2.631   9.543
 1392W        W 5136   5.426   0.867  10.858
 1393W        W 5137  10.043   0.538   3.142
 1394W        W 5138   1.270   0.536  11.402
 1395W        W 5139   8.566   1.782   1.366
 1396W        W 5140   2.449   2.212   9.566
 1397W        W 5141   1.941   3.311   1.518
 1398W        W 5142   5.700   8.225   2.734
 1399W        W 5143   1.011   2.325   9.578
 1400W        W 5144   0.690   2.899  11.411
 1401W        W 5145   7.679   1.996  10.271
 1402W        W 5146   5.472   0.819   3.096
 1403W        W 5147   3.937   5.642  10.228
 1404W        W 5148   2.916   4.571  10.960
 1405W        W 5149   8.963   6.206   2.811
 1406W        W 5150   5.560   2.048   0.977
 1407W        W 5151   1.613   8.040  10.053
 1408W        W 5152   2.680   6.972   3.473
 1409W        W 5153   7.592   1.400   3.624
 1410W        W 5154   2.775   3.742   1.946
 1411W        W 5155  10.361   3.041   8.919
 1412W        W 5156   9.108   6.682   2.661
 1413W        W 5157   1.203   3.324   0.242
 1414W        W 5158   4.923   0.679   8.239
 1415W        W 5159   3.571   3.226  10.682
 1416W        W 5160   1.434   2.246   9.311
 1417W        W 5161   0.446   6.882  10.964
 1418W        W 5162   2.138   7.688   1.204
 1419W        W 5163   1.332   4.317   9.000
 1420W        W 5164   2.609   2.693   0.812
 1421W        W 5165   9.040   5.518   9.278
 1422W        W 5166   0.292   4.131  11.943
 1423W        W 5167   2.386   0.852   1.936
 1424W        W 5168   2.367   6.096   9.802
 1425W        W 5169   5.006   3.775   9.046
 1426W        W 5170   8.903   5.301   0.448
 1427W        W 5171   6.214   5.494   0.079
 1428W        W 5172   1.493   5.071   1.923
 1429W        W 5173   0.243   0.560   0.984
 1430W        W 5174   6.140   8.386  10.104
 1431W        W 5175   0.318   0.397  11.364
 1432W        W 5176   9.493   4.143   0.068
 1433W        W 5177   7.969   8.745   1.694
 1434W        W 5178  10.244   8.402   3.187
 1435W        W 5179   4.820   4.561   1.416
 1436W        W 5180   0.925   0.329   0.324
 1437W        W 5181   8.874   9.820   3.146
 1438W        W 5182   1.062  10.377   0.153
 1439W        W 5183   7.994   4.619   2.384
 1440W        W 5184  10.301  10.028   9.003
 1441W        W 5185   8.755   5.474   9.725
 1442W        W 5186   8.841   9.050  11.984
 1443W        W 5187   4.764   1.247   0.734
 1444W        W 5188   7.956   6.493   2.653
 1445W        W 5189   5.437   2.143  10.729
 1446W        W 5190   4.218   5.852  10.640
 1447W        W 5191   2.220   2.194  11.137
 1448W        W 5192   5.215   4.240   3.614
 1449W        W 5193   3.707   5.892   2.209
 1450W        W 5194   1.690   9.629   9.025
 1451W        W 5195   5.281   0.064  10.981
 1452W        W 5196   6.143   9.894   2.935
 1453W        W 5197   2.165   6.530   1.871
 1454W        W 5198   8.171   5.685   8.533
 1455W        W 5199   1.651   4.600   0.246
 1456W        W 5200   7.642   3.263  11.935
 1457W        W 5201   2.844   5.759  10.387
 1458W        W 5202   6.598   6.601   3.159
 1459W        W 5203   6.813   2.077  10.209
 1460W        W 5204   5.752   3.752   2.497
 1461W        W 5205   5.174   1.761   0.835
 1462W        W 5206   3.798   3.547   9.376
 1463W        W 5207  10.212   6.038   0.932
 1464W        W 5208   4.233   1.414   9.593
 1465W        W 5209   3.029   0.876   2.414
 1466W        W 5210   3.556   0.147  11.274
 1467W        W 5211   4.685   0.327   9.889
 1468W        W 5212   1.708   3.143   2.497
 1469W        W 5213   1.018   8.308   0.485
 1470W        W 5214   3.510   6.698   8.680
 1471W        W 5215   2.270   5.478  11.991
 1472W        W 5216   6.432   5.233   2.573
 1473W        W 5217   2.334   0.318   3.409
 1474W        W 5218   7.551   1.488   0.725
 1475W        W 5219   9.728  10.143  10.275
 1476W        W 5220   9.591   2.232   1.265
 1477W        W 5221   1.796   7.296  10.364
 1478W        W 5222   0.812   4.131   3.283
 1479W        W 5223   1.677   7.640  11.314
 1480W        W 5224   8.543   5.276   1.276
 1481W        W 5225   5.727   7.112   4.057
 1482W        W 5226   4.527   8.120   8.969
 1483W        W 5227   9.819   7.662   9.366
 1484W        W 5228   4.979   7.901   8.809
 1485W        W 5229   8.756   5.834   0.951
 1486W        W 5230   3.275   6.321   1.444
 1487W        W 5231   6.800   8.109   8.896
 1488W        W 5232   8.985   3.379   1.586
 1489W        W 5233   9.492   4.732  10.954
 1490W        W 5234   2.790   4.586   0.698
 1491W        W 5235   9.857   2.226   0.169
 1492W        W 5236  10.388   6.095   0.284
 1493W        W 5237   3.154   5.656   1.912
 1494W        W 5238   7.874   7.198  10.392
 1495W        W 5239   6.166   0.543  10.749
 1496W        W 5240   7.851   9.748  11.442
 1497W        W 5241   3.969   8.429   3.088
 1498W        W 5242   0.245   8.554   9.122
 1499W        W 5243   5.304   4.493   1.210
 1500W        W 5244   8.481   6.381   1.268
 1501W        W 5245   7.455   9.540   3.578
 1502W        W 5246   3.732  10.077   9.118
 1503W        W 5247   8.577   0.990   2.871
 1504W        W 5248   4.266   1.491  11.108
 1505W        W 5249   3.583   4.312   0.452
 1506W        W 5250   4.545   6.962   0.624
 1507W        W 5251   8.475   9.010   2.517
 1508W        W 5252   2.028   7.719   2.164
 1509W        W 5253   8.481   8.279  11.942
 1510W        W 5254   1.768   2.128   2.760
 1511W        W 5255   5.666   1.302   0.247
 1512W        W 5256   7.011   7.579   3.559
 1513W        W 5257   0.199   5.937  11.888
 1514W        W 5258   9.452   5.023   1.273
 1515W        W 5259   4.279   1.123  10.026
 1516W        W 5260   0.009   8.403  10.984
 1517W        W 5261   9.316   0.552  10.466
 1518W        W 5262   3.145   6.965   2.142
 1519W        W 5263   7.652   4.156   8.314
 1520W        W 5264   1.481   5.465  11.458
 1521W        W 5265   5.080   0.062   3.351
 1522W        W 5266   9.537   5.438   0.971
 1523W        W 5267   9.056   5.845   3.168
 1524W        W 5268   8.771   7.047   2.774
 1525W        W 5269   3.816   8.599   2.619
 1526W        W 5270   2.747  10.409  11.580
 1527W        W 5271   3.485   2.774  10.979
 1528W        W 5272   7.281   2.315   9.745
 1529W        W 5273   3.228   9.175   3.598
 1530W        W 5274  10.320   6.186   3.007
 1531W        W 5275   1.863   3.726  10.920
 1532W        W 5276   7.496   6.095   9.390
 1533W        W 5277   6.048   7.426   2.575
 1534W        W 5278   5.612   8.312   3.621
 1535W        W 5279   2.225   5.795   1.460
 1536W        W 5280   5.530   6.848   0.409
 1537W        W 5281   3.394   1.115   3.332
 1538W        W 5282  10.359   6.438   9.087
 1539W        W 5283   6.769   8.466   0.301
 1540W        W 5284   9.817   5.255  10.433
 1541W        W 5285   4.476   7.535   1.479
 1542W        W 5286   3.679   6.719   9.185
 1543W        W 5287   1.457   5.565   2.987
 1544W        W 5288   5.591   3.100   9.392
 1545W        W 5289   7.531   8.879   1.947
 1546W        W 5290  10.164   5.967   9.863
 1547W        W 5291   9.877   6.112   8.604
 1548W        W 5292   6.135   9.888   9.987
 1549W        W 5293   9.841   3.258  11.115
 1550W        W 5294   6.099   6.476  11.819
 1551W        W 5295   4.491   7.485   1.994
 1552W        W 5296   2.409   7.586  10.161
 1553W        W 5297   4.460   7.247  11.073
 1554W        W 5298   5.612   1.295   9.259
 1555W        W 5299   7.269   4.469   9.029
 1556W        W 5300   7.673   6.950   0.333
 1557W        W 5301  10.313   4.932   2.502
 1558W        W 5302   8.949   6.248   3.482
 1559W        W 5303   8.097   1.267  11.464
 1560W        W 5304   6.759   5.677   9.848
 1561W        W 5305   1.519   1.877   1.981
 1562W        W 5306   4.873   5.648   9.418
 1563W        W 5307   5.161   1.229   3.021
 1564W        W 5308   3.593   3.732   8.932
 1565W        W 5309   7.480   6.762  11.869
 1566W        W 5310   5.671   2.802   1.594
 1567W        W 5311   3.698   5.876   3.151
 1568W        W 5312   6.118   5.933  11.816
 1569W        W 5313   2.817   0.728  11.491
 1570W        W 5314   7.354   2.355  11.765
 1571W        W 5315   5.291   9.324   2.944
 1572W        W 5316   9.651   5.437   9.368
 1573W        W 5317   2.193   8.056  10.166
 1574W        W 5318   8.050   4.380   3.910
 1575W        W 5319   9.578   0.459   0.600
 1576W        W 5320   4.510   0.725   0.912
 1577W        W 5321   2.190   4.089   0.853
 1578W        W 5322   1.391   9.368  11.598
 1579W        W 5323   1.052   8.382  10.695
 1580W        W 5324   1.587   0.761   0.805
 1581W        W 5325   7.836   1.131   2.493
 1582W        W 5326   9.209   5.582   3.594
 1583W        W 5327   1.844   9.247   0.345
 1584W        W 5328   9.809   0.235   2.752
 1585W        W 5329   1.400   8.438   9.262
 1586W        W 5330   8.857   0.787   9.030
 1587W        W 5331   6.544   5.027  11.059
 1588W        W 5332   8.960   7.925   3.376
 1589W        W 5333   5.415   7.110   8.769
 1590W        W 5334   1.834   8.037   9.112
 1591W        W 5335   6.358   2.429  11.933
 1592W        W 5336   1.229   1.141   0.026
 1593W        W 5337   3.352   8.749   0.450
 1594W        W 5338   5.720   0.191  11.433
 1595W        W 5339   7.096   6.579   1.528
 1596W        W 5340   7.986   7.694  10.616
 1597W        W 5341   9.263   2.395  10.463
 1598W        W 5342   9.815   6.124   2.324
 1599W        W 5343   7.262   2.931   0.917
 1600W        W 5344   0.956   5.158   0.577
 1601W        W 5345  10.382   4.529   1.247
 1602W        W 5346   3.560   3.663   9.809
 1603W        W 5347   8.960   3.581   0.297
 1604W        W 5348   6.013   5.204  10.127
 1605W        W 5349   9.762   8.163  10.772
 1606W        W 5350   8.880   4.373   2.568
 1607W        W 5351   7.393   6.582   1.964
 1608W        W 5352   1.310   5.751   9.926
 1609W        W 5353   0.005   8.738   2.234
 1610W        W 5354   7.616   8.118   1.449
 1611W        W 5355   6.937   4.540  11.819
 1612W        W 5356   5.492   6.226   2.797
 1613W        W 5357   8.207   0.676   9.686
 1614W        W 5358   6.031   9.170   1.728
 1615W        W 5359   5.324   9.865   0.939
 1616W        W 5360   7.645   9.549  11.022
 1617W        W 5361   7.100   3.585   2.069
 1618W        W 5362   4.720   3.652   0.922
 1619W        W 5363   8.515   1.488   9.957
 1620W        W 5364   8.450   3.806   2.451
 1621W        W 5365   2.509   1.607   0.902
 1622W        W 5366   4.127   6.580   9.387
 1623W        W 5367   3.363   2.292   9.630
 1624W        W 5368   9.625   3.469  11.545
 1625W        W 5369   6.126   0.304   1.370
 1626W        W 5370   5.201   3.915   9.517
 1627W        W 5371   4.886   9.049   2.858
 1628W        W 5372   3.255   7.491   3.718
 1629W        W 5373   9.428   9.749   1.749
 1630W        W 5374   1.660  10.476   2.942
 1631W        W 5375   8.491   2.777   9.472
 1632W        W 5376   4.106   4.130   1.948
 1633W        W 5377   1.294   9.388   9.257
 1634W        W 5378   2.827   7.354   0.480
 1635W        W 5379   8.942   3.168  11.029
 1636W        W 5380   5.021  10.477   0.330
 1637W        W 5381   1.232   2.747   1.455
 1638W        W 5382   8.532   5.528  10.562
 1639W        W 5383   2.658   6.032   2.899
 1640W        W 5384   0.218   2.714   9.127
 1641W        W 5385   7.023   6.105   3.570
 1642W        W 5386   4.446   5.667  10.230
 1643W        W 5387   4.358   1.396   3.519
 1644W        W 5388   4.081   6.121   2.893
 1645W        W 5389   7.175   3.208  11.701
 1646W        W 5390   5.932   5.635  10.414
 1647W        W 5391   1.381   6.878   2.804
 1648W        W 5392   0.914   2.694  10.190
 1649W        W 5393   7.233   3.699   2.913
 1650W        W 5394   4.985   5.179   0.323
 1651W        W 5395   7.047   0.394   1.676
 1652W        W 5396   6.032   2.442   2.205
 1653W        W 5397   5.583   2.441   1.953
 1654W        W 5398   7.847   5.611   8.931
 1655W        W 5399   2.162   7.796  11.460
 1656W        W 5400   8.521   0.656   1.530
 1657W        W 5401   5.514  10.231  11.442
 1658W        W 5402   4.774   8.084  11.692
 1659W        W 5403   4.612   5.974   1.167
 1660W        W 5404  10.369   3.082   2.942
 1661W        W 5405   1.952   1.362   9.258
 1662W        W 5406   4.757   3.632  10.487
 1663W        W 5407   0.512   5.218   0.897
 1664W        W 5408   0.531   9.372   0.715
 1665W        W 5409   9.812   2.360   9.779
 1666W        W 5410   2.768   7.878   2.796
 1667W        W 5411   1.255   6.571   2.276
 1668W        W 5412   0.986   9.397   8.410
 1669W        W 5413   6.132   1.051  11.455
 1670W        W 5414   2.226   6.824   2.433
 1671W        W 5415   2.136   4.308   0.131
 1672W        W 5416   0.409   6.532   8.963
 1673W        W 5417   3.946   3.192   3.593
 1674W        W 5418   5.470   3.401   3.704
 1675W        W 5419   4.705   1.263   2.616
 1676W        W 5420   5.177   1.213   1.485
 1677W        W 5421   3.893   8.928   3.036
 1678W        W 5422   1.605   9.165  10.468
 1679W        W 5423   1.108   8.496   1.433
 1680W        W 5424   6.179   1.386   2.320
 1681W        W 5425   3.826   2.811   0.547
 1682W        W 5426   7.561   3.082   9.166
 1683W        W 5427   1.356   2.454  11.582
 1684W        W 5428   5.114   2.234   0.631
 1685W        W 5429   6.359   7.304  10.422
 1686W        W 5430   9.817   1.798  11.450
 1687W        W 5431   1.020   1.403   1.410
 1688W        W 5432   6.380   1.982   1.550
 1689W        W 5433   5.652   8.506   3.149
 1690W        W 5434   4.221   6.733   2.385
 1691W        W 5435   2.283   0.864   2.875
 1692W        W 5436   5.643   3.277   1.782
 1693W        W 5437   7.358   6.857   0.704
 1694W        W 5438   4.476   2.172   0.075
 1695W        W 5439   2.739   5.654  11.248
 1696W        W 5440   7.611   4.097   3.030
 1697W        W 5441  10.239   5.728  11.798
 1698W        W 5442   8.054   1.664  11.789
 1699W        W 5443   5.606   3.190   3.268
 1700W        W 5444   7.910   1.950  10.742
 1701W        W 5445   2.090   4.215   1.864
 1702W        W 5446   5.540  10.258   0.365
 1703W        W 5447   2.247  10.413   9.752
 1704W        W 5448   5.238   2.050   2.668
 1705W        W 5449   2.313   5.146   0.367
 1706W        W 5450   4.781   7.165   8.997
 1707W        W 5451   2.802   9.059   8.976
 1708W        W 5452  10.064   9.411   1.675
 1709W        W 5453   6.948   6.569   0.023
 1710W        W 5454   5.663   2.208   0.496
 1711W        W 5455   9.668   1.792  10.952
 1712W        W 5456   5.553   7.333   1.239
 1713W        W 5457   0.288   4.712   0.946
 1714W        W 5458   9.868   8.065  11.264
 1715W        W 5459   7.338   9.670  11.502
 1716W        W 5460   4.163   9.128   0.728
 1717W        W 5461   9.263   5.462   0.096
 1718W        W 5462   4.644   8.214   2.714
 1719W        W 5463   0.246   2.875  10.899
 1720W        W 5464   6.403   2.476   0.858
 1721W        W 5465   3.341   0.738  10.020
 1722W        W 5466   2.788   1.413  11.870
 1723W        W 5467   0.660   5.098   2.784
 1724W        W 5468  10.254   3.211   0.305
 1725W        W 5469   2.723   7.215   9.802
 1726W        W 5470   2.924   9.037  10.471
 1727W        W 5471   2.854   6.977   0.119
 1728W        W 5472   7.676   7.975   0.966
 1729W        W 5473   0.792  10.109   1.991
 1730W        W 5474   3.954   5.206  11.463
 1731W        W 5475   6.197   2.414   1.341
 1732W        W 5476  10.251   6.511  10.616
 1733W        W 5477   6.255   8.550   0.344
 1734W        W 5478   4.151   6.876   0.238
 1735W        W 5479   2.148   6.089  10.785
 1736W        W 5480   2.618   5.531   2.218
 1737W        W 5481  10.481   6.992  10.746
 1738W        W 5482   5.097   3.113  10.887
 1739W        W 5483   3.056   1.846   1.728
 1740W        W 5484   7.432   7.156   2.708
 1741W        W 5485   6.107   3.388   2.431
 1742W        W 5486   0.264   6.200  11.434
 1743W        W 5487   7.531   8.620   1.454
 1744W        W 5488   9.120   7.095   2.378
 1745W        W 5489   8.686   4.808   0.387
 1746W        W 5490   1.149   7.580   9.374
 1747W        W 5491   4.338   9.960   0.913
 1748W        W 5492   2.468   9.878  11.922
 1749W        W 5493   4.153   2.242   1.417
 1750W        W 5494   7.712   4.823  11.779
 1751W        W 5495   9.168   3.492   2.973
 1752W        W 5496   2.793   6.100   8.997
 1753W        W 5497   0.485   7.358   0.338
 1754W        W 5498   1.480   1.964   9.749
 1755W        W 5499   9.128   7.525   0.801
 1756W        W 5500  10.386   0.787   2.859
 1757W        W 5501   4.963   3.334   1.324
 1758W        W 5502   2.310   3.504  11.586
 1759W        W 5503   9.816   1.339   2.641
 1760W        W 5504   5.001   1.245   8.998
 1761W        W 5505   4.326   3.733   2.186
 1762W        W 5506   9.848   8.362  11.833
 1763W        W 5507   7.448   4.054   1.643
 1764W        W 5508   2.648   3.566   2.404
 1765W        W 5509   4.585   7.245   3.418
 1766W        W 5510   3.262   1.372   9.578
 1767W        W 5511   0.386   8.073   8.976
 1768W        W 5512   8.366   7.047   3.119
 1769W        W 5513   5.873   8.920   8.821
 1770W        W 5514   3.530   6.414  11.933
 1771W        W 5515   2.470   5.210  11.152
 1772W        W 5516   2.895   9.900   1.284
 1773W        W 5517   3.539   4.514   1.372
 1774W        W 5518   7.002  10.465  11.349
 1775W        W 5519   2.897   7.667  10.050
 1776W        W 5520   9.549   2.661   1.991
 1777W        W 5521   5.145   8.307  10.560
 1778W        W 5522   2.668   8.632   8.651
 1779W        W 5523   0.583   3.521   1.627
 1780W        W 5524   5.482   4.700  10.138
 1781W        W 5525   2.312   7.266   2.701
 1782W        W 5526   4.093   6.689   8.872
 1783W        W 5527   5.357   7.974   1.258
 1784W        W 5528   0.056   5.727  11.415
 1785W        W 5529   7.506   0.744   9.004
 1786W        W 5530   5.492   2.659   9.144
 1787W        W 5531   5.734   9.547   0.943
 1788W        W 5532   3.024   2.203   1.355
 1789W        W 5533   8.889   8.564  11.843
 1790W        W 5534   3.297   1.443  11.099
 1791W        W 5535   2.842   6.249  10.507
 1792W        W 5536   8.044   2.319   3.833
 1793W        W 5537   1.136   6.989   0.441
 1794W        W 5538   5.954   6.969   1.358
 1795W        W 5539   2.101   4.271   2.865
 1796W        W 5540   7.147   8.183   1.263
 1797W        W 5541   5.713   5.594  10.911
 1798W        W 5542   4.191   2.860   0.180
 1799W        W 5543   5.950   1.181   1.897
 1800W        W 5544   6.153   6.159   0.263
 1801W        W 5545   5.195   2.873   0.274
 1802W        W 5546  10.492   2.124  11.072
 1803W        W 5547   3.085   2.711  11.310
 1804W        W 5548   6.607   1.889   2.562
 1805W        W 5549   9.866   9.870   1.400
 1806W        W 5550   4.855   9.863  11.694
 1807W        W 5551   7.417   7.299  11.764
 1808W        W 5552   6.046   1.613   9.292
 1809W        W 5553   9.470   8.482   2.250
 1810W        W 5554   3.888   3.642  10.550
 1811W        W 5555   4.908   7.493  11.101
 1812W        W 5556   3.711   9.551   1.491
 1813W        W 5557   3.593   2.690   3.003
 1814W        W 5558   5.164   3.408   9.410
 1815W        W 5559   4.579   6.908   1.177
 1816W        W 5560  10.489   9.123  11.909
 1817W        W 5561   1.900   0.399   9.459
 1818W        W 5562   3.562   9.001   1.377
 1819W        W 5563   6.174   0.621   9.531
 1820W        W 5564   2.049   3.784   1.259
 1821W        W 5565   3.526   2.241   1.358
 1822W        W 5566   5.556   6.061   9.736
 1823W        W 5567   4.214   9.142   9.843
 1824W        W 5568   5.752  10.077   0.813
 1825W        W 5569   8.574   8.567   2.293
 1826W        W 5570   7.054   0.988  11.402
 1827W        W 5571   9.567   2.621   2.510
 1828W        W 5572   0.129   4.064   2.346
 1829W        W 5573   1.687   2.371   9.991
 1830W        W 5574   6.200   7.489   9.979
 1831W        W 5575   6.558   4.532   0.141
 1832W        W 5576   7.669   7.515   2.247
 1833W        W 5577  10.195   2.313   2.421
 1834W        W 5578   6.496   2.824   9.481
 1835W        W 5579   7.554   3.948   0.736
 1836W        W 5580   4.706   0.252   2.951
 1837W        W 5581   8.653   1.743   2.819
 1838W        W 5582   4.068   6.477  11.940
 1839W        W 5583   8.890   7.065   3.262
 1840W        W 5584   6.877   6.805   0.550
 1841W        W 5585   2.777   9.408   1.411
 1842W        W 5586   4.425   4.578   2.797
 1843W        W 5587   7.912   2.791   0.362
 1844W        W 5588   6.143   8.954   2.445
 1845W        W 5589   5.047  10.422  11.438
 1846W        W 5590   1.692   3.787   0.770
 1847W        W 5591   2.181   2.630   9.747
 1848W        W 5592   5.621   7.044   3.284
 1849W        W 5593   0.692   4.872   9.550
 1850W        W 5594   1.195   9.560   2.189
 1851W        W 5595   3.869   7.103   3.258
 1852W        W 5596   6.956   3.285   0.697
 1853W        W 5597   4.350   4.725   1.303
 1854W        W 5598  10.169   8.267  10.470
 1855W        W 5599   8.865   5.016   8.972
 1856W        W 5600   0.930   7.990   8.639
 1857W        W 5601   3.683   4.923   2.330
 1858W        W 5602   1.421   4.094  11.505
 1859W        W 5603   7.917   9.064  11.870
 1860W        W 5604   7.165   9.797   1.763
 1861W        W 5605  10.264   9.829   3.228
 1862W        W 5606   8.475   4.750   2.626
 1863W        W 5607   0.301   2.703   1.708
 1864W        W 5608  10.389   1.131   1.861
 1865W        W 5609   9.711   8.735   1.018
 1866W        W 5610   7.016   1.624   3.399
 1867W        W 5611   2.079   2.722  10.950
 1868W        W 5612   0.433   0.391   3.407
 1869W        W 5613   4.536   6.770  11.269
 1870W        W 5614   5.179   3.500   2.726
 1871W        W 5615   3.663   6.273   9.460
 1872W        W 5616   1.751   2.735   2.209
 1873W        W 5617   9.540   5.661   3.187
 1874W        W 5618   5.836   3.792   8.620
 1875W        W 5619   3.046   0.856   1.140
 1876W        W 5620   5.154   9.273  10.768
 1877W        W 5621   8.526   8.135   2.561
 1878W        W 5622   5.909   2.979   9.786
 1879W        W 5623   0.172   5.591   2.815
 1880W        W 5624   2.306   4.217   1.370
 1881W        W 5625   6.594   2.006   0.815
 1882W        W 5626   1.810   9.902  10.913
 1883W        W 5627   0.660   8.052   1.031
 1884W        W 5628  10.368   2.688   9.835
 1885W        W 5629   1.716   1.783  11.591
 1886W        W 5630   0.935   7.789   1.904
 1887W        W 5631   1.229   3.762   0.529
 1888W        W 5632   6.290   2.617   9.901
 1889W        W 5633   0.808   1.867  10.273
 1890W        W 5634   8.303   6.113   0.868
 1891W        W 5635   1.806   8.106   1.241
 1892W        W 5636   4.831   4.008   9.873
 1893W        W 5637   9.291   0.688   1.779
 1894W        W 5638  10.479   7.026   3.167
 1895W        W 5639   3.183   5.654  11.998
 1896W        W 5640   5.759   7.729   2.880
 1897W        W 5641   1.741   3.995   8.915
 1898W        W 5642   9.317   9.997   3.289
 1899W        W 5643   7.497   8.723   9.944
 1900W        W 5644   3.797   7.349   0.791
 1901W        W 5645   8.545   0.442   9.266
 1902W        W 5646   3.652   6.077   0.691
 1903W        W 5647   2.825   7.190   8.934
 1904W        W 5648   6.088   4.423   9.463
 1905W        W 5649   3.430   2.764   8.506
 1906W        W 5650   3.197   1.795  11.463
 1907W        W 5651   9.478   5.236   1.759
 1908W        W 5652  10.249   7.704   9.079
 1909W        W 5653   3.845   6.111   0.219
 1910W        W 5654   6.447   2.342   2.460
 1911W        W 5655   4.980   6.257   9.069
 1912W        W 5656   5.688   4.070   0.694
 1913W        W 5657   1.204   7.900   0.263
 1914W        W 5658   4.464   0.029   9.558
 1915W        W 5659   0.527   8.314  10.828
 1916W        W 5660   4.199   4.872   1.782
 1917W        W 5661   1.750   6.624   2.504
 1918W        W 5662  10.223   5.653   1.364
 1919W        W 5663   6.296   3.623   0.196
 1920W        W 5664   7.646   9.466   2.191
 1921W        W 5665   8.144   6.533   9.261
 1922W        W 5666   7.032   5.795   0.472
 1923W        W 5667   6.471   4.893   2.966
 1924W        W 5668   6.452   6.366  10.311
 1925W        W 5669  10.353   2.679   0.405
 1926W        W 5670   6.035   1.119   9.514
 1927W        W 5671   1.362   8.974   9.592
 1928W        W 5672  10.450   4.600   3.041
 1929W        W 5673   9.526   5.866   0.312
 1930W        W 5674   3.706   9.974  11.059
 1931W        W 5675   5.205   0.398   2.985
 1932W        W 5676   6.372   1.900   9.604
 1933W        W 5677   3.209   2.105   3.636
 1934W        W 5678   4.534   3.604   9.985
 1935W        W 5679   8.336   8.058  10.491
 1936W        W 5680   2.904   3.691  11.059
 1937W        W 5681   9.903   6.190   0.528
 1938W        W 5682   0.809   2.685   1.948
 1939W        W 5683   0.198   1.933   0.501
 1940W        W 5684   7.995   4.224   0.292
 1941W        W 5685   8.041   4.392   8.629
 1942W        W 5686   9.879   3.571   8.916
 1943W        W 5687   9.444   4.594   0.987
 1944W        W 5688   0.147  10.294   3.540
 1945W        W 5689   3.139   7.839   9.059
 1946W        W 5690   3.373   0.852   0.306
 1947W        W 5691  10.362   0.019   8.867
 1948W        W 5692  10.045   1.210   8.624
 1949W        W 5693   6.089   7.448   9.092
 1950W        W 5694   7.469   3.108   0.419
 1951W        W 5695   6.178   1.237   0.976
 1952W        W 5696   5.065   1.608   1.779
 1953W        W 5697  10.474   2.169   2.816
 1954W        W 5698   5.681   3.707   1.476
 1955W        W 5699   6.613   2.547  10.361
 1956W        W 5700   1.502   9.120   3.400
 1957W        W 5701   8.045   0.244   1.462
 1958W        W 5702   0.736   0.169   2.797
 1959W        W 5703   1.368   3.673  11.070
 1960W        W 5704   6.886   2.895   9.042
 1961W        W 5705   4.787   9.438  10.464
 1962W        W 5706   0.227   6.953   0.495
 1963W        W 5707   0.972   5.618   1.688
 1964W        W 5708   2.334   5.566   1.005
 1965W        W 5709   4.737   6.612   8.601
 1966W        W 5710   8.569   3.718   1.603
 1967W        W 5711   2.643   0.822  11.046
 1968W        W 5712   5.570   7.424   0.165
 1969W        W 5713   0.722   5.092   8.992
 1970W        W 5714   1.305   1.477   9.851
 1971W        W 5715   1.761  10.226   9.037
 1972W        W 5716   5.764   5.419   0.621
 1973W        W 5717   4.949   6.984  10.325
 1974W        W 5718   9.838   6.054   2.861
 1975W        W 5719   7.165   4.123   9.748
 1976W        W 5720   0.010   5.526   3.304
 1977W        W 5721   5.415   8.046   3.212
 1978W        W 5722   7.964   7.374   0.387
 1979W        W 5723   4.784   4.957   9.405
 1980W        W 5724   5.377   6.204   8.745
 1981W        W 5725   6.648   4.958   0.382
 1982W        W 5726  10.208   4.550   2.101
 1983W        W 5727   8.367   1.292   0.873
 1984W        W 5728   0.055   6.674  11.575
 1985W        W 5729   8.229   4.138   0.746
 1986W        W 5730   2.622   4.477   9.251
 1987W        W 5731   4.584   2.667   9.323
 1988W        W 5732   1.787   5.644   1.671
 1989W        W 5733   4.269   7.957   1.948
 1990W        W 5734  10.468   4.567  11.927
 1991W        W 5735   3.634   5.404  11.815
 1992W        W 5736   1.715   3.796   9.810
 1993W        W 5737   2.939   0.717   0.642
 1994W        W 5738   6.002   1.600   9.786
 1995W        W 5739   0.467   4.283   8.702
 1996W        W 5740  10.408   2.329   9.070
 1997W        W 5741   4.525   3.586   8.088
 1998W        W 5742   9.489  10.354   0.769
 1999W        W 5743   9.282   8.770   1.864
 2000W        W 5744   8.778   5.270   3.314
 2001W        W 5745   8.971  10.261   2.753
 2002W        W 5746  10.187   7.881  10.884
 2003W        W 5747   9.736   9.170   8.448
 2004W        W 5748   0.536   6.984   2.418
 2005W        W 5749   3.068   7.652   1.881
 2006W        W 5750  10.255   5.834   2.642
 2007W        W 5751   2.341   9.939   2.460
 2008W        W 5752   4.649   7.633   9.780
 2009W        W 5753   7.826   4.620   9.903
 2010W        W 5754   5.070   5.162   1.905
 2011W        W 5755   0.523   6.379  11.028
 2012W        W 5756   6.807   3.106   3.135
 2013W        W 5757   2.129   2.561  11.476
 2014W        W 5758   5.474   6.904   0.971
 2015W        W 5759   2.452  10.373   3.169
 2016W        W 5760   8.515   3.600   0.995
 2017W        W 5761   6.018   6.990   9.974
 2018W        W 5762   3.715   3.085  11.964
 2019W        W 5763   0.362  10.487   9.106
 2020W        W 5764   6.560  10.121   1.912
 2021W        W 5765   0.833   9.842   9.064
 2022W        W 5766   5.998   4.201   8.898
 2023W        W 5767   2.119   9.844  11.514
 2024W        W 5768   6.602   9.514   1.100
 2025W        W 5769   8.750   6.449   0.312
 2026W        W 5770   1.283   3.418  10.422
 2027W        W 5771   8.084   0.019  10.974
 2028W        W 5772   0.950   8.653   0.139
 2029W        W 5773   1.450   5.361   8.902
 2030W        W 5774   6.634   8.615   0.775
 2031W        W 5775   3.198   8.040   8.575
 2032W        W 5776   3.403   3.119   2.229
 2033W        W 5777   0.721   5.185   1.762
 2034W        W 5778   1.010   9.480   1.414
 2035W        W 5779   8.812   5.552  11.304
 2036W        W 5780   2.241   0.773   1.414
 2037W        W 5781   3.282   1.688   8.751
 2038W        W 5782   2.322   4.667   2.144
 2039W        W 5783   1.702   6.694   9.318
 2040W        W 5784  10.341  10.337  11.383
 2041W        W 5785   0.281   1.777   1.382
 2042W        W 5786   0.387   2.210   3.762
 2043W        W 5787   5.342   8.546   8.441
 2044W        W 5788   8.613   0.774   1.034
 2045W        W 5789   1.962   0.430   3.032
 2046W        W 5790   9.842   5.169  11.378
 2047W        W 5791   6.682   4.443   2.778
 2048W        W 5792   5.217   0.995   0.208
 2049W        W 5793   1.903   2.270   3.220
 2050W        W 5794   0.278   6.103   1.781
 2051W        W 5795   2.354   6.131   9.299
 2052W        W 5796   3.536   9.632   3.675
 2053W        W 5797   3.185   4.579  10.074
 2054W        W 5798   1.793   2.283  10.843
 2055W        W 5799   9.245   5.419  11.567
 2056W        W 5800  10.484   1.222   3.144
 2057W        W 5801   8.653   3.586   2.902
 2058W        W 5802   4.530   6.683  10.353
 2059W        W 5803   6.991   3.244   0.182
 2060W        W 5804   4.262  10.286   9.164
 2061W        W 5805   3.078   1.180  11.504
 2062W        W 5806   2.142   6.972   0.492
 2063W        W 5807   7.507   2.597  11.341
 2064W        W 5808   6.120   3.987   9.731
 2065W        W 5809   6.994   8.699  11.880
 2066W        W 5810   4.656   3.617   3.443
 2067W        W 5811   2.671   5.274  10.279
 2068W        W 5812   8.495   7.197  10.952
 2069W        W 5813   3.819   3.587   0.066
 2070W        W 5814   5.173   3.514   3.238
 2071W        W 5815   0.137  10.051   9.986
 2072W        W 5816   1.660   5.178   2.736
 2073W        W 5817   1.943   1.725   8.871
 2074W        W 5818   4.307   7.051   9.195
 2075W        W 5819   9.876  10.006   1.887
 2076W        W 5820   6.982   2.236   2.197
 2077W        W 5821   5.709   6.829  10.889
 2078W        W 5822   2.070   4.831   0.027
 2079W        W 5823   7.921   1.622   2.388
 2080W        W 5824   5.953   5.533   1.483
 2081W        W 5825   1.123   4.511  11.458
 2082W        W 5826   2.742   5.576  11.744
 2083W        W 5827   2.710   8.509  11.245
 2084W        W 5828   7.062   1.766   1.979
 2085W        W 5829   1.350   1.139   1.154
 2086W        W 5830   4.235   2.344   3.541
 2087W        W 5831   0.547   7.813   9.546
 2088W        W 5832   2.963   9.991  11.847
 2089W        W 5833   1.334   0.910  11.055
 2090W        W 5834   5.612   4.641   9.639
 2091W        W 5835   7.951   3.659   2.434
 2092W        W 5836   8.961   5.369   0.983
 2093W        W 5837   7.923   2.161  11.907
 2094W        W 5838   0.778   5.948   3.354
 2095W        W 5839   3.860   7.119   2.696
 2096W        W 5840   3.614   4.162   8.593
 2097W        W 5841   8.927   2.708   9.206
 2098W        W 5842   7.749   2.798   0.849
 2099W        W 5843   4.691   4.012  11.907
 2100W        W 5844   0.941  10.110   9.531
 2101W        W 5845   8.793   7.905  10.641
 2102W        W 5846   5.235   2.311   3.133
 2103W        W 5847   1.837   3.101   3.515
 2104W        W 5848   3.312   9.665  10.892
 2105W        W 5849   8.630   0.913  11.838
 2106W        W 5850  10.425   4.647  10.841
 2107W        W 5851   7.107   7.980   2.628
 2108W        W 5852   4.210   9.354   3.307
 2109W        W 5853   2.334   3.217   3.400
 2110W        W 5854   7.683   1.289  10.999
 2111W        W 5855   9.361   3.079   1.780
 2112W        W 5856   7.437   7.032   3.214
 2113W        W 5857   5.468   9.386   2.007
 2114W        W 5858   4.765   0.800   0.240
 2115W        W 5859   6.049   6.064   1.543
 2116W        W 5860   5.585   4.088   8.248
 2117W        W 5861   7.638   1.531  10.036
 2118W        W 5862   3.300   7.210   1.702
 2119W        W 5863   0.321   2.841   0.284
 2120W        W 5864   4.689   1.453  10.794
 2121W        W 5865   2.189   6.537   2.863
 2122W        W 5866   1.194   7.972  10.937
 2123W        W 5867   7.442  10.094  10.268
 2124W        W 5868   8.140   0.532   1.037
 2125W        W 5869   8.431   4.055   8.689
 2126W        W 5870   7.023   3.842   3.345
 2127W        W 5871   1.612   9.740   0.322
 2128W        W 5872   8.349   8.408   9.058
 2129W        W 5873   1.413   9.381   1.715
 2130W        W 5874   1.635   4.139   1.633
 2131W        W 5875   7.513   8.092  10.569
 2132W        W 5876   9.018   6.639   1.151
 2133W        W 5877   1.480   1.453   3.668
 2134W        W 5878   2.796   2.206   0.872
 2135W        W 5879   8.926   6.163   1.331
 2136W        W 5880   1.276   3.807  10.088
 2137W        W 5881   0.300   0.492   2.923
 2138W        W 5882   0.467   8.771   9.569
 2139W        W 5883   7.985   0.689   3.328
 2140W        W 5884   9.111   0.772   9.914
 2141W        W 5885   8.077   2.851  10.224
 2142W        W 5886   1.038   6.288   3.648
 2143W        W 5887   8.493   1.890   9.616
 2144W        W 5888   9.463  10.397   3.015
 2145W        W 5889   7.044   2.398   0.203
 2146W        W 5890   8.875   0.172   2.358
 2147W        W 5891   1.819   8.738   0.402
 2148W        W 5892  10.311   8.952   2.691
 2149W        W 5893   1.007   5.324  11.248
 2150W        W 5894   3.172   2.818   9.883
 2151W        W 5895   0.725   1.761   3.011
 2152W        W 5896   7.472   7.407   0.265
 2153W        W 5897   9.971   4.703   2.904
 2154W        W 5898   4.689   3.742   0.393
 2155W        W 5899   9.937   1.233   0.780
 2156W        W 5900   9.276   0.298  11.399
 2157W        W 5901   1.402   9.863   9.423
 2158W        W 5902   2.920   4.821   8.560
 2159W        W 5903   9.069   6.696   0.638
 2160W        W 5904   8.925   8.425   3.121
 2161W        W 5905   8.093   3.539  11.823
 2162W        W 5906   6.816   8.988   0.248
 2163W        W 5907   6.132   9.533   1.372
 2164W        W 5908   7.928   6.034   2.382
 2165W        W 5909   7.764   7.636  11.965
 2166W        W 5910   4.365   2.769   3.261
 2167W        W 5911   4.104   5.023   0.921
 2168W        W 5912   3.368   9.936   1.481
 2169W        W 5913   7.714   9.291   9.118
 2170W        W 5914  10.308   8.438   2.600
 2171W        W 5915   5.250   1.457   0.005
 2172W        W 5916   7.065   0.401  10.436
 2173W        W 5917   2.580   2.066   1.579
 2174W        W 5918   4.452   2.764   0.603
 2175W        W 5919   1.320   6.861  11.965
 2176W        W 5920   2.698   1.218   2.860
 2177W        W 5921   4.212   4.803   2.337
 2178W        W 5922   0.010   4.711   1.722
 2179W        W 5923   7.193  10.287   2.857
 2180W        W 5924   4.629   8.964  10.620
 2181W        W 5925   9.303   5.727   1.725
 2182W        W 5926   8.468   2.344   0.357
 2183W        W 5927   3.436   9.119   2.876
 2184W        W 5928   3.107   2.730   2.093
 2185W        W 5929  10.373   2.573   3.095
 2186W        W 5930   5.101   9.791   1.999
 2187W        W 5931  10.265   9.702  10.005
 2188W        W 5932   5.575   9.291   0.262
 2189W        W 5933   1.782   8.730   2.661
 2190W        W 5934   7.015   2.834   0.472
 2191W        W 5935   9.875   8.574   9.540
 2192W        W 5936   5.597   9.988   2.731
 2193W        W 5937   7.059   4.936   9.138
 2194W        W 5938   1.789   6.698  11.756
 2195W        W 5939   8.046   5.044  10.070
 2196W        W 5940   2.566   8.077   9.830
 2197W        W 5941   0.327   6.881   1.377
 2198W        W 5942   5.045   4.930  11.021
 2199W        W 5943   8.591   1.458  11.874
 2200W        W 5944   5.857   9.855  11.475
 2201W        W 5945   8.219   7.786   1.815
 2202W        W 5946   9.675   1.383   2.160
 2203W        W 5947   8.318   0.763   0.212
 2204W        W 5948   7.074  10.162   0.760
 2205W        W 5949   9.212   5.098   3.143
 2206W        W 5950   7.027   9.871  10.525
 2207W        W 5951   2.771   0.715   2.843
 2208W        W 5952   9.977   9.370  11.299
 2209W        W 5953   3.980   0.776   0.790
 2210W        W 5954   5.110   7.085  11.524
 2211W        W 5955   8.022   2.292   9.016
 2212W        W 5956   9.776   1.839   0.490
 2213W        W 5957   4.402   7.068   8.667
 2214W        W 5958   8.536   0.061   2.788
 2215W        W 5959   8.135   7.312   2.192
 2216W        W 5960   4.637   2.573  10.271
 2217W        W 5961   2.818   1.722   1.298
 2218W        W 5962   0.335   1.763  11.553
 2219W        W 5963   1.575   2.779  10.795
 2220W        W 5964   4.127   5.260   2.577
 2221W        W 5965   4.124   4.378  10.374
 2222W        W 5966   4.146   8.340   9.567
 2223W        W 5967   2.087   1.514   8.441
 2224W        W 5968   6.011   2.448  11.518
 2225W        W 5969   9.076   3.831   1.770
 2226W        W 5970  10.345  10.437   0.691
 2227W        W 5971   8.387   5.198   0.270
 2228W        W 5972   8.440   7.441   2.744
 2229W        W 5973   7.609   2.748   2.775
 2230W        W 5974   5.624   8.484   1.907
 2231W        W 5975   3.731   9.355   1.025
 2232W        W 5976   0.691   2.575  11.003
 2233W        W 5977   6.174   9.857   0.984
 2234W        W 5978   6.069  10.328   1.180
 2235W        W 5979   8.353   8.553  10.612
 2236W        W 5980   2.412   1.244  10.927
 2237W        W 5981   8.283  10.289   1.309
 2238W        W 5982  10.114   7.473   0.914
 2239W        W 5983   7.121   5.122   1.626
 2240W        W 5984   8.568   3.738  10.467
 2241W        W 5985   6.931   7.460  11.198
 2242W        W 5986   1.028   5.686  11.636
 2243W        W 5987   7.480   4.303   1.161
 2244W        W 5988   3.084   3.257  10.516
 2245W        W 5989   8.402   8.801  11.834
 2246W        W 5990   2.493   2.788  10.604
 2247W        W 5991   9.912   6.047  11.493
 2248W        W 5992   1.020   7.146   9.115
 2249W        W 5993   5.674   1.779  11.507
 2250W        W 5994   6.507   7.090   3.206
 2251W        W 5995   8.397   7.911   3.575
 2252W        W 5996   1.868   5.609   0.755
 2253W        W 5997   2.671   6.494   3.649
 2254W        W 5998   9.516   0.348   3.198
 2255W        W 5999   3.699   4.757   1.838
 2256W        W 6000   8.412   0.977   1.909
 2257W        W 6001   3.191   6.080   3.212
 2258W        W 6002   1.161   2.254  10.071
 2259W        W 6003   4.314   9.897   1.491
 2260W        W 6004   3.302   5.694   0.759
 2261W        W 6005   5.424   0.871  10.085
 2262W        W 6006   6.391   5.005   9.391
 2263W        W 6007   3.625   5.375  11.130
 2264W        W 6008   0.259   5.076   3.379
 2265W        W 6009   2.343   6.054   1.900
 2266W        W 6010   3.060   8.157   9.961
 2267W        W 6011   7.946   3.325   9.407
 2268W        W 6012   7.382   4.042  11.337
 2269W        W 6013   2.328   6.504   0.818
 2270W        W 6014   4.435   4.606   9.558
 2271W        W 6015   8.466   7.704  11.002
 2272W        W 6016   5.699   1.191   2.325
 2273W        W 6017   9.198   0.268  10.053
 2274W        W 6018   9.947   6.954   0.288
 2275W        W 6019   6.283   6.200  11.392
 2276W        W 6020   5.477   5.868  11.286
 2277W        W 6021   5.047   6.971   9.808
 2278W        W 6022   2.841   7.482  11.972
 2279W        W 6023   8.074   4.526   1.881
 2280W        W 6024   8.939   6.128   9.443
 2281W        W 6025   7.168   1.679   1.497
 2282W        W 6026  10.323   9.885   2.184
 2283W        W 6027   5.560   7.072   9.676
 2284W        W 6028   1.435   7.545   9.791
 2285W        W 6029   6.590   6.217  11.813
 2286W        W 6030   7.171   9.228  11.315
 2287W        W 6031   5.256   7.904  11.850
 2288W        W 6032   2.895   1.058   0.271
 2289W        W 6033   3.387   0.386  11.730
 2290W        W 6034   4.923   4.399   9.533
 2291W        W 6035  10.183   1.463   2.193
 2292W        W 6036   9.376   8.125  11.119
 2293W        W 6037   8.062   0.298   2.481
 2294W        W 6038   1.578   3.358  10.019
 2295W        W 6039   1.520   8.224   0.588
 2296W        W 6040   7.073   3.078   2.187
 2297W        W 6041   0.096   4.009  10.116
 2298W        W 6042   9.280   1.386   2.511
 2299W        W 6043   6.474   2.446   1.900
 2300W        W 6044   0.306   6.459   0.399
 2301W        W 6045   1.278   6.888   3.321
 2302W        W 6046   1.976  10.451   0.750
 2303W        W 6047   2.806   6.413   8.576
 2304W        W 6048   0.448   2.263   8.971
 2305W        W 6049   7.996   4.169   2.658
 2306W        W 6050   7.001   8.894   9.087
 2307W        W 6051   1.161   5.095   1.536
 2308W        W 6052   9.599  10.329  10.885
 2309W        W 6053   8.394  10.458   2.293
 2310W        W 6054   1.590   5.188   0.861
 2311W        W 6055   9.563   0.846   3.109
 2312W        W 6056   0.747   3.378   2.762
 2313W        W 6057   2.778   8.508   1.357
 2314W        W 6058   0.035   2.149   3.387
 2315W        W 6059   1.262   3.180  10.866
 2316W        W 6060   0.297   2.364  10.757
 2317W        W 6061   3.588   4.087   0.903
 2318W        W 6062   5.083   8.411  11.045
 2319W        W 6063   0.440   1.824   9.823
 2320W        W 6064   0.871   0.916  11.280
 2321W        W 6065   2.003   7.103   9.340
 2322W        W 6066   5.220   6.652  10.796
 2323W        W 6067   0.924   6.351   1.374
 2324W        W 6068   2.240  10.210  10.750
 2325W        W 6069   7.377   5.723   3.511
 2326W        W 6070   6.254   2.887  11.702
 2327W        W 6071   3.389   7.084   9.532
 2328W        W 6072   8.100   8.137   0.769
 2329W        W 6073   3.728   6.882  11.912
 2330W        W 6074   1.377   9.321   0.135
 2331W        W 6075   5.512   6.069   1.165
 2332W        W 6076   3.665   7.172  10.572
 2333W        W 6077  10.102   6.555  11.350
 2334W        W 6078   7.463   3.282  10.197
 2335W        W 6079   6.678   3.706   0.629
 2336W        W 6080   7.086   4.542   1.586
 2337W        W 6081   0.526   1.887  10.722
 2338W        W 6082   3.787   8.700   3.492
 2339W        W 6083   9.581   2.784   9.040
 2340W        W 6084   5.598   7.952   0.218
 2341W        W 6085   9.300   9.866   9.983
 2342W        W 6086   7.189   2.727   8.629
 2343W        W 6087   5.266   7.579   3.079
 2344W        W 6088   3.704   3.819  11.536
 2345W        W 6089   5.583   1.731   9.529
 2346W        W 6090   8.750   1.329   2.521
 2347W        W 6091   8.002   3.655   0.786
 2348W        W 6092   9.115   2.671   2.764
 2349W        W 6093  10.054   7.098   3.472
 2350W        W 6094   8.899   5.720  11.821
 2351W        W 6095   4.197   3.791   9.619
 2352W        W 6096   7.480   5.026   8.853
 2353W        W 6097   0.475   4.591   0.088
 2354W        W 6098   3.196   5.407  10.219
 2355W        W 6099   3.257   1.293   0.993
 2356W        W 6100   1.677   9.811   9.868
 2357W        W 6101   6.105   1.223   8.966
 2358W        W 6102   1.671   9.664  10.375
 2359W        W 6103   0.477   2.123  11.203
 2360W        W 6104   1.523  10.344   1.811
 2361W        W 6105   7.175   5.064   1.137
 2362W        W 6106   7.359   3.187   2.827
 2363W        W 6107   6.471   4.508  11.606
 2364W        W 6108   0.727   1.247  10.943
 2365W        W 6109   4.331   2.733   1.418
 2366W        W 6110   5.567   8.957   1.676
 2367W        W 6111   6.489   0.057   9.630
 2368W        W 6112   3.241   3.657   3.553
 2369W        W 6113   2.297   9.406  11.773
 2370W        W 6114  10.307   9.122   8.942
 2371W        W 6115   4.645   3.725   1.420
 2372W        W 6116   2.037   9.527   8.515
 2373W        W 6117   9.084   4.590   0.619
 2374W        W 6118   8.083   6.629   9.755
 2375W        W 6119   2.810   3.945   1.480
 2376W        W 6120  10.136   5.616   9.443
 2377W        W 6121   2.960   8.623  10.143
 2378W        W 6122   3.654   7.965  11.826
 2379W        W 6123   6.823   5.516   1.774
 2380W        W 6124   3.836   8.334   2.140
 2381W        W 6125   0.275   1.323  10.731
 2382W        W 6126   3.301   1.316  10.082
 2383W        W 6127   9.001   8.272   8.512
 2384W        W 6128   5.290   3.021   2.554
 2385W        W 6129  10.351   9.165  10.077
 2386W        W 6130   2.078   2.844   8.841
 2387W        W 6131   2.652   5.016   2.369
 2388W        W 6132   8.937   9.808   1.255
 2389W        W 6133   3.163   6.135   0.977
 2390W        W 6134   8.741   0.456   0.123
 2391W        W 6135   1.222   8.172   2.738
 2392W        W 6136   4.602   1.618   9.907
 2393W        W 6137   6.594   2.231   0.351
 2394W        W 6138   3.024   4.103   9.424
 2395W        W 6139   8.972   9.319  10.772
 2396W        W 6140   8.574   4.557   9.427
 2397W        W 6141   4.487  10.482   0.278
 2398W        W 6142   0.144   9.782  10.495
 2399W        W 6143   7.900   4.737  10.786
 2400W        W 6144   1.445   9.119   2.168
 2401W        W 6145   5.937   7.637  10.395
 2402W        W 6146   5.080   8.157   3.638
 2403W        W 6147   0.828   3.576   2.291
 2404W        W 6148   9.726   6.151  10.470
 2405W        W 6149   5.985   8.677  11.886
 2406W        W 6150   3.373   6.819  10.382
 2407W        W 6151   4.679   2.645  11.757
 2408W        W 6152   4.219   1.748   8.759
 2409W        W 6153   3.680   7.693   3.952
 2410W        W 6154   8.926   7.526   2.591
 2411W        W 6155   7.243   0.374   8.668
 2412W        W 6156  10.081   9.464   1.181
 2413W        W 6157   1.610   4.582   3.629
 2414W        W 6158   8.563   9.375  10.062
 2415W        W 6159   5.346   4.812   2.162
 2416W        W 6160   8.847  10.444  11.369
 2417W        W 6161   2.853   0.185   3.512
 2418W        W 6162   7.590   2.692   9.535
 2419W        W 6163   5.537   8.313  11.755
 2420W        W 6164  10.452   7.912   3.310
 2421W        W 6165   6.517   0.465  11.953
 2422W        W 6166   2.386   6.853   9.629
 2423W        W 6167   2.800   8.116   9.353
 2424W        W 6168   8.405   4.165   1.273
 2425W        W 6169   5.566   5.147  10.371
 2426W        W 6170   9.942   1.878   9.918
 2427W        W 6171   4.777   3.681   2.459
 2428W        W 6172  10.116   8.392   0.286
 2429W        W 6173   5.066   9.241   0.235
 2430W        W 6174   4.712   1.210  10.337
 2431W        W 6175   0.668   2.281   9.956
 2432W        W 6176   2.237   4.775   9.079
 2433W        W 6177   8.867   9.538   1.721
 2434W        W 6178   7.255   6.472   9.905
 2435W        W 6179   0.403   4.317   0.534
 2436W        W 6180   9.226   5.765   1.208
 2437W        W 6181   2.831   9.394   2.995
 2438W        W 6182   2.706   7.827   0.674
 2439W        W 6183   2.548   0.303  11.313
 2440W        W 6184   6.148   4.736  11.279
 2441W        W 6185   2.914   0.299   9.258
 2442W        W 6186   0.942   0.519   8.439
 2443W        W 6187   9.875   3.737   1.276
 2444W        W 6188   4.942   3.975   4.107
 2445W        W 6189   7.157   7.729  10.819
 2446W        W 6190   9.011   5.938   8.973
 2447W        W 6191   1.664   4.209  10.764
 2448W        W 6192   7.053   4.593   9.529
 2449W        W 6193   0.759   1.431   9.993
 2450W        W 6194   8.892   0.270   0.895
 2451W        W 6195  10.312   7.173   8.976
 2452W        W 6196   2.129   1.853  10.774
 2453W        W 6197   3.744   0.980   9.118
 2454W        W 6198   2.274   8.486   9.415
 2455W        W 6199   4.146   1.316   1.821
 2456W        W 6200   7.548   8.057   3.543
 2457W        W 6201   6.907   0.791   9.554
 2458W        W 6202   1.851   1.391   2.032
 2459W        W 6203   7.446   8.424  11.668
 2460W        W 6204   2.702   2.152   2.910
 2461W        W 6205  10.456  10.049  10.933
 2462W        W 6206   3.282   8.000   3.594
 2463W        W 6207   8.096   0.774   2.825
 2464W        W 6208   2.362   7.674   3.000
 2465W        W 6209   2.589   2.294   2.436
 2466W        W 6210  10.387   3.711   0.024
 2467W        W 6211   6.485   6.990   1.832
 2468W        W 6212   6.121  10.468   1.749
 2469W        W 6213   3.903   0.077   8.949
 2470W        W 6214   3.789   0.536   9.353
 2471W        W 6215   7.196   7.843   0.877
 2472W        W 6216   5.052   3.555   9.880
 2473W        W 6217   8.103   9.302  10.348
 2474W        W 6218   1.746   0.856   1.291
 2475W        W 6219   1.883   2.102  10.376
 2476W        W 6220   6.682   2.886   0.863
 2477W        W 6221   4.599   8.564  11.896
 2478W        W 6222  10.046   9.571   8.581
 2479W        W 6223   6.249   8.843  11.467
 2480W        W 6224   0.404   4.189   1.030
 2481W        W 6225   6.090   6.331   3.402
 2482W        W 6226   8.255   7.970   8.784
 2483W        W 6227   4.153   7.707   0.795
 2484W        W 6228   5.227  10.159  11.922
 2485W        W 6229  10.151   8.518   1.180
 2486W        W 6230   5.139   2.521  10.029
 2487W        W 6231   3.225  10.421   1.316
 2488W        W 6232   5.014   6.012  11.895
 2489W        W 6233   7.543   8.860   8.790
 2490W        W 6234   8.937   3.203   9.059
 2491W        W 6235   0.909   7.459  10.297
 2492W        W 6236   0.373   1.602  10.302
 2493W        W 6237   0.889   8.963   1.419
 2494W        W 6238  10.089   8.136   9.385
 2495W        W 6239   7.164   2.883  11.083
 2496W        W 6240   2.920   0.230   1.589
 2497W        W 6241   2.508   7.249   9.313
 2498W        W 6242   3.882   8.072   1.625
 2499W        W 6243   5.438   4.266   3.144
 2500W        W 6244   9.937   2.455  11.686
 2501W        W 6245   3.394   0.291   1.772
 2502W        W 6246   7.559   3.797  10.417
 2503W        W 6247   4.286   3.903  11.280
 2504W        W 6248   0.047   5.904   2.213
 2505W        W 6249   0.667   6.555  10.265
 2506W        W 6250   7.890   2.331   2.794
 2507W        W 6251   9.400   3.158   1.279
 2508W        W 6252   3.765   1.229   0.951
 2509W        W 6253   4.590   8.002   3.602
 2510W        W 6254   1.214   5.320  10.302
 2511W        W 6255   5.735   9.903   1.299
 2512W        W 6256   0.727   7.435   2.230
 2513W        W 6257   7.926  10.029  11.034
 2514W        W 6258   9.421   7.657  10.162
 2515W        W 6259   5.665   4.487   9.158
 2516W        W 6260   8.051   1.779   1.913
 2517W        W 6261   7.820   7.052   0.866
 2518W        W 6262   8.058   0.275   2.973
 2519W        W 6263   9.347   2.816   0.493
 2520W        W 6264   2.139   7.439   1.743
 2521W        W 6265   4.146   8.629   0.864
 2522W        W 6266   8.892   5.957  10.972
 2523W        W 6267   9.582   9.940   3.784
 2524W        W 6268  10.032   4.457   1.631
 2525W        W 6269   2.377   5.327   1.462
 2526W        W 6270  10.049   4.873  11.843
 2527W        W 6271   8.121   2.463   1.454
 2528W        W 6272   9.189   3.648   9.199
 2529W        W 6273   6.273   2.899   1.167
 2530W        W 6274  10.286   1.284   9.975
 2531W        W 6275  10.413   2.438   1.953
 2532W        W 6276   6.498   2.767   2.772
 2533W        W 6277   8.434   7.189   8.811
 2534W        W 6278   9.933  10.242   2.783
 2535W        W 6279   0.808   6.814   1.160
 2536W        W 6280   3.251   0.222  10.037
 2537W        W 6281   2.151   2.690   3.398
 2538W        W 6282   4.060   5.275   0.459
 2539W        W 6283   6.216   6.931   9.080
 2540W        W 6284   2.873   4.165   9.908
 2541W        W 6285   3.208   9.698   9.906
 2542W        W 6286   5.955   6.635  11.321
 2543W        W 6287   8.160   4.042  11.845
 2544W        W 6288   7.237   5.588   1.186
 2545W        W 6289   0.890   9.126   9.430
 2546W        W 6290   5.232   0.274   1.921
 2547W        W 6291   6.226   1.241  10.053
 2548W        W 6292   7.870   5.440   1.752
 2549W        W 6293   7.407   8.086   3.052
 2550W        W 6294   5.455   7.835   3.719
 2551W        W 6295   7.050   6.081   0.039
 2552W        W 6296   1.897   4.257   9.852
 2553W        W 6297   5.004   2.917   8.546
 2554W        W 6298   3.162   3.470   3.071
 2555W        W 6299   9.275   9.220   3.298
 2556W        W 6300   6.282   4.938   2.106
 2557W        W 6301   4.518   7.700  11.438
 2558W        W 6302   8.995   4.509  11.045
 2559W        W 6303   8.571   9.289  11.126
 2560W        W 6304   5.969   3.504   9.872
 2561W        W 6305  10.386   0.224   3.432
 2562W        W 6306   3.577   2.250   8.744
 2563W        W 6307   8.146   9.327  11.504
 2564W        W 6308   4.724   8.365   0.423
 2565W        W 6309   8.968   1.498   1.564
 2566W        W 6310   6.933   0.811  10.934
 2567W        W 6311   4.597   6.656   9.090
 2568W        W 6312   9.183   3.437   2.084
 2569W        W 6313   8.476   7.410   0.339
 2570W        W 6314   4.681   9.066  10.105
 2571W        W 6315   1.877   6.476   3.586
 2572W        W 6316   5.202   1.344   2.499
 2573W        W 6317   3.629   8.396  10.879
 2574W        W 6318   5.616   1.713   0.549
 2575W        W 6319   3.824   7.504   9.764
 2576W        W 6320   5.634   5.140   1.310
 2577W        W 6321   9.392   7.901   2.074
 2578W        W 6322   7.218   1.390   9.766
 2579W        W 6323   8.506   6.756   9.986
 2580W        W 6324   9.882   9.708   2.825
 2581W        W 6325   4.049   1.528  11.564
 2582W        W 6326   0.723   6.139   9.898
 2583W        W 6327   1.372   8.499  11.079
 2584W        W 6328   3.340   1.457  10.592
 2585W        W 6329   0.015  10.483   9.679
 2586W        W 6330   2.608   4.890   3.604
 2587W        W 6331   5.773   0.776  10.491
 2588W        W 6332   0.763   4.329   1.752
 2589W        W 6333   6.001   7.310   9.562
 2590W        W 6334   0.870   4.655   8.682
 2591W        W 6335   4.594   8.476  11.358
 2592W        W 6336   2.216   3.200  10.699
 2593W        W 6337   6.649   8.347   1.846
 2594W        W 6338   0.354   5.721   9.983
 2595W        W 6339   9.630   5.385   0.468
 2596W        W 6340   9.796   3.054   0.066
 2597W        W 6341   4.314   9.520  11.860
 2598W        W 6342   1.736   3.662  10.426
 2599W        W 6343   0.437   0.485   0.342
 2600W        W 6344   1.724   5.818   8.835
 2601W        W 6345  10.217   2.830  11.933
 2602W        W 6346   5.796   2.501   9.972
 2603W        W 6347   6.577   2.955   1.913
 2604W        W 6348   6.480   3.921  10.337
 2605W        W 6349   7.445   2.271   8.788
 2606W        W 6350   6.494  10.378  10.123
 2607W        W 6351   2.327   9.541   9.328
 2608W        W 6352   4.730   6.440   1.328
 2609W        W 6353   3.596  10.406  10.303
 2610W        W 6354   2.934   5.651   3.115
 2611W        W 6355   6.309  10.253   3.269
 2612W        W 6356   9.391   3.088   2.793
 2613W        W 6357   8.058   1.793   8.823
 2614W        W 6358   8.963   9.535   9.799
 2615W        W 6359   9.452   2.208   1.765
 2616W        W 6360   8.398   0.211   8.826
 2617W        W 6361   5.389   9.562   9.823
 2618W        W 6362   6.969   2.190   3.295
 2619W        W 6363   7.872   3.887  11.320
 2620W        W 6364   1.132   1.413  11.206
 2621W        W 6365   7.092   5.024  11.804
 2622W        W 6366   8.303   7.105   1.225
 2623W        W 6367   4.239   6.539   1.090
 2624W        W 6368   2.744   9.896  10.011
 2625W        W 6369   5.445   7.609   1.630
 2626W        W 6370   7.128   5.726  10.206
 2627W        W 6371   8.430   0.725   8.761
 2628W        W 6372   7.237   9.286   9.272
 2629W        W 6373   6.049   1.973  11.219
 2630W        W 6374   7.362   5.205  10.258
 2631W        W 6375   2.008   9.933   0.642
 2632W        W 6376   9.976   9.311  11.884
 2633W        W 6377   4.590   0.675  10.667
 2634W        W 6378   9.845   9.480  10.788
 2635W        W 6379   9.472   1.847   2.415
 2636W        W 6380   9.570   0.461   9.156
 2637W        W 6381   5.211   1.949  10.268
 2638W        W 6382   2.805   9.286   2.493
 2639W        W 6383   1.133   0.977   0.723
 2640W        W 6384   5.937   3.016   9.018
 2641W        W 6385   6.516  10.170  11.589
 2642W        W 6386   6.993   8.532  10.666
 2643W        W 6387   0.344   2.669  10.061
 2644W        W 6388   2.446   9.562   0.615
 2645W        W 6389   0.516   7.405  10.977
 2646W        W 6390   3.780   0.449   2.494
 2647W        W 6391   5.232   5.043  11.861
 2648W        W 6392   3.723   6.723   9.704
 2649W        W 6393   9.771   6.611   9.513
 2650W        W 6394   0.015   3.386   0.804
 2651W        W 6395   9.467   9.846  10.727
 2652W        W 6396   2.230  10.438  10.268
 2653W        W 6397   0.182   3.358  11.016
 2654W        W 6398   6.147   1.110   2.750
 2655W        W 6399   2.837   6.042   1.420
 2656W        W 6400   5.650   0.072   0.885
 2657W        W 6401   8.931   4.735   2.923
 2658W        W 6402   8.506   4.156   2.841
 2659W        W 6403   3.654   7.112  10.046
 2660W        W 6404   5.245   6.495   9.862
 2661W        W 6405   6.130   7.709   0.085
 2662W        W 6406   7.530   3.920   2.556
 2663W        W 6407   6.078   1.481   0.533
 2664W        W 6408   4.624   8.363   2.114
 2665W        W 6409   7.059   4.832   2.032
 2666W        W 6410   7.962   7.630   3.630
 2667W        W 6411   8.499   3.399   0.518
 2668W        W 6412   5.561   6.482  10.480
 2669W        W 6413   6.312   8.183   8.687
 2670W        W 6414   9.302   4.276   1.882
 2671W        W 6415   4.487   3.227   1.430
 2672W        W 6416   4.220   8.053  10.788
 2673W        W 6417   9.436   6.763   3.052
 2674W        W 6418   1.479   1.934   0.754
 2675W        W 6419   9.733   9.036   1.825
 2676W        W 6420   6.741   8.343   8.447
 2677W        W 6421  10.298   2.741  11.440
 2678W        W 6422   1.825   0.387   0.507
 2679W        W 6423   8.875   5.493   1.893
 2680W        W 6424   0.254   1.314  11.768
 2681W        W 6425   1.610   4.173   2.655
 2682W        W 6426   8.500   4.583   1.619
 2683W        W 6427   6.668   4.464  10.562
 2684W        W 6428   6.685   3.138  11.542
 2685W        W 6429   7.645   0.468   1.228
 2686W        W 6430   9.884   9.115  10.408
 2687W        W 6431  10.345   2.590  10.963
 2688W        W 6432   4.483   5.583   0.371
 2689W        W 6433   1.394   5.993   1.636
 2690W        W 6434   2.208   1.278   0.676
 2691W        W 6435   3.723   1.884   9.557
 2692W        W 6436   9.682   1.814   2.903
 2693W        W 6437   8.392   5.711  11.579
 2694W        W 6438   9.838   1.679   8.780
 2695W        W 6439   0.232   5.130   8.813
 2696W        W 6440   0.303   4.932  10.599
 2697W        W 6441   5.862   7.575   3.877
 2698W        W 6442   8.489   7.572   1.356
 2699W        W 6443   9.251   8.108   9.754
 2700W        W 6444   1.091   7.664   2.622
 2701W        W 6445   4.204   8.907   1.711
 2702W        W 6446   8.837   0.505   1.913
 2703W        W 6447   0.815   9.489  10.019
 2704W        W 6448   4.974   3.989   3.223
 2705W        W 6449   7.443   5.540  11.487
 2706W        W 6450   1.162   4.315  10.352
 2707W        W 6451   2.319   2.673  11.952
 2708W        W 6452   4.511   6.551   0.299
 2709W        W 6453   0.385   9.791   1.225
 2710W        W 6454   2.218   7.234   3.239
 2711W        W 6455   9.743   6.464  11.722
 2712W        W 6456   7.893   8.433   9.297
 2713W        W 6457   7.512   4.747   2.260
 2714W        W 6458   4.357   4.204   9.924
 2715W        W 6459   5.812   9.298   9.624
 2716W        W 6460   8.625   9.376  11.630
 2717W        W 6461   3.105   1.507   0.386
 2718W        W 6462   9.469   6.221  11.282
 2719W        W 6463   9.193   0.703   9.418
 2720W        W 6464   8.352   3.299  10.276
 2721W        W 6465   1.838   0.665  10.342
 2722W        W 6466   3.506   6.921   0.718
 2723W        W 6467   1.388   5.609  11.978
 2724W        W 6468   8.831   7.142   0.631
 2725W        W 6469   0.359   0.234  10.413
 2726W        W 6470   8.613   4.784  11.868
 2727W        W 6471   2.688   9.793   1.750
 2728W        W 6472   7.851   5.255   8.559
 2729W        W 6473  10.322   5.243  11.609
 2730W        W 6474   7.467   6.934   9.180
 2731W        W 6475   2.113  10.314   2.165
 2732W        W 6476   8.594   7.808  10.135
 2733W        W 6477   1.898   6.203   1.584
 2734W        W 6478   6.389   0.678   2.721
 2735W        W 6479   3.216   9.548   2.663
 2736W        W 6480   5.823   4.530   0.869
 2737W        W 6481   0.410  10.361   0.250
 2738W        W 6482   6.210   1.627   1.871
 2739W        W 6483   1.862   8.581   9.060
 2740W        W 6484   6.586  10.306  11.114
 2741W        W 6485   9.257   2.362   0.871
 2742W        W 6486   3.188   0.974  10.446
 2743W        W 6487   1.506   1.003   2.084
 2744W        W 6488   8.733   8.201   9.842
 2745W        W 6489   6.116   4.288  10.989
 2746W        W 6490   3.784   7.667  11.441
 2747W        W 6491   0.480   1.858   0.042
 2748W        W 6492   8.022   3.141   8.871
 2749W        W 6493   7.023   9.175   1.035
 2750W        W 6494   7.628   0.550   2.856
 2751W        W 6495  10.464   4.635   9.981
 2752W        W 6496   9.416   9.374   9.949
 2753W        W 6497   7.471   0.157  11.339
 2754W        W 6498   7.837   6.973   1.395
 2755W        W 6499  10.320   1.224  10.953
 2756W        W 6500   5.236   1.273  10.511
 2757W        W 6501   3.058  10.256   9.151
 2758W        W 6502   0.962   7.075   8.599
 2759W        W 6503   7.098   8.846   0.641
 2760W        W 6504   2.286   8.836   1.530
 2761W        W 6505  10.348   6.012   3.469
 2762W        W 6506   0.360   0.922   0.087
 2763W        W 6507  10.356   4.122  10.559
 2764W        W 6508   8.584   2.621   1.195
 2765W        W 6509   8.393   0.216   9.703
 2766W        W 6510   0.648   7.372   9.339
 2767W        W 6511   8.376   5.537   1.729
 2768W        W 6512   8.733   4.236   9.054
 2769W        W 6513   0.828   3.698   9.349
 2770W        W 6514   6.176   4.426   2.131
 2771W        W 6515   8.383   6.545  11.471
 2772W        W 6516   2.560   4.738  11.265
 2773W        W 6517   9.943   6.930   1.885
 2774W        W 6518   8.282   9.625   0.403
 2775W        W 6519   3.424   3.251  10.113
 2776W        W 6520   0.081   6.005   1.298
 2777W        W 6521   1.996   8.260   0.377
 2778W        W 6522  10.432   6.439   1.552
 2779W        W 6523   6.876   5.290  10.149
 2780W        W 6524   2.653   5.989   0.943
 2781W        W 6525   7.468   5.894  10.800
 2782W        W 6526   6.158  10.001   1.560
 2783W        W 6527   9.162   1.755   2.848
 2784W        W 6528   8.599   5.069   1.742
 2785W        W 6529   0.207   8.526   2.923
 2786W        W 6530   8.341   9.728  11.279
 2787W        W 6531   5.717   7.085   9.171
 2788W        W 6532   7.235   1.860  10.001
 2789W        W 6533   6.165   8.655  10.550
 2790W        W 6534   1.810   5.992   3.488
 2791W        W 6535   5.932   4.096   3.108
 2792W        W 6536   7.021   0.705   0.712
 2793W        W 6537   2.491   8.273   0.540
 2794W        W 6538   9.773   5.924   1.830
 2795W        W 6539   8.366   9.081   3.494
 2796W        W 6540   8.533   2.859  10.486
 2797W        W 6541   3.307   3.283   8.590
 2798W        W 6542   3.133   2.232  11.114
 2799W        W 6543   9.056   1.229   8.735
 2800W        W 6544   8.900   7.017   1.900
 2801W        W 6545   0.182   3.095  10.413
 2802W        W 6546  10.399   8.207   2.121
 2803W        W 6547   2.185   6.411  11.609
 2804W        W 6548  10.448   6.023   9.433
 2805W        W 6549   3.066   2.404   0.114
 2806W        W 6550   3.895   3.319   0.515
 2807W        W 6551   5.576   3.305  11.611
 2808W        W 6552   8.547   8.573   2.814
 2809W        W 6553   8.762  10.329   8.929
 2810W        W 6554   1.935   8.047   1.747
 2811W        W 6555   5.273   9.575   3.403
 2812W        W 6556   3.871   2.330   9.802
 2813W        W 6557   4.534   7.928   0.570
 2814W        W 6558   8.149   1.716  10.329
 2815W        W 6559   9.823   0.519  10.351
 2816W        W 6560   9.871   0.950  10.069
 2817W        W 6561   6.034   2.755   8.432
 2818W        W 6562   7.962   8.880   1.212
 2819W        W 6563   1.278   4.265   3.469
 2820W        W 6564   6.037   0.000   0.217
 2821W        W 6565  10.024   7.393   9.918
 2822W        W 6566   1.167   8.951   1.001
 2823W        W 6567   8.337   0.040   0.816
 2824W        W 6568   3.160   5.277   1.499
 2825W        W 6569   1.887   3.724   1.806
 2826W        W 6570   8.468   6.068   1.677
 2827W        W 6571   0.017   0.191   0.275
 2828W        W 6572   0.101   1.142   8.516
 2829W        W 6573   7.626   1.098  10.363
 2830W        W 6574   7.803   6.193   1.006
 2831W        W 6575   4.076   9.013   1.231
 2832W        W 6576  10.103   2.645   0.850
 2833W        W 6577   9.498   8.896   0.514
 2834W        W 6578   1.051   5.179   9.366
 2835W        W 6579   5.968   8.794   9.834
 2836W        W 6580   9.408   2.313   0.385
 2837W        W 6581   8.064   6.117   8.881
 2838W        W 6582   7.182   5.483  10.645
 2839W        W 6583   8.348   5.440   3.506
 2840W        W 6584   0.304   9.956  11.918
 2841W        W 6585   9.270   5.353   9.705
 2842W        W 6586   3.298   1.286   9.073
 2843W        W 6587   1.032   4.800   1.973
 2844W        W 6588   8.575   6.192   3.156
 2845W        W 6589   9.398   6.314   9.302
 2846W        W 6590   6.941  10.440   0.298
 2847W        W 6591   0.006   0.712   2.333
 2848W        W 6592   6.679   7.824  11.946
 2849W        W 6593   5.290   1.418  11.513
 2850W        W 6594   6.232   8.881   2.946
 2851W        W 6595   1.401   0.978  10.024
 2852W        W 6596   7.947   2.121   2.326
 2853W        W 6597   0.987   5.843   0.332
 2854W        W 6598   8.680   0.035   0.453
 2855W        W 6599   4.643   8.925   9.608
 2856W        W 6600   5.550   3.208   0.162
 2857W        W 6601   1.834   6.746  11.232
 2858W        W 6602   4.138   6.366   0.602
 2859W        W 6603   3.460  10.050   0.005
 2860W        W 6604   2.596   4.094  10.346
 2861W        W 6605   5.250   8.690   3.776
 2862W        W 6606   0.491   8.908   2.091
 2863W        W 6607   1.327   2.022  11.852
 2864W        W 6608   0.394   7.174   2.872
 2865W        W 6609   3.223   1.826   9.862
 2866W        W 6610   7.256   0.403   9.954
 2867W        W 6611   4.734   3.124  10.249
 2868W        W 6612   4.561   9.426   9.580
 2869W        W 6613   8.445   4.362   3.539
 2870W        W 6614   8.599   3.863   0.055
 2871W        W 6615   9.371   1.845   3.326
 2872W        W 6616   3.056   2.650   1.078
 2873W        W 6617   1.306  10.346   9.254
 2874W        W 6618   6.631   5.663   0.926
 2875W        W 6619   4.422   5.830  11.401
 2876W        W 6620   7.969   8.155  10.832
 2877W        W 6621   1.386   4.743  11.834
 2878W        W 6622   1.879   9.911   1.123
 2879W        W 6623   3.012   9.158  11.872
 2880W        W 6624   8.808   9.511   0.277
 2881W        W 6625   4.171   7.416  10.128
 2882W        W 6626   8.508   1.315  10.450
 2883W        W 6627   3.035   0.064   2.091
 2884W        W 6628   0.421   7.101   1.926
 2885W        W 6629   9.263   9.275   1.923
 2886W        W 6630   7.382   0.086   1.463
 2887W        W 6631   1.108   8.259   1.928
 2888W        W 6632   5.043   8.732   9.307
 2889W        W 6633   4.575   9.090  11.984
 2890W        W 6634   1.492   9.320   1.152
 2891W        W 6635   2.837   9.493   9.231
 2892W        W 6636   5.911   8.007   8.969
 2893W        W 6637   7.846   9.755  10.421
 2894W        W 6638   6.184   4.226   0.709
 2895W        W 6639   3.323   0.459  10.472
 2896W        W 6640   8.297   2.337   1.981
 2897W        W 6641   4.622   2.647   1.893
 2898W        W 6642  10.158   5.224   0.504
 2899W        W 6643   6.753   1.659  10.559
 2900W        W 6644   2.101   2.167   1.427
 2901W        W 6645   8.342   6.951  11.789
 2902W        W 6646   6.924   6.583  10.312
 2903W        W 6647   8.059   5.226  10.967
 2904W        W 6648   8.785   5.699   1.452
 2905W        W 6649   4.073   4.688  11.646
 2906W        W 6650   6.007   5.294   9.623
 2907W        W 6651   9.856   4.175  11.391
 2908W        W 6652   4.302   3.088   9.975
 2909W        W 6653   1.582   4.565  11.136
 2910W        W 6654   2.414   4.325   3.326
 2911W        W 6655   7.151   6.944  11.227
 2912W        W 6656   5.638   4.214   2.667
 2913W        W 6657   2.822   9.334   0.879
 2914W        W 6658   3.032   4.778   1.144
 2915W        W 6659  10.310   3.480   1.283
 2916W        W 6660   4.881   8.650   2.514
 2917W        W 6661   5.186   0.486   0.284
 2918W        W 6662   8.257   3.754   7.915
 2919W        W 6663   7.893   6.897   3.501
 2920W        W 6664   2.701   9.457   9.723
 2921W        W 6665  10.142   5.999  10.717
 2922W        W 6666   9.790   5.604   2.645
 2923W        W 6667   5.134   7.533   9.570
 2924W        W 6668   3.573   4.006   9.397
 2925W        W 6669   1.113   0.110  11.693
 2926W        W 6670   1.670  10.258   0.376
 2927W        W 6671  10.467   7.469  10.113
 2928W        W 6672   7.685   6.485   9.066
 2929W        W 6673   8.321   5.801   1.263
 2930W        W 6674   4.591   6.288  11.866
 2931W        W 6675   3.384   4.525  11.127
 2932W        W 6676   9.992   1.372   9.159
 2933W        W 6677   0.189   5.261  10.228
 2934W        W 6678   0.979   1.625  10.707
 2935W        W 6679   1.682   7.403   1.966
 2936W        W 6680   0.202   0.388  10.877
 2937W        W 6681   7.014   4.872   0.706
 2938W        W 6682   6.837   8.837   1.870
 2939W        W 6683   4.547   8.530   9.283
 2940W        W 6684   7.513   4.770   1.391
 2941W        W 6685   4.181   8.285   0.500
 2942W        W 6686   5.132   3.197  11.866
 2943W        W 6687   4.674   5.969   1.703
 2944W        W 6688   8.622   8.074   9.356
 2945W        W 6689   0.190   4.468  10.417
 2946W        W 6690   6.381   2.040  10.531
 2947W        W 6691   0.214   7.995   0.750
 2948W        W 6692   9.817   0.388  11.314
 2949W        W 6693   8.457   7.521  10.535
 2950W        W 6694   1.186   5.196  11.749
 2951W        W 6695   6.544   3.744   2.352
 2952W        W 6696   5.205   7.399   2.618
 2953W        W 6697   3.850   1.294  11.973
 2954W        W 6698   2.547   6.687   0.390
 2955W        W 6699   5.547   8.073   2.210
 2956W        W 6700   5.086   8.370   0.024
 2957W        W 6701   0.467   1.360   3.192
 2958W        W 6702   6.255   2.121  10.041
 2959W        W 6703   8.130   5.518   2.199
 2960W        W 6704   4.256   4.808   0.360
 2961W        W 6705   1.306   2.810   1.948
 2962W        W 6706   0.285   4.300   3.313
 2963W        W 6707   5.277   3.495  11.209
 2964W        W 6708   1.973   8.267  10.616
 2965W        W 6709   5.738   2.096  10.282
 2966W        W 6710   9.039   1.212   9.268
 2967W        W 6711   9.304   7.935  10.653
 2968W        W 6712   7.787   6.029   3.639
 2969W        W 6713   4.218   2.096  10.236
 2970W        W 6714   0.566   8.535   1.307
 2971W        W 6715   8.548   5.107   0.783
 2972W        W 6716   8.858   1.985   8.283
 2973W        W 6717   4.069   3.228  10.797
 2974W        W 6718   4.171   6.104  10.155
 2975W        W 6719   2.262   7.904   8.767
 2976W        W 6720   0.438   4.677   3.649
 2977W        W 6721   1.635   9.492   2.465
 2978W        W 6722   3.775   1.401   9.852
 2979W        W 6723   9.744   8.372   3.368
 2980W        W 6724   0.938   3.205   9.482
 2981W        W 6725   7.038   4.074   1.325
 2982W        W 6726   0.717   2.809   9.206
 2983W        W 6727   5.142   4.059   2.749
 2984W        W 6728   3.002   6.900   0.642
 2985W        W 6729   4.026   6.873   0.731
 2986W        W 6730   9.045   4.609   9.282
 2987W        W 6731   3.749   5.765   9.470
 2988W        W 6732   5.516   4.301   8.704
 2989W        W 6733   7.850   2.625   3.231
 2990W        W 6734   1.710   1.669  10.547
 2991W        W 6735   3.670   7.146  11.465
 2992W        W 6736   8.473   2.329   3.498
 2993W        W 6737   6.983   0.468  11.365
 2994W        W 6738   2.382   8.455  10.391
 2995W        W 6739   1.644   3.558   0.311
 2996W        W 6740   3.152   6.459   8.984
 2997W        W 6741  10.347   4.231  11.230
 2998W        W 6742   5.199   2.327   3.691
 2999W        W 6743   4.266   3.383   3.201
 3000W        W 6744   3.605   5.905  11.829
 3001W        W 6745   9.505   4.104   0.817
 3002W        W 6746   6.199   5.724   0.551
 3003W        W 6747   0.944   3.307  11.801
 3004W        W 6748   2.732   4.978   1.506
 3005W        W 6749   0.902   7.108  11.106
 3006W        W 6750   3.243   5.910  10.097
 3007W        W 6751   8.558   1.815   1.877
 3008W        W 6752   6.634   9.816   1.508
 3009W        W 6753   7.106  10.415   9.892
 3010W        W 6754   4.994   9.358  11.744
 3011W        W 6755   4.238   7.046   1.960
 3012W        W 6756   7.833   9.649   0.774
 3013W        W 6757   7.107   8.573   8.702
 3014W        W 6758  10.039   5.719   0.398
 3015W        W 6759  10.075   3.484   8.419
 3016W        W 6760   1.213   3.366   3.079
 3017W        W 6761   4.243   6.169   1.466
 3018W        W 6762   4.725   7.485   0.459
 3019W        W 6763   0.994   5.545   9.008
 3020W        W 6764   5.704   0.414  10.972
 3021W        W 6765   5.504   0.997  11.798
 3022W        W 6766   8.003   8.868   9.037
 3023W        W 6767   6.048  10.306   8.940
 3024W        W 6768   1.442   0.222   0.201
 3025W        W 6769   9.753   1.389   1.238
 3026W        W 6770   8.558   5.225   2.251
 3027W        W 6771   2.717   6.031   3.424
 3028W        W 6772   4.683   3.165   9.202
 3029W        W 6773   9.923   5.244   1.261
 3030W        W 6774   5.186   0.319   0.787
 3031W        W 6775   2.826   1.788   9.016
 3032W        W 6776   5.183   5.578  10.970
 3033W        W 6777   2.626   3.095   2.605
 3034W        W 6778   9.670   2.249   3.275
 3035W        W 6779   8.968   6.624   9.308
 3036W        W 6780   1.051   9.583   0.422
 3037W        W 6781   6.478   9.965   0.105
 3038W        W 6782   4.526   4.473  11.687
 3039W        W 6783   1.785   5.889   1.206
 3040W        W 6784   5.998   8.869   9.337
 3041W        W 6785   7.530   9.634   9.492
 3042W        W 6786   3.740   7.002   1.181
 3043W        W 6787   7.030   4.052   0.800
 3044W        W 6788   8.044   5.032   2.067
 3045W        W 6789   8.439   0.278  10.469
 3046W        W 6790   6.540   4.044  10.843
 3047W        W 6791   4.610   0.864   8.611
 3048W        W 6792   8.926   1.791  11.674
 3049W        W 6793  10.209   7.470   3.102
 3050W        W 6794   3.201   4.938   3.154
 3051W        W 6795   5.946   3.583   3.273
 3052W        W 6796   1.498   7.572  10.805
 3053W        W 6797   0.443   2.251  11.701
 3054W        W 6798   4.690   9.594   1.343
 3055W        W 6799   8.032   3.410  11.348
 3056W        W 6800   5.179   7.490   9.041
 3057W        W 6801   2.197  10.331   1.206
 3058W        W 6802   1.951   5.151   1.718
 3059W        W 6803   9.074   5.025  10.954
 3060W        W 6804   4.611   2.527   1.033
 3061W        W 6805   1.918   3.173  11.517
 3062W        W 6806   3.785   6.253  11.486
 3063W        W 6807  10.344   1.741   9.621
 3064W        W 6808   1.284   3.893  10.609
 3065W        W 6809   9.443   5.526  10.154
 3066W        W 6810  10.048   5.677   3.147
 3067W        W 6811   6.615   6.152   2.281
 3068W        W 6812   3.794   7.108   8.841
 3069W        W 6813   3.108   6.368  11.322
 3070W        W 6814   1.861   5.039   8.858
 3071W        W 6815   2.597   3.670  10.087
 3072W        W 6816   7.871   9.846   8.738
 3073W        W 6817   4.284   8.415  10.424
 3074W        W 6818   0.710   7.870  11.009
 3075W        W 6819  10.486   7.037   9.815
 3076W        W 6820   4.215   9.402   1.601
 3077W        W 6821   2.031   0.278  11.381
 3078W        W 6822   8.154   2.902   1.188
 3079W        W 6823   2.034   8.527   1.829
 3080W        W 6824   1.180   1.323  10.330
 3081W        W 6825   7.464   6.612   2.460
 3082W        W 6826   7.517   0.862   8.505
 3083W        W 6827   6.752   1.801   1.254
 3084W        W 6828   0.194   7.070   9.334
 3085W        W 6829   2.806   1.262   9.310
 3086W        W 6830   7.491   4.081   0.252
 3087W        W 6831   2.576   2.791   8.956
 3088W        W 6832   4.396   0.916   3.256
 3089W        W 6833   7.480   5.533   0.378
 3090W        W 6834   3.326   7.483   9.847
 3091W        W 6835   4.834   0.352   8.626
 3092W        W 6836   0.487   9.467   9.198
 3093W        W 6837   3.544   8.654  11.305
 3094W        W 6838   6.504   0.019   0.967
 3095W        W 6839  10.284   5.141   9.219
 3096W        W 6840   2.580   1.443   0.373
 3097W        W 6841   7.204   7.460   9.904
 3098W        W 6842   3.872   6.590   2.729
 3099W        W 6843   3.323   1.752   1.264
 3100W        W 6844   7.497   0.151   0.315
 3101W        W 6845   6.437   5.541   9.483
 3102W        W 6846   9.164   5.857   2.251
 3103W        W 6847   4.519   9.921   3.212
 3104W        W 6848   5.926   7.598  11.295
 3105W        W 6849   6.699   3.419  10.280
 3106W        W 6850   9.444   1.108   3.524
 3107W        W 6851   6.751   2.774  11.949
 3108W        W 6852   3.135   6.082  10.895
 3109W        W 6853   7.399   0.024   9.473
 3110W        W 6854   1.938   4.453   2.386
 3111W        W 6855   5.703   5.602   9.962
 3112W        W 6856   6.485   6.354   2.724
 3113W        W 6857   3.477   0.048   9.269
 3114W        W 6858   8.535   9.031   3.026
 3115W        W 6859   0.789   0.656   3.658
 3116W        W 6860   9.486   4.606   9.050
 3117W        W 6861   3.947   3.022   3.104
 3118W        W 6862   2.240   9.075   0.757
 3119W        W 6863   2.279   1.984   9.143
 3120W        W 6864   2.888   9.519  10.631
 3121W        W 6865   1.309   9.956   8.917
 3122W        W 6866   9.044   7.497   2.087
 3123W        W 6867   7.452   1.468   3.161
 3124W        W 6868   9.013   2.220   9.069
 3125W        W 6869   0.758   6.370   9.378
 3126W        W 6870   0.011  10.462  10.678
 3127W        W 6871   9.744   7.235   2.230
 3128W        W 6872   2.562   7.640   1.951
 3129W        W 6873   5.935   2.528   8.882
 3130W        W 6874   2.739   9.520   0.170
 3131W        W 6875   4.237   8.216   2.402
 3132W        W 6876   9.874   3.264   2.908
 3133W        W 6877   3.789   9.462  10.796
 3134W        W 6878   0.247   4.442  11.496
 3135W        W 6879   6.548   4.590   9.648
 3136W        W 6880   7.512  10.454   1.918
 3137W        W 6881   0.136   0.440  11.841
 3138W        W 6882   6.470   3.097  11.065
 3139W        W 6883   0.045   9.468   0.876
 3140W        W 6884   8.319   8.424   9.576
 3141W        W 6885   3.771   6.489  10.161
 3142W        W 6886   7.332   5.612   1.688
 3143W        W 6887   1.586   8.868   8.589
 3144W        W 6888   8.448   1.656  11.429
 3145W        W 6889   1.758   3.667  11.440
 3146W        W 6890   6.233   1.510   0.032
 3147W        W 6891   2.730   6.980   2.479
 3148W        W 6892   0.028   1.844  10.618
 3149W        W 6893   7.209   6.184   8.556
 3150W        W 6894   8.881   6.873  10.289
 3151W        W 6895   0.804   6.805   1.658
 3152W        W 6896   7.577  10.222   0.611
 3153W        W 6897   5.333   3.820   8.640
 3154W        W 6898   9.478   0.073  10.451
 3155W        W 6899   2.269   8.133   2.568
 3156W        W 6900   1.664   8.662   2.149
 3157W        W 6901   8.201   2.591  11.993
 3158W        W 6902   4.675   5.214  10.327
 3159W        W 6903   0.048   0.850  10.685
 3160W        W 6904   9.908   4.480   0.776
 3161W        W 6905   0.931   6.603   0.720
 3162W        W 6906   7.392   9.490  10.569
 3163W        W 6907   5.170  10.277   2.029
 3164W        W 6908  10.450   6.392   2.063
 3165W        W 6909   3.017   1.876  11.963
 3166W        W 6910   4.844   3.364   8.778
 3167W        W 6911   7.687   0.949   1.471
 3168W        W 6912   5.740   2.676  10.904
 3169W        W 6913   3.088   6.261   2.755
 3170W        W 6914   6.331   9.061   0.375
 3171W        W 6915   6.171   4.303  10.495
 3172W        W 6916   2.334   8.119   2.062
 3173W        W 6917   7.629   9.923  11.852
 3174W        W 6918   5.145   5.586   1.164
 3175W        W 6919   4.164   1.590  10.180
 3176W        W 6920   3.605   5.214   2.746
 3177W        W 6921   6.112   0.170   9.297
 3178W        W 6922   4.146   1.340   9.076
 3179W        W 6923   4.962   2.723   0.706
 3180W        W 6924   0.941   8.426   9.936
 3181W        W 6925  10.358   8.224   8.968
 3182W        W 6926   2.270   5.646   9.496
 3183W        W 6927   0.913   0.966   9.235
 3184W        W 6928   2.535   4.199   0.444
 3185W        W 6929   5.582   8.054  10.363
 3186W        W 6930   6.913   3.018   2.659
 3187W        W 6931   3.306   4.544  10.615
 3188W        W 6932   6.919   5.392  11.492
 3189W        W 6933   0.484   3.769  11.005
 3190W        W 6934   9.878   1.397   9.673
 3191W        W 6935   6.252   5.636   9.983
 3192W        W 6936   5.969   5.068   1.695
 3193W        W 6937   8.927   8.085  11.683
 3194W        W 6938   8.519   8.548   1.761
 3195W        W 6939   6.622   1.300   8.879
 3196W        W 6940   2.134   9.662   0.230
 3197W        W 6941   5.207   7.554   0.965
 3198W        W 6942   4.151   6.184   8.825
 3199W        W 6943   8.051   0.498   9.096
 3200W        W 6944   2.765   4.463   1.444
 3201W        W 6945   2.644   4.530   8.242
 3202W        W 6946   2.187   1.493  11.688
 3203W        W 6947   6.010   6.124  10.531
 3204W        W 6948   3.148   4.136  10.336
 3205W        W 6949   3.182   0.371   0.232
 3206W        W 6950   9.923  10.253   0.472
 3207W        W 6951   8.866   8.832   1.260
 3208W        W 6952   7.229   3.572   3.756
 3209W        W 6953   9.349   6.944  10.441
 3210W        W 6954   0.629   8.443  11.662
 3211W        W 6955   4.589   7.146   9.994
 3212W        W 6956   8.120   9.531  10.844
 3213W        W 6957   9.435   7.556   0.371
 3214W        W 6958   3.169   8.343   9.035
 3215W        W 6959   1.886   8.481  11.918
 3216W        W 6960   6.052   9.497   0.349
 3217W        W 6961   4.040   4.890  10.465
 3218W        W 6962   4.635   9.112   1.894
 3219W        W 6963   8.382   5.097   3.004
 3220W        W 6964   0.240   5.522   1.439
 3221W        W 6965   4.058   9.703  11.448
 3222W        W 6966   1.547   3.529   3.581
 3223W        W 6967   0.658   7.508   8.732
 3224W        W 6968   1.355   5.609  10.978
 3225W        W 6969   9.448   6.169   1.457
 3226W        W 6970   4.761  10.371  11.854
 3227W        W 6971   0.877   6.088   1.836
 3228W        W 6972   0.448   9.983  10.881
 3229W        W 6973   7.847   0.140   0.867
 3230W        W 6974   5.630   8.011   9.557
 3231W        W 6975   6.316   5.425   1.835
 3232W        W 6976   9.922   3.733   2.717
 3233W        W 6977   2.847   5.129  11.482
 3234W        W 6978   8.437   9.702   9.673
 3235W        W 6979   9.970   0.349   1.376
 3236W        W 6980   6.370   9.452  10.836
 3237W        W 6981   9.280   4.945   0.278
 3238W        W 6982   0.770   3.630   0.277
 3239W        W 6983   4.996   4.827  10.292
 3240W        W 6984  10.402   8.022  11.371
 3241W        W 6985   6.778   1.234  10.015
 3242W        W 6986   0.625   1.643   0.487
 3243W        W 6987   1.973   6.340   9.575
 3244W        W 6988   6.057   9.359  11.439
 3245W        W 6989  10.230   7.354   9.451
 3246W        W 6990   6.125   3.500   8.933
 3247W        W 6991   3.777   6.318   8.443
 3248W        W 6992   2.857   6.105   1.932
 3249W        W 6993   5.216   6.956   2.358
 3250W        W 6994   7.797   4.400   0.747
 3251W        W 6995   8.073   9.804   2.953
 3252W        W 6996   6.789   6.499   8.573
 3253W        W 6997  10.229   9.047   0.931
 3254W        W 6998   9.070   8.023  10.216
 3255W        W 6999   5.196   0.375   8.986
 3256W        W 7000   0.424   1.954   2.659
 3257W        W 7001   5.989   5.106   2.802
 3258W        W 7002   3.612   7.884   3.029
 3259W        W 7003   2.807   0.252   3.014
 3260W        W 7004   9.387   1.201   1.578
 3261W        W 7005   7.931   3.304   9.980
 3262W        W 7006   8.202   1.003   1.336
 3263W        W 7007   3.152   5.002   2.359
 3264W        W 7008   6.708   0.990   2.956
 3265W        W 7009   6.094   8.121  10.554
 3266W        W 7010   1.923   5.572   3.202
 3267W        W 7011   7.245   5.514   9.734
 3268W        W 7012  10.493   5.307   1.030
 3269W        W 7013   0.695   5.276  11.658
 3270W        W 7014   9.111  10.305   0.410
 3271W        W 7015   8.654   4.647  10.307
 3272W        W 7016   9.847   0.366   3.579
 3273W        W 7017   5.306   8.389   9.564
 3274W        W 7018   9.615   6.707  11.292
 3275W        W 7019   7.854   4.222  10.467
 3276W        W 7020   8.390   6.990   9.512
 3277W        W 7021   7.380   6.199   3.911
 3278W        W 7022   5.541   3.785   2.954
 3279W        W 7023   5.795   5.791   0.258
 3280W        W 7024   3.106   2.688   1.575
 3281W        W 7025   5.098   6.744   8.950
 3282W        W 7026   7.886   4.240   9.580
 3283W        W 7027   2.684   6.683   8.995
 3284W        W 7028   3.598   9.493  11.299
 3285W        W 7029   7.916   0.388  11.496
 3286W        W 7030   7.795   5.595   8.159
 3287W        W 7031   8.530   5.388   9.267
 3288W        W 7032   8.333   0.480   3.672
 3289W        W 7033   2.635   6.493   2.635
 3290W        W 7034   5.329   5.584   3.157
 3291W        W 7035   7.507   0.493   3.346
 3292W        W 7036   3.771   9.166   1.803
 3293W        W 7037   6.613   6.060   9.266
 3294W        W 7038   6.448   8.632   2.204
 3295W        W 7039   0.109   8.479  11.540
 3296W        W 7040   5.925   7.123   8.167
 3297W        W 7041   1.424   2.400  10.479
 3298W        W 7042   7.440   3.428   0.823
 3299W        W 7043   0.999   1.821   2.078
 3300W        W 7044   7.357  10.330  11.700
 3301W        W 7045   6.167   3.252   1.944
 3302W        W 7046   7.814   4.622   9.030
 3303W        W 7047   4.269   9.641   0.346
 3304W        W 7048  10.051   5.497  10.809
 3305W        W 7049   6.422   8.097   2.242
 3306W        W 7050   0.005   7.445  11.002
 3307W        W 7051   1.187   0.478   9.960
 3308W        W 7052   1.665   1.784   9.297
 3309W        W 7053   5.754   1.808   2.012
 3310W        W 7054   2.996   2.819  10.797
 3311W        W 7055   9.925   5.228   2.340
 3312W        W 7056   8.561   9.763   2.108
 3313W        W 7057  10.385   9.879   1.165
 3314W        W 7058   4.322   7.126   2.961
 3315W        W 7059   4.028   6.332   3.359
 3316W        W 7060   4.310   1.383   2.316
 3317W        W 7061   9.990   9.786   0.225
 3318W        W 7062   5.232   4.752   9.282
 3319W        W 7063   2.208  10.266   8.639
 3320W        W 7064   4.708   7.507   8.599
 3321W        W 7065   3.663   7.853   0.728
 3322W        W 7066   7.412   7.651   1.294
 3323W        W 7067   8.431   9.746   3.482
 3324W        W 7068   2.704   4.977   9.034
 3325W        W 7069   6.488   9.252  11.683
 3326W        W 7070   1.898   2.621  10.428
 3327W        W 7071   8.439   0.906   3.387
 3328W        W 7072   8.187   1.227   0.036
 3329W        W 7073   5.552   3.621   0.459
 3330W        W 7074   7.028   4.504   1.052
 3331W        W 7075   2.332   0.431  10.468
 3332W        W 7076   2.877   9.507   3.495
 3333W        W 7077   0.671   0.429  10.040
 3334W        W 7078   9.331   7.450   1.249
 3335W        W 7079  10.266   7.034   0.692
 3336W        W 7080   4.737   7.677   9.222
 3337W        W 7081   0.147   7.986   9.964
 3338W        W 7082   8.136   7.569  10.123
 3339W        W 7083   9.119   0.327   0.431
 3340W        W 7084   8.996   9.403   8.750
 3341W        W 7085   1.774   1.227   0.910
 3342W        W 7086   5.684   3.642   0.951
 3343W        W 7087   7.325   1.785   9.447
 3344W        W 7088   3.956  10.301   3.227
 3345W        W 7089   1.838   2.223   8.970
 3346W        W 7090   3.641   0.500  10.915
 3347W        W 7091   3.431   4.567   0.049
 3348W        W 7092   2.404   1.930  10.350
 3349W        W 7093   1.285   5.121   2.394
 3350W        W 7094   1.067   5.172   8.611
 3351W        W 7095   4.355   3.668  10.821
 3352W        W 7096   0.285   3.379   2.424
 3353W        W 7097   8.939   7.948   2.318
 3354W        W 7098   4.578   8.317   0.915
 3355W        W 7099   3.934   4.614   8.671
 3356W        W 7100   3.019  10.348   0.853
 3357W        W 7101   8.392   4.907   9.138
 3358W        W 7102   2.455   8.609   3.302
 3359W        W 7103   5.355   0.752   1.650
 3360W        W 7104   8.418   6.079   0.368
 3361W        W 7105   5.121   3.334   0.844
 3362W        W 7106   6.980   9.977   2.180
 3363W        W 7107   2.097   8.955   9.997
 3364W        W 7108   0.799   5.193   2.264
 3365W        W 7109   5.689   9.903  11.967
 3366W        W 7110   8.145   3.634   1.346
 3367W        W 7111   5.699   7.568   3.359
 3368W        W 7112   6.763   2.839   9.943
 3369W        W 7113   5.845   4.473   0.255
 3370W        W 7114   0.045   9.445   8.563
 3371W        W 7115   5.428   2.150   9.840
 3372W        W 7116   8.890   2.627   3.226
 3373W        W 7117   4.211   8.425   1.793
 3374W        W 7118   9.944   0.047   3.196
 3375W        W 7119   4.964   7.672   1.396
 3376W        W 7120   1.841   2.801   0.736
 3377W        W 7121   5.724   7.844  10.826
 3378W        W 7122   3.794   0.563  11.456
 3379W        W 7123   6.625   8.575   8.917
 3380W        W 7124   9.616   2.800   0.927
 3381W        W 7125   9.452   8.910  10.175
 3382W        W 7126   6.206   2.609   3.649
 3383W        W 7127   3.564   8.907  10.787
 3384W        W 7128   3.134   7.764   0.386
 3385W        W 7129   4.085   4.016   0.972
 3386W        W 7130   1.352   5.499   0.481
 3387W        W 7131   7.712   8.142   2.653
 3388W        W 7132   5.111   9.871   1.400
 3389W        W 7133   3.249   6.939   9.055
 3390W        W 7134   8.098   5.509   3.055
 3391W        W 7135   9.374   0.441   1.057
 3392W        W 7136   8.803   3.262  10.044
 3393W        W 7137   9.036   9.349  11.337
 3394W        W 7138   5.714   2.724   3.744
 3395W        W 7139   1.787   5.521  10.723
 3396W        W 7140   6.929   4.267  11.401
 3397W        W 7141   4.240   3.909   0.178
 3398W        W 7142   2.197   8.107  11.065
 3399W        W 7143   6.157   7.674   8.624
 3400W        W 7144   1.768   1.253   9.734
 3401W        W 7145   5.399   6.487   0.028
 3402W        W 7146   1.316   7.157  10.113
 3403W        W 7147   8.928   3.565  11.790
 3404W        W 7148   6.044   5.179  11.626
 3405W        W 7149   0.512   7.858  10.505
 3406W        W 7150   7.436   6.525  11.371
 3407W        W 7151   8.146   7.865   2.755
 3408W        W 7152   2.542   0.169   1.924
 3409W        W 7153  10.178   0.538  10.940
 3410W        W 7154   6.375  10.484   2.244
 3411W        W 7155   2.769   5.109   4.032
 3412W        W 7156   8.359  10.308  10.299
 3413W        W 7157   8.998   3.535   8.684
 3414W        W 7158   7.180   3.695   0.469
 3415W        W 7159   8.228   7.982   9.816
 3416W        W 7160   0.694   1.215  10.448
 3417W        W 7161   6.747   9.276   9.412
 3418W        W 7162   1.141   0.500   1.882
 3419W        W 7163   4.199   9.353  11.118
 3420W        W 7164   4.971   7.420  10.598
 3421W        W 7165   8.166   6.922   0.273
 3422W        W 7166   4.709   5.433   9.848
 3423W        W 7167   4.005   6.586  11.093
 3424W        W 7168   7.037   8.268   3.428
 3425W        W 7169   3.857   1.991   3.485
 3426W        W 7170   7.369   6.325   0.770
 3427W        W 7171   4.249   3.198   8.910
 3428W        W 7172   0.953   0.413   2.372
 3429W        W 7173   4.362   0.953   0.477
 3430W        W 7174   5.228   1.254   0.978
 3431W        W 7175   7.482   4.761   0.895
 3432W        W 7176   6.942   3.743  10.931
 3433W        W 7177   7.138   1.699   0.941
 3434W        W 7178   5.464   4.886   0.902
 3435W        W 7179   7.582   0.237   9.047
 3436W        W 7180   1.887   6.255   9.060
 3437W        W 7181   6.086   6.807   3.240
 3438W        W 7182   6.451   4.833  10.258
 3439W        W 7183   2.132   9.853   8.928
 3440W        W 7184   3.580   0.880  11.807
 3441W        W 7185   6.561   6.291   3.557
 3442W        W 7186   3.667   9.960  10.553
 3443W        W 7187   7.570   9.067   2.988
 3444W        W 7188   6.469   8.273   9.332
 3445W        W 7189   0.281   1.551   9.364
 3446W        W 7190   9.301   4.836   9.666
 3447W        W 7191   6.092   2.861   0.686
 3448W        W 7192   1.135   4.281   2.455
 3449W        W 7193   8.934   4.871   2.426
 3450W        W 7194   9.510   3.558   1.629
 3451W        W 7195   4.338   2.800   2.308
 3452W        W 7196   0.693   9.213  10.442
 3453W        W 7197   3.849   8.529   1.288
 3454W        W 7198   1.055   2.857   8.813
 3455W        W 7199   4.760   3.050   4.060
 3456W        W 7200   7.036   1.904   0.007
 3457W        W 7201   0.625   6.670   8.508
 3458W        W 7202   1.729   6.100   2.508
 3459W        W 7203   6.944   7.903   3.108
 3460W        W 7204   5.169   8.330   2.837
 3461W        W 7205   5.357   8.827   0.407
 3462W        W 7206   8.780   5.500   8.812
 3463W        W 7207   6.998   9.252  11.825
 3464W        W 7208  10.408  10.191   0.228
 3465W        W 7209   1.469   3.268   0.698
 3466W        W 7210   7.053   6.642   1.036
 3467W        W 7211  10.355   0.668   0.214
 3468W        W 7212   9.939   4.245   9.566
 3469W        W 7213   3.330   5.017  11.314
 3470W        W 7214   7.882   6.910   2.949
 3471W        W 7215   4.695   3.040   1.003
 3472W        W 7216   4.106   4.150  11.723
 3473W        W 7217   9.433   8.305   1.778
 3474W        W 7218   0.876   2.849   0.964
 3475W        W 7219   2.910   5.206   1.944
 3476W        W 7220   0.953   2.331   9.073
 3477W        W 7221   9.885   7.108  11.417
 3478W        W 7222   5.693   7.126  11.346
 3479W        W 7223  10.119   4.583   0.332
 3480W        W 7224   5.525  10.030   3.303
 3481W        W 7225   5.157   1.238   9.518
 3482W        W 7226   1.210   4.254   2.960
 3483W        W 7227   9.670   3.923   9.259
 3484W        W 7228   3.743   8.198  11.375
 3485W        W 7229   0.437   8.645  11.194
 3486W        W 7230  10.228   2.182   0.578
 3487W        W 7231   5.088   0.685  11.802
 3488W        W 7232   7.219   1.892  10.533
 3489W        W 7233   3.839   8.806   9.942
 3490W        W 7234   8.072   3.241   0.222
 3491W        W 7235   1.878   7.877   0.762
 3492W        W 7236   5.521   8.805   1.166
 3493W        W 7237   1.295   8.103  11.420
 3494W        W 7238   9.903   4.700   3.433
 3495W        W 7239   2.685   2.988   1.237
 3496W        W 7240   6.523   8.987   1.120
 3497W        W 7241   1.995   3.462   2.755
 3498W        W 7242   8.693   0.521  10.106
 3499W        W 7243   6.619   6.733   1.377
 3500W        W 7244   5.627   9.958  10.088
 3501W        W 7245   8.785   3.641  10.942
 3502W        W 7246  10.007   0.274   0.308
 3503W        W 7247   9.846   8.306   2.855
 3504W        W 7248   3.177   1.305   1.507
 3505W        W 7249   5.676   6.283   3.712
 3506W        W 7250   4.465   7.620   8.106
 3507W        W 7251   2.737   8.089  10.344
 3508W        W 7252   6.707   5.937  11.272
 3509W        W 7253   2.702  10.166   3.651
 3510W        W 7254   1.389  10.080  11.137
 3511W        W 7255   1.918   6.954   1.979
 3512W        W 7256   3.204   4.778   1.654
 3513W        W 7257   7.114   0.255   3.137
 3514W        W 7258   7.931   0.810  10.695
 3515W        W 7259   2.318   2.882   0.430
 3516W        W 7260   3.070   1.849  10.788
 3517W        W 7261   1.310   3.102   3.489
 3518W        W 7262   8.050   3.532   3.345
 3519W        W 7263  10.264   9.390   2.955
 3520W        W 7264   2.919   1.210  10.800
 3521W        W 7265   0.258   4.288   1.914
 3522W        W 7266   9.659  10.299   9.596
 3523W        W 7267   1.330   1.813  10.244
 3524W        W 7268   7.260   7.889   9.628
 3525W        W 7269   4.505   0.788   2.767
 3526W        W 7270   5.755   8.058   1.613
 3527W        W 7271   1.191   4.288  11.922
 3528W        W 7272   3.154   9.904  10.429
 3529W        W 7273   6.603   0.174   1.836
 3530W        W 7274   5.364   0.486   3.493
 3531W        W 7275   5.097   9.978   2.485
 3532W        W 7276   0.608   0.236  11.930
 3533W        W 7277   6.577   4.493  11.096
 3534W        W 7278   0.730   0.405  11.044
 3535W        W 7279   2.927   1.636  10.301
 3536W        W 7280   3.170   7.862   0.923
 3537W        W 7281   2.614   4.234  11.906
 3538W        W 7282   2.282   1.658  11.220
 3539W        W 7283   4.679   9.631   9.085
 3540W        W 7284   3.736   0.364   0.989
 3541W        W 7285   5.042   6.052   0.868
 3542W        W 7286   3.351   2.674  11.775
 3543W        W 7287   0.440   4.006   1.528
 3544W        W 7288   7.586   7.436  10.758
 3545W        W 7289   7.111   6.225  11.066
 3546W        W 7290   8.427   8.941   0.977
 3547W        W 7291   0.616   2.537   3.465
 3548W        W 7292   0.384   7.459  11.849
 3549W        W 7293   3.540   4.981  10.748
 3550W        W 7294   7.082   8.812   9.616
 3551W        W 7295   9.752   4.301   3.166
 3552W        W 7296   3.638   8.511  11.803
 3553W        W 7297   3.967   0.046   2.180
 3554W        W 7298   6.895   7.899   2.071
 3555W        W 7299   1.342   4.957  11.345
 3556W        W 7300   0.308   5.298  11.324
 3557W        W 7301   7.530   3.187   9.689
 3558W        W 7302  10.024   9.095   9.420
 3559W        W 7303   7.119   0.402   1.161
 3560W        W 7304   0.538   1.306   9.003
 3561W        W 7305   5.712   6.469   1.444
 3562W        W 7306   8.847   0.532  10.641
 3563W        W 7307   0.818   7.009  10.094
 3564W        W 7308   4.547   7.651  10.771
 3565W        W 7309   2.389   6.888   8.058
 3566W        W 7310   4.743   6.837   3.147
 3567W        W 7311   2.864   3.161  11.438
 3568W        W 7312  10.352   2.964   1.300
 3569W        W 7313   0.533   7.044   8.918
 3570W        W 7314   9.965   9.487   9.071
 3571W        W 7315   4.273   3.665   2.695
 3572W        W 7316   8.553   6.665   3.437
 3573W        W 7317   0.800   7.816   9.106
 3574W        W 7318   1.920   2.185   9.498
 3575W        W 7319   7.269   9.433   2.776
 3576W        W 7320   1.502   7.974   9.519
 3577W        W 7321   6.708   6.998  10.929
 3578W        W 7322   4.573   0.755  11.778
 3579W        W 7323   1.292   1.032  11.546
 3580W        W 7324   5.191   4.263   9.131
 3581W        W 7325   6.696   7.362  10.002
 3582W        W 7326   3.994   3.117   1.393
 3583W        W 7327   4.700   6.947   2.144
 3584W        W 7328   5.557   2.544  10.451
 3585W        W 7329   6.284   8.721   8.583
 3586W        W 7330   4.031   8.030   8.711
 3587W        W 7331   2.219   6.620   9.213
 3588W        W 7332  10.284   7.992   2.833
 3589W        W 7333   3.085   1.947   3.188
 3590W        W 7334  10.432   0.903  11.766
 3591W        W 7335   7.496  10.089   1.546
 3592W        W 7336   1.220   3.308   2.595
 3593W        W 7337   3.362   6.125   1.888
 3594W        W 7338   0.847   4.711   2.456
 3595W        W 7339   6.050   2.007  11.753
 3596W        W 7340   8.612   9.379   1.285
 3597W        W 7341   6.566   2.292   2.977
 3598W        W 7342   6.931   6.466  11.490
 3599W        W 7343   4.576   1.091   9.240
 3600W        W 7344   0.726   8.404   2.809
 3601W        W 7345   9.956   0.871   3.522
 3602W        W 7346   4.287   9.416  10.607
 3603W        W 7347   0.513   2.878   8.732
 3604W        W 7348   4.184   4.199   3.590
 3605W        W 7349   4.604  10.019   0.462
 3606W        W 7350   2.222   3.762   9.758
 3607W        W 7351   5.591   5.107   9.847
 3608W        W 7352   5.491   9.872  11.068
 3609W        W 7353   9.305   8.978   8.724
 3610W        W 7354   1.405   9.243   0.635
 3611W        W 7355   9.375   8.092  11.954
 3612W        W 7356   1.385  10.027   2.783
 3613W        W 7357   2.459   1.783   0.018
 3614W        W 7358   5.941   7.930   9.969
 3615W        W 7359   0.882  10.171   2.726
 3616W        W 7360   1.243   2.870   2.948
 3617W        W 7361   5.667   3.571   4.249
 3618W        W 7362   0.364   8.963  11.576
 3619W        W 7363   2.639   7.534  11.492
 3620W        W 7364   7.460  10.095  11.256
 3621W        W 7365   1.773   2.798   1.710
 3622W        W 7366   1.715   9.317   9.988
 3623W        W 7367  10.389   6.041   8.598
 3624W        W 7368   2.111   7.086   8.443
 3625W        W 7369  10.057   7.816  10.209
 3626W        W 7370   1.243   3.637  11.563
 3627W        W 7371   7.262   0.199   3.678
 3628W        W 7372   4.010   0.857  10.886
 3629W        W 7373   7.781   6.128  10.474
 3630W        W 7374   7.677   1.987   9.752
 3631W        W 7375   7.854   7.852   3.167
 3632W        W 7376   1.712   5.209  11.890
 3633W        W 7377   5.070   4.124   8.168
 3634W        W 7378   8.076   1.995  11.389
 3635W        W 7379   5.327   4.430   0.698
 3636W        W 7380   8.748   2.617   0.701
 3637W        W 7381   6.855   1.758   9.649
 3638W        W 7382   6.944   4.022  10.496
 3639W        W 7383   1.364   4.336   9.883
 3640W        W 7384   5.290   6.655   8.483
 3641W        W 7385  10.036   2.234  11.219
 3642W        W 7386   2.390   1.254   3.310
 3643W        W 7387   5.797   5.098   2.178
 3644W        W 7388   6.954   0.174   0.740
 3645W        W 7389  10.308   8.960   3.239
 3646W        W 7390  10.003   2.782   2.751
 3647W        W 7391   4.707   3.121  11.571
 3648W        W 7392   2.249   9.932   2.980
 3649W        W 7393  10.266   3.080  10.852
 3650W        W 7394   9.499   1.113  11.955
 3651W        W 7395   4.417   8.896  11.121
 3652W        W 7396   0.883   6.661   2.603
 3653W        W 7397   7.953   4.113   2.158
 3654W        W 7398   6.484   9.076   8.985
 3655W        W 7399   5.216   8.374   8.898
 3656W        W 7400   4.990  10.433   9.739
 3657W        W 7401   4.498   9.584   2.336
 3658W        W 7402   1.151   0.468   0.745
 3659W        W 7403   4.872   0.256  10.574
 3660W        W 7404   3.890   9.903   1.166
 3661W        W 7405   4.182   7.901  10.309
 3662W        W 7406   3.721   1.933  11.527
 3663W        W 7407  10.289   8.434   1.662
 3664W        W 7408   7.624   1.837   1.642
 3665W        W 7409   7.505   9.962  10.750
 3666W        W 7410   8.833   8.987   1.745
 3667W        W 7411   1.808   8.161  11.455
 3668W        W 7412   1.032   5.501   3.273
 3669W        W 7413   9.480   7.894   3.430
 3670W        W 7414   9.400   8.599  11.866
 3671W        W 7415   8.602   4.291  11.781
 3672W        W 7416   3.462  10.309   3.378
 3673W        W 7417   4.128   4.385  11.240
 3674W        W 7418   9.744   0.979   1.863
 3675W        W 7419   7.491   8.907   4.013
 3676W        W 7420   2.626   2.417   0.378
 3677W        W 7421   9.861   9.781  11.692
 3678W        W 7422   4.424   3.622   9.123
 3679W        W 7423   9.357   2.223   2.812
 3680W        W 7424   4.219   6.563   9.924
 3681W        W 7425   1.010   2.386   0.768
 3682W        W 7426   6.260   0.757   1.152
 3683W        W 7427   5.990   5.689  11.375
 3684W        W 7428   4.237   8.916  10.303
 3685W        W 7429   8.501   8.005   1.031
 3686W        W 7430   0.491   5.105   0.124
 3687W        W 7431   7.813   9.352   0.339
 3688W        W 7432   2.825   8.997   3.343
 3689W        W 7433   2.209   1.220   1.174
 3690W        W 7434   9.866   2.284   2.792
 3691W        W 7435   1.814   1.417   1.434
 3692W        W 7436   0.293   4.918  11.679
 3693W        W 7437   8.919   7.986   2.847
 3694W        W 7438   8.956   1.752   9.327
 3695W        W 7439   4.571   9.078   2.445
 3696W        W 7440   8.365   2.351   2.494
 3697W        W 7441   3.591   1.307   0.443
 3698W        W 7442   8.277   6.315   3.752
 3699W        W 7443   1.806   4.834  11.565
 3700W        W 7444   6.745   6.713   9.045
 3701W        W 7445   7.628   0.903   0.706
 3702W        W 7446   8.578   1.460  10.973
 3703W        W 7447   2.084   9.304  10.349
 3704W        W 7448   9.896   4.650   9.942
 3705W        W 7449   3.799   9.142  10.371
 3706W        W 7450   0.659   9.353   2.257
 3707W        W 7451   2.636   2.247  11.889
 3708W        W 7452   2.790   3.092   3.137
 3709W        W 7453   9.974   6.400   1.874
 3710W        W 7454   1.460   3.611   8.690
 3711W        W 7455   9.416   3.948  11.545
 3712W        W 7456   8.298   9.985  10.705
 3713W        W 7457   2.039   4.883   3.684
 3714W        W 7458   0.777   6.509   2.103
 3715W        W 7459   0.634   0.379   1.950
 3716W        W 7460   9.712   4.199   8.827
 3717W        W 7461   0.864   2.752  11.862
 3718W        W 7462   8.104   7.951  11.786
 3719W        W 7463   6.519   8.490  10.877
 3720W        W 7464   3.550   7.598   9.350
 3721W        W 7465   3.290   3.804   2.656
 3722W        W 7466   6.012   6.097  10.018
 3723W        W 7467  10.406   8.187  11.922
 3724W        W 7468   9.786   5.003   0.796
 3725W        W 7469   7.455   4.588  11.026
 3726W        W 7470   5.185   8.373  10.068
 3727W        W 7471  10.322   5.115  10.577
 3728W        W 7472  10.295   7.024   1.207
 3729W        W 7473   7.147   7.217  10.798
 3730W        W 7474   7.631   9.180   9.707
 3731W        W 7475   8.635   9.249   9.552
 3732W        W 7476   9.602   3.443   9.448
 3733W        W 7477   0.041   0.870   9.735
 3734W        W 7478   9.914   9.319   9.896
 3735W        W 7479   9.875   6.105   9.478
 3736W        W 7480   6.914  10.162  11.877
 3737W        W 7481   5.474   9.996   1.720
 3738W        W 7482   5.499   3.321   9.842
 3739W        W 7483   9.564   6.633   1.688
 3740W        W 7484   5.065   8.512  11.543
 3741W        W 7485   3.737  10.474  10.817
 3742W        W 7486   9.339   9.507   0.496
 3743W        W 7487   4.786   8.678   8.857
 3744W        W 7488   9.337  10.312  11.863
 3745W        W 7489   3.713   8.651   1.769
 3746W        W 7490  10.343   5.515   9.960
 3747W        W 7491   1.532   3.671   2.776
 3748W        W 7492   6.633   8.470   1.323
 3749W        W 7493   2.893   7.442   2.322
 3750W        W 7494   3.052   5.078  10.901
 3751W        W 7495   5.261   9.664   0.058
 3752W        W 7496   0.032   3.182   9.931
 3753W        W 7497   9.387   3.276   0.279
 3754W        W 7498   8.906   8.347   1.069
 3755W        W 7499   4.275   6.802   3.365
 3756W        W 7500   9.991   8.821   0.561
 3757W        W 7501   2.410   3.395   0.369
 3758W        W 7502   7.389   2.429   0.941
 3759W        W 7503   6.708   0.276   8.751
 3760W        W 7504   2.637   6.939   8.526
 3761W        W 7505   0.264   3.343   0.325
 3762W        W 7506   9.405   6.255   3.093
 3763W        W 7507   7.615   0.031   9.922
 3764W        W 7508   2.990   6.773   2.875
 3765W        W 7509   1.497   8.183   3.202
 3766W        W 7510   2.854   2.872   0.343
 3767W        W 7511   1.328   9.755   8.448
 3768W        W 7512   5.787   4.233   3.608
 3769W        W 7513   0.201   4.186   2.831
 3770W        W 7514   9.766   5.880  11.030
 3771W        W 7515   6.003  10.384   9.921
 3772W        W 7516   4.222   7.332   0.456
 3773W        W 7517   7.334   9.019   0.213
 3774W        W 7518  10.289   9.475   2.468
 3775W        W 7519   3.251   7.075  11.742
 3776W        W 7520   2.488   7.850  11.852
 3777W        W 7521   5.702   0.717  11.423
 3778W        W 7522   8.975   2.288   3.652
 3779W        W 7523   3.750   3.177  11.180
 3780W        W 7524   4.717   3.152   3.205
 3781W        W 7525   7.388   6.973   1.637
 3782W        W 7526   2.412   9.936   9.618
 3783W        W 7527   8.317   3.759  11.076
 3784W        W 7528   5.635   9.092   0.755
 3785W        W 7529   3.836   9.446   2.928
 3786W        W 7530   1.752   9.537  11.266
 3787W        W 7531   1.724   6.552   3.072
 3788W        W 7532   3.350   7.401   8.932
 3789W        W 7533   0.268   1.609   8.318
 3790W        W 7534   6.539   0.181  11.490
 3791W        W 7535   4.707   4.580  11.198
 3792W        W 7536   8.236   2.643   0.746
 3793W        W 7537   6.197   8.209   1.386
 3794W        W 7538   0.793   9.300  11.556
 3795W        W 7539   5.123   6.051   2.441
 3796W        W 7540   2.694   8.122  10.866
 3797W        W 7541   6.135   4.252   1.234
 3798W        W 7542   4.754   8.566  10.277
 3799W        W 7543   5.606   9.024  10.543
 3800W        W 7544   7.483   0.090  10.406
 3801W        W 7545   4.502   4.725  10.355
 3802W        W 7546   7.158   4.915   3.343
 3803W        W 7547   4.935   7.377   8.130
 3804W        W 7548   7.992   3.184   1.590
 3805W        W 7549   5.470  10.430   9.943
 3806W        W 7550   9.172   6.703   0.134
 3807W        W 7551   9.601   8.966   9.700
 3808W        W 7552   2.237   0.756   9.633
 3809W        W 7553   8.054   6.697  10.262
 3810W        W 7554   5.238   7.095   4.190
 3811W        W 7555   7.360   7.142  10.326
 3812W        W 7556   3.049   6.625  11.764
 3813W        W 7557   0.302   2.901   9.591
 3814W        W 7558   6.220   7.025   3.999
 3815W        W 7559   1.823   6.726   1.517
 3816W        W 7560   1.134   5.253   1.047
 3817W        W 7561   8.717   7.441   3.559
 3818W        W 7562   1.312   7.089  10.641
 3819W        W 7563   8.797  10.275   0.903
 3820W        W 7564   7.059   7.107   8.939
 3821W        W 7565   1.815   4.946   2.317
 3822W        W 7566   4.228   5.206  10.089
 3823W        W 7567   6.179   8.367   2.858
 3824W        W 7568   5.070   3.364   0.347
 3825W        W 7569   3.178   1.007   2.892
 3826W        W 7570  10.426   0.639   1.378
 3827W        W 7571   1.541   7.821   2.409
 3828W        W 7572   6.958   6.269   8.117
 3829W        W 7573   5.949   9.642  11.027
 3830W        W 7574   4.459   1.697   2.802
 3831W        W 7575   8.122   2.784   2.820
 3832W        W 7576   8.589   6.780   0.937
 3833W        W 7577   4.815   1.323   2.119
 3834W        W 7578   9.399  10.130   2.157
 3835W        W 7579   9.995  10.143   0.965
 3836W        W 7580   7.656   8.143   0.033
 3837W        W 7581   3.279   5.999   9.161
 3838W        W 7582   2.263   5.992  11.889
 3839W        W 7583   8.405   7.041  10.414
 3840W        W 7584   0.214   7.161   0.961
 3841W        W 7585   8.540   2.831   9.981
 3842W        W 7586   5.156   6.492   2.156
 3843W        W 7587   1.407   6.927   8.901
 3844W        W 7588   5.654   3.318   2.782
 3845W        W 7589   8.136   6.496   3.169
 3846W        W 7590   4.681   9.860  10.820
 3847W        W 7591   9.020   4.718   1.547
 3848W        W 7592   1.756   2.881   9.987
 3849W        W 7593   7.042   8.972   2.845
 3850W        W 7594   6.122   6.507  10.851
 3851W        W 7595   1.345   3.302   2.125
 3852W        W 7596   7.055   2.735  11.549
 3853W        W 7597   9.857  10.224  11.964
 3854W        W 7598   3.719   8.062   9.526
 3855W        W 7599   3.132   1.423   2.022
 3856W        W 7600   6.475   0.214   0.457
 3857W        W 7601   5.091   1.770  10.748
 3858W        W 7602   2.291   5.563  11.495
 3859W        W 7603   5.373   5.704   8.578
 3860W        W 7604   2.245   7.378   9.709
 3861W        W 7605   6.147   8.083  11.080
 3862W        W 7606   1.868   7.610   9.470
 3863W        W 7607   6.962   3.496   2.550
 3864W        W 7608   1.882   4.527   1.413
 3865W        W 7609   0.336   0.956   2.680
 3866W        W 7610   0.915   5.072   9.967
 3867W        W 7611   0.462   4.833  10.109
 3868W        W 7612   4.640   5.375  11.192
 3869W        W 7613   5.118   3.812   0.132
 3870W        W 7614   4.317   4.599  10.822
 3871W        W 7615   5.594   3.316   2.277
 3872W        W 7616   2.143   9.762  10.542
 3873W        W 7617   7.635   9.605   1.660
 3874W        W 7618   4.113   6.043   0.991
 3875W        W 7619  10.323   1.789  11.466
 3876W        W 7620   8.952   2.887   1.453
 3877W        W 7621   0.588   5.911   1.434
 3878W        W 7622   7.411   0.536   9.471
 3879W        W 7623   8.502   3.898   3.295
 3880W        W 7624   9.071   2.244  11.465
 3881W        W 7625   9.352   4.629  10.113
 3882W        W 7626   1.945   9.207   2.816
 3883W        W 7627   1.793   0.897   9.351
 3884W        W 7628   9.438   1.278  10.930
 3885W        W 7629   8.570   4.585  11.328
 3886W        W 7630   8.468   2.737   8.942
 3887W        W 7631   8.884   2.096   3.158
 3888W        W 7632   7.111   7.949   8.526
 3889W        W 7633   1.958   7.685   2.690
 3890W        W 7634   9.901   0.660   0.979
 3891W        W 7635   1.175   4.038   1.444
 3892W        W 7636   5.727   1.285  10.771
 3893W        W 7637   8.049   7.850  11.258
 3894W        W 7638   2.279   5.245   3.418
 3895W        W 7639   7.973   9.793   9.259
 3896W        W 7640   2.668   8.968  10.977
 3897W        W 7641  10.486   1.858  11.965
 3898W        W 7642   9.432   8.600   2.736
 3899W        W 7643   3.225   4.701   3.602
 3900W        W 7644   9.749   0.857  11.013
 3901W        W 7645   7.152   6.696  10.762
 3902W        W 7646   9.057   0.723   0.759
 3903W        W 7647   9.968   9.979  10.799
 3904W        W 7648   5.246   9.707  10.384
 3905W        W 7649   7.502   8.572   3.165
 3906W        W 7650   5.710   6.457   0.931
 3907W        W 7651   1.395   9.546  10.887
 3908W        W 7652   9.818   3.764   9.800
 3909W        W 7653   7.088   0.037   9.045
 3910W        W 7654   6.472   6.646  11.217
 3911W        W 7655   1.747   6.189  11.870
 3912W        W 7656   5.252   4.460  11.019
 3913W        W 7657   5.688   4.212   2.150
 3914W        W 7658   5.565   5.088   3.129
 3915W        W 7659   1.946   3.240   9.670
 3916W        W 7660   6.149   3.333  11.427
 3917W        W 7661   6.374   7.743   1.283
 3918W        W 7662   5.632   0.265   0.397
 3919W        W 7663   3.279   4.987   4.030
 3920W        W 7664   8.196   6.673   2.230
 3921W        W 7665   1.073   3.535   1.481
 3922W        W 7666   4.799   9.474   3.176
 3923W        W 7667  10.445   0.001  10.177
 3924W        W 7668   9.299   4.043   2.486
 3925W        W 7669   8.426   1.864   2.360
 3926W        W 7670   3.690   4.011   1.385
 3927W        W 7671   1.052   7.099   9.645
 3928W        W 7672   9.682   4.745  10.472
 3929W        W 7673   2.803   1.205   0.770
 3930W        W 7674   2.276   8.316  11.562
 3931W        W 7675   8.031   8.456  11.762
 3932W        W 7676   1.830   9.988   1.641
 3933W        W 7677   6.532   9.353  10.350
 3934W        W 7678   9.632   3.788  10.610
 3935W        W 7679  10.486   0.818  11.245
 3936W        W 7680   1.236   1.398   2.278
 3937W        W 7681   9.437   2.679   1.477
 3938W        W 7682   4.869  10.250   2.993
 3939W        W 7683   4.125   2.692   9.066
 3940W        W 7684   9.454  10.038   2.672
 3941W        W 7685   5.610   6.639   8.923
 3942W        W 7686   8.072   2.881  10.721
 3943W        W 7687   1.790   2.769  11.802
 3944W        W 7688   3.630   0.906   2.697
 3945W        W 7689   8.503   8.928  10.307
 3946W        W 7690   0.280   4.193   9.231
 3947W        W 7691   1.538   1.422   8.943
 3948W        W 7692   4.952   2.239  11.884
 3949W        W 7693   8.600  10.481  10.881
 3950W        W 7694   2.137   1.079  10.052
 3951W        W 7695   0.971   6.987   2.102
 3952W        W 7696   8.041   0.683   1.730
 3953W        W 7697   7.301   6.206  10.354
 3954W        W 7698   9.274   0.633   3.530
 3955W        W 7699  10.496   5.079   9.722
 3956W        W 7700   8.815   5.086  10.513
 3957W        W 7701   9.037   4.563   8.772
 3958W        W 7702   4.915   3.690   8.398
 3959W        W 7703   4.967   5.685   0.287
 3960W        W 7704   2.384   0.348   2.771
 3961W        W 7705   9.695   9.022   3.509
 3962W        W 7706  10.440   8.578  10.093
 3963W        W 7707   6.333  10.340   2.753
 3964W        W 7708   4.249   5.344  10.580
 3965W        W 7709   7.077   3.357  11.234
 3966W        W 7710   1.445   1.660   0.214
 3967W        W 7711   7.441   5.209   9.339
 3968W        W 7712   3.304   0.444   1.292
 3969W        W 7713   1.222   3.664   1.013
 3970W        W 7714   7.095   6.116   9.078
 3971W        W 7715   5.978   2.104   9.149
 3972W        W 7716   9.860   1.841   9.384
 3973W        W 7717   0.866   1.693   2.544
 3974W        W 7718   3.319   9.573  11.813
 3975W        W 7719   6.584   0.502   0.865
 3976W        W 7720   3.352   3.944   3.130
 3977W        W 7721   3.403   5.410   3.210
 3978W        W 7722   7.225   4.115  11.818
 3979W        W 7723   1.216   6.112  11.871
 3980W        W 7724   0.862   9.618   9.522
 3981W        W 7725   7.166   7.516   2.367
 3982W        W 7726   9.401   3.658   1.128
 3983W        W 7727   3.921   9.699   0.697
 3984W        W 7728   5.524   1.698   2.996
 3985W        W 7729   3.270   4.875   0.559
 3986W        W 7730   5.076   4.064  10.747
 3987W        W 7731   8.046   5.383   1.250
 3988W        W 7732   4.509   4.126   9.410
 3989W        W 7733   5.342   9.764  11.560
 3990W        W 7734   7.479   9.617  10.042
 3991W        W 7735   6.876   9.387  10.723
 3992W        W 7736   0.194   6.179   0.814
 3993W        W 7737   2.640   5.660   9.924
 3994W        W 7738   3.174   4.201   1.259
 3995W        W 7739  10.217   6.854   9.386
 3996W        W 7740   9.618   7.414   0.828
 3997W        W 7741   7.067   5.238   0.283
 3998W        W 7742   5.923   0.817   9.950
 3999W        W 7743   8.117   8.444   2.594
 4000W        W 7744   6.591   6.682   2.247
 4001W        W 7745   6.875   4.832   9.944
 4002W        W 7746   3.859   3.070   9.249
 4003W        W 7747   1.751   2.235  11.354
 4004W        W 7748   6.838  10.344   2.498
 4005W        W 7749   1.386  10.383  10.255
 4006W        W 7750   5.945   4.744  10.339
 4007W        W 7751   4.932   7.876   8.267
 4008W        W 7752   8.384   3.624   8.423
 4009W        W 7753  10.301   0.765   8.730
 4010W        W 7754   9.036   2.534   1.830
 4011W        W 7755   2.901   4.617   4.095
 4012W        W 7756   4.656   6.469   2.337
 4013W        W 7757   5.048   7.164   1.330
 4014W        W 7758   0.696   6.164   0.940
 4015W        W 7759   9.545   0.056   0.269
 4016W        W 7760   2.894   3.726  10.538
 4017W        W 7761   3.234   8.319  11.515
 4018W        W 7762   7.875   2.420  10.506
 4019W        W 7763   0.858   1.370   0.917
 4020W        W 7764   9.501   1.831   0.942
 4021W        W 7765   7.193   2.624   2.521
 4022W        W 7766   1.440   8.460   1.047
 4023W        W 7767   3.110   2.497   0.600
 4024W        W 7768   7.555   6.135   2.715
 4025W        W 7769   5.633   1.146   1.268
 4026W        W 7770   7.028   9.649   0.818
 4027W        W 7771   9.616   7.193  10.086
 4028W        W 7772   5.941   6.713   4.302
 4029W        W 7773   4.605   3.222  10.815
 4030W        W 7774  10.059   0.995   1.422
 4031W        W 7775   0.398   8.933   1.573
 4032W        W 7776   2.718   7.885   1.197
 4033W        W 7777  10.378   8.514   0.742
 4034W        W 7778   9.953   5.439   1.765
 4035W        W 7779   6.669   5.280  11.975
 4036W        W 7780   5.065   7.891  10.281
 4037W        W 7781   9.923   4.990  10.867
 4038W        W 7782   9.844   1.438  10.184
 4039W        W 7783   4.242   4.435   9.088
 4040W        W 7784   5.600   9.489  10.719
 4041W        W 7785   4.516   6.002   0.682
 4042W        W 7786   7.647   5.601   3.949
 4043W        W 7787   2.153   0.370   9.971
 4044W        W 7788   6.473  10.004   2.407
 4045W        W 7789   5.221   9.446   0.659
 4046W        W 7790   9.669   9.807  11.207
 4047W        W 7791   7.939   0.298  10.556
 4048W        W 7792   0.803   7.929  11.518
 4049W        W 7793  10.316  10.313   1.931
 4050W        W 7794   5.695   3.584  10.925
 4051W        W 7795   2.306   5.053  11.620
 4052W        W 7796  10.071   5.701   2.186
 4053W        W 7797   4.718   2.735   9.801
 4054W        W 7798   6.039   7.210   3.561
 4055W        W 7799   7.573   6.653  10.451
 4056W        W 7800   1.673   8.651  11.485
 4057W        W 7801   5.977   7.132   1.883
 4058W        W 7802   8.725   1.820   3.575
 4059W        W 7803   4.478   7.950   8.491
 4060W        W 7804   8.524   6.203   9.120
 4061W        W 7805   3.404   4.623   8.650
 4062W        W 7806   8.373   9.260   0.054
 4063W        W 7807   1.350   6.366   2.726
 4064W        W 7808  10.196   4.125   2.918
 4065W        W 7809   7.464   5.830   0.805
 4066W        W 7810  10.479   1.737   2.507
 4067W        W 7811   2.931   2.059   9.475
 4068W        W 7812   0.078   1.604   1.826
 4069W        W 7813   4.062   6.919  10.301
 4070W        W 7814   6.761   4.590   3.268
 4071W        W 7815   7.171   2.654   1.368
 4072W        W 7816   4.861   2.825   2.309
 4073W        W 7817   4.885   9.520   2.673
 4074W        W 7818   5.140   4.677  11.483
 4075W        W 7819   8.967   0.412   1.415
 4076W        W 7820   4.012   7.539   3.039
 4077W        W 7821   1.823   3.232   1.996
 4078W        W 7822   1.561   9.558   2.979
 4079W        W 7823   7.122   7.878  11.462
 4080W        W 7824   1.280   4.266   0.422
 4081W        W 7825   9.352   8.533   8.986
 4082W        W 7826   0.816   3.833  11.784
 4083W        W 7827   0.699   7.097   0.739
 4084W        W 7828   3.360   8.831   3.271
 4085W        W 7829   9.633  10.383   3.533
 4086W        W 7830   1.188   2.875   0.521
 4087W        W 7831   6.937   9.967  11.369
 4088W        W 7832   2.315   3.843   2.671
 4089W        W 7833   4.947   4.200   0.941
 4090W        W 7834   4.643   4.938   9.903
 4091W        W 7835   2.896   1.182   3.341
 4092W        W 7836   8.988   8.405   2.572
 4093W        W 7837   3.291   2.381  10.125
 4094W        W 7838   1.789   6.249  11.328
 4095W        W 7839   4.622   7.626  10.274
 4096W        W 7840   6.488   3.037  10.509
 4097W        W 7841   7.340   1.040   9.416
 4098W        W 7842   7.052   7.454   9.386
 4099W        W 7843   4.087  10.109   0.358
 4100W        W 7844   8.390   1.981  10.970
 4101W        W 7845   5.667   1.139   0.733
 4102W        W 7846   8.181   6.628   1.619
 4103W        W 7847   9.390   3.107  11.264
 4104W        W 7848   0.290   7.828   0.265
 4105W        W 7849   0.304   1.743   8.886
 4106W        W 7850   4.458   1.042  10.999
 4107W        W 7851   7.490   2.711   1.803
 4108W        W 7852   8.337   0.923   9.234
 4109W        W 7853   4.688   3.024   0.111
 4110W        W 7854   5.864   2.394   0.047
 4111W        W 7855   7.376   5.024  11.361
 4112W        W 7856   7.455   3.246   1.870
 4113W        W 7857   1.230   7.454   2.176
 4114W        W 7858   4.171   0.763  10.394
 4115W        W 7859   6.735   1.465  11.946
 4116W        W 7860   2.647   3.877  11.486
 4117W        W 7861   6.948   0.975   0.271
 4118W        W 7862   1.447   8.668  10.517
 4119W        W 7863   8.312   9.805  10.189
 4120W        W 7864   8.046   6.022   0.008
 4121W        W 7865   1.887   8.536  11.044
 4122W        W 7866   9.771   9.838   9.815
 4123W        W 7867   3.771   1.821   9.022
 4124W        W 7868   4.450   8.098   0.086
 4125W        W 7869   5.179   9.408   1.163
 4126W        W 7870   1.371  10.265   9.758
 4127W        W 7871   6.539   3.641   3.223
 4128W        W 7872   2.810   8.564  10.631
 4129W        W 7873   5.542   6.406  11.117
 4130W        W 7874   7.049   8.661   1.110
 4131W        W 7875   5.122   8.955   0.861
 4132W        W 7876  10.175  10.296   1.428
 4133W        W 7877   1.407   9.102   2.739
 4134W        W 7878   4.636   5.478   1.874
 4135W        W 7879   1.285   8.456   8.748
 4136W        W 7880   4.479  10.455  11.430
 4137W        W 7881  10.405   3.627   2.154
 4138W        W 7882   8.071   7.501   9.599
 4139W        W 7883   4.056   6.824  11.534
 4140W        W 7884   7.394   7.589   3.212
 4141W        W 7885  10.057   6.852   2.424
 4142W        W 7886   2.812   4.519  10.478
 4143W        W 7887   6.105   0.197  11.758
 4144W        W 7888   0.450   0.440   2.446
 4145W        W 7889   2.782   5.525   0.750
 4146W        W 7890   4.589  10.335  10.548
 4147W        W 7891   6.163   0.315   8.805
 4148W        W 7892   5.658  10.395   1.460
 4149W        W 7893   6.926   3.799  10.043
 4150W        W 7894   2.867   8.856   2.818
 4151W        W 7895   7.575   5.264   1.387
 4152W        W 7896   2.311   5.667   0.495
 4153W        W 7897   9.444   7.623  11.048
 4154W        W 7898   7.418   9.065   2.445
 4155W        W 7899   8.659   2.405  11.881
 4156W        W 7900   8.971   5.899   9.899
 4157W        W 7901   8.971  10.016   1.768
 4158W        W 7902   3.720   8.094  10.461
 4159W        W 7903   3.299   2.144   0.911
 4160W        W 7904   0.037   2.892   0.818
 4161W        W 7905   0.741   2.905   1.484
 4162W        W 7906   4.155   8.837   9.434
 4163W        W 7907   3.610   8.057   9.030
 4164W        W 7908   1.603   2.269   2.307
 4165W        W 7909   0.285   5.977   3.175
 4166W        W 7910   4.785  10.373  11.005
 4167W        W 7911   0.213   6.096   2.668
 4168W        W 7912   0.910   5.515   9.723
 4169W        W 7913   5.065   6.519   2.655
 4170W        W 7914   1.925   9.887   9.422
 4171W        W 7915   7.998   8.842   9.575
 4172W        W 7916   5.127   1.316  10.020
 4173W        W 7917   4.793   2.046   1.002
 4174W        W 7918   6.621   4.251   2.314
 4175W        W 7919   2.733   0.692   1.509
 4176W        W 7920   3.342   8.583   2.832
 4177W        W 7921   6.131   0.470  11.289
 4178W        W 7922   7.761   0.424  11.006
 4179W        W 7923   2.520   6.987   0.840
 4180W        W 7924   9.964   5.498   8.973
 4181W        W 7925   8.099   3.032  11.724
 4182W        W 7926   5.504   0.762   2.516
 4183W        W 7927   5.555   7.300   0.670
 4184W        W 7928   2.248   8.611   2.816
 4185W        W 7929   3.299   3.714   1.184
 4186W        W 7930   7.232   3.892   8.965
 4187W        W 7931   2.779   8.530   9.676
 4188W        W 7932   6.073   3.841  10.697
 4189W        W 7933   7.673   4.218   3.535
 4190W        W 7934   2.415   4.793   3.134
 4191W        W 7935   0.316   1.240  11.259
 4192W        W 7936   8.020   7.398  11.030
 4193W        W 7937   6.477   5.862  10.391
 4194W        W 7938   0.267   9.517  10.073
 4195W        W 7939   5.043   6.654  11.256
 4196W        W 7940   2.161   6.033   2.797
 4197W        W 7941   9.243   9.030   0.938
 4198W        W 7942   0.075   3.733   9.419
 4199W        W 7943   2.213   3.307   2.327
 4200W        W 7944   7.083   1.127   3.337
 4201W        W 7945   3.221   7.680   2.694
 4202W        W 7946   9.437   5.065   2.336
 4203W        W 7947   8.699   1.764  10.599
 4204W        W 7948   3.179   5.578  10.994
 4205W        W 7949   1.803   0.292   2.572
 4206W        W 7950  10.008   2.735   2.233
 4207W        W 7951   6.741   4.834   1.288
 4208W        W 7952   3.054   8.799  11.473
 4209W        W 7953   8.796   8.911  11.474
 4210W        W 7954   2.133   8.989  10.920
 4211W        W 7955   5.883   7.661   0.542
 4212W        W 7956   8.482   8.114   3.099
 4213W        W 7957   3.625   5.622   0.313
 4214W        W 7958   4.986   6.876   0.875
 4215W        W 7959   2.308   9.355   1.656
 4216W        W 7960   2.619   2.395  11.402
 4217W        W 7961   2.865   5.091   9.855
 4218W        W 7962   8.011   2.359   9.541
 4219W        W 7963   6.717   2.321   9.763
 4220W        W 7964   0.989   8.329   3.256
 4221W        W 7965   8.877   4.609   9.829
 4222W        W 7966   1.878   6.526   0.566
 4223W        W 7967   3.429   8.179   1.835
 4224W        W 7968   4.288  10.277   1.867
 4225W        W 7969   3.363   5.768  10.557
 4226W        W 7970   6.044   1.689  10.274
 4227W        W 7971   1.384   3.729   1.849
 4228W        W 7972   3.414   9.593   0.686
 4229W        W 7973   7.095   6.570   3.299
 4230W        W 7974   5.421   2.023   1.703
 4231W        W 7975   2.122   4.664   0.532
 4232W        W 7976   4.973   1.436   3.468
 4233W        W 7977   9.277   8.462  10.411
 4234W        W 7978   8.555   8.068   1.525
 4235W        W 7979   3.783   3.188   1.871
 4236W        W 7980   0.237   6.463   9.428
 4237W        W 7981   6.012   1.732  10.766
 4238W        W 7982   3.704   4.893   3.157
 4239W        W 7983   2.111   1.324   0.185
 4240W        W 7984   2.748   2.377  10.804
 4241W        W 7985   7.985   1.338   0.494
 4242W        W 7986   6.975   4.192   0.268
 4243W        W 7987   5.612   0.478  11.892
 4244W        W 7988   2.290   6.720   1.274
 4245W        W 7989   9.793   9.280   0.359
 4246W        W 7990   4.069   8.990  10.770
 4247W        W 7991   7.189   1.862   2.976
 4248W        W 7992   6.994   8.410   9.256
 4249W        W 7993   8.864   4.068  11.401
 4250W        W 7994   2.253   4.462  10.327
 4251W        W 7995  10.034   5.554   0.880
 4252W        W 7996   6.929   7.132   1.468
 4253W        W 7997   3.094   5.011   9.372
 4254W        W 7998   8.072   8.903   2.832
 4255W        W 7999   9.197   0.574   2.274
 4256W        W 8000   5.657   0.393   9.221
 4257W        W 8001   2.706   3.607   9.129
 4258W        W 8002   8.947   1.464  10.231
 4259W        W 8003   0.687   9.281   2.756
 4260W        W 8004   7.882   5.063   3.227
 4261W        W 8005   0.782   1.839   1.254
 4262W        W 8006   6.616   8.554   3.201
 4263W        W 8007   7.461   3.422   2.398
 4264W        W 8008  10.495   5.568   0.218
 4265W        W 8009   4.670   5.522   1.366
 4266W        W 8010   3.180   5.136  11.886
 4267W        W 8011   3.301   0.458   9.576
 4268W        W 8012   7.622   4.749  10.348
 4269W        W 8013   4.351   4.927  11.284
 4270W        W 8014   1.595   8.836  10.040
 4271W        W 8015   6.012   6.602  10.313
 4272W        W 8016   4.296   1.758  10.649
 4273W        W 8017   8.468   6.687  10.976
 4274W        W 8018   0.289   8.642  11.983
 4275W        W 8019   7.384  10.487   0.981
 4276W        W 8020   6.561   9.889   9.237
 4277W        W 8021   7.203   0.914   9.972
 4278W        W 8022   6.251   2.877   2.342
 4279W        W 8023   3.720   8.222   0.268
 4280W        W 8024   8.423   3.207   9.212
 4281W        W 8025  10.324   0.294   2.723
 4282W        W 8026   4.007   4.280   9.546
 4283W        W 8027   4.160   3.536   1.724
 4284W        W 8028   6.759   3.716   9.039
 4285W        W 8029   9.595   7.609  11.896
 4286W        W 8030   3.825   2.814   2.268
 4287W        W 8031   0.535   9.307   1.243
 4288W        W 8032   6.297   3.182   3.257
 4289W        W 8033   9.863   4.248  10.478
 4290W        W 8034   7.717   2.722  11.879
 4291W        W 8035   3.652   6.896   2.264
 4292W        W 8036   1.234   8.745   1.894
 4293W        W 8037   4.186   3.967   1.476
 4294W        W 8038   4.087   9.912   2.902
 4295W        W 8039   2.625   5.944  10.845
 4296W        W 8040   8.610   0.550   2.580
 4297W        W 8041   5.706   0.347   1.705
 4298W        W 8042   0.992   7.504  10.784
 4299W        W 8043   6.650   0.501   3.138
 4300W        W 8044   6.139   8.172   3.663
 4301W        W 8045   2.842   8.792   0.800
 4302W        W 8046   2.285   7.702   3.501
 4303W        W 8047   5.971   7.198   0.352
 4304W        W 8048   6.813   9.601   3.491
 4305W        W 8049   4.280   9.924  10.492
 4306W        W 8050   9.329   8.023   8.881
 4307W        W 8051   4.208   3.114  11.742
 4308W        W 8052   6.468   4.064   1.846
 4309W        W 8053   6.258   7.909  11.593
 4310W        W 8054   3.296   0.225   3.164
 4311W        W 8055   4.237   8.121  11.308
 4312W        W 8056   1.364   5.796  10.465
 4313W        W 8057   5.843   1.870   1.423
 4314W        W 8058   2.119   5.131  10.794
 4315W        W 8059   7.956   2.281   0.448
 4316W        W 8060   5.698   9.338   3.570
 4317W        W 8061   8.503   2.747   1.694
 4318W        W 8062   4.142  10.401  11.891
 4319W        W 8063   8.763   6.606  11.801
 4320W        W 8064   6.925   0.441   0.278
 4321W        W 8065   0.372   1.459   2.686
 4322W        W 8066   0.228   6.038   9.007
 4323W        W 8067   2.818   0.353   1.078
 4324W        W 8068   3.853   3.871   0.503
 4325W        W 8069   2.978   7.904  11.702
 4326W        W 8070   3.962   8.290  10.037
 4327W        W 8071   2.718   6.878  10.733
 4328W        W 8072   4.094   0.070   9.956
 4329W        W 8073   3.778   9.544   8.982
 4330W        W 8074   2.783   8.056   0.190
 4331W        W 8075   4.663   2.036   9.522
 4332W        W 8076   5.988   5.006   0.950
 4333W        W 8077   2.647   6.605  11.431
 4334W        W 8078   6.622   0.254   2.655
 4335W        W 8079   2.687   2.299   9.077
 4336W        W 8080   0.422   1.718   2.206
 4337W        W 8081   9.812   7.966   0.208
 4338W        W 8082   2.629   8.023  11.362
 4339W        W 8083   9.940   7.940   3.204
 4340W        W 8084   4.453   2.395  11.043
 4341W        W 8085  10.404   8.950   1.747
 4342W        W 8086   2.738   5.920   3.924
 4343W        W 8087   8.864   8.752   0.748
 4344W        W 8088   4.086   7.997   2.829
 4345W        W 8089   5.666   6.234   1.895
 4346W        W 8090  10.466   6.601  10.123
 4347W        W 8091   9.903   3.578   2.241
 4348W        W 8092   3.857   5.085   9.774
 4349W        W 8093   0.820   4.174   9.064
 4350W        W 8094   3.304   8.954   1.919
 4351W        W 8095   8.541   6.748   9.073
 4352W        W 8096   9.421   9.376  11.019
 4353W        W 8097   6.032  10.007   0.356
 4354W        W 8098   3.171  10.449  11.875
 4355W        W 8099   9.800   7.438   8.895
 4356W        W 8100   6.060   9.329   9.148
 4357W        W 8101   1.940   1.778   0.044
 4358W        W 8102   2.542   8.524   1.850
 4359W        W 8103   7.604   5.668  10.362
 4360W        W 8104   5.156   5.236  10.071
 4361W        W 8105  10.335   0.923   0.955
 4362W        W 8106   8.092   3.148   0.715
 4363W        W 8107   9.119   8.610   0.304
 4364W        W 8108   3.608   4.228   2.730
 4365W        W 8109   0.537   1.336   1.353
 4366W        W 8110   0.999   6.162  10.344
 4367W        W 8111   9.343   4.931  11.404
 4368W        W 8112   0.819   9.634   1.864
 4369W        W 8113   0.247   9.956   3.152
 4370W        W 8114   2.704   4.702  11.739
 4371W        W 8115   5.258   7.682   0.487
 4372W        W 8116   9.346   9.535   1.013
 4373W        W 8117   2.808   3.657   9.623
 4374W        W 8118   1.757   2.936   1.226
 4375W        W 8119   1.375   2.708   0.980
 4376W        W 8120   4.681   0.079   9.044
 4377W        W 8121   9.840   3.550   0.228
 4378W        W 8122   2.806   7.198   1.828
 4379W        W 8123   1.150   2.824  11.227
 4380W        W 8124   1.858   9.516   1.465
 4381W        W 8125   7.610   2.325   1.399
 4382W        W 8126   4.942   2.227  10.971
 4383W        W 8127  10.233   8.040   0.931
 4384W        W 8128   8.352   7.114   3.629
 4385W        W 8129   5.920   3.946   0.267
 4386W        W 8130   7.505   8.454   0.970
 4387W        W 8131   3.717   4.498   3.578
 4388W        W 8132   9.035   5.510  10.759
 4389W        W 8133   0.541   5.749  11.525
 4390W        W 8134   6.101   2.867   0.175
 4391W        W 8135   1.632   4.130  10.267
 4392W        W 8136   4.352   2.194   1.900
 4393W        W 8137   3.404  10.065   9.537
 4394W        W 8138   3.831   2.631   1.405
 4395W        W 8139   9.698   0.174  11.769
 4396W        W 8140   9.860   8.779   3.044
 4397W        W 8141   5.471   7.248   1.985
 4398W        W 8142   2.115   3.958  10.219
 4399W        W 8143   7.986   5.618   0.335
 4400W        W 8144   2.337   7.880  10.600
 4401W        W 8145   2.265   5.528  10.469
 4402W        W 8146   8.614   5.766   2.222
 4403W        W 8147   4.897   0.795   3.148
 4404W        W 8148   0.432   2.218   3.102
 4405W        W 8149   8.185   4.734   0.676
 4406W        W 8150   3.656   1.423   1.984
 4407W        W 8151   0.957   0.073   3.513
 4408W        W 8152   8.112   8.498   2.104
 4409W        W 8153   2.843   4.520   2.401
 4410W        W 8154   0.754   3.111   0.284
 4411W        W 8155   2.812   3.780   2.841
 4412W        W 8156   9.506   9.008   2.300
 4413W        W 8157   8.688   6.732   2.356
 4414W        W 8158   6.435   4.140   9.194
 4415W        W 8159   7.174   9.227   8.727
 4416W        W 8160   9.988   5.127   9.627
 4417W        W 8161   3.155  10.480   2.734
 4418W        W 8162   6.886   5.504   2.551
 4419W        W 8163   3.658   1.362   2.952
 4420W        W 8164   3.824   9.026   9.049
 4421W        W 8165   6.979   3.166   1.702
 4422W        W 8166   0.813   8.939   9.901
 4423W        W 8167   3.396   3.099  11.520
 4424W        W 8168   4.029   7.536   1.762
 4425W        W 8169   0.349   6.608   1.825
 4426W        W 8170   9.393   4.402  11.342
 4427W        W 8171   3.189   5.350   0.402
 4428W        W 8172   6.238   3.946   3.531
 4429W        W 8173   4.720   7.090   0.128
 4430W        W 8174   4.727   3.501  11.953
 4431W        W 8175   5.624   1.762   9.008
 4432W        W 8176   8.837   4.752   3.424
 4433W        W 8177   1.371   5.237   9.803
 4434W        W 8178   8.371   3.249   9.735
 4435W        W 8179   7.930   9.120  11.071
 4436W        W 8180   0.797   1.215   2.807
 4437W        W 8181   3.281   8.817   9.261
 4438W        W 8182   7.561   2.005   0.672
 4439W        W 8183   7.497   8.275   8.542
 4440W        W 8184   7.444   7.882   0.434
 4441W        W 8185   8.501   6.535  10.452
 4442W        W 8186   0.665   6.856   9.387
 4443W        W 8187   5.630   5.071   9.333
 4444W        W 8188   5.963   1.289   3.212
 4445W        W 8189   5.110   0.804   8.719
 4446W        W 8190   5.632   0.027   3.438
 4447W        W 8191   5.950   7.333   0.965
 4448W        W 8192   1.253   9.903   1.809
 4449W        W 8193   6.911   5.164   2.941
 4450W        W 8194   7.931   9.738   9.795
 4451W        W 8195   6.393   6.951   0.517
 4452W        W 8196   9.418   9.957   8.951
 4453W        W 8197   9.797   4.677  11.452
 4454W        W 8198   5.934   2.804   3.268
 4455W        W 8199   4.656  10.089   8.867
 4456W        W 8200   4.430   3.644   8.612
 4457W        W 8201   8.961   6.593   3.132
 4458W        W 8202   4.702   6.917   2.643
 4459W        W 8203   2.705   7.471   3.346
 4460W        W 8204   5.660   0.784   0.319
 4461W        W 8205   3.370   5.946   4.035
 4462W        W 8206   9.705   5.695   1.384
 4463W        W 8207   1.782   4.613  10.203
 4464W        W 8208   9.172   9.805  11.158
 4465W        W 8209   7.923   8.947   2.324
 4466W        W 8210   7.007   2.183   9.327
 4467W        W 8211   4.785   1.771   0.503
 4468W        W 8212   4.802   7.327   2.955
 4469W        W 8213   1.348   1.262   9.392
 4470W        W 8214   9.856   0.002   1.770
 4471W        W 8215  10.236   5.160   8.684
 4472W        W 8216   7.624   6.575   9.556
 4473W        W 8217   2.211   2.212   0.145
 4474W        W 8218   8.471   2.902   0.350
 4475W        W 8219   8.307   6.541   0.580
 4476W        W 8220   5.634   5.678   2.752
 4477W        W 8221   5.174   4.361  10.355
 4478W        W 8222   6.409   2.197   8.875
 4479W        W 8223   3.273   9.114   0.797
 4480W        W 8224   4.326   3.386  10.396
 4481W        W 8225   4.880   1.545   1.209
 4482W        W 8226   7.529   1.835  11.812
 4483W        W 8227   8.106   3.973   3.601
 4484W        W 8228   3.629   2.726   9.534
 4485W        W 8229   2.828   4.332  11.406
 4486W        W 8230   9.423   1.906   9.075
 4487W        W 8231   3.408   4.441   4.005
 4488W        W 8232   9.262   3.288  10.331
 4489W        W 8233   7.769   3.228  10.978
 4490W        W 8234   1.374   5.588   1.972
 4491W        W 8235   1.840   8.192   2.235
 4492W        W 8236   7.914   3.712  10.791
 4493W        W 8237   5.294   4.669   2.682
 4494W        W 8238   1.862   7.118   0.039
 4495W        W 8239   6.930   1.297   1.257
 4496W        W 8240   5.441   7.434  11.680
 4497W        W 8241   1.754   4.613   9.171
 4498W        W 8242   8.634   4.188  10.037
 4499W        W 8243   5.152   8.013  11.352
 4500W        W 8244  10.221   6.675   2.910
 4501W        W 8245   4.717  10.170   1.209
 4502W        W 8246  10.247   7.272   2.155
 4503W        W 8247   4.613   3.260   0.564
 4504W        W 8248   1.878   4.734   2.817
 4505W        W 8249   0.220   7.486   3.273
 4506W        W 8250   3.944   9.910  11.901
 4507W        W 8251   8.093   8.249   1.667
 4508W        W 8252   9.385   7.153   8.689
 4509W        W 8253   3.164   0.895   9.366
 4510W        W 8254   1.967   3.256   0.546
 4511W        W 8255   5.912   2.116   9.655
 4512W        W 8256   5.229   7.539   8.534
 4513W        W 8257   6.776   8.890  11.451
 4514W        W 8258   9.064   3.174   3.388
 4515W        W 8259  10.105   2.210   1.135
 4516W        W 8260   1.361   7.119   0.902
 4517W        W 8261   8.600   2.169   8.746
 4518W        W 8262   7.313   2.211   1.793
 4519W        W 8263   8.519   0.244   1.236
 4520W        W 8264  10.385   0.850   9.222
 4521W        W 8265   0.790   2.964   3.660
 4522W        W 8266   9.856   6.632   3.321
 4523W        W 8267   3.832   5.680   2.685
 4524W        W 8268   8.484  10.201   1.863
 4525W        W 8269   8.622   4.158  10.949
 4526W        W 8270   4.166   9.873   8.871
 4527W        W 8271   1.129   2.325   2.183
 4528W        W 8272   6.899   7.602   8.901
 4529W        W 8273   1.451   3.114   9.584
 4530W        W 8274   2.799  10.413  11.065
 4531W        W 8275   8.251   5.973  10.452
 4532W        W 8276   6.686   1.553   1.691
 4533W        W 8277   3.806   8.614  10.433
 4534W        W 8278   4.244   0.337   0.715
 4535W        W 8279   2.469   7.664  11.024
 4536W        W 8280   3.215   2.993   2.888
 4537W        W 8281   1.762   0.208   2.075
 4538W        W 8282   8.488   6.188   8.564
 4539W        W 8283   7.501   2.162   0.202
 4540W        W 8284   6.936   7.447  11.704
 4541W        W 8285   3.292   6.501   9.972
 4542W        W 8286   6.048   3.785  11.742
 4543W        W 8287   2.075   4.752  11.158
 4544W        W 8288   2.421   5.096   1.914
 4545W        W 8289   3.233   7.902  10.387
 4546W        W 8290   0.728   7.902   0.537
 4547W        W 8291  10.242   7.026  10.299
 4548W        W 8292   2.031   5.041   9.477
 4549W        W 8293   4.642   5.094   1.099
 4550W        W 8294   2.306   0.701  11.506
 4551W        W 8295   4.072   9.085   2.588
 4552W        W 8296   7.139   9.322   9.765
 4553W        W 8297   9.859   6.122   3.371
 4554W        W 8298   9.678  10.448   9.091
 4555W        W 8299   7.442   7.463   8.952
 4556W        W 8300   5.707   4.158  11.846
 4557W        W 8301   6.587   7.577   3.207
 4558W        W 8302  10.091   5.601  11.303
 4559W        W 8303   8.977   8.855   2.820
 4560W        W 8304   2.379   3.663  10.560
 4561W        W 8305   5.667   0.315   2.250
 4562W        W 8306   0.235  10.434  11.699
 4563W        W 8307  10.378   1.650   3.441
 4564W        W 8308   0.309   0.140   0.700
 4565W        W 8309   3.284   3.821   1.683
 4566W        W 8310   7.116   9.020  10.450
 4567W        W 8311   7.368   7.154   1.140
 4568W        W 8312   4.593   6.142   2.719
 4569W        W 8313   8.673   6.974  11.393
 4570W        W 8314   5.990   8.607  11.045
 4571W        W 8315   1.240   3.174   1.152
 4572W        W 8316   8.200   9.398   2.265
 4573W        W 8317   6.482   4.070   0.341
 4574W        W 8318   3.181   9.840   1.944
 4575W        W 8319   2.654   7.672   9.058
 4576W        W 8320   0.714   4.329  11.718
 4577W        W 8321   4.223   9.100  11.580
 4578W        W 8322   7.962   7.506   9.089
 4579W        W 8323   3.285   1.258  11.980
 4580W        W 8324   8.177   6.589   8.722
 4581W        W 8325   3.548   1.403  11.551
 4582W        W 8326   3.926   9.616  10.284
 4583W        W 8327   1.670   2.759  11.297
 4584W        W 8328   5.369   9.560   2.490
 4585W        W 8329   9.198  10.308   9.258
 4586W        W 8330   7.278   8.492   0.280
 4587W        W 8331   8.025  10.123   0.858
 4588W        W 8332   9.512   2.819  10.380
 4589W        W 8333   5.130   0.352  10.123
 4590W        W 8334   7.338   8.533   2.287
 4591W        W 8335   7.149   5.040   2.501
 4592W        W 8336   3.111  10.437  10.448
 4593W        W 8337   2.443   3.295   9.763
 4594W        W 8338   2.427   5.580   2.711
 4595W        W 8339   7.861   5.544   3.494
 4596W        W 8340  10.388   6.548   3.407
 4597W        W 8341   7.799   8.784  11.439
 4598W        W 8342   7.859   3.170   2.613
 4599W        W 8343   2.307   0.240   0.369
 4600W        W 8344   0.797   3.969   0.697
 4601W        W 8345   3.859   4.081  10.024
 4602W        W 8346   1.350   6.512  11.545
 4603W        W 8347   6.699   2.311   1.221
 4604W        W 8348   1.229   1.541  11.694
 4605W        W 8349   2.228   9.979   3.499
 4606W        W 8350   9.479   7.043   0.478
 4607W        W 8351   1.345   2.320   1.725
 4608W        W 8352  10.315   9.244   0.429
 4609W        W 8353   0.147   1.748   3.032
 4610W        W 8354   4.666   3.618  11.473
 4611W        W 8355   5.085   1.764   9.754
 4612W        W 8356   7.705   3.596   1.591
 4613W        W 8357   1.157   0.571  11.913
 4614W        W 8358   5.403   7.952   9.111
 4615W        W 8359   9.608   2.325   8.814
 4616W        W 8360   2.251   6.716   3.347
 4617W        W 8361   2.733   7.061  11.634
 4618W        W 8362   6.117   6.566   2.397
 4619W        W 8363   4.464   4.371   0.200
 4620W        W 8364   6.892   0.679   2.584
 4621W        W 8365   5.234   3.027   1.610
 4622W        W 8366   1.315   2.384   2.736
 4623W        W 8367   0.157   5.188   0.547
 4624W        W 8368   7.010   2.695   9.522
 4625W        W 8369   3.581   6.387   3.113
 4626W        W 8370   0.087   7.952   9.373
 4627W        W 8371   1.429   8.906   1.446
 4628W        W 8372   1.681   4.054   0.166
 4629W        W 8373   6.687   7.492  10.759
 4630W        W 8374  10.041   2.633   8.853
 4631W        W 8375   9.871  10.075   8.721
 4632W        W 8376   8.959   9.633  10.315
 4633W        W 8377   3.663   3.105   0.951
 4634W        W 8378   0.867   4.077   9.943
 4635W        W 8379   2.353   4.242  11.224
 4636W        W 8380   1.890   6.401   1.105
 4637W        W 8381   9.067   5.013   1.962
 4638W        W 8382   0.733   1.371  11.546
 4639W        W 8383   3.315   9.261   9.024
 4640W        W 8384   5.410   7.588  11.194
 4641W        W 8385   6.965   2.357  11.196
 4642W        W 8386   5.405   8.543   2.418
 4643W        W 8387   9.336  10.280  11.326
 4644W        W 8388   3.811   1.344   2.463
 4645W        W 8389   5.393   3.616   8.168
 4646W        W 8390   6.446   9.518   2.375
 4647W        W 8391   2.874   3.219   2.096
 4648W        W 8392   5.703   8.815   3.545
 4649W        W 8393   8.535   6.100  11.312
 4650W        W 8394   1.023   1.357   0.411
 4651W        W 8395  10.463   9.612   0.105
 4652W        W 8396   0.226   1.116  10.264
 4653W        W 8397   3.970   6.620   1.958
 4654W        W 8398   3.415   5.180   1.944
 4655W        W 8399   2.755   7.199  10.321
 4656W        W 8400   6.271   1.717   1.128
 4657W        W 8401   6.644   9.075   3.222
 4658W        W 8402   4.100   9.184   0.197
 4659W        W 8403   2.355   1.249   9.583
 4660W        W 8404   4.276   0.349  11.705
 4661W        W 8405   7.451   4.954   4.063
 4662W        W 8406   7.797  10.267   9.072
 4663W        W 8407   0.684   6.813   0.294
 4664W        W 8408   8.052   6.135  11.515
 4665W        W 8409   6.230   7.008  11.967
 4666W        W 8410   7.179   1.414  10.288
 4667W        W 8411   0.805   2.605   0.336
 4668W        W 8412   0.935   4.783  10.440
 4669W        W 8413   9.442   8.983  10.667
 4670W        W 8414   6.057   2.866  11.242
 4671W        W 8415   3.219   1.895   2.681
 4672W        W 8416   6.445   5.469  11.294
 4673W        W 8417   3.895   3.150  10.285
 4674W        W 8418   2.855   8.282   0.895
 4675W        W 8419   4.537   3.166   8.420
 4676W        W 8420   4.575   4.083   8.384
 4677W        W 8421   8.005   6.075  11.006
 4678W        W 8422   8.218   7.450  11.911
 4679W        W 8423   8.154   1.176   9.645
 4680W        W 8424   9.360   6.294   2.478
 4681W        W 8425   7.453   3.598   9.371
 4682W        W 8426   1.198   8.884   9.087
 4683W        W 8427   0.701   4.347  11.214
 4684W        W 8428   8.350   8.950   2.017
 4685W        W 8429   7.836   0.914   0.237
 4686W        W 8430  10.445   7.084   2.660
 4687W        W 8431   4.008   1.660   0.841
 4688W        W 8432   4.376   3.984   4.035
 4689W        W 8433   8.685   9.949   0.517
 4690W        W 8434   9.452   3.279   8.958
 4691W        W 8435   0.203   1.435   0.286
 4692W        W 8436   8.395   4.778   1.163
 4693W        W 8437   3.237   9.395   1.662
 4694W        W 8438   2.440   9.105   8.604
 4695W        W 8439   5.168   6.972   2.877
 4696W        W 8440   9.561   1.049   9.456
 4697W        W 8441   4.091   8.743  11.939
 4698W        W 8442   7.630   3.066  11.460
 4699W        W 8443   6.338   6.932   1.012
 4700W        W 8444   5.256   8.042   1.778
 4701W        W 8445   0.056   6.870   2.211
 4702W        W 8446   9.691   5.948   0.933
 4703W        W 8447   3.650   4.374  11.560
 4704W        W 8448   9.867   3.872  11.820
 4705W        W 8449   4.618   2.660   8.305
 4706W        W 8450   7.710   5.430   9.943
 4707W        W 8451   7.615   7.896  11.567
 4708W        W 8452   8.373  10.222  11.303
 4709W        W 8453   0.926   2.110  10.978
 4710W        W 8454   7.568   6.056   1.737
 4711W        W 8455   4.880   8.174   1.370
 4712W        W 8456   4.070   1.632   3.161
 4713W        W 8457   1.622   0.321  11.720
 4714W        W 8458   4.188   5.757   1.837
 4715W        W 8459   7.482   1.770  10.989
 4716W        W 8460   7.747   6.352  10.020
 4717W        W 8461   7.060   3.244   8.450
 4718W        W 8462   3.706   6.031   9.930
 4719W        W 8463   1.365   2.895  10.323
 4720W        W 8464   2.382   8.359   0.052
 4721W        W 8465   8.131   7.634   0.812
 4722W        W 8466   3.623   6.387   2.240
 4723W        W 8467   2.672   6.469   3.147
 4724W        W 8468   5.275   0.418  11.400
 4725W        W 8469   0.336   8.382   2.423
 4726W        W 8470   3.718   2.331  10.875
 4727W        W 8471   5.112   8.477   1.980
 4728W        W 8472   5.215   0.344   2.478
 4729W        W 8473   4.186   5.619   9.774
 4730W        W 8474   3.760   5.444  10.653
 4731W        W 8475   0.467   2.958   2.653
 4732W        W 8476   9.293   4.363   2.913
 4733W        W 8477   2.239   6.197   3.272
 4734W        W 8478   8.999   4.562  11.595
 4735W        W 8479   7.028   5.203  11.043
 4736W        W 8480   7.998   5.506  11.825
 4737W        W 8481   2.626   9.952  11.411
 4738W        W 8482  10.138  10.211   3.555
 4739W        W 8483   8.910   9.839   9.024
 4740W        W 8484   4.672  10.045   2.197
 4741W        W 8485   5.560   9.384  11.247
 4742W        W 8486   3.155   8.633  10.984
 4743W        W 8487   9.563   6.566   0.657
 4744W        W 8488   2.631  10.458  10.567
 4745W        W 8489   2.138   2.578   1.110
 4746W        W 8490   7.002   1.403   2.911
 4747W        W 8491   8.395   9.392   1.764
 4748W        W 8492   4.784   4.476  10.009
 4749W        W 8493   9.380   7.917   1.478
 4750W        W 8494   3.542   7.945   9.973
 4751W        W 8495   5.962   4.180   1.710
 4752W        W 8496   9.859   2.989  11.563
 4753W        W 8497   6.880   3.220  10.790
 4754W        W 8498   8.872   9.888   8.512
 4755W        W 8499  10.383   6.123  10.290
 4756W        W 8500   2.309   0.327   0.913
 4757W        W 8501   0.709   5.997  11.935
 4758W        W 8502   6.011   5.208  11.132
 4759W        W 8503  10.324   3.650   9.869
 4760W        W 8504   5.760   8.947  11.468
 4761W        W 8505   9.962   6.393  10.081
 4762W        W 8506   4.891   1.164  11.750
 4763W        W 8507   9.919   4.382  11.902
 4764W        W 8508   8.890   7.184   9.492
 4765W        W 8509   4.728   0.383   0.550
 4766W        W 8510   7.420   5.289   3.077
 4767W        W 8511   3.924  10.082   9.585
 4768W        W 8512   8.755   0.921  10.980
 4769W        W 8513   1.401   5.512   1.399
 4770W        W 8514   6.660   1.500   0.838
 4771W        W 8515   0.956   7.696   1.364
 4772W        W 8516  10.286   7.522  11.451
 4773W        W 8517   3.628   9.870   2.652
 4774W        W 8518   5.909   2.423   0.921
 4775W        W 8519   2.165   4.027  11.655
 4776W        W 8520   3.154   8.039   1.423
 4777W        W 8521   1.306   2.815   2.448
 4778W        W 8522   7.050   8.436   2.902
 4779W        W 8523   2.245   3.053   0.948
 4780W        W 8524   7.888   9.941   0.297
 4781W        W 8525   7.013   8.592  10.152
 4782W        W 8526   6.123   8.841   0.795
 4783W        W 8527   9.441   3.773   8.755
 4784W        W 8528   3.215   3.626   2.158
 4785W        W 8529   8.514   9.764  11.946
 4786W        W 8530   5.686   8.538  10.419
 4787W        W 8531   9.092   9.290   2.478
 4788W        W 8532   2.544   0.945  11.917
 4789W        W 8533   1.181  10.363   3.115
 4790W        W 8534   5.629   5.980   2.335
 4791W        W 8535   1.474   8.142  10.528
 4792W        W 8536   9.518   4.561   1.500
 4793W        W 8537   5.955   8.439   2.338
 4794W        W 8538   5.866   8.891   0.344
 4795W        W 8539   4.281   1.884   0.471
 4796W        W 8540   6.059   9.827   9.116
 4797W        W 8541   8.889   1.210   0.782
 4798W        W 8542   4.649   4.995   2.134
 4799W        W 8543   6.699   1.138  10.557
 4800W        W 8544   3.382   3.176   9.090
 4801W        W 8545   8.136   9.335   8.805
 4802W        W 8546   3.742   2.312  10.336
 4803W        W 8547   7.403   7.073   2.158
 4804W        W 8548   8.975   3.732   3.374
 4805W        W 8549   5.064   9.450  11.247
 4806W        W 8550   7.509   0.002   8.363
 4807W        W 8551   0.765   3.824   1.185
 4808W        W 8552   5.460   6.865  10.135
 4809W        W 8553   2.948   7.707  11.094
 4810W        W 8554   9.872   0.287   9.533
 4811W        W 8555   6.794   3.707   0.134
 4812W        W 8556   4.984   7.409   1.832
 4813W        W 8557   9.394   6.039   3.565
 4814W        W 8558   7.446   9.821   2.512
 4815W        W 8559  10.122   8.475  11.396
 4816W        W 8560   5.504   2.195   9.336
 4817W        W 8561   3.315   5.484   2.374
 4818W        W 8562   1.461   4.652   3.161
 4819W        W 8563   7.740   5.636   9.473
 4820W        W 8564   0.683   8.329  10.360
 4821W        W 8565  10.290   1.146   0.413
 4822W        W 8566   4.750   9.626   0.141
 4823W        W 8567   8.855   6.353  10.129
 4824W        W 8568   0.269  10.157   0.869
 4825W        W 8569   6.390   2.726   8.990
 4826W        W 8570   4.969   6.628  11.772
 4827W        W 8571   2.656   7.665   9.574
 4828W        W 8572   5.581   0.791   9.542
 4829W        W 8573   9.984   7.396  11.004
 4830W        W 8574   6.788   4.213   8.814
 4831W        W 8575  10.343   9.536  11.615
 4832W        W 8576   3.156   8.113   3.015
 4833W        W 8577   8.434   9.763   8.773
 4834W        W 8578   3.219   5.491  11.505
 4835W        W 8579   0.584   7.598   2.679
 4836W        W 8580   9.340   5.369   2.744
 4837W        W 8581   3.361   9.408  10.436
 4838W        W 8582   7.709   1.967   8.486
 4839W        W 8583   5.474   6.707  11.543
 4840W        W 8584   6.900   6.965   9.463
 4841W        W 8585   0.397   1.589   0.924
 4842W        W 8586  10.204   0.679   1.852
 4843W        W 8587   1.846   8.630   1.330
 4844W        W 8588   3.086   5.195   3.592
 4845W        W 8589   3.808   1.867  10.589
 4846W        W 8590   0.874   9.466  10.868
 4847W        W 8591   0.149   0.441   9.992
 4848W        W 8592   4.277   1.675   0.002
 4849W        W 8593   5.440   7.771   9.956
 4850W        W 8594   0.432   8.757  10.521
 4851W        W 8595   7.134   5.968  11.556
 4852W        W 8596   0.363   9.472  10.823
 4853W        W 8597   3.584   0.663   3.227
 4854W        W 8598   0.116   8.250   1.216
 4855W        W 8599   4.153   5.541  11.051
 4856W        W 8600   9.858   1.581   3.331
 4857W        W 8601   7.616   2.742  10.873
 4858W        W 8602   5.567   3.134   0.706
 4859W        W 8603   3.207   2.990   0.713
 4860W        W 8604   3.619   4.897  11.714
 4861W        W 8605   2.392   9.475   3.306
 4862W        W 8606   5.704   3.429  10.306
 4863W        W 8607   0.755   9.765  11.737
 4864W        W 8608   8.530   2.869  10.992
 4865W        W 8609   4.812   2.550   0.247
 4866W        W 8610   9.925   3.823   3.212
 4867W        W 8611   5.503   1.415   3.426
 4868W        W 8612   4.195   5.007   3.007
 4869W        W 8613   3.593   8.140   2.584
 4870W        W 8614   0.864  10.362   9.006
 4871W        W 8615   7.491   0.912   1.985
 4872W        W 8616   9.365   8.724   3.223
 4873W        W 8617  10.156   9.875  11.291
 4874W        W 8618   0.463   3.917   9.676
 4875W        W 8619   1.253   1.435   2.786
 4876W        W 8620   0.982   7.492   0.911
 4877W        W 8621   5.628   3.820  11.446
 4878W        W 8622   7.077   8.322   0.721
 4879W        W 8623   3.828   0.418  11.977
 4880W        W 8624   6.020   0.192  10.394
 4881W        W 8625   6.312   5.145   1.333
 4882W        W 8626   7.905   2.365  11.042
 4883W        W 8627   8.912   0.950  10.340
 4884W        W 8628   3.609   5.258   0.696
 4885W        W 8629   3.738   7.900  10.950
 4886W        W 8630   4.947   9.368   2.201
 4887W        W 8631   1.110   4.107   9.498
 4888W        W 8632   4.172   9.247   2.109
 4889W        W 8633   6.515   6.511   0.274
 4890W        W 8634   7.018   3.027  10.340
 4891W        W 8635   3.112  10.294   0.361
 4892W        W 8636   4.929   4.230   0.385
 4893W        W 8637   5.184  10.437   9.241
 4894W        W 8638   0.837   2.428   1.263
 4895W        W 8639   0.506   3.462  11.436
 4896W        W 8640   2.427   9.049   3.020
 4897W        W 8641   0.652   2.184   2.245
 4898W        W 8642   5.398   0.296   1.274
 4899W        W 8643   0.157   2.247   9.832
 4900W        W 8644   0.018   3.120   3.423
 4901W        W 8645   6.264   4.740  10.752
 4902W        W 8646   4.388   5.368  11.642
 4903W        W 8647   2.421   0.262   1.423
 4904W        W 8648   3.803   2.148   0.852
 4905W        W 8649   2.877   8.540   0.336
 4906W        W 8650   6.598   3.241   2.310
 4907W        W 8651   2.383   7.915   1.581
 4908W        W 8652   9.704   7.480   3.193
 4909W        W 8653   8.113   5.498  10.274
 4910W        W 8654   2.402   2.178   3.328
 4911W        W 8655   1.897   1.168   2.969
 4912W        W 8656   4.408   0.298  10.320
 4913W        W 8657   9.402   6.229   1.970
 4914W        W 8658   4.796   1.756  11.980
 4915W        W 8659   9.139   9.921   0.752
 4916W        W 8660   6.423   7.243   1.395
 4917W        W 8661   3.776   5.661   0.944
 4918W        W 8662   8.391   5.691  11.027
 4919W        W 8663   6.605   8.767   9.389
 4920W        W 8664   0.491   3.104  11.852
 4921W        W 8665   3.737   6.502   0.948
 4922W        W 8666   0.887   5.802  11.148
 4923W        W 8667   9.558   3.107   3.291
 4924W        W 8668   7.583   4.517   1.802
 4925W        W 8669   9.587   0.616   9.806
 4926W        W 8670   0.317   8.949  10.046
 4927W        W 8671   7.545   8.463  10.923
 4928W        W 8672   1.854   5.445   9.183
 4929W        W 8673   1.768   3.627   2.311
 4930W        W 8674   5.193   0.177  11.859
 4931W        W 8675   1.885   5.622   2.697
 4932W        W 8676   7.648   6.985  11.424
 4933W        W 8677   8.379   1.894   3.228
 4934W        W 8678  10.336   5.141  11.113
 4935W        W 8679   2.330   7.346  10.623
 4936W        W 8680   9.006   1.985   1.715
 4937W        W 8681   5.995   3.302  11.914
 4938W        W 8682   7.166   2.121   1.265
 4939W        W 8683   4.582   2.248   9.030
 4940W        W 8684   6.112  10.364  11.336
 4941W        W 8685   2.653  10.212   2.148
 4942W        W 8686   3.352   7.869  11.326
 4943W        W 8687   4.334   6.261   1.963
 4944W        W 8688   1.570   7.873   3.604
 4945W        W 8689   9.883   0.883   9.064
 4946W        W 8690   4.591   8.842   0.827
 4947W        W 8691   2.790   8.377  11.753
 4948W        W 8692   7.983   0.222   1.972
 4949W        W 8693   3.192   5.732   3.578
 4950W        W 8694   0.256   6.664   2.880
 4951W        W 8695   7.305   2.624   9.121
 4952W        W 8696   5.459   3.932   3.955
 4953W        W 8697   1.921   0.360   1.317
 4954W        W 8698   4.279   6.373  11.472
 4955W        W 8699   9.066   2.679  11.754
 4956W        W 8700   0.507   4.639   9.090
 4957W        W 8701   0.034   7.505   0.606
 4958W        W 8702   7.717   1.613  11.407
 4959W        W 8703   3.519   4.870   9.078
 4960W        W 8704   8.951   1.308   3.013
 4961W        W 8705   1.882   3.364   8.892
 4962W        W 8706   2.686   0.748   9.397
 4963W        W 8707   7.152   9.810   3.140
 4964W        W 8708   4.223  10.351   1.289
 4965W        W 8709   8.376   0.514   2.128
 4966W        W 8710   2.391   7.223   2.166
 4967W        W 8711   9.237   6.526  11.621
 4968W        W 8712  10.358   8.933  11.390
 4969W        W 8713   4.078   0.833  11.783
 4970W        W 8714   2.257   3.796   2.151
 4971W        W 8715   3.116   5.702   8.758
 4972W        W 8716   0.465   5.957   9.484
 4973W        W 8717   0.821   6.642   3.365
 4974W        W 8718   5.637   2.358   1.371
 4975W        W 8719   2.104   0.178   8.999
 4976W        W 8720   9.004   9.946   0.051
 4977W        W 8721   0.933   6.608   9.800
 4978W        W 8722  10.471   6.570   1.069
 4979W        W 8723   9.457   4.626  11.856
 4980W        W 8724   5.935   6.062  11.041
 4981W        W 8725   6.619   5.028   1.724
 4982W        W 8726   8.504   7.920  11.473
 4983W        W 8727   5.660   0.241   2.765
 4984W        W 8728   6.123   1.796   3.236
 4985W        W 8729   0.790   3.085   3.173
 4986W        W 8730   6.579  10.240  10.609
 4987W        W 8731   5.544   3.828   9.948
 4988W        W 8732   9.904   8.203   2.364
 4989W        W 8733   5.993   6.414   2.884
 4990W        W 8734   5.068  10.313   0.841
 4991W        W 8735   5.572   1.750  11.026
 4992W        W 8736   5.273   8.884   8.854
 4993W        W 8737   8.297   0.504  10.915
 4994W        W 8738   5.079   8.844   9.865
 4995W        W 8739   8.850   1.869  11.157
 4996W        W 8740   3.166  10.070   2.407
 4997W        W 8741   9.564   0.988  10.500
 4998W        W 8742   1.628   7.178   1.363
 4999W        W 8743   5.715   7.562   8.354
 5000W        W 8744   4.744   4.114  11.403
 5001W        W 8745   1.216  10.239   1.420
 5002W        W 8746   3.533  10.464   0.729
 5003W        W 8747   6.588   9.120   2.635
 5004W        W 8748   5.871  10.338   3.011
 5005W        W 8749   4.860   8.303   8.534
 5006W        W 8750   2.636   1.595   1.801
 5007W        W 8751   1.894   2.597   0.264
 5008W        W 8752   1.691   8.899   0.885
 5009W        W 8753   2.328   8.520   9.905
 5010W        W 8754   7.574   6.027  11.298
 5011W        W 8755   8.919   3.750  10.068
 5012W        W 8756   0.923   6.536  10.706
 5013W        W 8757   5.165   8.531   3.309
 5014W        W 8758   4.564   3.266   2.268
 5015W        W 8759   7.660   6.497   8.563
 5016W        W 8760   0.265   4.254  10.949
 5017W        W 8761   0.431   3.398   9.588
 5018W        W 8762   5.519   8.533  11.313
 5019W        W 8763   5.298   1.165   1.997
 5020W        W 8764   6.458   6.796   3.616
 5021W        W 8765   4.274   3.875   3.190
 5022W        W 8766   5.233   1.873  11.727
 5023W        W 8767   1.787   8.205   2.770
 5024W        W 8768   6.429   7.815   9.062
 5025W        W 8769   8.823   5.229   2.790
 5026W        W 8770  10.318   8.787  10.530
 5027W        W 8771   0.681   9.852   0.740
 5028W        W 8772   1.229   0.028   2.643
 5029W        W 8773   7.985   2.483  11.527
 5030W        W 8774   5.149   7.712   2.197
 5031W        W 8775   2.780   6.388   9.413
 5032W        W 8776   2.845   0.336   2.490
 5033W        W 8777   7.456   2.089   2.592
 5034W        W 8778   5.135   9.390   8.999
 5035W        W 8779   1.370   4.838   8.881
 5036W        W 8780   9.498   3.833   2.075
 5037W        W 8781   1.393   7.632  10.302
 5038W        W 8782   9.461   8.549  10.888
 5039W        W 8783   5.114   3.016   9.911
 5040W        W 8784   9.799   5.020   9.026
 5041W        W 8785   0.685   4.369   9.514
 5042W        W 8786   7.828   0.872   9.384
 5043W        W 8787   8.914   8.001   0.722
 5044W        W 8788   9.873   1.347  11.695
 5045W        W 8789   0.002   7.856  10.447
 5046W        W 8790   3.152   1.491   3.014
 5047W        W 8791   8.647   8.706  11.013
 5048W        W 8792  10.426   7.661  11.948
 5049W        W 8793   4.267   7.253  11.944
 5050W        W 8794   5.344   2.395   0.161
 5051W        W 8795   0.265   2.558  11.296
 5052W        W 8796   6.206   8.358   0.907
 5053W        W 8797   6.971   6.873   1.943
 5054W        W 8798   4.791   1.315   0.234
 5055W        W 8799   3.248   8.195   0.035
 5056W        W 8800   0.461   4.689   3.044
 5057W        W 8801   4.736   0.293   1.074
 5058W        W 8802   2.168   0.668  11.016
 5059W        W 8803   9.790   3.136   0.553
 5060W        W 8804   0.526   8.825   2.601
 5061W        W 8805   6.129   2.416   0.454
 5062W        W 8806   2.633   9.089  11.500
 5063W        W 8807   5.704   6.348   0.424
 5064W        W 8808   0.200   7.906  10.912
 5065W        W 8809   0.949   9.963  10.884
 5066W        W 8810   6.162   9.378   2.791
 5067W        W 8811   6.977   6.982   2.999
 5068W        W 8812  10.313   6.257  11.750
 5069W        W 8813   3.261   7.354  11.267
 5070W        W 8814   1.692   1.279   2.501
 5071W        W 8815   0.382   2.650   2.217
 5072W        W 8816   7.440   0.429   0.755
 5073W        W 8817  10.032   7.378   2.622
 5074W        W 8818   8.923   3.803   1.262
 5075W        W 8819   6.874   9.539   8.989
 5076W        W 8820   1.215   0.422  10.903
 5077W        W 8821   6.732   4.180   3.588
 5078W        W 8822   9.783   6.673  10.472
 5079W        W 8823   9.748   3.117   2.439
 5080W        W 8824   1.893   9.450   0.830
 5081W        W 8825   9.977   2.733  10.597
 5082W        W 8826   0.954  10.485   9.973
 5083W        W 8827   6.183   0.166   3.525
 5084W        W 8828   9.351   8.041   0.469
 5085W        W 8829   1.824  10.277   9.993
 5086W        W 8830   3.075   4.954  10.395
 5087W        W 8831   2.573   9.434  10.233
 5088W        W 8832   3.642   4.124  10.519
 5089W        W 8833   2.397   8.589   0.944
 5090W        W 8834   6.104   3.910   2.174
 5091W        W 8835   3.209   8.104  10.888
 5092W        W 8836  10.122   9.391   3.470
 5093W        W 8837   3.719   1.359   8.766
 5094W        W 8838   6.003   5.505   2.431
 5095W        W 8839   5.986   3.253   1.428
 5096W        W 8840   4.105   6.083  11.087
 5097W        W 8841   4.731   8.959  11.515
 5098W        W 8842   2.151   4.444   9.454
 5099W        W 8843   7.432   3.714   8.522
 5100W        W 8844   4.774   7.389   2.399
 5101W        W 8845   8.398   5.524   2.634
 5102W        W 8846   5.031   8.858  11.915
 5103W        W 8847   7.105   3.191   9.405
 5104W        W 8848   0.350   8.249   3.387
 5105W        W 8849   4.355   2.785  11.379
 5106W        W 8850   9.890   3.203   1.449
 5107W        W 8851   3.749   3.614   3.357
 5108W        W 8852   2.958   9.824   0.780
 5109W        W 8853   2.515   4.879   9.526
 5110W        W 8854   2.702   1.267   2.310
 5111W        W 8855   6.186   1.369  11.065
 5112W        W 8856   2.604   3.228  10.342
 5113W        W 8857   4.333   7.516   8.957
 5114W        W 8858   6.530   7.346   3.680
 5115W        W 8859   1.320   6.084   2.140
 5116W        W 8860   9.250   5.958  10.321
 5117W        W 8861   5.060   9.411   1.673
 5118W        W 8862   3.924   1.115   3.345
 5119W        W 8863   3.659   9.627   9.478
 5120W        W 8864   9.707   0.472   2.322
 5121W        W 8865   5.166   2.317  11.409
 5122W        W 8866   1.947   1.712   1.018
 5123W        W 8867   6.972   9.401   2.372
 5124W        W 8868   9.268  10.433   8.730
 5125W        W 8869   5.086   5.603   1.662
 5126W        W 8870   1.488   7.163   9.388
 5127W        W 8871   8.809   0.907   0.352
 5128W        W 8872   9.420   7.512   9.659
 5129W        W 8873   9.102   0.891   1.246
 5130W        W 8874   6.567   6.208   1.319
 5131W        W 8875   0.848   4.816  11.805
 5132W        W 8876   6.584   3.558  11.234
 5133W        W 8877   8.836   7.200   1.143
 5134W        W 8878   6.466   8.389  11.367
 5135W        W 8879   4.324   0.431   8.703
 5136W        W 8880   9.396   3.652  11.955
 5137W        W 8881   2.462   0.884   0.501
 5138W        W 8882   1.259   0.080   2.153
 5139W        W 8883   8.246  10.487   9.269
 5140W        W 8884   8.275   1.397   2.694
 5141W        W 8885   4.119   7.512   8.491
 5142W        W 8886   2.396   6.495  10.599
 5143W        W 8887   5.742   6.528   9.885
 5144W        W 8888   3.323   6.452   0.597
 5145W        W 8889   4.705   1.134   9.755
 5146W        W 8890   6.704   6.466  10.779
 5147W        W 8891   2.282   6.951  10.972
 5148W        W 8892   3.606   7.677   0.257
 5149W        W 8893   5.185   4.177  11.750
 5150W        W 8894   0.465   7.048   3.356
 5151W        W 8895   6.547   0.711  11.492
 5152W        W 8896   2.736   5.535   0.256
 5153W        W 8897   3.819   0.564   8.820
 5154W        W 8898   4.576   7.820   1.069
 5155W        W 8899   8.584   2.900  11.839
 5156W        W 8900   8.860   7.271   8.499
 5157W        W 8901   4.584   6.289   9.451
 5158W        W 8902  10.105  10.229   9.887
 5159W        W 8903   1.946   5.251  11.293
 5160W        W 8904  10.077   4.006   0.877
 5161W        W 8905   8.033   5.903   1.887
 5162W        W 8906   2.008  10.483   1.683
 5163W        W 8907   6.125   0.778   1.648
 5164W        W 8908   4.309   7.218   2.445
 5165W        W 8909   2.167   1.112   2.355
 5166W        W 8910   7.810   6.032   8.418
 5167W        W 8911   7.661   4.613   0.268
 5168W        W 8912   2.750   8.124   8.826
 5169W        W 8913   6.929   5.881   1.441
 5170W        W 8914   9.096   9.441   9.307
 5171W        W 8915   7.459   2.586   0.466
 5172W        W 8916   5.635   1.216   2.820
 5173W        W 8917   0.139   6.118  10.761
 5174W        W 8918   4.160   2.397  10.637
 5175W        W 8919   3.165   9.921   3.448
 5176W        W 8920   6.091   7.841   9.449
 5177W        W 8921   1.435   7.583   0.631
 5178W        W 8922   8.151   6.990  11.316
 5179W        W 8923   5.194   2.690  11.773
 5180W        W 8924   0.376   3.617  11.902
 5181W        W 8925   4.585   7.559   3.852
 5182W        W 8926   8.894   2.651   2.309
 5183W        W 8927   2.712   5.451  10.769
 5184W        W 8928   6.963   2.630   2.992
 5185W        W 8929   0.352   7.992  11.778
 5186W        W 8930  10.253   1.673   0.418
 5187W        W 8931   1.400   6.235   1.183
 5188W        W 8932   2.432   3.770   0.024
 5189W        W 8933   2.716   3.212   0.760
 5190W        W 8934   8.524   8.126   2.039
 5191W        W 8935   6.543   0.439   9.226
 5192W        W 8936   3.120   3.110  11.940
 5193W        W 8937   2.391   2.990  11.544
 5194W        W 8938   0.317   2.341   0.198
 5195W        W 8939   4.863   8.828   0.400
 5196W        W 8940   6.683   7.716   2.491
 5197W        W 8941   4.772   0.805  11.316
 5198W        W 8942   1.931   1.385  10.894
 5199W        W 8943   9.567   4.227  10.903
 5200W        W 8944   3.752   1.877  10.062
 5201W        W 8945   0.915  10.238  10.436
 5202W        W 8946   7.437   1.347   1.208
 5203W        W 8947   5.132   8.807  10.553
 5204W        W 8948   5.824   8.431   8.617
 5205W        W 8949   8.157   0.886   0.676
 5206W        W 8950   4.541   4.300   3.214
 5207W        W 8951   8.508  10.014   2.596
 5208W        W 8952  10.436   8.781   0.305
 5209W        W 8953   1.937   9.079   2.310
 5210W        W 8954   5.740   6.910  11.922
 5211W        W 8955   4.654   2.329   1.497
 5212W        W 8956   5.130   4.793   9.787
 5213W        W 8957   3.378   8.890  10.282
 5214W        W 8958   2.911   0.941   9.828
 5215W        W 8959   6.973   3.757  11.540
 5216W        W 8960   1.397   2.468   8.853
 5217W        W 8961   3.769   7.053   1.759
 5218W        W 8962  10.350   9.932   0.654
 5219W        W 8963   2.703  10.372   1.245
 5220W        W 8964   3.647   9.608   2.015
 5221W        W 8965   5.470   4.597  11.884
 5222W        W 8966   1.669   4.097   2.142
 5223W        W 8967  10.444   5.547   1.852
 5224W        W 8968   0.489   7.158   9.761
 5225W        W 8969   2.445   7.435   8.644
 5226W        W 8970   2.607   4.964  10.681
 5227W        W 8971   5.347   0.328   9.644
 5228W        W 8972   0.813   8.773  10.874
 5229W        W 8973   9.545   0.947   2.415
 5230W        W 8974   4.270   0.375   9.215
 5231W        W 8975   9.761   1.827   1.935
 5232W        W 8976   8.088   6.638   1.080
 5233W        W 8977   6.547   6.708  11.728
 5234W        W 8978   0.490   5.587   8.830
 5235W        W 8979   3.264   1.987   0.409
 5236W        W 8980   5.444   8.909  10.998
 5237W        W 8981   1.050   8.909   8.604
 5238W        W 8982   9.317   8.942  11.516
 5239W        W 8983   6.090   0.848   0.659
 5240W        W 8984   6.115   6.616   1.747
 5241W        W 8985   1.160   1.783   9.323
 5242W        W 8986   5.480   8.011   8.598
 5243W        W 8987   4.802   3.141   1.829
 5244W        W 8988  10.500   1.302   8.992
 5245W        W 8989   2.898   5.695   2.600
 5246W        W 8990   9.401   7.027   1.947
 5247W        W 8991   0.082   7.579   2.778
 5248W        W 8992   0.247   0.017   2.604
 5249W        W 8993   2.432   8.946  10.477
 5250W        W 8994   9.623   9.431   9.464
 5251W        W 8995   7.660   7.988   9.336
 5252W        W 8996   6.381   3.896   8.717
 5253W        W 8997   8.865   2.364  10.086
 5254W        W 8998   2.903   3.876   0.166
 5255W        W 8999   3.495   2.998   1.422
 5256W        W 9000   7.551  10.493   3.197
 5257W        W 9001   1.328   3.829   3.206
 5258W        W 9002   8.716   0.855   9.560
 5259W        W 9003   4.650   5.954   2.227
 5260W        W 9004   2.689   5.352   9.460
 5261W        W 9005   6.473   1.798  10.995
 5262W        W 9006   5.676   9.973  10.602
 5263W        W 9007   1.673   9.916   2.134
 5264W        W 9008   4.236   5.276   2.082
 5265W        W 9009   5.535   8.870  10.073
 5266W        W 9010   5.405   7.136   8.254
 5267W        W 9011   5.531   8.898  11.923
 5268W        W 9012   3.088   4.274   1.807
 5269W        W 9013   1.659   6.033   3.008
 5270W        W 9014   3.042   7.420   9.357
 5271W        W 9015   3.576   6.126   3.578
 5272W        W 9016   9.434   8.904   1.405
 5273W        W 9017   0.454  10.250   9.542
 5274W        W 9018   1.510   7.357   2.631
 5275W        W 9019   8.845   2.222   2.650
 5276W        W 9020   6.569   1.024   2.400
 5277W        W 9021   6.175  10.184   9.461
 5278W        W 9022   8.332   9.042  10.767
 5279W        W 9023   0.609   8.248   0.158
 5280W        W 9024   2.311   1.685   1.373
 5281W        W 9025   0.001   6.729   0.086
 5282W        W 9026   4.338   6.071   0.229
 5283W        W 9027   2.924   9.908   9.531
 5284W        W 9028   7.001   5.808   2.156
 5285W        W 9029   9.034   5.050  10.049
 5286W        W 9030  10.288   4.859   0.842
 5287W        W 9031   2.471   9.935   0.973
 5288W        W 9032   4.289   2.103   0.956
 5289W        W 9033   0.820   1.852   8.897
 5290W        W 9034   6.483   3.244   1.500
 5291W        W 9035   5.313   3.316   8.571
 5292W        W 9036   5.399   9.862   3.822
 5293W        W 9037   5.114   8.973   1.444
 5294W        W 9038   5.214   2.840   3.887
 5295W        W 9039   7.888   1.793   0.270
 5296W        W 9040   7.865   6.378   2.005
 5297W        W 9041   1.655   6.033  10.859
 5298W        W 9042   0.297   0.871   8.901
 5299W        W 9043   5.760   2.873   1.104
 5300W        W 9044   8.650   5.701   8.348
 5301W        W 9045   0.551   5.495   0.463
 5302W        W 9046   7.511   4.685   3.623
 5303W        W 9047   7.968   5.714   0.860
 5304W        W 9048   7.880   2.302   0.979
 5305W        W 9049   0.277  10.406  11.154
 5306W        W 9050   8.202   5.926   3.364
 5307W        W 9051   7.012   8.069  10.433
 5308W        W 9052   7.968  10.254   1.742
 5309W        W 9053   6.110  10.392   0.686
 5310W        W 9054   7.319   4.544   9.978
 5311W        W 9055   3.551   2.599   0.942
 5312W        W 9056   4.753   2.262   3.447
 5313W        W 9057   3.912   3.954   2.402
 5314W        W 9058   2.306   7.069  10.098
 5315W        W 9059   7.459  10.058   9.768
 5316W        W 9060   1.351   1.867   2.484
 5317W        W 9061   5.784   4.652   1.899
 5318W        W 9062   9.493   2.647  11.472
 5319W        W 9063   3.180   3.499   0.738
 5320W        W 9064   9.492   3.891   2.948
 5321W        W 9065   5.745   4.649   2.417
 5322W        W 9066   0.496   3.813   2.616
 5323W        W 9067   4.145   7.319  11.464
 5324W        W 9068   8.409   4.305   2.355
 5325W        W 9069   0.005   5.701   0.692
 5326W        W 9070   0.869   0.112   9.470
 5327W        W 9071   8.507   5.750  10.080
 5328W        W 9072  10.476   2.626  10.438
 5329W        W 9073   5.580   1.464   1.694
 5330W        W 9074   8.919   6.426   8.847
 5331W        W 9075   7.909   4.931   1.080
 5332W        W 9076   7.555   4.420   4.047
 5333W        W 9077   3.783   5.405   2.226
 5334W        W 9078  10.293   1.384  11.967
 5335W        W 9079   8.993   8.376   2.057
 5336W        W 9080   5.558   3.936   9.072
 5337W        W 9081   8.069   9.370   1.353
 5338W        W 9082   8.911   4.168   9.530
 5339W        W 9083   9.043   8.609   9.967
 5340W        W 9084   3.772   3.098   8.736
 5341W        W 9085   7.024   6.931   2.475
 5342W        W 9086   5.479  10.044   8.609
 5343W        W 9087   7.652   9.276  11.456
 5344W        W 9088   9.216   6.993   1.470
 5345W        W 9089   0.144   5.071   2.877
 5346W        W 9090   6.760   6.535   9.771
 5347W        W 9091   9.795   9.279   3.092
 5348W        W 9092   9.556   6.964   2.596
 5349W        W 9093   4.215   6.373  10.638
 5350W        W 9094   3.805   0.517   1.995
 5351W        W 9095   5.845   3.264   8.556
 5352W        W 9096   8.537   4.320   0.297
 5353W        W 9097   8.589   5.192  10.951
 5354W        W 9098   0.292   5.089   9.309
 5355W        W 9099   5.517   6.160   9.237
 5356W        W 9100   9.357   0.055   2.530
 5357W        W 9101   7.146   8.962   1.500
 5358W        W 9102   9.364   4.651   3.352
 5359W        W 9103   5.052   6.004  10.586
 5360W        W 9104   1.401   4.613   1.657
 5361W        W 9105   9.191  10.467   1.188
 5362W        W 9106   0.279   3.169   1.460
 5363W        W 9107   6.993   0.703  11.832
 5364W        W 9108   0.288   3.628   1.210
 5365W        W 9109   0.897   6.523  11.879
 5366W        W 9110   0.497   3.578   0.750
 5367W        W 9111   0.564   9.625  11.258
 5368W        W 9112   3.310   1.784   9.267
 5369W        W 9113   1.425  10.474  10.758
 5370W        W 9114   5.000   1.978   1.448
 5371W        W 9115   4.894   8.069   3.178
 5372W        W 9116   3.223   2.291   9.123
 5373W        W 9117   5.408   5.613  10.484
 5374W        W 9118  10.359   4.011   1.324
 5375W        W 9119   7.582   5.326   0.883
 5376W        W 9120   1.984   6.385  10.284
 5377W        W 9121   6.978   4.718  10.881
 5378W        W 9122   0.795   9.965   1.486
 5379W        W 9123   5.636   3.618   9.472
 5380W        W 9124  10.321   0.344  11.403
 5381W        W 9125   6.473   1.143   1.413
 5382W        W 9126   3.708   8.585   9.464
 5383W        W 9127   6.438   0.932  11.011
 5384W        W 9128   0.985   1.855   0.783
 5385W        W 9129   1.289   2.691   9.834
 5386W        W 9130   6.152   6.421   0.697
 5387W        W 9131   2.777   6.511   1.186
 5388W        W 9132   3.015   3.181   3.608
 5389W        W 9133  10.336   1.289  11.453
 5390W        W 9134   9.171   6.210   0.480
 5391W        W 9135   9.990   1.128   3.075
 5392W        W 9136   8.531   5.217  10.106
 5393W        W 9137   3.749   7.378  11.024
 5394W        W 9138   7.994   0.859  11.737
 5395W        W 9139   8.859   4.036   2.183
 5396W        W 9140   8.002  10.215   3.296
 5397W        W 9141   3.602  10.437   9.801
 5398W        W 9142   0.886   7.222  11.994
 5399W        W 9143   7.428   8.391   9.557
 5400W        W 9144   3.668   4.594   9.779
 5401W        W 9145   9.021   1.355  11.209
 5402W        W 9146   7.646   8.654   2.681
 5403W        W 9147   1.869   6.883   0.961
 5404W        W 9148   3.838   0.364  10.341
 5405W        W 9149   9.146   3.990  10.988
 5406W        W 9150   9.800   9.643  10.286
 5407W        W 9151   5.049   6.019   2.949
 5408W        W 9152   3.709   9.203   0.531
 5409W        W 9153   8.472   7.934   0.465
 5410W        W 9154   9.738   4.732   9.459
 5411W        W 9155   7.519   2.407   2.214
 5412W        W 9156   7.813   4.391  11.334
 5413W        W 9157   8.459   4.750   2.120
 5414W        W 9158   8.947   1.785   2.360
 5415W        W 9159   1.598   4.197   9.435
 5416W        W 9160   5.540   5.342   1.782
 5417W        W 9161   5.427   4.180   0.262
 5418W        W 9162   8.978   1.288  10.705
 5419W        W 9163   3.075   6.874  11.264
 5420W        W 9164   9.792   7.804   2.744
 5421W        W 9165   4.191   3.553   1.181
 5422W        W 9166   1.339   4.825  10.122
 5423W        W 9167   2.349   9.202   0.246
 5424W        W 9168   5.675   2.729   0.396
 5425W        W 9169   3.152   5.240   0.960
 5426W        W 9170   8.772   6.317   0.814
 5427W        W 9171   7.651  10.075   2.901
 5428W        W 9172   1.806   5.483   9.684
 5429W        W 9173   8.716   8.326   3.581
 5430W        W 9174   9.224   0.303  11.926
 5431W        W 9175   4.187   1.227   2.841
 5432W        W 9176   0.763   9.981   0.243
 5433W        W 9177   7.907   0.478   0.508
 5434W        W 9178   1.850  10.400  11.017
 5435W        W 9179   0.401   2.458   2.680
 5436W        W 9180   4.295   5.520   0.932
 5437W        W 9181   5.517   8.850   9.571
 5438W        W 9182   5.628   5.444   8.966
 5439W        W 9183   3.418   4.087   2.259
 5440W        W 9184   6.657   7.918  11.255
 5441W        W 9185   7.796   5.203  10.527
 5442W        W 9186   3.242   9.513   1.163
 5443W        W 9187   1.656   0.250   9.992
 5444W        W 9188   4.941   5.774  11.393
 5445W        W 9189   6.470   8.080   3.277
 5446W        W 9190   2.336   4.651   1.645
 5447W        W 9191   9.985   0.963   0.005
 5448W        W 9192   4.976   7.588  11.584
 5449W        W 9193   5.373   1.667   1.293
 5450W        W 9194   2.825   3.397   1.568
 5451W        W 9195   1.398   0.376  10.423
 5452W        W 9196   4.673   8.086  10.537
 5453W        W 9197   1.608   3.014   0.239
 5454W        W 9198   5.567   8.321  10.857
 5455W        W 9199   7.632   7.401   1.705
 5456W        W 9200   2.627   8.457   2.372
 5457W        W 9201   1.835   2.214   0.942
 5458W        W 9202   3.365   3.836   0.385
 5459W        W 9203   8.505   2.297   9.257
 5460W        W 9204   1.625   1.345  11.321
 5461W        W 9205   3.585   1.876   3.052
 5462W        W 9206   1.149   9.545  10.436
 5463W        W 9207   1.793   0.084   8.580
 5464W        W 9208   0.161   9.193  10.470
 5465W        W 9209   3.883  10.352   2.669
 5466W        W 9210   4.427   7.603   2.743
 5467W        W 9211   0.707   3.307   1.162
 5468W        W 9212   3.621   5.710   1.693
 5469W        W 9213   4.103   9.349   9.356
 5470W        W 9214   4.071   7.505  10.629
 5471W        W 9215   1.925   1.412   3.407
 5472W        W 9216   5.002  10.032   3.456
 5473W        W 9217   0.217   7.380   2.319
 5474W        W 9218   1.788   5.460   2.207
 5475W        W 9219   4.693   0.614   9.043
 5476W        W 9220   0.413   3.832   3.131
 5477W        W 9221   4.320   5.138   9.566
 5478W        W 9222   1.889   2.899   8.356
 5479W        W 9223   8.182   5.038  11.799
 5480W        W 9224   8.057   8.640   0.764
 5481W        W 9225   3.238   7.372  10.342
 5482W        W 9226   7.160   0.733   3.003
 5483W        W 9227   0.705   3.091  10.918
 5484W        W 9228  10.447   9.414   1.992
 5485W        W 9229   6.141   9.098   3.395
 5486W        W 9230   1.131   0.445   9.141
 5487W        W 9231   6.160   6.184   2.040
 5488W        W 9232   4.066   9.833   3.442
 5489W        W 9233   7.025   4.591   3.745
 5490W        W 9234   9.233   3.398   9.808
 5491W        W 9235   4.583   4.150  10.908
 5492W        W 9236   5.038   2.390   9.511
 5493W        W 9237   1.234   4.193  11.041
 5494W        W 9238   8.667   6.768   8.583
 5495W        W 9239   9.366   0.904   8.980
 5496W        W 9240   8.913   1.743   8.815
 5497W        W 9241   5.073   6.111   9.554
 5498W        W 9242   6.103   1.957   0.251
 5499W        W 9243   0.774   6.316   2.970
 5500W        W 9244   4.214   3.635  11.723
 5501W        W 9245   3.273   6.168   8.586
 5502W        W 9246   0.670   8.844   9.072
 5503W        W 9247   6.339   1.438   8.411
 5504W        W 9248   4.581   9.252   0.459
 5505W        W 9249   0.964   1.755   0.099
 5506W        W 9250  10.342   4.445   2.569
 5507W        W 9251   8.625   7.560   0.830
 5508W        W 9252   9.371   1.523   9.546
 5509W        W 9253   9.882   1.348  11.191
 5510W        W 9254   4.298   3.130   2.739
 5511W        W 9255   2.873   2.150  10.355
 5512W        W 9256   4.254   5.233   1.398
 5513W        W 9257   7.610   8.805   0.575
 5514W        W 9258   4.750   1.725  10.370
 5515W        W 9259   6.173   7.584   8.096
 5516W        W 9260   9.274   6.234   0.966
 5517W        W 9261   8.483   6.056   2.652
 5518W        W 9262   3.221   7.128   1.152
 5519W        W 9263   2.782   9.732   2.250
 5520W        W 9264   9.465   3.542   2.534
 5521W        W 9265   6.428   2.306  10.980
 5522W        W 9266   6.165   9.662  11.846
 5523W        W 9267   6.453   2.155  11.460
 5524W        W 9268   5.964   4.651  11.755
 5525W        W 9269   7.219   6.682   8.354
 5526W        W 9270   7.134   1.966  11.497
 5527W        W 9271   1.480   7.899   1.916
 5528W        W 9272   9.074   7.006  11.731
 5529W        W 9273   9.179   2.250  10.936
 5530W        W 9274   0.446   6.942  11.868
 5531W        W 9275   7.420   8.001   2.234
 5532W        W 9276   1.197  10.056   0.520
 5533W        W 9277   0.427   7.647   1.886
 5534W        W 9278   3.418   3.662  10.945
 5535W        W 9279   5.750  10.342  10.965
 5536W        W 9280   2.640   8.820  11.959
 5537W        W 9281   1.295   0.964   2.626
 5538W        W 9282   4.591  10.414   3.378
 5539W        W 9283   9.120   8.906  11.056
 5540W        W 9284   2.202   2.508   9.219
 5541W        W 9285   9.373   8.209   3.054
 5542W        W 9286   6.411   5.360  10.403
 5543W        W 9287   6.540   1.735   0.389
 5544W        W 9288   3.259   2.376  10.640
 5545W        W 9289   5.666   8.372   9.928
 5546W        W 9290   7.517   1.565   2.676
 5547W        W 9291   7.903   8.007  10.228
 5548W        W 9292  10.236   2.735   9.338
 5549W        W 9293   1.634   5.049  10.948
 5550W        W 9294   7.088   9.701   3.928
 5551W        W 9295   1.252   4.163   0.921
 5552W        W 9296   9.765   2.809   9.540
 5553W        W 9297   0.856   0.431   1.443
 5554W        W 9298   6.489   0.755   8.807
 5555W        W 9299   4.764  10.097   1.707
 5556W        W 9300   7.477   9.006   3.487
 5557W        W 9301   9.085   1.470   3.497
 5558W        W 9302   8.037   8.010   2.262
 5559W        W 9303   5.595   2.638   2.440
 5560W        W 9304   2.011   9.072   3.318
 5561W        W 9305   7.155   9.737  11.961
 5562W        W 9306   0.677   0.060  11.426
 5563W        W 9307   8.516   3.220   1.400
 5564W        W 9308   9.018   6.059  11.471
 5565W        W 9309   8.322   2.449  10.771
 5566W        W 9310   3.265   7.301   0.202
 5567W        W 9311   8.302   7.134   0.719
 5568W        W 9312   4.238   0.325   1.743
 5569W        W 9313   0.800   4.759   1.505
 5570W        W 9314   0.984  10.140   8.510
 5571W        W 9315   3.406  10.017   0.981
 5572W        W 9316   5.641   4.125   1.201
 5573W        W 9317   7.373   3.157  10.690
 5574W        W 9318   3.638   3.532   2.415
 5575W        W 9319   7.936   9.717   3.489
 5576W        W 9320   9.830   4.725   2.410
 5577W        W 9321   6.530   6.081   0.660
 5578W        W 9322   9.971   4.508  10.998
 5579W        W 9323  10.310   6.111  11.184
 5580W        W 9324   4.220   0.844   8.978
 5581W        W 9325   1.821   7.386   0.924
 5582W        W 9326   4.241   9.491   1.093
 5583W        W 9327   0.883   2.254  11.972
 5584W        W 9328   5.634   7.244   2.823
 5585W        W 9329   4.732   6.466  10.809
 5586W        W 9330   5.555   2.689  11.389
 5587W        W 9331   7.479   8.953   1.049
 5588W        W 9332   2.826   9.061   0.381
 5589W        W 9333   8.099   4.207   3.154
 5590W        W 9334   8.090   5.108   2.581
 5591W        W 9335   6.561   2.655  11.363
 5592W        W 9336   8.093   4.971   1.566
 5593W        W 9337   1.400   1.655   1.191
 5594W        W 9338   9.752   2.246   2.210
 5595W        W 9339   8.373   2.427  10.272
 5596W        W 9340   3.722   0.429   9.850
 5597W        W 9341   8.809   3.146   2.445
 5598W        W 9342   4.033   9.467   8.454
 5599W        W 9343   7.536   1.875   2.139
 5600W        W 9344   8.942   2.632   0.242
 5601W        W 9345   7.045   6.946  11.717
 5602W        W 9346   5.053   2.364  10.498
 5603W        W 9347   5.987   7.914   2.430
 5604W        W 9348   0.054   2.399   0.950
 5605W        W 9349   6.251   4.653   1.590
 5606W        W 9350   2.457   3.420   2.940
 5607W        W 9351   1.978   4.575   3.284
 5608W        W 9352   7.665   6.451   3.395
 5609W        W 9353   7.080  10.188  10.918
 5610W        W 9354   2.222  10.263   9.252
 5611W        W 9355   7.875   0.250   9.510
 5612W        W 9356   2.972   8.508   3.266
 5613W        W 9357   3.126   0.698  10.893
 5614W        W 9358   2.442  10.244   1.672
 5615W        W 9359   8.597   9.379   9.067
 5616W        W 9360   0.713  10.086  11.321
 5617W        W 9361   7.589   2.819  10.368
 5618W        W 9362   8.551   6.468   9.571
 5619W        W 9363   6.950  10.419   1.216
 5620W        W 9364   4.557   0.330  11.058
 5621W        W 9365   0.371   4.503   1.432
 5622W        W 9366   0.702  10.256  11.820
 5623W        W 9367   2.743   8.589   9.168
 5624W        W 9368   3.076   4.304   0.365
 5625W        W 9369   4.621   0.076   1.527
 5626W        W 9370   0.406   9.369   1.805
 5627W        W 9371   1.000   4.661   9.187
 5628W        W 9372  10.191   2.240  10.651
 5629W        W 9373   7.017   9.913   9.992
 5630W        W 9374   4.628   7.208  11.581
 5631W        W 9375   5.549   3.075  10.636
 5632W        W 9376  10.296   1.560   1.325
 5633W        W 9377   4.090   2.591   0.954
 5634W        W 9378   0.907   2.178   3.244
 5635W        W 9379   1.751   0.738  11.392
 5636W        W 9380   3.187   8.696  11.956
 5637W        W 9381   5.827   8.076   4.049
 5638W        W 9382   8.447   8.495   1.244
 5639W        W 9383   8.636   5.292  11.806
 5640W        W 9384   2.236   4.533  11.636
 5641W        W 9385   9.364   4.206  10.439
 5642W        W 9386   2.418   2.904   8.468
 5643W        W 9387   5.598   7.538   9.366
 5644W        W 9388   6.516   3.424   1.023
 5645W        W 9389   8.068   1.651   9.793
 5646W        W 9390   3.284   3.302   1.762
 5647W        W 9391   4.549  10.418   0.784
 5648W        W 9392   1.788   4.704   0.933
 5649W        W 9393   2.610   4.270   2.853
 5650W        W 9394   1.377   1.941   8.871
 5651W        W 9395   4.719   0.424   2.455
 5652W        W 9396   5.773   5.996   3.156
 5653W        W 9397   1.759   4.370  11.770
 5654W        W 9398   4.706   8.033  11.078
 5655W        W 9399   0.847   5.699  10.190
 5656W        W 9400   0.389  10.213  10.404
 5657W        W 9401   2.367   6.973   1.707
 5658W        W 9402   9.775   8.600  10.445
 5659W        W 9403   3.839  10.027   1.671
 5660W        W 9404   5.102   2.572   2.704
 5661W        W 9405   5.184   1.661   8.719
 5662W        W 9406   8.535   0.528   3.072
 5663W        W 9407   7.013   1.229   1.947
 5664W        W 9408   9.097   2.191  11.991
 5665W        W 9409   2.329   9.439   2.241
 5666W        W 9410   3.420   0.908   8.745
 5667W        W 9411   5.309   8.470   1.489
 5668W        W 9412   2.466   6.177   0.427
 5669W        W 9413   3.089   0.787  11.895
 5670W        W 9414   7.456   0.655  11.382
 5671W        W 9415   0.534   6.044   2.229
 5672W        W 9416   7.328   6.134   3.165
 5673W        W 9417   5.642   4.096  10.978
 5674W        W 9418   4.367   8.572   1.318
 5675W        W 9419  10.361   7.023  11.254
 5676W        W 9420   5.904   7.077  10.471
 5677W        W 9421   4.990   7.994   0.821
 5678W        W 9422   6.449   3.646   9.915
 5679W        W 9423   1.706   3.550   9.338
 5680W        W 9424   2.757   1.926   0.420
 5681W        W 9425   2.883   6.932   9.397
 5682W        W 9426   0.910   6.662   8.940
 5683W        W 9427   7.952   2.638   2.366
 5684W        W 9428   4.031   2.673   2.720
 5685W        W 9429   0.950   6.157   2.490
 5686W        W 9430  10.288   7.920   0.416
 5687W        W 9431   8.411   0.112   3.293
 5688W        W 9432   0.004   0.715   3.350
 5689W        W 9433   3.292   0.390   3.640
 5690W        W 9434   4.618   4.070   7.873
 5691W        W 9435   7.355   6.540   0.312
 5692W        W 9436   3.218   9.982   2.933
 5693W        W 9437   6.949   9.862   2.664
 5694W        W 9438   7.697   1.908   2.991
 5695W        W 9439  10.426   8.867   9.678
 5696W        W 9440   3.808   2.756  10.566
 5697W        W 9441   9.376   9.092   0.032
 5698W        W 9442   0.036   2.625   8.643
 5699W        W 9443   8.865   5.820   0.329
 5700W        W 9444   5.014   0.840   2.648
 5701W        W 9445   6.631   6.454   1.802
 5702W        W 9446   8.959   7.434   1.575
 5703W        W 9447   5.336   2.745   3.401
 5704W        W 9448  10.026   0.843   9.590
 5705W        W 9449   2.408   5.699   3.191
 5706W        W 9450   6.455   1.141   1.924
 5707W        W 9451   2.685   8.368   2.879
 5708W        W 9452   7.881   7.438  11.515
 5709W        W 9453   6.169   2.055   2.791
 5710W        W 9454   4.166   7.123   1.457
 5711W        W 9455   8.873   8.864   3.381
 5712W        W 9456   3.392   2.687   2.530
 5713W        W 9457   2.984   0.915   8.427
 5714W        W 9458   9.303   3.029   9.403
 5715W        W 9459   8.818   7.532   3.074
 5716W        W 9460   5.155   5.241   9.061
 5717W        W 9461   9.733   5.594  11.681
 5718W        W 9462  10.106   2.026   3.169
 5719W        W 9463  10.479   2.713   2.580
 5720W        W 9464   6.422   6.063  10.867
 5721W        W 9465   7.197   9.737   8.514
 5722W        W 9466   8.614   4.477   0.797
 5723W        W 9467   4.191   3.115   0.897
 5724W        W 9468   4.377   9.501   2.827
 5725W        W 9469   6.121   8.568   3.346
 5726W        W 9470   7.419  10.156   8.740
 5727W        W 9471   9.380   7.951   0.973
 5728W        W 9472   4.750   4.533   9.075
 5729W        W 9473   2.892   6.694  10.302
 5730W        W 9474   3.587   2.360   0.448
 5731W        W 9475   1.431   8.489   0.160
 5732W        W 9476  10.055   6.481   0.143
 5733W        W 9477   6.196  10.044  10.890
 5734W        W 9478   1.754   8.335   3.620
 5735W        W 9479   4.587   9.066   1.370
 5736W        W 9480   9.045   9.102   0.445
 5737W        W 9481   7.374   3.259   1.345
 5738W        W 9482   5.934   2.608   9.418
 5739W        W 9483   3.651   6.271   8.941
 5740W        W 9484   8.039   2.855   9.730
 5741W        W 9485   0.218   3.042  11.414
 5742W        W 9486   2.109   3.435  10.148
 5743W        W 9487   0.873   2.388  11.443
 5744W        W 9488   1.838   3.382   1.027
 5745W        W 9489   1.719   4.153   1.124
 5746W        W 9490   9.751   4.293   2.133
 5747W        W 9491   0.896   0.455   3.186
 5748W        W 9492   2.652   5.864   8.568
 5749W        W 9493   6.143   1.742   8.797
 5750W        W 9494   9.410   5.487   8.904
 5751W        W 9495   4.086   0.897   2.435
 5752W        W 9496   2.412   4.232   2.374
 5753W        W 9497   8.882   9.948   9.516
 5754W        W 9498   8.714   2.375  11.072
 5755W        W 9499   6.012   3.864   9.260
 5756W        W 9500   1.580   0.763   3.152
 5757W        W 9501   1.459   4.596   2.183
 5758W        W 9502   2.268   2.332  10.645
 5759W        W 9503   6.145   9.380  10.024
 5760W        W 9504   9.000   8.842   2.282
 5761W        W 9505   9.395   7.301  11.481
 5762W        W 9506   1.147   7.941   9.950
 5763W        W 9507   9.282   5.050   0.764
 5764W        W 9508   3.743   3.605   0.934
 5765W        W 9509   9.884   9.510   2.128
 5766W        W 9510   9.569   4.822   3.815
 5767W        W 9511   6.931   6.580   3.783
 5768W        W 9512   9.465   4.824   2.792
 5769W        W 9513   3.334   3.222   9.597
 5770W        W 9514   7.410   2.344   3.046
 5771W        W 9515   4.080   8.254  11.789
 5772W        W 9516   9.092   7.568   8.832
 5773W        W 9517   2.513   0.727  10.079
 5774W        W 9518   9.421   9.100   2.814
 5775W        W 9519   0.227   9.550   2.787
 5776W        W 9520   8.339   6.261  10.022
 5777W        W 9521  10.010   4.528   9.079
 5778W        W 9522   8.402   6.980   1.903
 5779W        W 9523  10.277   4.074   1.874
 5780W        W 9524   1.784   0.786   2.666
 5781W        W 9525   1.065   9.978   1.024
 5782W        W 9526   5.839   0.319   9.715
 5783W        W 9527   3.666   2.256   2.707
 5784W        W 9528   2.352   6.231   1.285
 5785W        W 9529   2.270   2.997   9.340
 5786W        W 9530   9.768   7.687  10.612
 5787W        W 9531   4.610   1.334   1.582
 5788W        W 9532   2.416   9.379  10.747
 5789W        W 9533   9.367   5.872   2.742
 5790W        W 9534   9.438   0.262   1.527
 5791W        W 9535   5.920   6.878   0.743
 5792W        W 9536   7.566   4.592   8.599
 5793W        W 9537   3.151   7.019   9.978
 5794W        W 9538   1.866   9.468   1.979
 5795W        W 9539   5.575   9.934   2.211
 5796W        W 9540   9.095   7.212   0.193
 5797W        W 9541   5.126   5.571   2.674
 5798W        W 9542   6.530   0.302  10.460
 5799W        W 9543   2.220   4.983  10.317
 5800W        W 9544   8.521   8.398   0.706
 5801W        W 9545   9.834   2.657   0.413
 5802W        W 9546   9.606   0.758   1.391
 5803W        W 9547   8.335   0.488  11.786
 5804W        W 9548   7.553   0.596  10.385
 5805W        W 9549   8.148   7.952   9.302
 5806W        W 9550   2.259   0.187  10.903
 5807W        W 9551   2.316   1.596   2.216
 5808W        W 9552   1.897   9.576   3.375
 5809W        W 9553   1.163   9.087  10.683
 5810W        W 9554   6.458   7.810  10.299
 5811W        W 9555   3.591   5.074   0.209
 5812W        W 9556   8.068   6.953  10.793
 5813W        W 9557   6.516   3.237   9.130
 5814W        W 9558   9.013   4.060   8.618
 5815W        W 9559   4.190   5.737   2.334
 5816W        W 9560   0.729   7.465   3.163
 5817W        W 9561   0.701   2.127   0.444
 5818W        W 9562   7.599   1.838   1.145
 5819W        W 9563   3.268   4.188   3.570
 5820W        W 9564   5.945   8.032   8.314
 5821W        W 9565   9.610   5.070  10.002
 5822W        W 9566   8.690   5.808   3.542
 5823W        W 9567   4.900   9.509   9.961
 5824W        W 9568   9.727   3.345  10.132
 5825W        W 9569   4.496   1.848   1.401
 5826W        W 9570   4.272   0.682  11.313
 5827W        W 9571   4.146   7.751  11.788
 5828W        W 9572   2.572   1.703   9.465
 5829W        W 9573   8.081   4.675   9.453
 5830W        W 9574   0.461   5.553   2.399
 5831W        W 9575   6.433   7.421  11.756
 5832W        W 9576   3.301   9.494   3.190
 5833W        W 9577   0.864   8.342   9.045
 5834W        W 9578   8.474   9.898   1.013
 5835W        W 9579   9.070   5.016  11.840
 5836W        W 9580   8.206   4.279   9.120
 5837W        W 9581   3.478   8.449  10.017
 5838W        W 9582   9.383   5.845   9.551
 5839W        W 9583   9.620   9.383   1.423
 5840W        W 9584   6.066   3.038   2.818
 5841W        W 9585   5.760   7.842  11.741
 5842W        W 9586   1.449   3.232  11.348
 5843W        W 9587   9.138   6.629   2.142
 5844W        W 9588   5.216   1.900   0.264
 5845W        W 9589   0.711   4.271   2.776
 5846W        W 9590  10.148   9.084  10.905
 5847W        W 9591   0.390   0.316   9.545
 5848W        W 9592   3.239   7.152   2.619
 5849W        W 9593   7.848   6.922   1.909
 5850W        W 9594   8.869   0.337   3.435
 5851W        W 9595   8.959   3.635   2.497
 5852W        W 9596   4.103   0.930   9.508
 5853W        W 9597   4.477   7.188  10.514
 5854W        W 9598   3.323   3.628  11.923
 5855W        W 9599   2.769   9.852   2.732
 5856W        W 9600   3.642   9.868   3.188
 5857W        W 9601   6.392   9.587   8.807
 5858W        W 9602   3.152   9.783   0.295
 5859W        W 9603   0.195   8.053   1.678
 5860W        W 9604   4.365   5.674   2.812
 5861W        W 9605   6.192   1.473   3.636
 5862W        W 9606   1.850   7.799  10.450
 5863W        W 9607   9.356   2.505   9.420
 5864W        W 9608   7.988   7.573   8.579
 5865W        W 9609   2.586   6.387   4.152
 5866W        W 9610   5.497   5.498   2.271
 5867W        W 9611   6.029  10.175   3.680
 5868W        W 9612   3.194   9.388   2.175
 5869W        W 9613   0.244   5.434  11.813
 5870W        W 9614   0.101   2.630   3.574
 5871W        W 9615   5.420  10.384   2.449
 5872W        W 9616   1.018   0.897   2.208
 5873W        W 9617   0.828   3.572   9.869
 5874W        W 9618   8.324   1.407   2.175
 5875W        W 9619   3.808   4.119   3.237
 5876W        W 9620   8.767  10.318   1.419
 5877W        W 9621   4.087   6.234   2.402
 5878W        W 9622   7.528   3.141   8.647
 5879W        W 9623   4.127   4.121   8.670
 5880W        W 9624   6.930   8.941  10.962
 5881W        W 9625   5.457   2.680   9.657
 5882W        W 9626   3.233   9.344   9.535
 5883W        W 9627   8.909   7.943  11.158
 5884W        W 9628   6.463   5.175   9.871
 5885W        W 9629   1.200  10.086   2.307
 5886W        W 9630   1.187   6.702   9.356
 5887W        W 9631   6.499   7.547   9.557
 5888W        W 9632   8.554   3.049   0.903
 5889W        W 9633   7.384   5.002  10.740
 5890W        W 9634  10.109   2.418   3.539
 5891W        W 9635   3.103   7.140   3.212
 5892W        W 9636   7.134   4.697   2.887
 5893W        W 9637  10.329   6.530   0.575
 5894W        W 9638   0.385   8.468   0.839
 5895W        W 9639   2.071   8.706   3.667
 5896W        W 9640   7.013   7.472   2.853
 5897W        W 9641   6.075  10.066   2.065
 5898W        W 9642   1.618   8.932  11.928
 5899W        W 9643   4.823   6.975  10.840
 5900W        W 9644   0.571   3.123  10.019
 5901W        W 9645   0.253   8.526   1.845
 5902W        W 9646   5.146   3.670  11.655
 5903W        W 9647   5.701   2.836  11.849
 5904W        W 9648   2.266   6.014  11.285
 5905W        W 9649   4.703   5.558  10.711
 5906W        W 9650   4.287   3.384   0.187
 5907W        W 9651   5.461   9.609   9.323
 5908W        W 9652   3.870   5.273   1.730
 5909W        W 9653   4.155   7.497   3.552
 5910W        W 9654   4.118   7.910   9.232
 5911W        W 9655   0.835   1.890  11.614
 5912W        W 9656   5.543   2.924  10.137
 5913W        W 9657   3.476   2.194  11.910
 5914W        W 9658   9.136   7.181   9.953
 5915W        W 9659   3.847   7.178   9.350
 5916W        W 9660   6.751   7.986   1.525
 5917W        W 9661   6.196   9.346   0.830
 5918W        W 9662   0.972   7.471   0.418
 5919W        W 9663   8.605   8.676   0.285
 5920W        W 9664   2.681  10.450   0.104
 5921W        W 9665   8.805   3.285  10.557
 5922W        W 9666   1.201   7.726  11.778
 5923W        W 9667   7.372   5.627   2.585
 5924W        W 9668   8.363  10.205   9.769
 5925W        W 9669   6.722  10.460   3.050
 5926W        W 9670   5.573   9.144   9.170
 5927W        W 9671   4.081   0.615   3.494
 5928W        W 9672   2.077   1.116  11.292
 5929W        W 9673   4.027  10.358   0.807
 5930W        W 9674   6.814   7.917   9.398
 5931W        W 9675   8.819   5.028  11.398
 5932W        W 9676   6.100   0.834   2.308
 5933W        W 9677  10.462   3.706   2.700
 5934W        W 9678  10.055   0.970   2.272
 5935W        W 9679   9.366   1.623   8.590
 5936W        W 9680   2.754   4.086   8.963
 5937W        W 9681   2.785   5.067   0.526
 5938W        W 9682   0.866   3.152  10.440
 5939W        W 9683   8.934   6.419  10.684
 5940W        W 9684   4.765   8.993   3.387
 5941W        W 9685   0.802   2.309  10.519
 5942W        W 9686   0.679   9.739   2.955
 5943W        W 9687   7.558  10.453  10.892
 5944W        W 9688   2.564   0.804   1.010
 5945W        W 9689   0.949   8.872   2.922
 5946W        W 9690   1.724   7.369   3.102
 5947W        W 9691  10.366   0.435   9.521
 5948W        W 9692   2.829   0.359  10.300
 5949W        W 9693   9.014   9.774   2.650
 5950W        W 9694   6.121   8.494   9.031
 5951W        W 9695   5.579   5.377  11.377
 5952W        W 9696   2.289   2.383   8.715
 5953W        W 9697   0.435  10.488   9.977
 5954W        W 9698   2.816   3.167   9.422
 5955W        W 9699   5.055   1.804  11.257
 5956W        W 9700   5.762   5.546  11.822
 5957W        W 9701   2.235   0.303   2.293
 5958W        W 9702   7.476   6.597   2.953
 5959W        W 9703   5.201   9.212  10.239
 5960W        W 9704   5.549   5.590   9.456
 5961W        W 9705   6.959   8.386  11.471
 5962W        W 9706   7.041   1.694   9.020
 5963W        W 9707   5.610   1.244   9.773
 5964W        W 9708   2.346   6.919  11.980
 5965W        W 9709   7.520   9.405  11.929
 5966W        W 9710   0.844   3.620   3.269
 5967W        W 9711   4.011   3.571  10.033
 5968W        W 9712   3.656   5.144  10.248
 5969W        W 9713   8.862   9.454   0.817
 5970W        W 9714   4.955   8.169   9.269
 5971W        W 9715   0.933   5.593  10.683
 5972W        W 9716   1.866   6.522  10.766
 5973W        W 9717   9.785   7.656   1.281
 5974W        W 9718   6.601   7.259   9.151
 5975W        W 9719   2.662   5.128  11.987
 5976W        W 9720   7.495   7.597   8.449
 5977W        W 9721   3.547   0.013   0.210
 5978W        W 9722  10.255   8.677  11.847
 5979W        W 9723   4.254   7.252   0.984
 5980W        W 9724   0.964   3.332  11.274
 5981W        W 9725   2.137   4.935   1.278
 5982W        W 9726   4.303   8.844   8.934
 5983W        W 9727   9.544   2.194  11.272
 5984W        W 9728   1.816   5.981   2.032
 5985W        W 9729   5.615  10.050   9.108
 5986W        W 9730   0.181   8.319  10.454
 5987W        W 9731   0.771   7.417  11.521
 5988W        W 9732   9.243   2.281   2.269
 5989W        W 9733   8.573   1.959  10.139
 5990W        W 9734   7.902   1.449   1.457
 5991W        W 9735   3.380   4.717   2.712
 5992W        W 9736   7.863   7.097  11.894
 5993W        W 9737   8.622   3.891   0.568
 5994W        W 9738   5.542   5.829   1.604
 5995W        W 9739   0.430   6.654   0.863
 5996W        W 9740   6.085   4.790   9.833
 5997W        W 9741   6.419   7.021   9.605
 5998W        W 9742   8.822   3.666   9.577
 5999W        W 9743   7.123   3.642   1.576
 6000W        W 9744   2.512   0.733   2.410
 6001W        W 9745   9.879   8.717   2.519
 6002W        W 9746   8.753   8.382  10.359
 6003W        W 9747   4.077   5.589   0.048
 6004W        W 9748   1.390   0.895   9.011
 6005W        W 9749   8.325   3.298   2.421
 6006W        W 9750   2.882   2.665   2.654
 6007W        W 9751   4.692   8.500   3.559
 6008W        W 9752   4.792   2.122  10.039
 6009W        W 9753   9.960   7.473   0.391
 6010W        W 9754   7.532  10.020   3.405
 6011W        W 9755   0.689  10.422   1.296
 6012W        W 9756   3.948   4.766   9.373
 6013W        W 9757   0.729   5.422   1.299
 6014W        W 9758   0.294   3.847   0.366
 6015W        W 9759   6.612   1.005   0.830
 6016W        W 9760   9.533   9.395  11.545
 6017W        W 9761   7.437   9.063  10.877
 6018W        W 9762   3.348   6.060   0.262
 6019W        W 9763   8.957   1.255   9.773
 6020W        W 9764   3.231   0.179  10.877
 6021W        W 9765   4.677   5.017   1.612
 6022W        W 9766   0.419   5.721   0.983
 6023W        W 9767   4.930   8.896  11.048
 6024W        W 9768  10.011   6.862   9.887
 6025W        W 9769   8.592   7.790  11.976
 6026W        W 9770   5.816   4.337  10.003
 6027W        W 9771   8.099   4.251  10.925
 6028W        W 9772   0.257   8.982   3.511
 6029W        W 9773  10.237   2.264  10.126
 6030W        W 9774   0.911   9.078   0.475
 6031W        W 9775   8.387   8.962   1.488
 6032W        W 9776   3.934   4.516   1.024
 6033W        W 9777   1.161   1.811   3.501
 6034W        W 9778  10.239   3.698   0.503
 6035W        W 9779   6.812   0.795   1.237
 6036W        W 9780   3.002   1.726   0.830
 6037W        W 9781   4.281   8.783   3.386
 6038W        W 9782   3.063   9.230  10.026
 6039W        W 9783   0.062   5.545   8.510
 6040W        W 9784   1.555   3.360  11.849
 6041W        W 9785   7.576   1.280   9.025
 6042W        W 9786   5.228   3.580  10.717
 6043W        W 9787   4.828   3.696  11.009
 6044W        W 9788   1.047   5.866   1.244
 6045W        W 9789   1.941   1.792   3.748
 6046W        W 9790   7.871   5.597   2.624
 6047W        W 9791   1.335   6.004  11.340
 6048W        W 9792   0.580   3.827   3.661
 6049W        W 9793   0.956   3.335   0.708
 6050W        W 9794   5.253   8.408   0.972
 6051W        W 9795   4.402   1.155  11.499
 6052W        W 9796   3.096   3.995   0.785
 6053W        W 9797   2.780   8.933   1.651
 6054W        W 9798   0.340   1.079   0.973
 6055W        W 9799   7.651   6.850   9.991
 6056W        W 9800   6.918   3.764   8.557
 6057W        W 9801   8.316   7.567   3.219
 6058W        W 9802   5.709   9.217   2.618
 6059W        W 9803   1.122   0.020   1.009
 6060W        W 9804   0.059   1.144   1.388
 6061W        W 9805   0.690   5.229  10.394
 6062W        W 9806   6.207   5.604  10.846
 6063W        W 9807   3.149   9.169  10.907
 6064W        W 9808   9.152   6.912  11.240
 6065W        W 9809   9.808  10.444   2.292
 6066W        W 9810   3.160   7.102   8.551
 6067W        W 9811   4.982   6.618   9.439
 6068W        W 9812  10.125   4.032   2.366
 6069W        W 9813   0.072   3.692   1.674
 6070W        W 9814   7.862   7.336   3.218
 6071W        W 9815   1.265   6.375   3.216
 6072W        W 9816   0.886   4.456   0.701
 6073W        W 9817   7.960   2.151   3.356
 6074W        W 9818   7.713   7.923   8.838
 6075W        W 9819   3.605   8.074   1.194
 6076W        W 9820   7.654   5.234   2.333
 6077W        W 9821   6.109   2.336   3.207
 6078W        W 9822   2.438   2.438  10.171
 6079W        W 9823   8.618   7.273   9.978
 6080W        W 9824   4.541   8.046   9.508
 6081W        W 9825   3.644   4.068  11.997
 6082W        W 9826   2.587   2.805  11.110
 6083W        W 9827   3.378   4.160   9.843
 6084W        W 9828   0.401   8.154  11.298
 6085W        W 9829   6.619   4.339   1.423
 6086W        W 9830   3.049   6.766   1.587
 6087W        W 9831   1.178   9.912  10.079
 6088W        W 9832   0.712   1.453   8.544
 6089W        W 9833   1.524  10.217   0.872
 6090W        W 9834   8.916   4.838   1.058
 6091W        W 9835   5.292   4.286   9.872
 6092W        W 9836   4.599   2.262   0.587
 6093W        W 9837   3.142   6.595   3.330
 6094W        W 9838   8.927   2.227   9.578
 6095W        W 9839  10.169   1.732  10.968
 6096W        W 9840   1.379   7.362   3.511
 6097W        W 9841   8.366   4.202  10.490
 6098W        W 9842   0.320   9.965   9.136
 6099W        W 9843   6.198   7.637  10.817
 6100W        W 9844   0.244   7.540   9.090
 6101W        W 9845   6.263   7.808   2.870
 6102W        W 9846   8.829   1.777   0.194
 6103W        W 9847   2.598   5.090   1.016
 6104W        W 9848   8.843   6.246   2.319
 6105W        W 9849   2.723   7.220  11.107
 6106W        W 9850   4.514   0.681   1.453
 6107W        W 9851   1.927   4.657  10.687
 6108W        W 9852   0.776   5.054   3.306
 6109W        W 9853   9.329   4.116   3.406
 6110W        W 9854   0.901   5.647   0.803
 6111W        W 9855   8.611   2.722   2.727
 6112W        W 9856   1.676   6.482   1.998
 6113W        W 9857   3.752   6.597   0.373
 6114W        W 9858   8.859   4.293   3.213
 6115W        W 9859   2.387   3.393   1.311
 6116W        W 9860   7.618   9.594   3.096
 6117W        W 9861   9.624   9.586   3.439
 6118W        W 9862   6.571  10.019   9.750
 6119W        W 9863   3.150   4.173  11.839
 6120W        W 9864   8.882   0.991   1.697
 6121W        W 9865   7.869  10.333   2.286
 6122W        W 9866   6.204   0.266   3.011
 6123W        W 9867   5.950   3.179   3.656
 6124W        W 9868   9.925   0.802   0.486
 6125W        W 9869   3.298   8.857   9.770
 6126W        W 9870   7.594   9.961   2.041
 6127W        W 9871   8.776   2.199   0.987
 6128W        W 9872   0.410   8.444   9.952
 6129W        W 9873   3.222   3.564  11.431
 6130W        W 9874   1.425   4.666  10.617
 6131W        W 9875   3.838   1.853   1.268
 6132W        W 9876   5.887   3.686   3.790
 6133W        W 9877   1.327   5.066   0.223
 6134W        W 9878   1.320   3.275   9.096
 6135W        W 9879   7.638   7.520   0.767
 6136W        W 9880   3.819   4.438   2.260
 6137W        W 9881   6.181   7.697   3.482
 6138W        W 9882   6.571   9.454   0.156
 6139W        W 9883   8.084   0.707  10.208
 6140W        W 9884   4.161   7.664  11.099
 6141W        W 9885   6.635   0.704   1.722
 6142W        W 9886   7.710   8.660   0.091
 6143W        W 9887   7.462   8.394   9.036
 6144W        W 9888   8.423   2.841   3.236
 6145W        W 9889   9.303   5.727  11.164
 6146W        W 9890   3.736   4.368   9.064
 6147W        W 9891   3.379   8.513   2.240
 6148W        W 9892   1.838   9.005   1.758
 6149W        W 9893   9.815   8.983   8.933
 6150W        W 9894   5.612   0.612   0.801
 6151W        W 9895   3.713   8.361   0.772
 6152W        W 9896   8.471   2.373   9.771
 6153W        W 9897   2.320   9.801  11.030
 6154W        W 9898   8.605   1.185  11.416
 6155W        W 9899   4.022   0.728   2.967
 6156W        W 9900   6.945   7.461   0.221
 6157W        W 9901   6.524   8.308  11.868
 6158W        W 9902   4.108   4.176   2.829
 6159W        W 9903   3.317   4.580   2.148
 6160W        W 9904   7.344  10.308   2.371
 6161W        W 9905   6.027   6.684   0.280
 6162W        W 9906   3.371   4.489   9.393
 6163W        W 9907   6.543   1.728   9.161
 6164W        W 9908   5.752   5.951   0.733
 6165W        W 9909   0.300   3.346   3.000
 6166W        W 9910  10.010   1.736   0.926
 6167W        W 9911   8.438   1.388   3.195
 6168W        W 9912   6.764   0.747  10.219
 6169W        W 9913   8.804   9.380   3.452
 6170W        W 9914   4.873   2.665   3.145
 6171W        W 9915   0.613   9.511   0.166
 6172W        W 9916   4.825   2.806   1.431
 6173W        W 9917   7.551   3.741   3.377
 6174W        W 9918   6.076   0.698  11.793
 6175W        W 9919   5.971   9.358   2.198
 6176W        W 9920   8.766   2.267  10.578
 6177W        W 9921   7.600   4.110  10.888
 6178W        W 9922   9.059   8.471  11.345
 6179W        W 9923   7.423   6.137   2.228
 6180W        W 9924   2.555   7.461   1.450
 6181W        W 9925   5.265   6.466   0.660
 6182W        W 9926   1.598   9.889  11.573
 6183W        W 9927   0.877   7.536   9.802
 6184W        W 9928  10.008   5.348   0.038
 6185W        W 9929  10.329   2.335   0.045
 6186W        W 9930   6.847   6.128  10.097
 6187W        W 9931   2.486  10.371   0.733
 6188W        W 9932   3.343   2.834  10.418
 6189W        W 9933   0.343   0.295   1.444
 6190W        W 9934   5.254   6.255  11.531
 6191W        W 9935   1.720   1.636   2.858
 6192W        W 9936   3.196   7.879   9.567
 6193W        W 9937   5.333   6.027   0.363
 6194W        W 9938   1.099   3.155   9.972
 6195W        W 9939   7.344  10.172   0.177
 6196W        W 9940   7.389   0.750   2.454
 6197W        W 9941   3.666  10.435  11.717
 6198W        W 9942   0.400   6.128  10.308
 6199W        W 9943   2.723   0.793  10.547
 6200W        W 9944   4.041   5.082  11.965
 6201W        W 9945   1.312   9.774   3.780
 6202W        W 9946  10.011   8.989   1.385
 6203W        W 9947   5.785   1.569   1.003
 6204W        W 9948   1.478   5.988   0.302
 6205W        W 9949   9.637   8.105  10.284
 6206W        W 9950   4.699   4.089   3.653
 6207W        W 9951   7.291   2.806   9.953
 6208W        W 9952   5.732   7.344  10.869
 6209W        W 9953   1.156   6.130   0.722
 6210W        W 9954   2.720   5.531   3.554
 6211W        W 9955  10.264   4.224   3.419
 6212W        W 9956   2.336   5.233   9.862
 6213W        W 9957   6.768   0.292   9.997
 6214W        W 9958   5.138   3.869  10.263
 6215W        W 9959   3.784   3.748   2.866
 6216W        W 9960   0.354   6.499   2.389
 6217W        W 9961   8.799   1.383   2.022
 6218W        W 9962  10.168   1.602   2.915
 6219W        W 9963   6.991   6.516   2.784
 6220W        W 9964   9.482   1.396   9.052
 6221W        W 9965   3.842   2.689   3.479
 6222W        W 9966   6.475   8.809  11.931
 6223W        W 9967   2.081   1.715   9.587
 6224W        W 9968   3.278   8.580   0.941
 6225W        W 9969  10.401   7.684   1.877
 6226W        W 9970   1.211   2.114   0.356
 6227W        W 9971   6.203   4.185   2.627
 6228W        W 9972   9.596   8.506  11.388
 6229W        W 9973   8.467   2.637  11.438
 6230W        W 9974   9.348   7.410  10.603
 6231W        W 9975   3.706   9.225   3.405
 6232W        W 9976   5.933   8.072   3.212
 6233W        W 9977   3.528   4.875   1.012
 6234W        W 9978   4.308   9.825   9.371
 6235W        W 9979   2.239   3.502   9.320
 6236W        W 9980   7.447   1.910   3.432
 6237W        W 9981   2.319   8.861   9.052
 6238W        W 9982   9.451   1.731  10.012
 6239W        W 9983   5.925   7.364  11.776
 6240W        W 9984   7.880  10.362  11.437
 6241W        W 9985   0.579   8.165   2.010
 6242W        W 9986  10.308   7.754   2.381
 6243W        W 9987   9.012   4.525   0.105
 6244W        W 9988   3.852   6.159   1.789
 6245W        W 9989   0.840   2.610   2.480
 6246W        W 9990  10.348   9.556  10.945
 6247W        W 9991   2.807   1.098   1.806
 6248W        W 9992   9.645   5.998   9.977
 6249W        W 9993   9.457   1.184  11.435
 6250W        W 9994   1.515   5.420   3.467
 6251W        W 9995   1.448   3.207   1.625
 6252W        W 9996   5.991   9.775   2.474
 6253W        W 9997   5.789   8.727   2.718
 6254W        W 9998   7.166   0.896   1.592
 6255W        W 9999   6.922   5.651   9.349
 6256W        W10000   7.613   1.568  10.546
 6257W        W10001   2.143   2.987   2.986
 6258W        W10002   8.870  10.168   2.252
 6259W        W10003   1.007   7.935  10.453
 6260W        W10004   0.412   6.667   9.848
 6261W        W10005   4.080   7.011  10.823
 6262W        W10006   9.999   0.887  11.462
 6263W        W10007   5.175   1.665   9.244
 6264W        W10008   5.063   6.082  10.073
 6265W        W10009   2.817   7.632  10.599
 6266W        W10010   3.471   7.605   8.489
 6267W        W10011   6.450   4.169   3.132
 6268W        W10012   5.915  10.330   2.470
 6269W        W10013  10.243   4.064   9.171
 6270W        W10014   9.767   5.197   2.981
 6271W        W10015   9.845   3.170   1.950
 6272W        W10016   1.792   9.387   9.486
 6273W        W10017   0.399   0.851  11.563
 6274W        W10018  10.246   3.240   2.469
 6275W        W10019   9.317   6.603   3.546
 6276W        W10020   0.002   4.698   9.069
 6277W        W10021   0.782   1.444   9.462
 6278W        W10022   8.079   7.892   1.302
 6279W        W10023   6.281   7.884   1.769
 6280W        W10024   9.246   0.739  10.958
 6281W        W10025   6.517   6.885  10.088
 6282W        W10026   7.107  10.300   3.344
 6283W        W10027   4.310   4.289   2.387
 6284W        W10028   0.905   0.809  10.753
 6285W        W10029   0.904   4.596   3.472
 6286W        W10030   8.462   7.701   2.309
 6287W        W10031   0.471   2.557   0.704
 6288W        W10032   8.576   7.457   1.873
 6289W        W10033   2.252   1.449   2.737
 6290W        W10034   9.552   1.948  10.481
 6291W        W10035   9.088   7.634  11.900
 6292W        W10036   9.374   8.411   1.268
 6293W        W10037   1.326   8.026   1.435
 6294W        W10038   4.408   9.027   2.973
 6295W        W10039   6.743   1.360  11.029
 6296W        W10040   0.407   3.753   2.055
 6297W        W10041   9.360   6.722   8.987
 6298W        W10042  10.444   2.265  11.564
 6299W        W10043   1.600   0.819  11.894
 6300W        W10044   5.211   3.330  10.296
 6301W        W10045   3.791   7.395  11.886
 6302W        W10046  10.487   3.596  10.454
 6303W        W10047   1.928   0.052   0.039
 6304W        W10048   7.407   1.669   0.273
 6305W        W10049   7.415   9.287   0.676
 6306W        W10050  10.484   9.571   9.100
 6307W        W10051   7.820   6.967   2.424
 6308W        W10052   2.652   1.670   3.174
 6309W        W10053   7.016   0.721   2.085
 6310W        W10054  10.236   4.674   9.522
 6311W        W10055   7.948   5.655  11.296
 6312W        W10056   5.685   0.765   2.022
 6313W        W10057  10.058   5.635   8.497
 6314W        W10058   1.736   1.193  10.365
 6315W        W10059   9.439   1.600  11.803
 6316W        W10060   8.163   4.541  11.687
 6317W        W10061   1.609   8.985  10.970
 6318W        W10062   7.354   4.316  10.465
 6319W        W10063  10.490   1.903   0.978
 6320W        W10064   2.341   9.060   9.538
 6321W        W10065   6.785   5.092  10.606
 6322W        W10066   7.434   3.623  10.947
 6323W        W10067   8.909   7.490  11.420
 6324W        W10068   7.856   5.094   9.604
 6325W        W10069   7.428   4.222   2.165
 6326W        W10070   1.924   8.431   0.850
 6327W        W10071   4.555   0.684   9.545
 6328W        W10072   9.959   1.784  11.953
 6329W        W10073   3.693   9.096   9.533
 6330W        W10074   2.212   9.951  10.084
 6331W        W10075   4.832   1.765   2.439
 6332W        W10076   9.048   3.723   0.777
 6333W        W10077   0.439   3.145   1.973
 6334W        W10078  10.462   5.069   0.080
 6335W        W10079   8.884   6.477  11.203
 6336W        W10080   8.834   8.504   8.955
 6337W        W10081   1.484   7.011   2.271
 6338W        W10082   2.645   7.345   8.187
 6339W        W10083   0.304   7.659  11.378
 6340W        W10084   2.232  10.229   0.293
 6341W        W10085   4.075   1.801   1.714
 6342W        W10086   5.664   2.147   2.390
 6343W        W10087   7.568   7.489   9.447
 6344W        W10088   5.084   2.113   9.045
 6345W        W10089   9.046   6.200  11.985
 6346W        W10090   5.314   6.775   3.599
 6347W        W10091   9.324   3.862   9.643
 6348W        W10092   5.355   4.759  10.631
 6349W        W10093   2.219   9.853   1.957
 6350W        W10094   3.465   6.639   1.835
 6351W        W10095   6.648   3.275   9.623
 6352W        W10096   6.030   0.730   9.076
 6353W        W10097   1.643   1.832   3.325
 6354W        W10098   4.333  10.427   8.666
 6355W        W10099   4.608   7.622  11.957
 6356W        W10100   2.250   6.478  11.108
 6357W        W10101   1.020  10.446  11.072
 6358W        W10102   2.193   2.043  11.635
 6359W        W10103   2.379   3.327   1.839
 6360W        W10104   6.486   2.091   3.461
 6361W        W10105   5.106   6.910   1.844
 6362W        W10106   5.444   2.568   0.816
 6363W        W10107   1.884   6.708   8.819
 6364W        W10108   5.591   9.750   0.465
 6365W        W10109   1.858   2.297   1.861
 6366W        W10110   6.489   4.036  11.368
 6367W        W10111   5.048  10.369  10.277
 6368W        W10112   7.997   4.604   3.436
 6369W        W10113   8.546   3.238   8.720
 6370W        W10114   1.331  10.441   8.735
 6371W        W10115  10.435  10.007   9.505
 6372W        W10116   0.783   0.710   2.740
 6373W        W10117   5.936   9.095   1.213
 6374W        W10118   4.294   0.524   0.204
 6375W        W10119   1.072   4.674  10.976
 6376W        W10120   7.567   6.385  10.883
 6377W        W10121   0.439   5.653  10.504
 6378W        W10122   7.647   5.751   3.066
 6379W        W10123   4.010   9.595   2.459
 6380W        W10124   1.800   5.073   0.408
 6381W        W10125   1.567   7.578   9.087
 6382W        W10126   6.165   2.804   1.672
 6383W        W10127   3.190  10.192  10.009
 6384W        W10128   6.634   8.884  10.543
 6385W        W10129   8.901  10.352   3.254
 6386W        W10130   6.271   7.062   2.308
 6387W        W10131   1.400   2.278   3.243
 6388W        W10132   8.772   9.991  10.006
 6389W        W10133   1.573   1.185   0.385
 6390W        W10134   3.634   8.980   0.077
 6391W        W10135   5.927   7.174   8.684
 6392W        W10136   8.311   4.160  11.377
 6393W        W10137   7.580   6.927  10.918
 6394W        W10138   0.002   8.376   9.617
 6395W        W10139   8.320   0.957   2.413
 6396W        W10140   9.788   7.599  11.422
 6397W        W10141  10.239   2.234   9.548
 6398W        W10142   3.986   0.935   8.492
 6399W        W10143   6.573   0.438  11.043
 6400W        W10144   7.558   1.799   8.977
 6401W        W10145   8.478   1.786   9.115
 6402W        W10146   2.692   6.098  11.540
 6403W        W10147   0.852   6.980   3.005
 6404W        W10148  10.214   5.345   2.787
 6405W        W10149   3.592   0.965   9.606
 6406W        W10150   9.895   4.941   1.677
 6407W        W10151   8.134   7.097   9.952
 6408W        W10152   7.291   8.732  11.272
 6409W        W10153   1.903  10.017  11.962
 6410W        W10154   7.930   7.607   8.062
 6411W        W10155   4.623   8.498  10.830
 6412W        W10156   3.047   8.526   1.844
 6413W        W10157   9.766   6.525   2.721
 6414W        W10158   0.821   3.771  10.354
 6415W        W10159   1.330   6.730   1.308
 6416W        W10160   5.217   1.398   0.501
 6417W        W10161  10.398   4.165   0.279
 6418W        W10162   0.701   1.688  11.161
 6419W        W10163   3.669   4.604  10.276
 6420W        W10164   4.400   2.361   9.838
 6421W        W10165   3.969   2.340   3.112
 6422W        W10166   1.162   6.675  10.269
 6423W        W10167   8.784   7.981   8.873
 6424W        W10168   0.657   7.990  10.000
 6425W        W10169   8.451  10.012   9.246
 6426W        W10170   1.303   8.725   0.579
 6427W        W10171   5.546   2.858   8.683
 6428W        W10172   4.380   8.062   1.465
 6429W        W10173   8.270   3.255   2.946
 6430W        W10174  10.361   5.154   1.506
 6431W        W10175   3.556   1.827   1.706
 6432W        W10176   0.941   6.929  11.584
 6433W        W10177   8.319   2.145   0.818
 6434W        W10178   4.615   5.992  10.952
 6435W        W10179   8.303   8.885  11.342
 6436W        W10180   1.863   9.911   2.645
 6437W        W10181   7.200   1.352  10.801
 6438W        W10182   4.623   9.627   1.848
 6439W        W10183   7.653   0.054   2.706
 6440W        W10184   6.943   6.304   0.490
 6441W        W10185   2.980   6.416   0.225
 6442W        W10186   5.108   7.164   3.332
 6443W        W10187   4.260  10.328  10.943
 6444W        W10188   0.690  10.478   2.314
 6445W        W10189   5.322   8.808   2.906
 6446W        W10190   6.074   4.204   8.391
 6447W        W10191   3.363   0.513   9.069
 6448W        W10192   0.845   4.346   1.210
 6449W        W10193   1.680   1.346  11.866
 6450W        W10194   0.540   6.648  11.455
 6451W        W10195   0.495   2.427   9.477
 6452W        W10196   8.129  10.040  11.752
 6453W        W10197   5.126   2.852  10.434
 6454W        W10198  10.475   3.809  10.961
 6455W        W10199   8.062   1.953   1.369
 6456W        W10200   6.728   2.710  10.861
 6457W        W10201   2.310   8.078   0.954
 6458W        W10202   3.173   6.616  10.812
 6459W        W10203   1.863   9.115  11.501
 6460W        W10204   6.685   9.840  10.920
 6461W        W10205   4.233   2.005  11.599
 6462W        W10206   1.637   7.002   0.491
 6463W        W10207   8.950   3.127  11.539
 6464W        W10208   1.354   0.217   1.471
 6465W        W10209   4.664   3.557   3.942
 6466W        W10210   2.248   8.780  11.364
 6467W        W10211   2.790   2.361   1.931
 6468W        W10212   1.400   5.703   0.931
 6469W        W10213   9.137   4.194   9.986
 6470W        W10214   9.842   2.359   9.257
 6471W        W10215   0.549   2.754  10.525
 6472W        W10216   0.868   2.168   2.726
 6473W        W10217   0.933   5.705   2.221
 6474W        W10218   4.863   8.640   1.189
 6475W        W10219   7.570   0.465   1.754
 6476W        W10220   2.154   6.026   0.847
 6477W        W10221   9.344   6.900   9.494
 6478W        W10222   7.007   9.741   9.481
 6479W        W10223   3.280   5.747   1.298
 6480W        W10224   8.436   4.131   1.877
 6481W        W10225   2.282   0.956   9.151
 6482W        W10226   2.407   4.535  10.814
 6483W        W10227   1.798   9.501  11.870
 6484W        W10228   4.358   8.449   8.572
 6485W        W10229   6.026   2.540   2.721
 6486W        W10230   7.261   0.391  10.924
 6487W        W10231   0.183  10.257   1.384
 6488W        W10232   0.259  10.189   2.192
 6489W        W10233   1.330   4.762   0.656
 6490W        W10234   8.069   9.767   1.900
 6491W        W10235   8.868   3.027   1.949
 6492W        W10236   7.439   9.484   1.163
 6493W        W10237   6.252   9.615   9.552
 6494W        W10238   3.594   9.362   9.953
 6495W        W10239   1.672   2.455   1.353
 6496W        W10240   7.363   7.061   9.640
 6497W        W10241   4.265   7.477   9.478
 6498W        W10242   1.929   7.256   2.386
 6499W        W10243   6.411   7.413   0.906
 6500W        W10244   1.381   9.319   8.744
 6501W        W10245   4.615   4.130   1.720
 6502W        W10246   6.647   9.518   9.864
 6503W        W10247   0.525   5.492   3.177
 6504W        W10248   2.287  10.307  11.768
 6505W        W10249   6.036   1.395   1.447
 6506W        W10250   6.205   5.203   0.514
 6507W        W10251   5.272   6.129   8.247
 6508W        W10252   0.904   3.870  11.268
 6509W        W10253   3.057   7.540   1.395
 6510W        W10254   7.516   5.273  11.920
 6511W        W10255   5.712   1.282  11.280
 6512W        W10256   7.827   2.260   1.844
 6513W        W10257   4.502   7.707   3.215
 6514W        W10258   3.808   4.535  10.784
 6515W        W10259   9.543   5.659  10.633
 6516W        W10260   5.989   2.210   1.768
 6517W        W10261   2.151   7.519   9.066
 6518W        W10262   0.183   7.342   1.543
 6519W        W10263   1.982   6.043   0.346
 6520W        W10264   5.663   4.364  10.521
 6521W        W10265   2.250   8.172   3.068
 6522W        W10266   7.458   1.370   2.220
 6523W        W10267   2.389   3.262   8.885
 6524W        W10268   6.425   5.698   1.393
 6525W        W10269   5.113   9.958   0.448
 6526W        W10270   4.638   2.339   2.353
 6527W        W10271  10.043   9.557   0.698
 6528W        W10272   4.155   7.710   2.356
 6529W        W10273   8.975   6.725   9.800
 6530W        W10274   7.900   8.455  10.413
 6531W        W10275   8.157   3.669   1.939
 6532W        W10276   8.347   5.260  11.381
 6533W        W10277   3.286   2.279   1.822
 6534W        W10278   0.337   9.466  11.736
 6535W        W10279   5.965   3.307   0.427
 6536W        W10280   3.834   6.563   1.456
 6537W        W10281   5.611   7.548   2.380
 6538W        W10282   7.468   6.053   0.330
 6539W        W10283   6.566   9.858  10.269
 6540W        W10284   7.386   0.654   0.309
 6541W        W10285   0.819   7.328   1.726
 6542W        W10286   5.079   3.742   3.680
 6543W        W10287   1.004   9.440   0.910
 6544W        W10288   5.045   5.137   2.414
 6545W        W10289   5.154   6.530   3.151
 6546W        W10290   4.754   6.256  11.392
 6547W        W10291   9.139   7.450   3.884
 6548W        W10292  10.320   4.117  11.720
 6549W        W10293   3.577   2.703   9.006
 6550W        W10294   2.105   5.134   0.822
 6551W        W10295   7.018   0.634   3.472
 6552W        W10296   1.758  10.019   3.157
 6553W        W10297   6.710   1.712  11.455
 6554W        W10298   1.151   5.136  10.779
 6555W        W10299   9.899   0.758   2.713
 6556W        W10300   0.614   9.280   3.271
 6557W        W10301   6.091   9.160  10.507
 6558W        W10302   7.406   1.171   0.336
 6559W        W10303   9.914   2.662   1.314
 6560W        W10304   9.751   4.267   2.654
 6561W        W10305   9.077   6.528   1.648
 6562W        W10306   8.821   3.106   2.959
 6563W        W10307   3.722   2.291   9.256
 6564W        W10308   1.300   6.274   9.957
 6565W        W10309   0.372  10.036   2.667
 6566W        W10310   8.929   0.747   8.490
 6567W        W10311   8.480   3.193  11.388
 6568W        W10312  10.355   0.409  10.474
 6569W        W10313   5.082   5.089   2.919
 6570W        W10314   6.475   0.874   9.820
 6571W        W10315   9.411   9.010   9.236
 6572W        W10316   8.944   5.518  10.245
 6573W        W10317  10.487   7.156  11.738
 6574W        W10318   3.853   1.881   2.174
 6575W        W10319   4.415   8.235   3.182
 6576W        W10320   7.956   8.380   1.195
 6577W        W10321   5.562   2.721   2.935
 6578W        W10322   5.203   4.001  11.243
 6579W        W10323   7.976   7.885   0.348
 6580W        W10324   7.162   9.676  11.018
 6581W        W10325   7.609   4.944   2.746
 6582W        W10326   5.688  10.417   9.450
 6583W        W10327   0.047   7.663   1.106
 6584W        W10328   6.219   1.586  11.520
 6585W        W10329   0.475   9.268   9.678
 6586W        W10330   0.454  10.420   1.778
 6587W        W10331   5.656   2.308   3.441
 6588W        W10332   8.364   4.942   3.484
 6589W        W10333   0.828   4.845   1.009
 6590W        W10334   4.650   1.316   3.105
 6591W        W10335   5.538   0.855   9.007
 6592W        W10336   5.104   7.594   4.011
 6593W        W10337   6.135   1.913   2.316
 6594W        W10338   2.200   2.412   2.831
 6595W        W10339   5.253   1.882   3.399
 6596W        W10340   8.666   6.929   0.198
 6597W        W10341   9.400   0.542   2.736
 6598W        W10342   9.391   3.085  11.780
 6599W        W10343   0.910   4.191   8.412
 6600W        W10344   4.783   5.596   0.800
 6601W        W10345   2.308   7.964   9.308
 6602W        W10346   5.026   5.611   2.169
 6603W        W10347  10.026   7.894  11.742
 6604W        W10348  10.203   8.672   8.706
 6605W        W10349   6.708   8.060   0.988
 6606W        W10350   1.286   9.481   9.765
 6607W        W10351   0.664   4.318  10.351
 6608W        W10352   5.612   3.092   4.087
 6609W        W10353   1.487   6.310  10.460
 6610W        W10354   8.169   4.164   8.202
 6611W        W10355   6.916   4.792  11.372
 6612W        W10356   0.093   8.781   1.199
 6613W        W10357   7.659   4.143   8.863
 6614W        W10358   9.035   5.243   1.476
 6615W        W10359   0.898   9.308   8.931
 6616W        W10360   6.938   8.868   2.357
 6617W        W10361   3.074   3.712   8.783
 6618W        W10362   4.124   2.629  10.156
 6619W        W10363   4.341   1.903   2.337
 6620W        W10364   0.248   9.057   2.969
 6621W        W10365   1.858   4.146  11.243
 6622W        W10366   9.292   7.033   0.954
 6623W        W10367   6.119   0.407   1.999
 6624W        W10368   7.459   3.777   1.199
 6625W        W10369   0.761   8.127   1.541
 6626W        W10370   5.578   3.875  10.509
 6627W        W10371  10.272   8.680   9.231
 6628W        W10372   8.099  10.295   2.757
 6629W        W10373   2.310   5.278   9.093
 6630W        W10374   8.561   6.118  11.831
 6631W        W10375   4.765   7.910   1.819
 6632W        W10376   2.361   4.992   8.625
 6633W        W10377   0.318   2.134  10.301
 6634W        W10378   6.416   6.533   9.383
 6635W        W10379   6.098  10.191  10.406
 6636W        W10380   8.885   0.370   9.653
 6637W        W10381   1.897   7.845   3.208
 6638W        W10382   2.621   6.057   2.376
 6639W        W10383   5.213   2.905   1.113
 6640W        W10384   2.805   1.504  11.194
 6641W        W10385   3.519   1.015  10.958
 6642W        W10386   5.521   3.840   3.446
 6643W        W10387  10.057   3.402  11.787
 6644W        W10388   3.073   8.979   1.243
 6645W        W10389   1.685   8.050  10.983
 6646W        W10390   8.768   5.974  10.467
 6647W        W10391   7.970   5.894   9.999
 6648W        W10392   3.532   1.889  11.042
 6649W        W10393   5.277   9.053   3.393
 6650W        W10394   9.348   9.865  11.636
 6651W        W10395   4.982   9.707   9.496
 6652W        W10396   3.387   5.942  11.348
 6653W        W10397   8.503   0.985  10.014
 6654W        W10398   5.249   2.624  10.930
 6655W        W10399   7.964   9.876   1.344
 6656W        W10400   4.889   7.782   2.758
 6657W        W10401   1.423   1.337  10.792
 6658W        W10402   4.225   8.724   2.222
 6659W        W10403   6.527   2.734   0.403
 6660W        W10404   2.243   5.614  10.968
 6661W        W10405   5.991   5.165  10.641
 6662W        W10406   1.457   9.716   0.818
 6663W        W10407   7.366   2.847   3.230
 6664W        W10408   1.904   5.396   1.236
 6665W        W10409   4.586   9.466  11.442
 6666W        W10410  10.080   0.012  10.986
 6667W        W10411   7.408   0.340  11.817
 6668W        W10412   3.681   5.853  10.947
 6669W        W10413   0.777   0.837   1.749
 6670W        W10414   3.952   1.798   2.682
 6671W        W10415  10.080   3.622   9.388
 6672W        W10416   9.449   6.008  11.760
 6673W        W10417   4.008   0.109   0.347
 6674W        W10418   7.938   9.223   1.864
 6675W        W10419   7.493   3.556  11.474
 6676W        W10420   6.216   4.696   2.577
 6677W        W10421  10.217   7.456   1.427
 6678W        W10422   8.035   1.311  10.630
 6679W        W10423   6.717   3.886   2.804
 6680W        W10424   2.609   9.944  10.489
 6681W        W10425   9.416   2.034   9.598
 6682W        W10426   0.208   0.656   1.830
 6683W        W10427   8.934   6.059   1.844
 6684W        W10428   4.617   5.953   9.843
 6685W        W10429   7.038   6.034   2.617
 6686W        W10430   1.455   6.265   9.472
 6687W        W10431   2.817   1.879   2.190
 6688W        W10432   7.298   2.338  10.260
 6689W        W10433   3.342   6.302  10.443
 6690W        W10434   0.815   4.089  10.776
 6691W        W10435   9.634   5.904   9.079
 6692W        W10436   8.538   6.573   2.822
 6693W        W10437   2.123   0.454   1.794
 6694W        W10438   9.404  10.264   1.653
 6695W        W10439   9.801   8.152   1.213
 6696W        W10440   6.333   9.110   9.645
 6697W        W10441   3.169   8.778   8.753
 6698W        W10442   1.742   2.674   2.745
 6699W        W10443   9.327   8.471   0.763
 6700W        W10444   4.232   0.234   3.223
 6701W        W10445   2.208   5.257   2.385
 6702W        W10446   1.778   0.723   9.836
 6703W        W10447   3.065   2.269  11.613
 6704W        W10448   2.550   4.033   8.494
 6705W        W10449   8.008   9.583  11.926
 6706W        W10450   5.049   0.781  10.421
 6707W        W10451   9.276   2.985   2.295
 6708W        W10452   1.431   8.432   9.769
 6709W        W10453   2.680   4.157   1.010
 6710W        W10454  10.366   1.268   9.482
 6711W        W10455   7.181   0.261   2.632
 6712W        W10456   1.378   6.973  11.224
 6713W        W10457   5.903   5.724   1.968
 6714W        W10458   2.720   7.013   1.307
 6715W        W10459   2.187   1.450  10.456
 6716W        W10460   4.948   4.587  11.971
 6717W        W10461   4.257   3.290   9.488
 6718W        W10462   8.070   0.182  10.082
 6719W        W10463   8.963   8.407   1.562
 6720W        W10464   6.662   2.748   1.463
 6721W        W10465   4.370   8.762   0.368
 6722W        W10466   2.407   8.986   2.514
 6723W        W10467   1.265   0.944   1.624
 6724W        W10468   7.130   5.700  11.115
 6725W        W10469   8.374   2.352   3.002
 6726W        W10470  10.142  10.407   9.333
 6727W        W10471   1.125   9.584   2.689
 6728W        W10472   2.635   2.855   9.917
 6729W        W10473   3.355   7.607  10.789
 6730W        W10474   0.992   1.065   9.741
 6731W        W10475   3.873   8.711   0.428
 6732W        W10476   6.082  10.179  11.827
 6733W        W10477   5.241   9.049   2.468
 6734W        W10478   5.166   2.384   2.240
 6735W        W10479   7.073   6.179   1.828
 6736W        W10480   1.394   0.291   3.264
 6737W        W10481   4.972   7.642   3.501
 6738W        W10482   5.205   5.678   9.822
 6739W        W10483   7.660   3.289   3.610
 6740W        W10484  10.171   0.291   2.185
 6741W        W10485   6.533   9.260   1.563
 6742W        W10486   5.108   9.978   9.960
 6743W        W10487   3.787   0.515   1.484
 6744W        W10488   5.725   5.047   0.001
 6745W        W10489   4.193   1.903   9.757
 6746W        W10490   8.056   5.238   0.688
 6747W        W10491   2.172   4.284   8.959
 6748W        W10492   7.053   3.304   9.909
 6749W        W10493   7.023   0.571   9.093
 6750W        W10494   5.663   7.340  10.089
 6751W        W10495   5.927   0.895  11.006
 6752W        W10496   4.965   7.066   8.536
 6753W        W10497   1.817   0.441   3.504
 6754W        W10498   5.526   6.001  11.891
 6755W        W10499   7.465   5.949   9.890
 6756W        W10500   9.239   4.153   9.081
 6757W        W10501   4.778   2.756   3.624
 6758W        W10502   5.129   5.158   3.426
 6759W        W10503   3.425   3.310   0.328
 6760W        W10504   0.886   4.572   9.962
 6761W        W10505   2.827   6.190  10.000
 6762W        W10506   8.293   5.064  10.537
 6763W        W10507   2.340   9.460   1.111
 6764W        W10508   6.232   0.842   3.180
 6765W        W10509   7.972   4.055   1.641
 6766W        W10510   1.877   7.437   3.585
 6767W        W10511   8.915   8.978   9.139
 6768W        W10512   5.150   4.015   1.907
 6769W        W10513  10.248   0.040  11.856
 6770W        W10514   7.931   6.104   0.516
 6771W        W10515   1.867   4.674   1.893
 6772W        W10516   9.951   8.589   2.026
 6773W        W10517   0.603   5.489   9.324
 6774W        W10518   4.027   2.761  11.008
 6775W        W10519   4.717   1.535   9.424
 6776W        W10520   8.737   0.007  10.010
 6777W        W10521   1.304   5.948   9.078
 6778W        W10522   0.419   3.969  11.467
 6779W        W10523   1.296   7.496   1.666
 6780W        W10524   8.027   2.787   9.235
 6781W        W10525   4.937   1.013  10.855
 6782W        W10526   4.090  10.403  10.446
 6783W        W10527   2.680   2.898   1.746
 6784W        W10528   3.217   3.632   9.290
 6785W        W10529   3.689   3.098   2.677
 6786W        W10530   6.596   8.002  10.755
 6787W        W10531   0.321   5.032   2.381
 6788W        W10532   7.022   6.441   2.274
 6789W        W10533   8.315   8.419  10.098
 6790W        W10534   0.430   3.730   9.033
 6791W        W10535   9.705   2.322  10.806
 6792W        W10536   2.216   2.938  10.192
 6793W        W10537   0.749   4.881  11.313
 6794W        W10538   2.270   1.947   2.625
 6795W        W10539   1.005   5.468   2.715
 6796W        W10540   3.614   5.328   1.275
 6797W        W10541   5.623   0.468   8.666
 6798W        W10542   5.630   0.401  10.154
 6799W        W10543   5.547   7.992   0.777
 6800W        W10544   5.247   0.770   1.152
 6801W        W10545   1.285   4.635   1.158
 6802W        W10546   1.439   6.602   0.814
 6803W        W10547   5.617   8.563   9.149
 6804W        W10548   4.293   2.206   2.749
 6805W        W10549   9.582   5.123  11.837
 6806W        W10550   0.703   0.314   0.969
 6807W        W10551   9.472   1.398   0.618
 6808W        W10552   6.441   3.681   9.418
 6809W        W10553   5.038   8.173   2.372
 6810W        W10554   9.469   1.361   3.049
 6811W        W10555   3.291   7.397   0.711
 6812W        W10556   7.953   3.846   8.574
 6813W        W10557   5.792   1.840   3.655
 6814W        W10558   8.443   0.825  10.545
 6815W        W10559   0.183   2.038   9.366
 6816W        W10560   3.824   7.606   8.916
 6817W        W10561   0.975   6.601  11.199
 6818W        W10562   6.374   8.772   1.668
 6819W        W10563   7.072   8.179  11.019
 6820W        W10564   0.364   9.754   9.618
 6821W        W10565   8.354   4.604   9.885
 6822W        W10566   2.121  10.382   2.707
 6823W        W10567   5.553   1.673  10.026
 6824W        W10568   0.326   0.019   3.099
 6825W        W10569   5.073   7.468   0.063
 6826W        W10570   2.665  10.358   9.474
 6827W        W10571   3.737   7.157   0.335
 6828W        W10572   4.039   5.689   1.368
 6829W        W10573   4.058   5.788   0.546
 6830W        W10574   1.417   0.463   8.656
 6831W        W10575   4.739   8.601   3.038
 6832W        W10576   9.039   5.373   2.342
 6833W        W10577   4.737   6.458   9.928
 6834W        W10578   8.474   9.833   1.522
 6835W        W10579   1.385   4.692   2.668
 6836W        W10580   1.683   5.506  10.182
 6837W        W10581   6.359   4.647   1.015
 6838W        W10582   3.038   7.696   8.158
 6839W        W10583   7.353   6.180   1.281
 6840W        W10584   6.896   1.312   9.350
 6841W        W10585   0.869   8.813  11.413
 6842W        W10586   3.059   0.299  11.327
 6843W        W10587   5.099   5.223  10.604
 6844W        W10588   3.487   0.011   2.344
 6845W        W10589   3.714  10.384   1.216
 6846W        W10590   8.980   2.717   9.722
 6847W        W10591   7.052   9.420   0.343
 6848W        W10592   7.652   8.370   1.911
 6849W        W10593   2.828   6.419   0.707
 6850W        W10594   5.748   0.943   3.551
 6851W        W10595   3.131   5.518   9.240
 6852W        W10596   6.198   3.463  10.347
 6853W        W10597   2.169   6.323   2.347
 6854W        W10598   6.487   9.717   0.597
 6855W        W10599   1.855   3.646   3.205
 6856W        W10600   2.674   9.997   0.391
 6857W        W10601   1.779   0.911  10.817
 6858W        W10602   4.176   1.460   1.314
 6859W        W10603   3.486   9.044  11.614
 6860W        W10604   1.063   2.728  10.702
 6861W        W10605   0.758   6.002   9.031
 6862W        W10606   0.544   8.701   0.431
 6863W        W10607   7.734   7.866   1.864
 6864W        W10608   8.937   9.347   2.949
 6865W        W10609   6.310   7.558   2.157
 6866W        W10610   0.414   6.390   1.325
 6867W        W10611   9.783   4.942   0.274
 6868W        W10612  10.246  10.070  10.379
 6869W        W10613   6.495   3.191   0.042
 6870W        W10614   0.690   1.292   2.313
 6871W        W10615   6.971   2.211   2.701
 6872W        W10616   6.727   5.225   2.165
 6873W        W10617   7.934   8.417   8.760
 6874W        W10618   3.276   4.465   0.834
 6875W        W10619   0.790   6.307   0.336
 6876W        W10620   1.503   2.454   0.582
 6877W        W10621   7.056   4.721   8.642
 6878W        W10622   6.831   7.074  10.437
 6879W        W10623   1.407   6.429   8.969
 6880W        W10624   2.338   8.974   2.007
 6881W        W10625   9.801   4.244   1.220
 6882W        W10626   9.570   8.472   9.946
 6883W        W10627   8.814   0.427  11.129
 6884W        W10628   2.095   6.893  10.510
 6885W        W10629   3.867   5.724  11.430
 6886W        W10630   1.987   7.644  10.903
 6887W        W10631   9.865   8.352   0.737
 6888W        W10632   4.500   4.532   1.987
 6889W        W10633   4.905  10.440   2.521
 6890W        W10634   9.728   7.908   9.808
 6891W        W10635   7.692   1.340  11.941
 6892W        W10636   7.586   9.144  10.234
 6893W        W10637  10.405   2.496   1.438
 6894W        W10638   0.492   0.720  10.459
 6895W        W10639   2.117   6.484   0.122
 6896W        W10640   4.148   9.765   1.982
 6897W        W10641   8.008   8.842  10.094
 6898W        W10642   2.242   6.906  11.491
 6899W        W10643   7.082   4.488   2.421
 6900W        W10644   4.626   4.089   2.749
 6901W        W10645   9.008   0.242   2.898
 6902W        W10646   9.049   1.845   1.191
 6903W        W10647   9.433   2.750  10.890
 6904W        W10648   0.356   7.137  11.393
 6905W        W10649   6.990   3.626   1.069
 6906W        W10650   2.978   0.296   8.742
 6907W        W10651   9.867   9.947   2.384
 6908W        W10652   9.585   8.146   9.352
 6909W        W10653   5.035   4.105   1.432
 6910W        W10654   9.723   9.216   0.880
 6911W        W10655   6.512   1.236   0.390
 6912W        W10656   1.405   7.369   0.156
 6913W        W10657  10.115   9.058   2.183
 6914W        W10658  10.425   6.932   1.715
 6915W        W10659   2.511   0.507   8.966
 6916W        W10660   0.413   1.196   1.819
 6917W        W10661   3.340   7.568  11.756
 6918W        W10662   8.792   0.897   2.229
 6919W        W10663   4.088   4.544   3.205
 6920W        W10664   8.923   1.007   3.458
 6921W        W10665   2.798   5.542   1.250
 6922W        W10666   8.478   6.200  10.832
 6923W        W10667   9.432   7.492   1.753
 6924W        W10668   1.692   5.073  10.452
 6925W        W10669   5.559   2.255  11.699
 6926W        W10670   2.718  10.426  10.015
 6927W        W10671   9.086   9.028   9.654
 6928W        W10672   7.236   4.092   3.779
 6929W        W10673   3.895   1.071  11.347
 6930W        W10674   2.611   1.647  10.715
 6931W        W10675   0.646   5.838   2.797
 6932W        W10676   7.618   9.130   1.499
 6933W        W10677   5.999   9.905   8.564
 6934W        W10678   6.813   6.139   3.091
 6935W        W10679   6.379   2.345   9.369
 6936W        W10680   6.332   4.351  10.031
 6937W        W10681   7.161   0.924  10.485
 6938W        W10682   7.899   0.850  11.229
 6939W        W10683   3.127   3.223   1.169
 6940W        W10684   8.372   1.401   1.651
 6941W        W10685   9.114   0.792  11.950
 6942W        W10686   7.884   1.219   1.003
 6943W        W10687   5.307   5.639   0.682
 6944W        W10688   4.548   5.146   0.616
 6945W        W10689   9.701   3.207  10.635
 6946W        W10690   3.873   4.899   1.377
 6947W        W10691   8.811   0.404  11.629
 6948W        W10692   2.604   2.488   1.294
 6949W        W10693   9.417  10.005   1.192
 6950W        W10694   5.253   7.004  11.999
 6951W        W10695   5.834   6.768   3.688
 6952W        W10696   9.425   2.944   9.901
 6953W        W10697   9.039   4.056  11.885
 6954W        W10698   6.910   2.423   0.749
 6955W        W10699   4.866   2.106   1.932
 6956W        W10700   2.474   8.343   8.241
 6957W        W10701   9.994   6.866  10.930
 6958W        W10702   1.743   7.658   1.513
 6959W        W10703   2.842   9.929  10.937
 6960W        W10704   1.103   7.188   1.328
 6961W        W10705   1.923   7.438   0.431
 6962W        W10706  10.170   3.180  10.343
 6963W        W10707   4.582   1.651  11.529
 6964W        W10708   3.553   6.349  11.037
 6965W        W10709   7.223   6.595   8.867
 6966W        W10710   2.353   8.728   0.403
 6967W        W10711   0.278   9.683   2.279
 6968W        W10712   2.326   7.477   0.764
 6969W        W10713   0.189   2.685  11.802
 6970W        W10714   6.036   8.194  11.997
 6971W        W10715   9.319   1.741  11.328
 6972W        W10716   5.033   0.529  10.971
 6973W        W10717   9.743   6.728   8.616
 6974W        W10718   1.704   7.851   0.276
 6975W        W10719   7.979   9.847   2.434
 6976W        W10720   4.807   1.621   8.317
 6977W        W10721   9.978   1.420   1.716
 6978W        W10722   6.429   8.031   9.801
 6979W        W10723  10.433   5.639  10.474
 6980W        W10724   7.085   9.922   1.267
 6981W        W10725   3.050   4.608   9.014
 6982W        W10726   5.314   2.872   2.070
 6983W        W10727   1.166   7.994   0.896
 6984W        W10728   8.985   3.959   2.879
 6985W        W10729   1.272   1.944  11.333
 6986W        W10730   7.056   1.165   2.464
 6987W        W10731   6.018   1.585   2.780
 6988W        W10732   5.728   9.064   3.104
 6989W        W10733   0.493   3.077   0.728
 6990W        W10734   8.602   2.257   1.567
 6991W        W10735   4.365   1.172   0.012
 6992W        W10736   8.948   7.053   8.976
 6993W        W10737   5.182   3.056   3.034
 6994W        W10738   5.822   1.378  11.773
 6995W        W10739   3.249   6.642   1.060
 6996W        W10740   0.453   7.542  10.089
 6997W        W10741   8.938   7.817   1.223
 6998W        W10742   0.551   0.855   3.197
 6999W        W10743   7.081   1.719   2.483
 7000W        W10744   0.180   9.928  11.405
 7001W        W10745   0.782   4.159   0.213
 7002W        W10746  10.477   2.933   2.119
 7003W        W10747   8.056   3.741  10.295
 7004W        W10748   7.010  10.373  10.382
 7005W        W10749   7.949   5.660  10.736
 7006W        W10750   7.677   3.592   0.347
 7007W        W10751   9.812   7.857   0.708
 7008W        W10752   3.271   9.284   0.287
 7009W        W10753   0.018   3.238  11.845
 7010W        W10754   9.497  10.018   0.274
 7011W        W10755   3.170   4.597   8.171
 7012W        W10756   3.418   4.462   3.160
 7013W        W10757   1.006   3.816   2.786
 7014W        W10758   9.155  10.310   9.783
 7015W        W10759   2.618   6.482   1.654
 7016W        W10760   1.432   9.788   1.343
 7017W        W10761   4.263   0.463   2.235
 7018W        W10762   9.998   6.685   1.427
 7019W        W10763   4.920   7.150   3.797
 7020W        W10764   3.834   9.044  11.225
 7021W        W10765   4.596   0.889   2.263
 7022W        W10766   0.668  10.009   9.983
 7023W        W10767   3.158   7.136  10.795
 7024W        W10768   5.767   4.668  10.931
 7025W        W10769   7.324   0.859   1.110
 7026W        W10770   4.691   6.467   0.798
 7027W        W10771   5.424   5.425   0.212
 7028W        W10772  10.339   0.819  10.194
 7029W        W10773   6.910  10.258   9.456
 7030W        W10774   3.805   1.439  10.888
 7031W        W10775   9.884   4.080   0.396
 7032W        W10776   2.831   6.673   9.813
 7033W        W10777   2.365   8.547  10.880
 7034W        W10778   9.792   3.597   0.775
 7035W        W10779   5.166   9.832   2.973
 7036W        W10780   9.218   7.450   3.387
 7037W        W10781   4.719   3.610   2.953
 7038W        W10782   9.835   6.377  10.930
 7039W        W10783   2.734   1.689   2.657
 7040W        W10784   0.361   3.581  10.093
 7041W        W10785   7.554   4.434   2.650
 7042W        W10786   2.188   2.892   2.011
 7043W        W10787   1.571   3.670   1.377
 7044W        W10788   8.981   8.350  10.834
 7045W        W10789   1.778   3.144  10.456
 7046W        W10790   7.239   3.346   3.292
 7047W        W10791   1.865   8.830   9.545
 7048W        W10792   7.355   4.537  11.530
 7049W        W10793   2.208   5.550   1.914
 7050W        W10794   8.088   1.583  11.059
 7051W        W10795   2.646   4.674  10.038
 7052W        W10796   2.947  10.228   1.699
 7053W        W10797   8.962   1.781   9.832
 7054W        W10798   6.082   3.311   9.418
 7055W        W10799  10.087   0.406   9.078
 7056W        W10800   6.190   0.655   3.646
 7057W        W10801  10.332   1.382  10.466
 7058W        W10802   3.583   9.944  11.539
 7059W        W10803   5.012   9.963  11.210
 7060W        W10804   7.571   5.036   1.849
 7061W        W10805   8.698   3.714   9.060
 7062W        W10806   6.274   0.814  10.334
 7063W        W10807   2.512   4.014   9.414
 7064W        W10808   8.522   3.363   0.012
 7065W        W10809   3.770   0.255   2.959
 7066W        W10810   9.705   0.358  10.816
 7067W        W10811   6.931   5.983  10.641
 7068W        W10812   0.884   3.845   1.860
 7069W        W10813   8.131   4.624  10.341
 7070W        W10814   1.279   3.804   2.341
 7071W        W10815   6.964   8.290   9.746
 7072W        W10816  10.041   1.819  10.441
 7073W        W10817  10.272   6.000   1.761
 7074W        W10818   5.893   0.685   2.822
 7075W        W10819   0.985   8.963   3.481
 7076W        W10820   4.089   4.093  10.794
 7077W        W10821   4.723   8.645   1.684
 7078W        W10822  10.429   3.696   3.238
 7079W        W10823   1.654   1.955   1.488
 7080W        W10824   6.640   6.254   4.063
 7081W        W10825   8.614   1.722   0.868
 7082W        W10826   0.164   0.843   0.567
 7083W        W10827   0.998   4.670   0.256
 7084W        W10828   0.156   2.186   2.315
 7085W        W10829   1.799   7.147  10.898
 7086W        W10830   8.929   7.469  10.342
 7087W        W10831   8.554   2.136  11.478
 7088W        W10832   6.541   0.978  11.939
 7089W        W10833   9.686   8.954  11.115
 7090W        W10834   2.781   9.551  11.662
 7091W        W10835   7.800   6.581   0.656
 7092W        W10836   8.498   3.708  11.556
 7093W        W10837   0.364   5.023   1.373
 7094W        W10838   3.680   4.114  11.082
 7095W        W10839   6.176   7.080  10.948
 7096W        W10840   0.803   2.202   1.738
 7097W        W10841   2.364   3.796   1.651
 7098W        W10842   0.462   1.833   3.425
 7099W        W10843   8.394   7.420  11.430
 7100W        W10844   7.602   3.753   2.051
 7101W        W10845   6.606   1.222  11.496
 7102W        W10846   2.806   7.363   2.840
 7103W        W10847   0.609   4.589  10.783
 7104W        W10848   0.793   0.948   8.720
 7105W        W10849   6.251   4.955   0.051
 7106W        W10850   3.963   2.095   0.019
 7107W        W10851   2.966  10.315   3.199
 7108W        W10852   5.836   0.490   3.293
 7109W        W10853   2.135   8.681   8.547
 7110W        W10854   1.468   1.261   3.209
 7111W        W10855   0.142   8.949  10.920
 7112W        W10856   1.089   0.916   3.109
 7113W        W10857   3.278   4.148   8.986
 7114W        W10858   8.567   1.356   0.392
 7115W        W10859   6.601   6.519   0.888
 7116W        W10860   7.396   2.264  10.884
 7117W        W10861   3.423  10.291   1.863
 7118W        W10862   9.339   1.814   0.251
 7119W        W10863   6.275   7.871   0.786
 7120W        W10864   2.690   0.554   0.200
 7121W        W10865   5.766   4.920   0.491
 7122W        W10866   6.414   8.977  11.006
 7123W        W10867   6.268   0.401   9.995
 7124W        W10868   3.127   9.297  11.389
 7125W        W10869   6.551  10.411   9.113
 7126W        W10870   6.849   4.339  10.095
 7127W        W10871  10.068   2.119   8.784
 7128W        W10872   7.568   2.221   9.297
 7129W        W10873   1.278   7.995   9.038
 7130W        W10874   8.593   1.277   8.954
 7131W        W10875   7.901   3.865   9.245
 7132W        W10876   4.271   1.808   9.257
 7133W        W10877  10.413   4.723   3.525
 7134W        W10878   9.975   1.839   2.479
 7135W        W10879   2.565   9.009   1.169
 7136W        W10880   3.702   7.592  10.285
 7137W        W10881   8.423   3.718   9.941
 7138W        W10882   2.861   2.402   9.851
 7139W        W10883  10.353   1.619   8.619
 7140W        W10884   6.563   1.963   2.050
 7141W        W10885   4.087   7.812   0.299
 7142W        W10886   0.811   3.290   8.991
 7143W        W10887   3.585   5.515   9.887
 7144W        W10888   1.785  10.408   9.501
 7145W        W10889   9.913   0.157   0.851
 7146W        W10890   6.016   0.796   8.574
 7147W        W10891   7.268   7.761  11.956
 7148W        W10892   6.743   2.701   2.307
 7149W        W10893   3.670   0.829  10.509
 7150W        W10894   2.255   8.215   3.563
 7151W        W10895   8.332   3.659   9.431
 7152W        W10896   7.906   3.247   2.105
 7153W        W10897   0.944   3.203   1.837
 7154W        W10898   7.441   8.636  10.450
 7155W        W10899   0.832   0.606   9.590
 7156W        W10900   9.079   1.947  10.308
 7157W        W10901   9.105   9.281   1.375
 7158W        W10902   4.324   2.887  10.534
 7159W        W10903   8.678   1.223   1.268
 7160W        W10904   6.962   2.685   3.511
 7161W        W10905   4.132   6.123   9.641
 7162W        W10906   2.307  10.317  11.257
 7163W        W10907   2.933   3.266   9.946
 7164W        W10908   9.038   1.266  11.727
 7165W        W10909   1.866   0.178  10.537
 7166W        W10910   1.112   2.659   3.399
 7167W        W10911   9.523   2.614  11.989
 7168W        W10912   7.133   4.190   2.850
 7169W        W10913   0.682   6.039  10.714
 7170W        W10914   6.527   1.932  11.916
 7171W        W10915   2.677   4.101  10.853
 7172W        W10916   8.284   6.976   2.618
 7173W        W10917   0.932   8.488   0.943
 7174W        W10918   1.385   0.247   9.554
 7175W        W10919   1.542   5.060   9.333
 7176W        W10920   4.081   4.336   0.558
 7177W        W10921   4.156   8.360   3.631
 7178W        W10922   6.453   6.078   9.751
 7179W        W10923   8.100   2.112   9.997
 7180W        W10924   3.230   8.949   2.452
 7181W        W10925   7.926   0.202   3.444
 7182W        W10926   3.108   3.730  10.027
 7183W        W10927   4.022  10.210  11.406
 7184W        W10928   1.132   5.942   2.937
 7185W        W10929   0.938   1.297   1.884
 7186W        W10930   8.816   8.577   9.485
 7187W        W10931   4.363   6.591   2.874
 7188W        W10932   7.567   6.045   8.872
 7189W        W10933   0.679   1.957   9.372
 7190W        W10934   3.763   0.967   1.750
 7191W        W10935   7.037   0.174   2.141
 7192W        W10936   5.827   2.896   2.070
 7193W        W10937   9.831   8.841   0.083
 7194W        W10938   1.813  10.171  10.481
 7195W        W10939   3.095   2.288   2.367
 7196W        W10940   0.666   1.349   0.057
 7197W        W10941   2.189   2.402   0.629
 7198W        W10942   7.464   4.128   9.348
 7199W        W10943   3.329   0.749  11.365
 7200W        W10944   2.646  10.364   2.668
 7201W        W10945  10.493   5.570   9.029
 7202W        W10946   4.981   1.705   2.962
 7203W        W10947   3.937   4.493   0.094
 7204W        W10948   9.333   4.536   2.382
 7205W        W10949   9.222  10.141  10.386
 7206W        W10950   9.372   0.915   0.408
 7207W        W10951   1.231   2.742   9.299
 7208W        W10952   2.589   4.226   1.887
 7209W        W10953   3.102   5.547   9.737
 7210W        W10954   2.856   9.005   9.499
 7211W        W10955   5.523   6.041  10.757
 7212W        W10956   7.728   7.834   9.807
 7213W        W10957   3.073   2.710   8.866
 7214W        W10958   5.069  10.387   8.728
 7215W        W10959   6.504  10.461   0.009
 7216W        W10960   3.823   3.171   9.762
 7217W        W10961   7.828   6.473   0.164
 7218W        W10962   6.064   2.189   8.482
 7219W        W10963   3.201   3.209  11.048
 7220W        W10964   4.756  10.149   9.365
 7221W        W10965   4.119   7.052   9.768
 7222W        W10966  10.358   9.917   2.727
 7223W        W10967   4.090   2.637   1.864
 7224W        W10968   0.505   0.852   2.189
 7225W        W10969   1.356   1.454   0.746
 7226W        W10970   2.030   1.787   1.788
 7227W        W10971   3.742  10.074   2.195
 7228W        W10972   5.636   4.874  11.410
 7229W        W10973   9.833   7.726   2.239
 7230ION    NA+10974   7.957   6.923   9.028
 7231ION    NA+10975   8.835  10.453  11.960
 7232ION    NA+10976   0.376   6.630   3.606
 7233ION    NA+10977   6.658   1.788   3.073
 7234ION    NA+10978  10.497   3.676  11.506
 7235ION    NA+10979   1.382   8.612   2.963
 7236ION    NA+10980   9.970   6.481   0.957
 7237ION    NA+10981   4.906   0.338   9.420
 7238ION    NA+10982   2.975   4.755   0.162
 7239ION    NA+10983   0.112   0.423   9.080
 7240ION    NA+10984   7.294   4.584   8.174
 7241ION    NA+10985   0.193   9.058   9.275
 7242ION    NA+10986   5.273   7.108  11.050
 7243ION    NA+10987   5.211   3.076   9.038
 7244ION    NA+10988   6.359   8.910  10.125
 7245ION    NA+10989   1.449   6.758   9.799
 7246ION    NA+10990   4.060   1.978  11.070
 7247ION    NA+10991   1.580   0.251   0.952
 7248ION    NA+10992   2.743   0.368  10.834
 7249ION    NA+10993   2.324   2.513   1.721
 7250ION    NA+10994   9.409   0.157   2.029
 7251ION    NA+10995   0.464   7.723   1.370
 7252ION    NA+10996   7.712   0.960   3.837
 7253ION    NA+10997   7.925   3.761   9.759
 7254ION    NA+10998   0.190   5.362  10.831
 7255ION    NA+10999   3.799   4.791  11.224
 7256ION    NA+11000   7.047   1.980   0.519
 7257ION    NA+11001   3.621   9.286   2.430
 7258ION    NA+11002   6.625   3.536   1.889
 7259ION    NA+11003   3.257   6.591   9.467
 7260ION    NA+11004   1.621   4.986   1.353
 7261ION    NA+11005  10.369  10.343   3.077
 7262ION    NA+11006   2.686   1.980  11.116
 7263ION    NA+11007   7.001  10.027   9.012
 7264ION    NA+11008   9.362   3.281   0.783
 7265ION    NA+11009   1.703   1.802  11.072
 7266ION    NA+11010   1.726   2.961   9.178
 7267ION    NA+11011   4.536   6.795   9.601
 7268ION    NA+11012   1.785   7.164  11.524
 7269ION    NA+11013   3.892   0.876   0.272
 7270ION    NA+11014   0.313   9.149   0.324
 7271ION    NA+11015   9.404   1.462  10.446
 7272ION    NA+11016   7.593   2.109  11.364
 7273ION    NA+11017   9.586   5.207   3.458
 7274ION    NA+11018   4.536   5.157   0.083
 7275ION    NA+11019   0.918   5.398   0.115
 7276ION    NA+11020  10.115   9.618   9.531
 7277ION    NA+11021   3.386   6.642   2.608
 7278ION    NA+11022   2.742   9.330   1.947
 7279ION    NA+11023   5.917   9.124  10.995
 7280ION    NA+11024   4.949   3.263   8.092
 7281ION    NA+11025   5.375   4.852   1.644
 7282ION    NA+11026   9.654   3.730  11.123
 7283ION    NA+11027   0.243   5.153   1.879
 7284ION    NA+11028   1.137  10.086  11.620
 7285ION    NA+11029   1.717   0.408  10.978
 7286ION    NA+11030   4.105   8.147   1.037
 7287ION    NA+11031   5.117   2.405   1.186
 7288ION    NA+11032   1.087   9.038  11.841
 7289ION    NA+11033   0.370   7.996   2.941
 7290ION    NA+11034   6.304   9.619   1.881
 7291ION    NA+11035   4.940   4.725   0.923
 7292ION    NA+11036   0.666   0.759   0.734
 7293ION    NA+11037   1.093   9.875   3.203
 7294ION    NA+11038   3.827   0.906  10.039
 7295ION    NA+11039   1.931   7.677   9.958
 7296ION    NA+11040   5.259   5.584  11.745
 7297ION    NA+11041   3.944   0.070   9.463
 7298ION    NA+11042   2.807   0.213   0.555
 7299ION    NA+11043   7.895   0.705   2.221
 7300ION    NA+11044   2.011   0.551   0.026
 7301ION    NA+11045   4.761   3.657   1.929
 7302ION    NA+11046   1.037   8.228  11.874
 7303ION    NA+11047   6.809   7.588   0.702
 7304ION    NA+11048   2.759   7.953   2.296
 7305ION    NA+11049   4.366   8.621   9.921
 7306ION    CL-11050   5.116   4.949   1.283
 7307ION    CL-11051   4.869   5.388  11.871
 7308ION    CL-11052   9.012   2.825  10.227
 7309ION    CL-11053   8.575   1.390   9.452
 7310ION    CL-11054  10.356   3.243   1.748
 7311ION    CL-11055   5.458   6.906   1.483
 7312ION    CL-11056   1.700  10.070   8.577
 7313ION    CL-11057   8.499   8.838   9.817
 7314ION    CL-11058   9.216   0.211  10.887
 7315ION    CL-11059   3.167   2.762   3.343
 7316ION    CL-11060   1.992   8.049   9.709
 7317ION    CL-11061   2.796   3.619   1.089
 7318ION    CL-11062   7.367  10.072   9.273
 7319ION    CL-11063   0.610   7.315   1.255
 7320ION    CL-11064   2.677   1.860  11.546
 7321ION    CL-11065   1.226   8.608  11.712
 7322ION    CL-11066   1.313   2.936  11.736
 7323ION    CL-11067   3.729   8.903   2.229
 7324ION    CL-11068   4.690   0.498   1.934
 7325ION    CL-11069   9.171   2.613   8.736
 7326ION    CL-11070   2.852   0.568   2.020
 7327ION    CL-11071   4.052   0.935   1.301
 7328ION    CL-11072   6.771   9.027   9.999
 7329ION    CL-11073   8.537   9.139   0.521
 7330ION    CL-11074   9.415   4.347   9.540
 7331ION    CL-11075   6.749   9.554   1.939
 7332ION    CL-11076   9.341   3.489  10.898
 7333ION    CL-11077   7.861   8.917  10.606
 7334ION    CL-11078   2.899   4.531   3.229
 7335ION    CL-11079   2.701   1.232   1.288
 7336ION    CL-11080   0.642   9.012   0.000
 7337ION    CL-11081   0.178   8.947   0.715
 7338ION    CL-11082   2.083   3.812   0.415
 7339ION    CL-11083   1.575   2.933   8.749
 7340ION    CL-11084   4.440  10.000  11.973
 7341ION    CL-11085   1.299   8.627   2.515
 7342ION    CL-11086   2.448   7.673   2.452
 7343ION    CL-11087   5.121   9.214   9.500
 7344ION    CL-11088   4.752   9.918  10.302
 7345ION    CL-11089   8.323   5.251   8.795
 7346ION    CL-11090   6.491   1.383   3.194
 7347ION    CL-11091  10.075   3.722  11.338
 7348ION    CL-11092   9.905   8.076   1.842
 7349ION    CL-11093   6.832   7.174   0.932
 7350ION    CL-11094   2.254   1.864   0.524
 7351ION    CL-11095   5.062   2.899   9.419
 7352ION    CL-11096  10.477   9.351   9.548
 7353ION    CL-11097   4.187   3.665   3.658
 7354ION    CL-11098   5.871   7.821   1.137
 7355ION    CL-11099   2.540   4.682   0.228
 7356ION    CL-11100   3.137   5.177   8.855
 7357ION    CL-11101   4.847   4.559  10.704
 7358ION    CL-11102   7.156   8.417   1.762
 7359ION    CL-11103   4.020   2.353  11.308
 7360ION    CL-11104   1.209   9.142  10.140
 7361ION    CL-11105   6.738   9.973   8.637
 7362ION    CL-11106   7.974   4.497   1.361
 7363ION    CL-11107   0.288   9.845   0.419
 7364ION    CL-11108   2.584   6.459  11.919
 7365ION    CL-11109   7.981   6.171   9.544
 7366ION    CL-11110   1.370   8.613   3.447
 7367ION    CL-11111   9.340   5.018   8.725
 7368ION    CL-11112   0.613   5.238  10.910
 7369ION    CL-11113   5.156   3.446   4.101
 7370ION    CL-11114   6.920   7.933   0.422
 7371ION    CL-11115   5.857   9.674   1.815
 7372ION    CL-11116   4.011   5.059  10.939
 7373ION    CL-11117   3.491   6.866   2.979
 7374ION    CL-11118   0.571   1.145   0.530
 7375ION    CL-11119   8.472   8.213  10.990
 7376ION    CL-11120   8.918   6.938  10.791
 7377ION    CL-11121   8.468  10.122   3.105
 7378ION    CL-11122   4.208   2.294   9.386
 7379ION    CL-11123   2.952   0.775   8.910
 7380ION    CL-11124   2.239   2.890   1.493
 7381ION    CL-11125   1.243   9.754  11.906
  10.50000  10.50000  12.00000
