Protein in INSANE! Membrane UpperLeaflet>POPC=1.0 LowerLeaflet>POPC=1.0
11125
    1AU     AUC    1   5.250   5.303   6.009
    1AU     AUC    2   5.537   5.309   5.838
    1AU     AUC    3   5.526   5.292   6.185
    1AU     AUC    4   4.964   5.295   5.841
    1AU     AUC    5   4.977   5.336   6.194
    1AU     AUC    6   5.073   5.583   6.004
    1AU     AUC    7   5.441   5.576   6.003
    1AU     AUC    8   5.061   5.039   6.013
    1AU     AUC    9   5.413   5.014   6.006
    1AU     AUC   10   5.251   5.131   6.286
    1AU     AUC   11   5.241   5.478   6.276
    1AU     AUC   12   5.248   5.138   5.730
    1AU     AUC   13   5.269   5.458   5.731
    1AU     AUC   14   5.852   5.314   5.669
    1AU     AUC   15   5.863   5.267   6.029
    1AU     AUC   16   5.800   5.266   6.362
    1AU     AUC   17   4.659   5.288   5.670
    1AU     AUC   18   4.639   5.325   6.037
    1AU     AUC   19   4.684   5.363   6.381
    1AU     AUC   20   4.902   5.890   5.974
    1AU     AUC   21   5.257   5.900   5.958
    1AU     AUC   22   5.631   5.859   5.996
    1AU     AUC   23   4.858   4.761   6.016
    1AU     AUC   24   5.207   4.705   6.001
    1AU     AUC   25   5.571   4.709   5.985
    1AU     AUC   26   5.231   4.957   6.578
    1AU     AUC   27   5.265   5.336   6.620
    1AU     AUC   28   5.257   5.671   6.562
    1AU     AUC   29   5.271   4.966   5.452
    1AU     AUC   30   5.270   5.296   5.396
    1AU     AUC   31   5.255   5.611   5.439
    1AU     AUC   32   5.521   5.107   6.500
    1AU     AUC   33   5.556   5.477   6.497
    1AU     AUC   34   5.585   5.156   5.504
    1AU     AUC   35   5.586   5.485   5.549
    1AU     AUC   36   4.944   5.176   6.524
    1AU     AUC   37   4.961   5.544   6.490
    1AU     AUC   38   4.949   5.118   5.544
    1AU     AUC   39   4.927   5.429   5.501
    1AU     AUC   40   5.788   5.584   5.870
    1AU     AUC   41   5.748   5.584   6.207
    1AU     AUC   42   4.752   5.596   5.832
    1AU     AUC   43   4.769   5.651   6.187
    1AU     AUC   44   5.719   4.995   5.823
    1AU     AUC   45   5.700   4.954   6.181
    1AU     AUC   46   4.724   5.001   5.862
    1AU     AUC   47   4.780   5.052   6.223
    1AU     AUC   48   5.075   5.843   6.267
    1AU     AUC   49   5.436   5.784   6.260
    1AU     AUC   50   5.051   4.831   6.312
    1AU     AUC   51   5.376   4.786   6.283
    1AU     AUC   52   5.068   5.734   5.691
    1AU     AUC   53   5.458   5.776   5.704
    1AU     AUC   54   5.048   4.833   5.713
    1AU     AUC   55   5.440   4.843   5.705
    1AU    AUSL   56   5.782   5.235   6.701
    1AU    AUSL   57   5.507   4.807   6.659
    1AU     AUL   58   5.820   4.825   6.851
    1AU       S   59   5.888   4.444   6.613
    1AU     LIG   60   5.786   4.316   7.004
    1AU     LIG   61   5.995   3.978   7.224
    1AU     LIG   62   6.252   3.644   7.427
    1AU     LIG   63   6.442   3.491   7.824
    1AU       S   64   6.054   5.205   6.777
    1AU     LIG   65   6.051   5.137   7.230
    1AU     LIG   66   6.192   5.065   7.685
    1AU     LIG   67   6.515   5.077   8.050
    1AU     LIG   68   6.893   5.184   8.335
    1AU    AUSL   69   5.391   5.145   6.896
    1AU    AUSL   70   5.109   5.503   6.904
    1AU     AUL   71   5.300   5.446   7.238
    1AU       S   72   5.528   5.094   7.062
    1AU     LIG   73   5.409   4.970   7.439
    1AU     LIG   74   5.651   4.825   7.809
    1AU     LIG   75   5.759   4.627   8.229
    1AU     LIG   76   5.911   4.640   8.674
    1AU       S   77   4.907   5.234   7.138
    1AU     LIG   78   4.976   5.217   7.611
    1AU     LIG   79   4.702   5.199   7.983
    1AU     LIG   80   4.528   5.230   8.418
    1AU     LIG   81   4.539   5.470   8.829
    1AU    AUSL   82   5.519   5.566   6.850
    1AU    AUSL   83   5.879   5.643   6.598
    1AU     AUL   84   5.794   5.506   6.997
    1AU       S   85   5.394   5.870   6.989
    1AU     LIG   86   5.642   5.819   7.375
    1AU     LIG   87   5.730   5.899   7.850
    1AU     LIG   88   5.774   5.941   8.338
    1AU     LIG   89   5.810   5.889   8.815
    1AU       S   90   5.953   5.886   6.788
    1AU     LIG   91   6.335   5.703   6.857
    1AU     LIG   92   6.656   5.872   7.170
    1AU     LIG   93   6.926   6.149   7.454
    1AU     LIG   94   7.281   6.374   7.662
    1AU    AUSL   95   5.812   5.440   5.287
    1AU    AUSL   96   5.600   5.775   5.482
    1AU     AUL   97   5.718   5.814   5.147
    1AU       S   98   5.782   5.490   4.831
    1AU     LIG   99   6.151   5.328   4.641
    1AU     LIG  100   6.236   5.036   4.307
    1AU     LIG  101   6.282   4.962   3.850
    1AU     LIG  102   6.496   5.060   3.443
    1AU       S  103   6.054   6.003   5.393
    1AU     LIG  104   6.046   6.205   4.982
    1AU     LIG  105   6.221   6.365   4.560
    1AU     LIG  106   6.483   6.654   4.296
    1AU     LIG  107   6.728   6.941   4.023
    1AU    AUSL  108   5.574   5.121   5.115
    1AU    AUSL  109   5.912   5.044   5.415
    1AU     AUL  110   6.002   5.197   5.133
    1AU       S  111   6.003   4.731   5.154
    1AU     LIG  112   6.231   4.418   4.847
    1AU     LIG  113   6.500   4.031   4.723
    1AU     LIG  114   6.765   3.757   4.437
    1AU     LIG  115   7.172   3.739   4.182
    1AU       S  116   5.677   5.343   4.827
    1AU     LIG  117   5.780   4.965   4.614
    1AU     LIG  118   5.823   4.751   4.185
    1AU     LIG  119   5.826   4.773   3.709
    1AU     LIG  120   6.060   4.820   3.299
    1AU    AUSL  121   5.387   5.491   5.239
    1AU    AUSL  122   5.157   5.100   5.224
    1AU     AUL  123   5.305   5.116   4.949
    1AU       S  124   4.855   5.131   4.803
    1AU     LIG  125   4.915   4.825   4.500
    1AU     LIG  126   4.709   4.641   4.122
    1AU     LIG  127   4.502   4.693   3.700
    1AU     LIG  128   4.570   4.760   3.245
    1AU       S  129   5.450   5.555   4.861
    1AU     LIG  130   5.533   5.385   4.370
    1AU     LIG  131   5.840   5.237   4.021
    1AU     LIG  132   5.964   5.260   3.560
    1AU     LIG  133   5.908   5.489   3.152
    1AU    AUSL  134   4.715   5.434   6.745
    1AU    AUSL  135   5.006   5.793   6.616
    1AU     AUL  136   4.869   5.737   6.958
    1AU       S  137   4.731   5.355   7.199
    1AU     LIG  138   4.505   5.046   7.430
    1AU     LIG  139   4.266   4.965   7.836
    1AU     LIG  140   4.100   4.966   8.280
    1AU     LIG  141   3.759   5.080   8.585
    1AU       S  142   4.581   6.037   6.711
    1AU     LIG  143   4.676   6.212   7.111
    1AU     LIG  144   4.523   6.464   7.477
    1AU     LIG  145   4.204   6.722   7.713
    1AU     LIG  146   4.036   6.893   8.130
    1AU    AUSL  147   5.027   5.149   6.675
    1AU    AUSL  148   4.604   5.019   6.640
    1AU     AUL  149   4.529   5.236   6.803
    1AU       S  150   4.484   4.780   6.895
    1AU     LIG  151   4.054   4.654   6.701
    1AU     LIG  152   3.819   4.267   6.828
    1AU     LIG  153   3.636   3.932   7.098
    1AU     LIG  154   3.303   3.767   7.383
    1AU       S  155   4.932   5.095   7.060
    1AU     LIG  156   4.939   4.768   7.385
    1AU     LIG  157   4.730   4.719   7.780
    1AU     LIG  158   4.565   4.740   8.209
    1AU     LIG  159   4.449   4.557   8.615
    1AU    AUSL  160   4.747   5.204   5.276
    1AU    AUSL  161   4.927   4.832   5.454
    1AU     AUL  162   4.969   4.817   5.120
    1AU       S  163   4.646   5.108   4.944
    1AU     LIG  164   4.416   4.893   4.613
    1AU     LIG  165   4.290   4.936   4.155
    1AU     LIG  166   4.023   4.919   3.760
    1AU     LIG  167   3.587   5.049   3.605
    1AU       S  168   4.544   4.725   5.263
    1AU     LIG  169   4.558   4.375   5.017
    1AU     LIG  170   4.211   4.096   4.893
    1AU     LIG  171   3.871   3.922   4.625
    1AU     LIG  172   3.697   3.695   4.248
    1AU    AUSL  173   5.006   5.496   5.071
    1AU    AUSL  174   4.537   5.547   5.424
    1AU     AUL  175   4.654   5.543   5.096
    1AU       S  176   4.247   5.725   5.250
    1AU     LIG  177   4.010   5.977   4.941
    1AU     LIG  178   3.962   6.236   4.561
    1AU     LIG  179   3.658   6.431   4.264
    1AU     LIG  180   3.183   6.486   4.194
    1AU       S  181   4.936   5.362   4.767
    1AU     LIG  182   4.682   5.270   4.358
    1AU     LIG  183   4.706   5.128   3.914
    1AU     LIG  184   4.640   5.219   3.460
    1AU     LIG  185   4.767   5.474   3.074
    1AU    AUSL  186   6.002   5.743   6.056
    1AU    AUSL  187   5.965   5.603   5.645
    1AU     AUL  188   6.262   5.884   5.871
    1AU       S  189   6.102   5.765   5.457
    1AU     LIG  190   6.212   5.697   5.025
    1AU     LIG  191   6.488   5.984   4.781
    1AU     LIG  192   6.761   6.280   4.527
    1AU     LIG  193   7.021   6.568   4.258
    1AU       S  194   6.472   5.620   6.210
    1AU     LIG  195   6.845   5.846   6.072
    1AU     LIG  196   7.283   6.050   6.083
    1AU     LIG  197   7.477   6.501   6.068
    1AU     LIG  198   7.738   6.767   6.355
    1AU    AUSL  199   6.221   5.379   5.903
    1AU    AUSL  200   6.168   5.030   6.184
    1AU     AUL  201   6.540   5.130   6.213
    1AU       S  202   6.358   5.440   5.943
    1AU     LIG  203   6.809   5.373   5.868
    1AU     LIG  204   7.241   5.567   5.862
    1AU     LIG  205   7.659   5.745   5.800
    1AU     LIG  206   8.056   5.545   5.605
    1AU       S  207   6.389   4.726   6.029
    1AU     LIG  208   6.836   4.620   6.109
    1AU     LIG  209   7.262   4.452   6.200
    1AU     LIG  210   7.682   4.345   6.300
    1AU     LIG  211   8.083   4.500   6.447
    1AU    AUSL  212   5.982   5.392   6.284
    1AU    AUSL  213   5.813   5.998   6.336
    1AU     AUL  214   6.097   5.843   6.350
    1AU       S  215   6.002   6.178   6.670
    1AU     LIG  216   6.391   6.234   6.913
    1AU     LIG  217   6.710   6.516   7.143
    1AU     LIG  218   6.879   6.967   7.231
    1AU     LIG  219   6.961   7.463   7.207
    1AU       S  220   6.275   5.437   6.405
    1AU     LIG  221   6.738   5.450   6.578
    1AU     LIG  222   7.162   5.558   6.371
    1AU     LIG  223   7.600   5.733   6.387
    1AU     LIG  224   8.016   5.907   6.574
    1AU    AUSL  225   4.578   5.868   6.017
    1AU    AUSL  226   4.645   5.674   6.411
    1AU     AUL  227   4.336   5.971   6.249
    1AU       S  228   4.495   5.827   6.658
    1AU     LIG  229   4.361   5.798   7.096
    1AU     LIG  230   4.142   6.146   7.345
    1AU     LIG  231   3.840   6.362   7.650
    1AU     LIG  232   3.506   6.440   7.987
    1AU       S  233   4.573   6.252   5.937
    1AU     LIG  234   4.108   6.203   5.832
    1AU     LIG  235   3.635   6.320   5.833
    1AU     LIG  236   3.196   6.522   5.875
    1AU     LIG  237   2.788   6.673   6.070
    1AU    AUSL  238   4.542   5.477   5.832
    1AU    AUSL  239   4.664   5.921   5.608
    1AU     AUL  240   4.358   5.793   5.704
    1AU       S  241   4.162   5.288   5.488
    1AU     LIG  242   3.850   5.660   5.585
    1AU     LIG  243   3.417   5.869   5.679
    1AU     LIG  244   3.085   6.162   5.502
    1AU     LIG  245   2.608   6.197   5.476
    1AU       S  246   4.492   6.172   5.440
    1AU     LIG  247   4.241   6.414   5.123
    1AU     LIG  248   4.208   6.656   4.727
    1AU     LIG  249   3.966   7.014   4.554
    1AU     LIG  250   3.637   7.308   4.718
    1AU    AUSL  251   4.321   5.516   6.207
    1AU    AUSL  252   4.297   5.148   5.914
    1AU     AUL  253   4.142   5.463   5.931
    1AU       S  254   4.093   5.064   6.190
    1AU     LIG  255   3.776   5.124   5.861
    1AU     LIG  256   3.395   4.887   5.721
    1AU     LIG  257   2.975   4.683   5.740
    1AU     LIG  258   2.567   4.821   5.630
    1AU       S  259   4.173   5.538   6.428
    1AU     LIG  260   3.746   5.508   6.246
    1AU     LIG  261   3.317   5.692   6.383
    1AU     LIG  262   2.892   5.925   6.404
    1AU     LIG  263   2.488   6.212   6.350
    1AU    AUSL  264   5.917   4.713   6.025
    1AU    AUSL  265   5.801   4.960   6.386
    1AU     AUL  266   6.118   4.850   6.417
    1AU       S  267   6.166   4.571   6.001
    1AU     LIG  268   6.513   4.269   5.867
    1AU     LIG  269   6.961   4.111   5.952
    1AU     LIG  270   7.419   3.950   6.050
    1AU     LIG  271   7.777   3.845   6.349
    1AU       S  272   6.004   4.414   6.454
    1AU     LIG  273   6.280   4.244   6.848
    1AU     LIG  274   6.523   4.019   7.190
    1AU     LIG  275   6.749   3.812   7.544
    1AU     LIG  276   7.070   3.879   7.894
    1AU    AUSL  277   5.929   5.094   5.827
    1AU    AUSL  278   5.838   4.659   5.612
    1AU     AUL  279   6.092   4.849   5.626
    1AU       S  280   6.470   4.868   5.845
    1AU     LIG  281   6.747   4.646   5.601
    1AU     LIG  282   7.168   4.502   5.690
    1AU     LIG  283   7.591   4.358   5.779
    1AU     LIG  284   7.995   4.321   5.571
    1AU       S  285   6.024   4.520   5.301
    1AU     LIG  286   6.180   4.100   5.255
    1AU     LIG  287   6.336   3.698   5.081
    1AU     LIG  288   6.552   3.407   4.785
    1AU     LIG  289   6.692   2.953   4.720
    1AU    AUSL  290   4.501   4.790   6.062
    1AU    AUSL  291   4.592   5.039   5.635
    1AU     AUL  292   4.246   4.858   5.779
    1AU       S  293   4.422   4.870   5.348
    1AU     LIG  294   4.078   4.572   5.129
    1AU     LIG  295   3.723   4.256   5.005
    1AU     LIG  296   3.370   4.054   4.749
    1AU     LIG  297   3.027   4.120   4.430
    1AU       S  298   4.075   4.830   6.219
    1AU     LIG  299   3.740   4.632   6.016
    1AU     LIG  300   3.293   4.535   6.117
    1AU     LIG  301   2.915   4.389   6.367
    1AU     LIG  302   2.570   4.033   6.329
    1AU    AUSL  303   4.561   5.174   6.257
    1AU    AUSL  304   4.822   4.806   6.340
    1AU     AUL  305   4.491   4.758   6.402
    1AU       S  306   4.519   4.569   6.819
    1AU     LIG  307   4.315   4.162   6.694
    1AU     LIG  308   3.994   3.774   6.738
    1AU     LIG  309   3.704   3.432   6.943
    1AU     LIG  310   3.271   3.323   7.125
    1AU       S  311   4.150   5.070   6.371
    1AU     LIG  312   3.626   5.015   6.351
    1AU     LIG  313   3.192   5.033   6.171
    1AU     LIG  314   2.759   4.889   6.167
    1AU     LIG  315   2.438   4.662   6.431
    1AU    AUSL  316   5.240   6.117   6.469
    1AU    AUSL  317   4.831   6.046   6.311
    1AU     AUL  318   5.036   6.133   6.709
    1AU       S  319   4.681   6.254   6.428
    1AU     LIG  320   4.380   6.481   6.776
    1AU     LIG  321   4.148   6.657   7.175
    1AU     LIG  322   3.934   7.048   7.381
    1AU     LIG  323   3.686   7.482   7.364
    1AU       S  324   5.284   6.454   6.428
    1AU     LIG  325   5.389   6.508   6.838
    1AU     LIG  326   5.487   6.929   7.004
    1AU     LIG  327   5.610   7.364   7.138
    1AU     LIG  328   5.674   7.711   7.457
    1AU    AUSL  329   5.094   6.249   6.052
    1AU    AUSL  330   5.415   6.163   5.713
    1AU     AUL  331   5.322   6.512   5.829
    1AU       S  332   5.116   6.517   6.250
    1AU     LIG  333   5.295   6.937   6.507
    1AU     LIG  334   5.330   7.379   6.691
    1AU     LIG  335   5.125   7.821   6.697
    1AU     LIG  336   4.844   8.156   6.890
    1AU       S  337   5.166   6.404   5.414
    1AU     LIG  338   5.478   6.789   5.427
    1AU     LIG  339   5.702   7.237   5.332
    1AU     LIG  340   5.988   7.667   5.309
    1AU     LIG  341   6.175   8.126   5.262
    1AU    AUSL  342   5.464   6.029   6.114
    1AU    AUSL  343   5.478   5.775   6.500
    1AU     AUL  344   5.553   6.101   6.558
    1AU       S  345   5.837   6.006   6.905
    1AU     LIG  346   6.127   5.963   7.261
    1AU     LIG  347   6.419   6.241   7.472
    1AU     LIG  348   6.690   6.536   7.723
    1AU     LIG  349   6.688   6.815   8.111
    1AU       S  350   5.546   6.389   6.203
    1AU     LIG  351   5.749   6.673   6.513
    1AU     LIG  352   5.793   7.137   6.647
    1AU     LIG  353   5.843   7.599   6.742
    1AU     LIG  354   5.789   8.042   6.850
    1AU    AUSL  355   5.195   4.597   6.449
    1AU    AUSL  356   5.602   4.595   6.284
    1AU     AUL  357   5.427   4.483   6.671
    1AU       S  358   5.185   4.121   6.501
    1AU     LIG  359   4.903   3.959   6.816
    1AU     LIG  360   4.843   3.501   6.897
    1AU     LIG  361   4.886   3.031   6.926
    1AU     LIG  362   4.718   2.645   7.168
    1AU       S  363   5.758   4.366   6.335
    1AU     LIG  364   5.906   3.949   6.639
    1AU     LIG  365   6.266   3.691   6.889
    1AU     LIG  366   6.646   3.471   7.136
    1AU     LIG  367   6.879   3.015   7.148
    1AU    AUSL  368   4.870   4.433   6.169
    1AU    AUSL  369   4.963   4.750   6.758
    1AU     AUL  370   4.863   4.468   6.526
    1AU       S  371   4.973   4.058   6.324
    1AU     LIG  372   4.779   3.654   6.400
    1AU     LIG  373   4.631   3.209   6.498
    1AU     LIG  374   4.500   2.788   6.681
    1AU     LIG  375   4.594   2.341   6.757
    1AU       S  376   4.754   4.650   6.953
    1AU     LIG  377   4.582   4.224   7.151
    1AU     LIG  378   4.167   3.988   7.169
    1AU     LIG  379   3.948   3.630   7.388
    1AU     LIG  380   4.012   3.427   7.816
    1AU    AUSL  381   5.298   4.360   6.109
    1AU    AUSL  382   5.062   4.604   5.827
    1AU     AUL  383   4.945   4.262   5.905
    1AU       S  384   5.329   4.147   5.690
    1AU     LIG  385   5.009   3.765   5.790
    1AU     LIG  386   4.778   3.319   5.682
    1AU     LIG  387   4.734   2.855   5.493
    1AU     LIG  388   4.610   2.477   5.231
    1AU       S  389   5.303   4.152   6.233
    1AU     LIG  390   5.279   3.675   6.228
    1AU     LIG  391   5.155   3.301   6.505
    1AU     LIG  392   5.348   2.896   6.668
    1AU     LIG  393   5.758   2.640   6.688
    1AU    AUSL  394   5.239   5.945   5.356
    1AU    AUSL  395   5.795   5.998   5.792
    1AU     AUL  396   5.585   6.147   5.447
    1AU       S  397   5.182   6.272   5.231
    1AU     LIG  398   5.546   6.463   5.038
    1AU     LIG  399   5.567   6.924   4.927
    1AU     LIG  400   5.489   7.312   4.669
    1AU     LIG  401   5.561   7.596   4.287
    1AU       S  402   6.023   6.153   5.588
    1AU     LIG  403   6.413   6.326   5.342
    1AU     LIG  404   6.551   6.502   4.936
    1AU     LIG  405   6.824   6.799   4.679
    1AU     LIG  406   7.139   7.172   4.688
    1AU    AUSL  407   5.046   5.960   5.755
    1AU    AUSL  408   4.962   5.637   5.460
    1AU     AUL  409   4.891   5.928   5.323
    1AU       S  410   4.962   6.311   5.585
    1AU     LIG  411   4.973   6.821   5.564
    1AU     LIG  412   5.165   7.203   5.330
    1AU     LIG  413   5.059   7.671   5.275
    1AU     LIG  414   4.791   8.017   5.089
    1AU       S  415   4.452   5.959   5.192
    1AU     LIG  416   4.481   6.126   4.764
    1AU     LIG  417   4.418   6.357   4.361
    1AU     LIG  418   4.143   6.695   4.186
    1AU     LIG  419   4.148   7.162   4.051
    1AU    AUSL  420   5.246   4.550   5.438
    1AU    AUSL  421   4.660   4.608   5.714
    1AU     AUL  422   4.913   4.453   5.474
    1AU       S  423   4.462   4.579   5.475
    1AU     LIG  424   4.266   4.183   5.417
    1AU     LIG  425   3.937   3.876   5.277
    1AU     LIG  426   3.621   3.658   5.001
    1AU     LIG  427   3.433   3.225   4.876
    1AU       S  428   5.286   4.151   5.514
    1AU     LIG  429   5.188   3.718   5.313
    1AU     LIG  430   4.968   3.278   5.199
    1AU     LIG  431   4.809   2.881   4.960
    1AU     LIG  432   4.751   2.611   4.553
    1AU    AUSL  433   5.487   4.583   5.813
    1AU    AUSL  434   5.503   4.881   5.449
    1AU     AUL  435   5.574   4.507   5.427
    1AU       S  436   5.588   4.203   5.779
    1AU     LIG  437   5.522   3.703   5.749
    1AU     LIG  438   5.289   3.306   5.615
    1AU     LIG  439   5.241   2.865   5.412
    1AU     LIG  440   5.396   2.403   5.435
    1AU       S  441   5.780   4.708   5.074
    1AU     LIG  442   5.753   4.254   4.974
    1AU     LIG  443   5.999   3.918   4.753
    1AU     LIG  444   6.246   3.662   4.433
    1AU     LIG  445   6.439   3.575   4.005
    2POPC   NC3  446  10.040   5.966   8.067
    2POPC   PO4  447  10.416   5.410   8.054
    2POPC   GL1  448  10.290   5.495   7.682
    2POPC   GL2  449  10.281   5.795   7.657
    2POPC   C1A  450  10.182   5.351   7.290
    2POPC   D2A  451  10.372   5.375   6.906
    2POPC   C3A  452  10.152   5.432   6.492
    2POPC   C4A  453  10.134   5.409   5.997
    2POPC   C1B  454  10.207   5.916   7.300
    2POPC   C2B  455  10.220   6.002   6.921
    2POPC   C3B  456  10.005   5.911   6.606
    2POPC   C4B  457  10.222   5.857   6.240
    3POPC   NC3  458   0.464   9.260   8.333
    3POPC   PO4  459   0.676   9.620   7.865
    3POPC   GL1  460   0.494   9.513   7.509
    3POPC   GL2  461   0.391   9.227   7.567
    3POPC   C1A  462   0.221   9.591   7.204
    3POPC   D2A  463   0.367   9.676   6.821
    3POPC   C3A  464   0.073   9.664   6.525
    3POPC   C4A  465   0.255   9.711   6.163
    3POPC   C1B  466   0.286   9.054   7.189
    3POPC   C2B  467   0.536   9.109   6.804
    3POPC   C3B  468   0.435   9.317   6.422
    3POPC   C4B  469   0.499   9.314   5.933
    4POPC   NC3  470   9.442   7.347   8.182
    4POPC   PO4  471   9.079   6.787   8.081
    4POPC   GL1  472   9.285   7.046   7.781
    4POPC   GL2  473   9.645   6.966   7.784
    4POPC   C1A  474   9.175   7.093   7.362
    4POPC   D2A  475   9.136   6.891   6.959
    4POPC   C3A  476   9.188   7.165   6.591
    4POPC   C4A  477   9.204   7.113   6.161
    4POPC   C1B  478   9.710   7.160   7.379
    4POPC   C2B  479   9.775   7.006   6.978
    4POPC   C3B  480   9.839   7.200   6.600
    4POPC   C4B  481   9.621   7.415   6.283
    5POPC   NC3  482   5.910   8.555   7.930
    5POPC   PO4  483   5.774   9.212   7.949
    5POPC   GL1  484   5.983   8.979   7.624
    5POPC   GL2  485   5.632   8.928   7.522
    5POPC   C1A  486   5.978   9.010   7.148
    5POPC   D2A  487   5.707   9.268   6.896
    5POPC   C3A  488   5.699   9.100   6.481
    5POPC   C4A  489   5.687   8.711   6.288
    5POPC   C1B  490   5.727   8.579   7.237
    5POPC   C2B  491   5.586   8.548   6.794
    5POPC   C3B  492   5.552   8.243   6.438
    5POPC   C4B  493   5.693   8.257   5.997
    6POPC   NC3  494   6.459   1.906   8.072
    6POPC   PO4  495   6.061   2.379   8.002
    6POPC   GL1  496   6.426   2.182   7.642
    6POPC   GL2  497   6.417   1.796   7.581
    6POPC   C1A  498   6.492   2.061   7.149
    6POPC   D2A  499   6.259   2.264   6.774
    6POPC   C3A  500   6.507   2.353   6.375
    6POPC   C4A  501   6.377   2.254   5.926
    6POPC   C1B  502   6.639   1.517   7.280
    6POPC   C2B  503   6.753   1.649   6.880
    6POPC   C3B  504   6.577   1.905   6.627
    6POPC   C4B  505   6.388   1.870   6.254
    7POPC   NC3  506   9.042   5.905   8.090
    7POPC   PO4  507   8.878   5.269   8.172
    7POPC   GL1  508   8.862   5.380   7.747
    7POPC   GL2  509   8.538   5.448   7.665
    7POPC   C1A  510   8.936   5.531   7.308
    7POPC   D2A  511   9.066   5.645   6.869
    7POPC   C3A  512   8.921   5.494   6.454
    7POPC   C4A  513   8.903   5.656   6.044
    7POPC   C1B  514   8.430   5.633   7.251
    7POPC   C2B  515   8.544   5.569   6.803
    7POPC   C3B  516   8.443   5.645   6.344
    7POPC   C4B  517   8.068   5.667   6.098
    8POPC   NC3  518   3.694   9.671   8.048
    8POPC   PO4  519   3.034   9.708   8.144
    8POPC   GL1  520   3.262   9.696   7.748
    8POPC   GL2  521   3.367   9.340   7.777
    8POPC   C1A  522   3.356   9.779   7.300
    8POPC   D2A  523   3.165   9.723   6.874
    8POPC   C3A  524   3.474   9.596   6.572
    8POPC   C4A  525   3.454   9.440   6.139
    8POPC   C1B  526   3.433   9.178   7.377
    8POPC   C2B  527   3.438   9.265   6.960
    8POPC   C3B  528   3.553   9.064   6.551
    8POPC   C4B  529   3.767   8.942   6.179
    9POPC   NC3  530   2.591   7.847   8.410
    9POPC   PO4  531   3.037   8.208   8.084
    9POPC   GL1  532   2.674   7.973   7.867
    9POPC   GL2  533   2.444   8.171   7.681
    9POPC   C1A  534   2.590   7.760   7.420
    9POPC   D2A  535   2.840   7.623   7.044
    9POPC   C3A  536   2.676   7.706   6.626
    9POPC   C4A  537   2.516   7.535   6.246
    9POPC   C1B  538   2.874   8.191   7.431
    9POPC   C2B  539   2.988   8.113   7.007
    9POPC   C3B  540   3.004   8.092   6.541
    9POPC   C4B  541   2.791   7.971   6.156
   10POPC   NC3  542   8.650   6.748   8.300
   10POPC   PO4  543   8.599   7.424   8.353
   10POPC   GL1  544   8.800   7.343   7.880
   10POPC   GL2  545   8.775   7.017   7.695
   10POPC   C1A  546   8.769   7.464   7.364
   10POPC   D2A  547   8.557   7.693   6.968
   10POPC   C3A  548   8.436   7.506   6.520
   10POPC   C4A  549   8.424   7.511   6.041
   10POPC   C1B  550   8.693   6.988   7.229
   10POPC   C2B  551   8.725   7.176   6.811
   10POPC   C3B  552   8.716   7.039   6.361
   10POPC   C4B  553   8.772   7.164   5.909
   11POPC   NC3  554   6.097   9.057   8.229
   11POPC   PO4  555   6.265   8.369   8.161
   11POPC   GL1  556   6.386   8.548   7.747
   11POPC   GL2  557   6.648   8.774   7.711
   11POPC   C1A  558   6.334   8.636   7.289
   11POPC   D2A  559   6.653   8.480   6.965
   11POPC   C3A  560   6.559   8.515   6.521
   11POPC   C4A  561   6.420   8.516   6.087
   11POPC   C1B  562   6.721   8.947   7.312
   11POPC   C2B  563   6.500   9.048   6.948
   11POPC   C3B  564   6.598   9.018   6.510
   11POPC   C4B  565   6.180   8.944   6.259
   12POPC   NC3  566   4.965   1.143   8.053
   12POPC   PO4  567   5.274   1.768   8.088
   12POPC   GL1  568   4.900   1.578   7.778
   12POPC   GL2  569   4.953   1.265   7.577
   12POPC   C1A  570   4.700   1.589   7.314
   12POPC   D2A  571   4.958   1.506   6.915
   12POPC   C3A  572   4.780   1.505   6.495
   12POPC   C4A  573   4.832   1.438   6.025
   12POPC   C1B  574   4.944   1.053   7.198
   12POPC   C2B  575   4.839   1.048   6.768
   12POPC   C3B  576   5.014   1.070   6.353
   12POPC   C4B  577   4.613   0.995   6.158
   13POPC   NC3  578   0.190   9.523   7.907
   13POPC   PO4  579   9.937   9.437   8.070
   13POPC   GL1  580  10.189   9.557   7.743
   13POPC   GL2  581  10.317   9.221   7.679
   13POPC   C1A  582  10.109   9.792   7.361
   13POPC   D2A  583  10.293   9.759   6.948
   13POPC   C3A  584  10.090   9.867   6.557
   13POPC   C4A  585  10.216   9.681   6.154
   13POPC   C1B  586  10.296   9.311   7.263
   13POPC   C2B  587  10.444   9.257   6.846
   13POPC   C3B  588  10.126   9.347   6.559
   13POPC   C4B  589   9.995   9.230   6.166
   14POPC   NC3  590   1.380   5.578   8.061
   14POPC   PO4  591   0.865   5.575   8.089
   14POPC   GL1  592   1.064   5.712   7.705
   14POPC   GL2  593   1.304   5.417   7.572
   14POPC   C1A  594   1.122   5.841   7.314
   14POPC   D2A  595   1.254   5.667   6.908
   14POPC   C3A  596   1.091   5.848   6.510
   14POPC   C4A  597   1.142   5.652   6.108
   14POPC   C1B  598   0.901   5.396   7.293
   14POPC   C2B  599   0.801   5.362   6.835
   14POPC   C3B  600   0.838   5.367   6.374
   14POPC   C4B  601   0.833   5.289   5.879
   15POPC   NC3  602   8.543   3.368   8.039
   15POPC   PO4  603   8.608   4.018   7.836
   15POPC   GL1  604   8.694   3.653   7.535
   15POPC   GL2  605   8.680   3.262   7.552
   15POPC   C1A  606   8.814   3.507   7.095
   15POPC   D2A  607   8.596   3.472   6.700
   15POPC   C3A  608   8.770   3.394   6.329
   15POPC   C4A  609   8.757   3.622   5.954
   15POPC   C1B  610   8.334   3.404   7.259
   15POPC   C2B  611   8.182   3.663   6.923
   15POPC   C3B  612   8.122   3.506   6.509
   15POPC   C4B  613   8.315   3.665   6.172
   16POPC   NC3  614   0.494   2.698   8.041
   16POPC   PO4  615   0.300   2.018   8.226
   16POPC   GL1  616   0.215   2.337   7.848
   16POPC   GL2  617   0.101   2.682   7.718
   16POPC   C1A  618   0.098   2.352   7.356
   16POPC   D2A  619   0.115   2.621   6.965
   16POPC   C3A  620   0.391   2.542   6.601
   16POPC   C4A  621   0.104   2.449   6.260
   16POPC   C1B  622   0.393   2.791   7.358
   16POPC   C2B  623   0.478   3.006   6.957
   16POPC   C3B  624   0.332   3.044   6.528
   16POPC   C4B  625   0.450   2.849   6.151
   17POPC   NC3  626   8.939   7.713   8.261
   17POPC   PO4  627   8.596   8.157   7.935
   17POPC   GL1  628   8.666   7.953   7.580
   17POPC   GL2  629   8.977   7.777   7.676
   17POPC   C1A  630   8.624   8.232   7.237
   17POPC   D2A  631   8.394   8.295   6.900
   17POPC   C3A  632   8.487   8.068   6.585
   17POPC   C4A  633   8.599   8.190   6.175
   17POPC   C1B  634   9.064   7.923   7.246
   17POPC   C2B  635   8.953   8.130   6.839
   17POPC   C3B  636   8.948   7.932   6.435
   17POPC   C4B  637   8.906   7.506   6.291
   18POPC   NC3  638   2.792  10.035   8.384
   18POPC   PO4  639   3.271  10.287   7.972
   18POPC   GL1  640   3.525  10.154   7.636
   18POPC   GL2  641   3.869  10.078   7.752
   18POPC   C1A  642   3.547  10.275   7.206
   18POPC   D2A  643   3.428  10.183   6.773
   18POPC   C3A  644   3.599  10.421   6.391
   18POPC   C4A  645   3.391  10.343   5.958
   18POPC   C1B  646   3.868   9.861   7.365
   18POPC   C2B  647   3.754   9.826   6.964
   18POPC   C3B  648   3.832   9.964   6.569
   18POPC   C4B  649   3.560   9.947   6.223
   19POPC   NC3  650   9.653   8.269   8.038
   19POPC   PO4  651   9.376   7.742   8.403
   19POPC   GL1  652   9.497   7.740   7.883
   19POPC   GL2  653   9.467   8.005   7.646
   19POPC   C1A  654   9.375   7.552   7.452
   19POPC   D2A  655   9.166   7.473   7.013
   19POPC   C3A  656   9.332   7.656   6.612
   19POPC   C4A  657   9.318   7.772   6.127
   19POPC   C1B  658   9.572   8.190   7.299
   19POPC   C2B  659   9.459   8.052   6.909
   19POPC   C3B  660   9.439   8.141   6.471
   19POPC   C4B  661   9.704   8.098   6.108
   20POPC   NC3  662   8.447   9.287   8.178
   20POPC   PO4  663   8.994   8.957   8.057
   20POPC   GL1  664   8.711   9.111   7.696
   20POPC   GL2  665   8.559   9.454   7.702
   20POPC   C1A  666   8.545   9.225   7.245
   20POPC   D2A  667   8.747   9.135   6.852
   20POPC   C3A  668   8.575   9.126   6.470
   20POPC   C4A  669   8.793   9.143   6.104
   20POPC   C1B  670   8.896   9.547   7.414
   20POPC   C2B  671   8.924   9.599   6.973
   20POPC   C3B  672   8.582   9.596   6.677
   20POPC   C4B  673   8.630   9.608   6.247
   21POPC   NC3  674   9.347   4.618   8.461
   21POPC   PO4  675   9.382   4.465   7.855
   21POPC   GL1  676   9.492   4.746   7.606
   21POPC   GL2  677   9.522   5.031   7.786
   21POPC   C1A  678   9.489   4.759   7.171
   21POPC   D2A  679   9.185   4.757   6.904
   21POPC   C3A  680   9.303   4.689   6.492
   21POPC   C4A  681   8.976   4.656   6.210
   21POPC   C1B  682   9.653   5.194   7.389
   21POPC   C2B  683   9.386   5.275   7.055
   21POPC   C3B  684   9.268   5.199   6.663
   21POPC   C4B  685   9.470   5.152   6.311
   22POPC   NC3  686   0.808   0.956   8.152
   22POPC   PO4  687   1.408   0.791   8.079
   22POPC   GL1  688   1.136   0.884   7.727
   22POPC   GL2  689   1.055   1.258   7.801
   22POPC   C1A  690   1.159   1.085   7.307
   22POPC   D2A  691   1.395   1.090   6.924
   22POPC   C3A  692   1.222   0.896   6.581
   22POPC   C4A  693   1.190   1.059   6.200
   22POPC   C1B  694   1.111   1.583   7.478
   22POPC   C2B  695   1.211   1.559   7.054
   22POPC   C3B  696   1.083   1.426   6.650
   22POPC   C4B  697   1.388   1.504   6.356
   23POPC   NC3  698   6.870   8.716   8.158
   23POPC   PO4  699   7.392   9.177   8.163
   23POPC   GL1  700   7.108   9.041   7.802
   23POPC   GL2  701   7.171   8.707   7.717
   23POPC   C1A  702   7.210   9.054   7.353
   23POPC   D2A  703   7.132   8.773   6.996
   23POPC   C3A  704   7.242   8.879   6.557
   23POPC   C4A  705   7.044   8.804   6.169
   23POPC   C1B  706   6.948   8.480   7.411
   23POPC   C2B  707   7.110   8.270   7.083
   23POPC   C3B  708   7.113   8.384   6.641
   23POPC   C4B  709   6.929   8.325   6.229
   24POPC   NC3  710   0.149   6.371   8.320
   24POPC   PO4  711   9.987   6.399   8.239
   24POPC   GL1  712   9.893   6.464   7.792
   24POPC   GL2  713  10.151   6.297   7.673
   24POPC   C1A  714   9.833   6.327   7.288
   24POPC   D2A  715   9.995   6.471   6.856
   24POPC   C3A  716   9.773   6.364   6.501
   24POPC   C4A  717   9.772   6.078   6.194
   24POPC   C1B  718  10.328   6.410   7.261
   24POPC   C2B  719  10.488   6.427   6.833
   24POPC   C3B  720  10.302   6.357   6.413
   24POPC   C4B  721  10.410   6.581   6.021
   25POPC   NC3  722   5.311   0.385   8.220
   25POPC   PO4  723   4.595   0.182   8.209
   25POPC   GL1  724   4.729   0.404   7.793
   25POPC   GL2  725   4.915   0.723   7.722
   25POPC   C1A  726   4.935   0.264   7.369
   25POPC   D2A  727   5.111   0.399   6.979
   25POPC   C3A  728   4.983   0.122   6.644
   25POPC   C4A  729   5.112   0.141   6.223
   25POPC   C1B  730   4.649   0.673   7.366
   25POPC   C2B  731   4.629   0.606   6.931
   25POPC   C3B  732   4.846   0.599   6.532
   25POPC   C4B  733   4.956   0.616   6.115
   26POPC   NC3  734   5.791   1.276   8.095
   26POPC   PO4  735   5.343   0.805   7.981
   26POPC   GL1  736   5.381   0.982   7.561
   26POPC   GL2  737   5.477   1.329   7.631
   26POPC   C1A  738   5.445   1.106   7.101
   26POPC   D2A  739   5.761   1.243   6.760
   26POPC   C3A  740   5.596   1.036   6.373
   26POPC   C4A  741   5.398   0.843   6.027
   26POPC   C1B  742   5.670   1.518   7.246
   26POPC   C2B  743   5.473   1.695   6.880
   26POPC   C3B  744   5.406   1.533   6.476
   26POPC   C4B  745   5.804   1.473   6.248
   27POPC   NC3  746   9.419   5.172   8.264
   27POPC   PO4  747   9.543   5.885   8.170
   27POPC   GL1  748   9.396   5.825   7.730
   27POPC   GL2  749   9.660   6.039   7.674
   27POPC   C1A  750   9.392   5.752   7.257
   27POPC   D2A  751   9.510   5.998   6.872
   27POPC   C3A  752   9.338   5.830   6.480
   27POPC   C4A  753   9.302   5.989   6.097
   27POPC   C1B  754   9.821   5.661   7.496
   27POPC   C2B  755   9.847   5.616   7.038
   27POPC   C3B  756   9.678   5.497   6.670
   27POPC   C4B  757   9.724   5.580   6.239
   28POPC   NC3  758   5.314   9.138   7.900
   28POPC   PO4  759   5.678   9.685   8.194
   28POPC   GL1  760   5.521   9.594   7.732
   28POPC   GL2  761   5.806   9.467   7.543
   28POPC   C1A  762   5.369   9.338   7.309
   28POPC   D2A  763   5.212   9.502   6.936
   28POPC   C3A  764   5.281   9.380   6.523
   28POPC   C4A  765   5.418   9.552   6.148
   28POPC   C1B  766   5.749   9.673   7.242
   28POPC   C2B  767   5.622   9.807   6.885
   28POPC   C3B  768   5.744   9.625   6.525
   28POPC   C4B  769   5.944   9.451   6.184
   29POPC   NC3  770   9.694   2.495   8.028
   29POPC   PO4  771   9.719   3.201   8.139
   29POPC   GL1  772   9.637   2.918   7.760
   29POPC   GL2  773   9.302   2.755   7.734
   29POPC   C1A  774   9.615   2.668   7.354
   29POPC   D2A  775   9.290   2.750   7.032
   29POPC   C3A  776   9.420   2.830   6.627
   29POPC   C4A  777   9.656   2.592   6.306
   29POPC   C1B  778   9.145   2.434   7.406
   29POPC   C2B  779   9.069   2.286   6.994
   29POPC   C3B  780   9.297   2.334   6.642
   29POPC   C4B  781   9.207   2.364   6.219
   30POPC   NC3  782   2.639   3.422   8.524
   30POPC   PO4  783   2.322   3.147   8.085
   30POPC   GL1  784   2.350   3.410   7.733
   30POPC   GL2  785   2.324   3.150   7.515
   30POPC   C1A  786   2.574   3.566   7.347
   30POPC   D2A  787   2.740   3.383   6.960
   30POPC   C3A  788   2.565   3.495   6.540
   30POPC   C4A  789   2.440   3.455   6.106
   30POPC   C1B  790   2.795   3.102   7.439
   30POPC   C2B  791   2.962   2.922   7.048
   30POPC   C3B  792   2.971   3.053   6.620
   30POPC   C4B  793   3.156   3.249   6.256
   31POPC   NC3  794   4.619  10.173   8.340
   31POPC   PO4  795   4.138   9.808   8.107
   31POPC   GL1  796   4.423   9.941   7.812
   31POPC   GL2  797   4.358  10.267   7.708
   31POPC   C1A  798   4.396   9.855   7.373
   31POPC   D2A  799   4.248  10.001   6.970
   31POPC   C3A  800   4.326   9.823   6.576
   31POPC   C4A  801   4.459   9.952   6.174
   31POPC   C1B  802   4.088  10.319   7.336
   31POPC   C2B  803   3.927  10.382   6.900
   31POPC   C3B  804   4.190  10.323   6.549
   31POPC   C4B  805   4.173   0.029   6.193
   32POPC   NC3  806   2.828   5.320   8.581
   32POPC   PO4  807   2.377   5.231   8.138
   32POPC   GL1  808   2.381   5.397   7.670
   32POPC   GL2  809   2.450   5.755   7.625
   32POPC   C1A  810   2.586   5.451   7.222
   32POPC   D2A  811   2.698   5.611   6.794
   32POPC   C3A  812   2.870   5.399   6.390
   32POPC   C4A  813   3.106   5.491   5.971
   32POPC   C1B  814   2.450   5.960   7.184
   32POPC   C2B  815   2.299   5.936   6.745
   32POPC   C3B  816   2.440   5.706   6.365
   32POPC   C4B  817   2.389   5.876   5.922
   33POPC   NC3  818   5.627  10.193   8.175
   33POPC   PO4  819   6.223  10.101   7.862
   33POPC   GL1  820   5.876   9.987   7.633
   33POPC   GL2  821   5.552  10.135   7.682
   33POPC   C1A  822   5.783  10.164   7.240
   33POPC   D2A  823   5.953  10.322   6.887
   33POPC   C3A  824   5.842  10.119   6.537
   33POPC   C4A  825   5.995  10.154   6.144
   33POPC   C1B  826   5.280  10.338   7.347
   33POPC   C2B  827   5.410  10.280   6.917
   33POPC   C3B  828   5.398  10.354   6.504
   33POPC   C4B  829   5.490  10.196   6.109
   34POPC   NC3  830   6.164   9.638   7.912
   34POPC   PO4  831   6.554   9.088   8.144
   34POPC   GL1  832   6.458   9.252   7.720
   34POPC   GL2  833   6.756   9.374   7.562
   34POPC   C1A  834   6.248   9.377   7.333
   34POPC   D2A  835   6.127   9.567   6.930
   34POPC   C3A  836   6.171   9.306   6.607
   34POPC   C4A  837   6.447   9.391   6.221
   34POPC   C1B  838   6.638   9.591   7.144
   34POPC   C2B  839   6.603   9.526   6.730
   34POPC   C3B  840   6.750   9.738   6.437
   34POPC   C4B  841   6.942   9.802   6.092
   35POPC   NC3  842   0.624   1.781   7.911
   35POPC   PO4  843  10.496   1.362   7.921
   35POPC   GL1  844   0.221   1.573   7.649
   35POPC   GL2  845   0.231   1.901   7.622
   35POPC   C1A  846   0.249   1.564   7.251
   35POPC   D2A  847   0.471   1.664   6.940
   35POPC   C3A  848   0.519   1.491   6.592
   35POPC   C4A  849   0.420   1.680   6.235
   35POPC   C1B  850   0.493   2.033   7.325
   35POPC   C2B  851   0.370   2.164   6.952
   35POPC   C3B  852   0.283   2.040   6.569
   35POPC   C4B  853   0.561   2.172   6.223
   36POPC   NC3  854   3.409   0.973   8.199
   36POPC   PO4  855   3.248   1.499   7.840
   36POPC   GL1  856   3.441   1.216   7.621
   36POPC   GL2  857   3.467   0.855   7.656
   36POPC   C1A  858   3.230   1.077   7.268
   36POPC   D2A  859   2.979   1.053   6.939
   36POPC   C3A  860   3.254   1.201   6.601
   36POPC   C4A  861   3.149   1.343   6.197
   36POPC   C1B  862   3.739   0.968   7.288
   36POPC   C2B  863   3.827   1.239   6.991
   36POPC   C3B  864   3.828   1.095   6.616
   36POPC   C4B  865   3.644   1.220   6.247
   37POPC   NC3  866   9.779   4.298   8.034
   37POPC   PO4  867  10.479   4.413   8.010
   37POPC   GL1  868  10.324   4.442   7.663
   37POPC   GL2  869  10.059   4.202   7.625
   37POPC   C1A  870  10.387   4.433   7.279
   37POPC   D2A  871  10.117   4.452   6.971
   37POPC   C3A  872  10.355   4.479   6.633
   37POPC   C4A  873  10.249   4.615   6.236
   37POPC   C1B  874  10.242   3.939   7.309
   37POPC   C2B  875  10.128   3.925   6.915
   37POPC   C3B  876   9.989   4.155   6.585
   37POPC   C4B  877  10.147   4.116   6.169
   38POPC   NC3  878   8.073   0.433   8.573
   38POPC   PO4  879   7.724   0.797   8.168
   38POPC   GL1  880   7.812   0.579   7.787
   38POPC   GL2  881   7.879   0.215   7.823
   38POPC   C1A  882   7.830   0.634   7.344
   38POPC   D2A  883   7.840   0.855   6.982
   38POPC   C3A  884   7.768   0.643   6.629
   38POPC   C4A  885   7.958   0.750   6.264
   38POPC   C1B  886   8.012   0.162   7.373
   38POPC   C2B  887   7.742   0.228   6.990
   38POPC   C3B  888   7.905   0.154   6.562
   38POPC   C4B  889   7.909   0.272   6.101
   39POPC   NC3  890   8.010   1.945   8.041
   39POPC   PO4  891   7.479   1.586   8.206
   39POPC   GL1  892   7.620   1.608   7.728
   39POPC   GL2  893   7.944   1.721   7.613
   39POPC   C1A  894   7.637   1.640   7.242
   39POPC   D2A  895   7.905   1.696   6.893
   39POPC   C3A  896   7.608   1.761   6.596
   39POPC   C4A  897   7.556   1.786   6.191
   39POPC   C1B  898   8.033   2.005   7.314
   39POPC   C2B  899   8.194   2.138   6.911
   39POPC   C3B  900   8.005   2.060   6.504
   39POPC   C4B  901   7.818   2.219   6.173
   40POPC   NC3  902  10.313   7.832   7.961
   40POPC   PO4  903   9.869   7.361   7.993
   40POPC   GL1  904   9.904   7.588   7.599
   40POPC   GL2  905   9.965   7.942   7.599
   40POPC   C1A  906   9.780   7.703   7.170
   40POPC   D2A  907   9.970   7.952   6.839
   40POPC   C3A  908  10.021   7.819   6.405
   40POPC   C4A  909  10.389   7.787   6.105
   40POPC   C1B  910  10.290   7.812   7.286
   40POPC   C2B  911  10.488   7.874   6.870
   40POPC   C3B  912  10.395   8.161   6.528
   40POPC   C4B  913  10.205   8.267   6.131
   41POPC   NC3  914   2.174   4.794   8.037
   41POPC   PO4  915   1.669   5.246   8.009
   41POPC   GL1  916   1.877   5.290   7.612
   41POPC   GL2  917   1.840   4.950   7.556
   41POPC   C1A  918   2.212   5.110   7.269
   41POPC   D2A  919   2.191   4.967   6.809
   41POPC   C3A  920   2.390   5.165   6.422
   41POPC   C4A  921   2.273   4.968   6.009
   41POPC   C1B  922   1.749   5.225   7.126
   41POPC   C2B  923   1.687   5.122   6.692
   41POPC   C3B  924   1.916   4.899   6.361
   41POPC   C4B  925   1.786   4.653   5.977
   42POPC   NC3  926   7.673   8.694   8.197
   42POPC   PO4  927   8.241   8.356   8.326
   42POPC   GL1  928   8.048   8.490   7.866
   42POPC   GL2  929   7.693   8.546   7.716
   42POPC   C1A  930   8.105   8.463   7.391
   42POPC   D2A  931   7.955   8.534   6.965
   42POPC   C3A  932   7.981   8.280   6.571
   42POPC   C4A  933   8.135   8.376   6.161
   42POPC   C1B  934   7.586   8.719   7.309
   42POPC   C2B  935   7.635   8.901   6.896
   42POPC   C3B  936   7.755   8.808   6.466
   42POPC   C4B  937   7.541   8.940   6.073
   43POPC   NC3  938   1.057   5.981   8.216
   43POPC   PO4  939   1.181   6.619   8.039
   43POPC   GL1  940   1.281   6.254   7.770
   43POPC   GL2  941   0.964   6.215   7.644
   43POPC   C1A  942   1.450   6.198   7.347
   43POPC   D2A  943   1.227   6.198   6.959
   43POPC   C3A  944   1.421   6.269   6.577
   43POPC   C4A  945   1.529   6.111   6.192
   43POPC   C1B  946   1.131   6.591   7.379
   43POPC   C2B  947   1.157   6.837   7.005
   43POPC   C3B  948   1.276   6.929   6.560
   43POPC   C4B  949   1.148   6.598   6.275
   44POPC   NC3  950   1.440   3.208   8.358
   44POPC   PO4  951   0.869   2.986   8.013
   44POPC   GL1  952   1.131   3.189   7.682
   44POPC   GL2  953   1.244   3.553   7.737
   44POPC   C1A  954   1.190   3.326   7.257
   44POPC   D2A  955   1.163   3.592   6.910
   44POPC   C3A  956   1.259   3.314   6.622
   44POPC   C4A  957   1.064   3.270   6.260
   44POPC   C1B  958   1.467   3.768   7.358
   44POPC   C2B  959   1.665   3.549   7.014
   44POPC   C3B  960   1.605   3.691   6.617
   44POPC   C4B  961   1.421   3.612   6.237
   45POPC   NC3  962   1.167   9.541   7.960
   45POPC   PO4  963   0.754   8.954   8.150
   45POPC   GL1  964   0.878   9.147   7.722
   45POPC   GL2  965   0.994   9.465   7.506
   45POPC   C1A  966   0.808   9.090   7.264
   45POPC   D2A  967   1.059   9.353   6.972
   45POPC   C3A  968   0.896   9.456   6.600
   45POPC   C4A  969   0.887   9.185   6.257
   45POPC   C1B  970   1.346   9.572   7.333
   45POPC   C2B  971   1.467   9.709   6.938
   45POPC   C3B  972   1.414   9.519   6.574
   45POPC   C4B  973   1.237   9.515   6.203
   46POPC   NC3  974   8.809   2.404   8.038
   46POPC   PO4  975   8.491   2.931   8.228
   46POPC   GL1  976   8.465   2.798   7.777
   46POPC   GL2  977   8.785   2.746   7.635
   46POPC   C1A  978   8.341   2.883   7.335
   46POPC   D2A  979   8.526   3.034   6.946
   46POPC   C3A  980   8.366   3.006   6.529
   46POPC   C4A  981   8.546   2.982   6.134
   46POPC   C1B  982   8.758   2.649   7.189
   46POPC   C2B  983   8.602   2.452   6.828
   46POPC   C3B  984   8.660   2.580   6.424
   46POPC   C4B  985   9.025   2.844   6.287
   47POPC   NC3  986   0.463   8.582   8.070
   47POPC   PO4  987   0.064   9.124   8.117
   47POPC   GL1  988   0.162   8.817   7.731
   47POPC   GL2  989   0.540   8.742   7.575
   47POPC   C1A  990   0.110   8.531   7.377
   47POPC   D2A  991   0.117   8.406   6.957
   47POPC   C3A  992   0.289   8.677   6.637
   47POPC   C4A  993   0.140   8.537   6.214
   47POPC   C1B  994   0.597   8.654   7.097
   47POPC   C2B  995   0.812   8.432   6.753
   47POPC   C3B  996   0.868   8.709   6.426
   47POPC   C4B  997   0.502   8.870   6.193
   48POPC   NC3  998   2.800   0.526   8.247
   48POPC   PO4  999   2.613  10.393   8.133
   48POPC   GL1 1000   2.570   0.257   7.793
   48POPC   GL2 1001   2.649   0.633   7.687
   48POPC   C1A 1002   2.587   0.271   7.331
   48POPC   D2A 1003   2.556   0.502   6.952
   48POPC   C3A 1004   2.720   0.325   6.567
   48POPC   C4A 1005   2.534   0.379   6.178
   48POPC   C1B 1006   2.925   0.656   7.294
   48POPC   C2B 1007   3.055   0.559   6.873
   48POPC   C3B 1008   3.033   0.755   6.533
   48POPC   C4B 1009   2.922   0.686   6.184
   49POPC   NC3 1010   9.853   0.359   8.342
   49POPC   PO4 1011   9.686   0.859   7.889
   49POPC   GL1 1012   9.579   0.532   7.625
   49POPC   GL2 1013   9.230   0.531   7.676
   49POPC   C1A 1014   9.482   0.340   7.210
   49POPC   D2A 1015   9.129   0.188   6.926
   49POPC   C3A 1016   9.312   0.261   6.509
   49POPC   C4A 1017   9.669   0.187   6.216
   49POPC   C1B 1018   9.298   0.802   7.298
   49POPC   C2B 1019   9.204   0.697   6.892
   49POPC   C3B 1020   9.299   0.799   6.484
   49POPC   C4B 1021   9.438   0.611   6.132
   50POPC   NC3 1022   3.879   1.064   7.881
   50POPC   PO4 1023   4.505   1.177   8.177
   50POPC   GL1 1024   4.508   1.037   7.770
   50POPC   GL2 1025   4.315   0.744   7.772
   50POPC   C1A 1026   4.452   1.129   7.342
   50POPC   D2A 1027   4.425   1.357   6.955
   50POPC   C3A 1028   4.362   1.221   6.564
   50POPC   C4A 1029   4.344   1.470   6.179
   50POPC   C1B 1030   4.146   0.685   7.367
   50POPC   C2B 1031   4.193   0.877   6.976
   50POPC   C3B 1032   4.216   0.727   6.581
   50POPC   C4B 1033   4.101   0.956   6.218
   51POPC   NC3 1034   3.174   2.742   8.022
   51POPC   PO4 1035   3.752   2.789   8.096
   51POPC   GL1 1036   3.645   2.758   7.650
   51POPC   GL2 1037   3.414   2.466   7.641
   51POPC   C1A 1038   3.660   2.957   7.202
   51POPC   D2A 1039   3.444   2.982   6.783
   51POPC   C3A 1040   3.637   3.022   6.358
   51POPC   C4A 1041   3.540   3.151   5.910
   51POPC   C1B 1042   3.309   2.572   7.205
   51POPC   C2B 1043   3.149   2.535   6.781
   51POPC   C3B 1044   3.312   2.634   6.394
   51POPC   C4B 1045   3.220   2.343   6.047
   52POPC   NC3 1046   2.501   1.152   7.952
   52POPC   PO4 1047   2.852   1.600   8.354
   52POPC   GL1 1048   2.748   1.570   7.807
   52POPC   GL2 1049   2.885   1.215   7.629
   52POPC   C1A 1050   2.665   1.549   7.288
   52POPC   D2A 1051   2.883   1.528   6.837
   52POPC   C3A 1052   2.745   1.215   6.490
   52POPC   C4A 1053   2.566   1.350   6.083
   52POPC   C1B 1054   2.600   1.028   7.306
   52POPC   C2B 1055   2.399   1.000   6.890
   52POPC   C3B 1056   2.486   0.779   6.517
   52POPC   C4B 1057   2.445   0.867   6.096
   53POPC   NC3 1058   3.455   7.937   8.089
   53POPC   PO4 1059   3.901   8.450   8.018
   53POPC   GL1 1060   3.646   8.312   7.635
   53POPC   GL2 1061   3.329   8.113   7.648
   53POPC   C1A 1062   3.530   8.192   7.189
   53POPC   D2A 1063   3.406   8.291   6.782
   53POPC   C3A 1064   3.486   8.009   6.425
   53POPC   C4A 1065   3.296   8.088   6.022
   53POPC   C1B 1066   3.241   7.798   7.346
   53POPC   C2B 1067   3.359   7.767   6.903
   53POPC   C3B 1068   3.170   7.602   6.523
   53POPC   C4B 1069   3.161   7.612   6.080
   54POPC   NC3 1070   3.595   8.800   7.919
   54POPC   PO4 1071   3.031   8.988   7.969
   54POPC   GL1 1072   3.052   8.900   7.567
   54POPC   GL2 1073   3.214   8.604   7.599
   54POPC   C1A 1074   2.980   8.671   7.162
   54POPC   D2A 1075   3.248   8.788   6.862
   54POPC   C3A 1076   3.224   8.671   6.476
   54POPC   C4A 1077   3.220   8.952   6.139
   54POPC   C1B 1078   3.556   8.691   7.257
   54POPC   C2B 1079   3.769   8.649   6.817
   54POPC   C3B 1080   3.691   8.473   6.381
   54POPC   C4B 1081   3.518   8.560   5.940
   55POPC   NC3 1082   1.392   4.173   8.102
   55POPC   PO4 1083   0.954   4.579   8.102
   55POPC   GL1 1084   0.947   4.339   7.715
   55POPC   GL2 1085   1.114   4.048   7.693
   55POPC   C1A 1086   1.173   4.417   7.305
   55POPC   D2A 1087   1.272   4.600   6.889
   55POPC   C3A 1088   1.024   4.514   6.544
   55POPC   C4A 1089   1.093   4.422   6.130
   55POPC   C1B 1090   1.004   3.935   7.275
   55POPC   C2B 1091   1.333   4.077   6.932
   55POPC   C3B 1092   1.258   4.052   6.486
   55POPC   C4B 1093   0.935   3.745   6.386
   56POPC   NC3 1094   9.059   8.503   8.073
   56POPC   PO4 1095   9.630   8.779   8.026
   56POPC   GL1 1096   9.459   8.588   7.663
   56POPC   GL2 1097   9.207   8.815   7.622
   56POPC   C1A 1098   9.509   8.710   7.214
   56POPC   D2A 1099   9.300   8.531   6.823
   56POPC   C3A 1100   9.484   8.648   6.498
   56POPC   C4A 1101   9.473   8.556   6.082
   56POPC   C1B 1102   9.147   9.102   7.286
   56POPC   C2B 1103   9.243   9.030   6.861
   56POPC   C3B 1104   9.086   8.949   6.463
   56POPC   C4B 1105   9.290   9.030   6.063
   57POPC   NC3 1106   1.093   7.854   8.127
   57POPC   PO4 1107   1.410   8.324   7.806
   57POPC   GL1 1108   1.262   7.957   7.637
   57POPC   GL2 1109   0.886   7.930   7.672
   57POPC   C1A 1110   1.403   7.997   7.227
   57POPC   D2A 1111   1.507   7.750   6.916
   57POPC   C3A 1112   1.351   7.892   6.558
   57POPC   C4A 1113   1.544   7.819   6.215
   57POPC   C1B 1114   0.861   7.774   7.278
   57POPC   C2B 1115   0.981   7.940   6.915
   57POPC   C3B 1116   0.805   7.897   6.529
   57POPC   C4B 1117   0.990   7.957   6.177
   58POPC   NC3 1118   2.080   7.306   7.990
   58POPC   PO4 1119   1.450   7.581   7.989
   58POPC   GL1 1120   1.612   7.282   7.648
   58POPC   GL2 1121   1.925   7.244   7.521
   58POPC   C1A 1122   1.545   7.085   7.244
   58POPC   D2A 1123   1.772   7.296   6.907
   58POPC   C3A 1124   1.639   7.299   6.467
   58POPC   C4A 1125   1.679   6.928   6.175
   58POPC   C1B 1126   2.327   7.310   7.350
   58POPC   C2B 1127   2.394   7.393   6.926
   58POPC   C3B 1128   2.141   7.485   6.598
   58POPC   C4B 1129   2.098   7.226   6.223
   59POPC   NC3 1130   6.949   9.381   8.148
   59POPC   PO4 1131   7.422   9.811   8.036
   59POPC   GL1 1132   7.184   9.614   7.731
   59POPC   GL2 1133   7.454   9.391   7.676
   59POPC   C1A 1134   7.125   9.558   7.272
   59POPC   D2A 1135   6.961   9.253   6.962
   59POPC   C3A 1136   7.062   9.352   6.564
   59POPC   C4A 1137   6.967   9.297   6.169
   59POPC   C1B 1138   7.631   9.347   7.295
   59POPC   C2B 1139   7.444   9.356   6.925
   59POPC   C3B 1140   7.584   9.308   6.555
   59POPC   C4B 1141   7.467   9.427   6.201
   60POPC   NC3 1142   0.530   7.562   7.857
   60POPC   PO4 1143   0.630   8.158   8.062
   60POPC   GL1 1144   0.441   8.231   7.680
   60POPC   GL2 1145   0.197   7.973   7.622
   60POPC   C1A 1146   0.577   8.199   7.282
   60POPC   D2A 1147   0.479   8.060   6.895
   60POPC   C3A 1148   0.398   8.205   6.519
   60POPC   C4A 1149   0.627   8.336   6.210
   60POPC   C1B 1150   0.326   7.733   7.254
   60POPC   C2B 1151   0.467   7.576   6.839
   60POPC   C3B 1152   0.268   7.721   6.455
   60POPC   C4B 1153   0.471   7.885   6.078
   61POPC   NC3 1154   2.654   1.960   8.161
   61POPC   PO4 1155   2.057   2.199   8.259
   61POPC   GL1 1156   2.326   2.202   7.779
   61POPC   GL2 1157   2.673   2.102   7.680
   61POPC   C1A 1158   2.411   2.047   7.265
   61POPC   D2A 1159   2.573   1.915   6.818
   61POPC   C3A 1160   2.464   2.168   6.410
   61POPC   C4A 1161   2.328   2.196   5.924
   61POPC   C1B 1162   2.976   1.949   7.378
   61POPC   C2B 1163   3.098   2.051   6.954
   61POPC   C3B 1164   2.986   2.067   6.534
   61POPC   C4B 1165   2.763   1.714   6.360
   62POPC   NC3 1166   4.160   2.585   8.073
   62POPC   PO4 1167   4.589   3.075   7.914
   62POPC   GL1 1168   4.351   2.790   7.578
   62POPC   GL2 1169   4.167   2.455   7.572
   62POPC   C1A 1170   4.207   2.741   7.118
   62POPC   D2A 1171   3.979   2.967   6.782
   62POPC   C3A 1172   4.159   3.012   6.372
   62POPC   C4A 1173   4.006   2.945   5.973
   62POPC   C1B 1174   3.804   2.470   7.265
   62POPC   C2B 1175   3.685   2.541   6.822
   62POPC   C3B 1176   3.898   2.565   6.412
   62POPC   C4B 1177   4.342   2.487   6.289
   63POPC   NC3 1178   2.802   8.598   7.977
   63POPC   PO4 1179   2.285   9.069   8.089
   63POPC   GL1 1180   2.556   8.980   7.726
   63POPC   GL2 1181   2.616   8.633   7.530
   63POPC   C1A 1182   2.648   9.065   7.306
   63POPC   D2A 1183   2.551   8.863   6.957
   63POPC   C3A 1184   2.760   8.880   6.584
   63POPC   C4A 1185   2.583   8.885   6.204
   63POPC   C1B 1186   2.488   8.393   7.191
   63POPC   C2B 1187   2.637   8.395   6.778
   63POPC   C3B 1188   2.673   8.420   6.367
   63POPC   C4B 1189   2.998   8.491   6.075
   64POPC   NC3 1190   5.742   0.526   7.928
   64POPC   PO4 1191   5.251  10.453   8.035
   64POPC   GL1 1192   5.497   0.142   7.712
   64POPC   GL2 1193   5.371   0.458   7.576
   64POPC   C1A 1194   5.679   0.152   7.283
   64POPC   D2A 1195   5.582   0.233   6.841
   64POPC   C3A 1196   5.822   0.132   6.469
   64POPC   C4A 1197   5.706   0.147   6.012
   64POPC   C1B 1198   5.678   0.656   7.252
   64POPC   C2B 1199   5.625   0.729   6.801
   64POPC   C3B 1200   5.449   0.520   6.430
   64POPC   C4B 1201   5.831   0.593   6.218
   65POPC   NC3 1202   8.923   4.378   7.912
   65POPC   PO4 1203   9.450   4.116   8.313
   65POPC   GL1 1204   9.321   3.976   7.835
   65POPC   GL2 1205   9.620   3.884   7.673
   65POPC   C1A 1206   9.277   4.159   7.346
   65POPC   D2A 1207   9.440   4.292   6.929
   65POPC   C3A 1208   9.108   4.230   6.627
   65POPC   C4A 1209   9.229   4.199   6.215
   65POPC   C1B 1210   9.706   3.900   7.216
   65POPC   C2B 1211   9.647   3.790   6.769
   65POPC   C3B 1212   9.643   3.901   6.337
   65POPC   C4B 1213   9.695   4.381   6.244
   66POPC   NC3 1214   1.413  10.242   8.237
   66POPC   PO4 1215   0.853   0.070   8.122
   66POPC   GL1 1216   1.155  10.410   7.787
   66POPC   GL2 1217   1.190  10.063   7.766
   66POPC   C1A 1218   1.373  10.439   7.381
   66POPC   D2A 1219   1.360  10.205   6.971
   66POPC   C3A 1220   1.415  10.392   6.610
   66POPC   C4A 1221   1.376  10.344   6.196
   66POPC   C1B 1222   1.094  10.001   7.348
   66POPC   C2B 1223   0.971   9.876   6.904
   66POPC   C3B 1224   1.111   9.957   6.464
   66POPC   C4B 1225   1.131   9.956   5.991
   67POPC   NC3 1226  10.389   1.290   8.359
   67POPC   PO4 1227   0.601   1.378   8.146
   67POPC   GL1 1228   0.438   1.152   7.812
   67POPC   GL2 1229   0.632   1.016   7.690
   67POPC   C1A 1230   0.233   1.059   7.366
   67POPC   D2A 1231   0.046   1.211   6.964
   67POPC   C3A 1232   0.224   1.065   6.608
   67POPC   C4A 1233   0.257   1.029   6.168
   67POPC   C1B 1234   0.688   1.307   7.378
   67POPC   C2B 1235   0.746   1.175   6.970
   67POPC   C3B 1236   0.733   1.030   6.560
   67POPC   C4B 1237   0.750   1.290   6.191
   68POPC   NC3 1238   8.756   6.530   7.854
   68POPC   PO4 1239   8.695   5.913   7.783
   68POPC   GL1 1240   8.844   6.175   7.469
   68POPC   GL2 1241   8.983   6.578   7.423
   68POPC   C1A 1242   8.750   5.993   7.074
   68POPC   D2A 1243   8.519   6.090   6.701
   68POPC   C3A 1244   8.808   6.035   6.383
   68POPC   C4A 1245   8.875   6.185   5.982
   68POPC   C1B 1246   8.641   6.500   7.150
   68POPC   C2B 1247   8.684   6.620   6.730
   68POPC   C3B 1248   8.572   6.536   6.314
   68POPC   C4B 1249   8.407   6.841   5.984
   69POPC   NC3 1250   7.782   9.528   8.040
   69POPC   PO4 1251   8.129   8.965   8.090
   69POPC   GL1 1252   7.899   9.042   7.701
   69POPC   GL2 1253   8.049   9.361   7.641
   69POPC   C1A 1254   8.019   9.018   7.239
   69POPC   D2A 1255   8.203   9.242   6.855
   69POPC   C3A 1256   8.069   9.233   6.425
   69POPC   C4A 1257   8.276   9.318   6.044
   69POPC   C1B 1258   8.113   9.580   7.265
   69POPC   C2B 1259   7.868   9.629   6.904
   69POPC   C3B 1260   7.792   9.832   6.532
   69POPC   C4B 1261   7.934   9.690   6.151
   70POPC   NC3 1262   1.237   4.941   8.138
   70POPC   PO4 1263   1.744   4.458   8.153
   70POPC   GL1 1264   1.444   4.610   7.738
   70POPC   GL2 1265   1.134   4.811   7.673
   70POPC   C1A 1266   1.432   4.866   7.294
   70POPC   D2A 1267   1.249   5.155   7.013
   70POPC   C3A 1268   1.184   5.036   6.603
   70POPC   C4A 1269   1.417   4.782   6.311
   70POPC   C1B 1270   0.909   4.871   7.310
   70POPC   C2B 1271   0.788   4.772   6.943
   70POPC   C3B 1272   0.692   4.905   6.559
   70POPC   C4B 1273   0.923   4.896   6.181
   71POPC   NC3 1274  10.438   1.828   8.016
   71POPC   PO4 1275   9.952   2.244   8.316
   71POPC   GL1 1276   9.976   2.119   7.840
   71POPC   GL2 1277  10.272   2.177   7.703
   71POPC   C1A 1278   9.962   2.246   7.341
   71POPC   D2A 1279  10.262   2.238   6.975
   71POPC   C3A 1280  10.258   2.024   6.580
   71POPC   C4A 1281  10.476   1.954   6.182
   71POPC   C1B 1282  10.308   1.879   7.360
   71POPC   C2B 1283  10.357   1.715   6.968
   71POPC   C3B 1284   0.014   1.575   6.585
   71POPC   C4B 1285  10.456   1.448   6.177
   72POPC   NC3 1286   7.390   1.290   8.548
   72POPC   PO4 1287   7.093   0.962   8.070
   72POPC   GL1 1288   7.175   0.961   7.663
   72POPC   GL2 1289   7.167   1.319   7.672
   72POPC   C1A 1290   6.915   1.004   7.302
   72POPC   D2A 1291   6.680   1.015   6.934
   72POPC   C3A 1292   6.894   1.059   6.562
   72POPC   C4A 1293   7.027   0.956   6.164
   72POPC   C1B 1294   7.157   1.479   7.305
   72POPC   C2B 1295   7.116   1.320   6.950
   72POPC   C3B 1296   7.207   1.449   6.572
   72POPC   C4B 1297   7.268   1.387   6.163
   73POPC   NC3 1298  10.455   3.967   7.913
   73POPC   PO4 1299   0.597   3.916   8.012
   73POPC   GL1 1300   0.549   4.011   7.616
   73POPC   GL2 1301   0.322   4.291   7.597
   73POPC   C1A 1302   0.380   3.925   7.210
   73POPC   D2A 1303   0.091   4.119   6.945
   73POPC   C3A 1304   0.010   4.008   6.536
   73POPC   C4A 1305   0.128   4.282   6.228
   73POPC   C1B 1306   0.674   4.357   7.276
   73POPC   C2B 1307   0.804   4.193   6.885
   73POPC   C3B 1308   0.612   4.162   6.494
   73POPC   C4B 1309   0.600   4.490   6.219
   74POPC   NC3 1310   1.604   6.436   8.119
   74POPC   PO4 1311   1.828   6.930   7.990
   74POPC   GL1 1312   1.610   6.692   7.665
   74POPC   GL2 1313   1.801   6.340   7.667
   74POPC   C1A 1314   1.708   6.610   7.232
   74POPC   D2A 1315   1.634   6.686   6.812
   74POPC   C3A 1316   1.972   6.868   6.589
   74POPC   C4A 1317   2.302   6.726   6.304
   74POPC   C1B 1318   1.965   6.155   7.273
   74POPC   C2B 1319   2.048   6.372   6.895
   74POPC   C3B 1320   1.954   6.313   6.489
   74POPC   C4B 1321   2.001   5.941   6.262
   75POPC   NC3 1322   9.920   0.241   7.869
   75POPC   PO4 1323  10.287   0.801   8.216
   75POPC   GL1 1324  10.152   0.658   7.754
   75POPC   GL2 1325  10.391   0.603   7.595
   75POPC   C1A 1326   9.982   0.539   7.297
   75POPC   D2A 1327   9.982   0.273   6.937
   75POPC   C3A 1328   9.784   0.487   6.609
   75POPC   C4A 1329   9.940   0.619   6.213
   75POPC   C1B 1330   0.024   0.555   7.192
   75POPC   C2B 1331   0.020   0.476   6.791
   75POPC   C3B 1332  10.405   0.644   6.424
   75POPC   C4B 1333  10.340   0.272   6.179
   76POPC   NC3 1334   6.425   7.947   8.239
   76POPC   PO4 1335   6.846   7.595   8.065
   76POPC   GL1 1336   6.535   7.843   7.754
   76POPC   GL2 1337   6.187   8.024   7.781
   76POPC   C1A 1338   6.497   8.174   7.416
   76POPC   D2A 1339   6.225   8.187   7.071
   76POPC   C3A 1340   6.366   8.071   6.686
   76POPC   C4A 1341   6.498   8.045   6.265
   76POPC   C1B 1342   6.184   7.765   7.373
   76POPC   C2B 1343   6.333   7.623   6.955
   76POPC   C3B 1344   6.294   7.611   6.488
   76POPC   C4B 1345   6.012   7.892   6.236
   77POPC   NC3 1346   1.857   8.902   8.091
   77POPC   PO4 1347   1.573   8.397   8.292
   77POPC   GL1 1348   1.866   8.489   7.806
   77POPC   GL2 1349   2.224   8.596   7.873
   77POPC   C1A 1350   1.688   8.591   7.306
   77POPC   D2A 1351   1.633   8.828   6.887
   77POPC   C3A 1352   1.719   8.660   6.458
   77POPC   C4A 1353   1.784   8.738   6.000
   77POPC   C1B 1354   2.153   8.763   7.423
   77POPC   C2B 1355   2.093   8.613   6.981
   77POPC   C3B 1356   2.245   8.669   6.582
   77POPC   C4B 1357   2.208   8.545   6.200
   78POPC   NC3 1358   1.948   9.949   8.232
   78POPC   PO4 1359   1.641   0.096   8.040
   78POPC   GL1 1360   1.706  10.221   7.759
   78POPC   GL2 1361   1.971  10.322   7.526
   78POPC   C1A 1362   1.655  10.001   7.331
   78POPC   D2A 1363   1.874  10.115   6.921
   78POPC   C3A 1364   1.665   9.969   6.544
   78POPC   C4A 1365   1.621   9.813   6.138
   78POPC   C1B 1366   2.162   0.039   7.189
   78POPC   C2B 1367   2.301   0.065   6.765
   78POPC   C3B 1368   2.130  10.316   6.446
   78POPC   C4B 1369   2.101   9.924   6.304
   79POPC   NC3 1370   0.526   7.146   8.341
   79POPC   PO4 1371   0.071   7.437   7.905
   79POPC   GL1 1372   0.300   7.126   7.688
   79POPC   GL2 1373   0.648   7.043   7.776
   79POPC   C1A 1374   0.366   7.230   7.261
   79POPC   D2A 1375   0.127   7.213   6.918
   79POPC   C3A 1376   0.328   7.193   6.519
   79POPC   C4A 1377   0.655   7.442   6.308
   79POPC   C1B 1378   0.632   6.806   7.351
   79POPC   C2B 1379   0.398   6.738   6.940
   79POPC   C3B 1380   0.341   6.642   6.514
   79POPC   C4B 1381   0.458   6.852   6.164
   80POPC   NC3 1382   1.865   0.842   8.086
   80POPC   PO4 1383   2.139   1.458   7.936
   80POPC   GL1 1384   2.056   1.093   7.659
   80POPC   GL2 1385   1.677   1.003   7.614
   80POPC   C1A 1386   2.166   1.272   7.270
   80POPC   D2A 1387   2.199   1.624   7.023
   80POPC   C3A 1388   2.345   1.490   6.643
   80POPC   C4A 1389   2.176   1.183   6.373
   80POPC   C1B 1390   1.813   0.929   7.179
   80POPC   C2B 1391   1.900   1.207   6.821
   80POPC   C3B 1392   1.682   1.106   6.436
   80POPC   C4B 1393   1.573   0.719   6.250
   81POPC   NC3 1394   2.873  10.078   7.881
   81POPC   PO4 1395   2.217  10.042   7.869
   81POPC   GL1 1396   2.495  10.279   7.567
   81POPC   GL2 1397   2.866  10.406   7.528
   81POPC   C1A 1398   2.539  10.217   7.112
   81POPC   D2A 1399   2.378   9.961   6.769
   81POPC   C3A 1400   2.603  10.015   6.394
   81POPC   C4A 1401   2.631  10.410   6.272
   81POPC   C1B 1402   3.038  10.178   7.161
   81POPC   C2B 1403   2.954  10.386   6.744
   81POPC   C3B 1404   3.102  10.209   6.367
   81POPC   C4B 1405   3.056   9.759   6.318
   82POPC   NC3 1406   8.402  10.272   8.344
   82POPC   PO4 1407   8.249   9.691   8.049
   82POPC   GL1 1408   8.061   9.895   7.690
   82POPC   GL2 1409   7.789  10.141   7.741
   82POPC   C1A 1410   8.143  10.118   7.297
   82POPC   D2A 1411   8.250   9.958   6.901
   82POPC   C3A 1412   8.216  10.226   6.568
   82POPC   C4A 1413   7.926  10.267   6.234
   82POPC   C1B 1414   7.660  10.316   7.319
   82POPC   C2B 1415   7.774  10.230   6.873
   82POPC   C3B 1416   7.500  10.302   6.498
   82POPC   C4B 1417   7.496  10.414   6.010
   83POPC   NC3 1418   1.384   7.068   8.024
   83POPC   PO4 1419   0.839   7.460   8.187
   83POPC   GL1 1420   1.042   7.425   7.739
   83POPC   GL2 1421   1.137   7.075   7.586
   83POPC   C1A 1422   1.291   7.519   7.340
   83POPC   D2A 1423   1.237   7.323   6.921
   83POPC   C3A 1424   1.097   7.451   6.554
   83POPC   C4A 1425   1.241   7.431   6.146
   83POPC   C1B 1426   0.870   7.250   7.285
   83POPC   C2B 1427   0.724   7.139   6.898
   83POPC   C3B 1428   0.772   6.913   6.562
   83POPC   C4B 1429   0.930   7.048   6.196
   84POPC   NC3 1430   6.990   9.957   8.136
   84POPC   PO4 1431   6.948   0.151   8.016
   84POPC   GL1 1432   7.042  10.412   7.626
   84POPC   GL2 1433   7.274  10.133   7.679
   84POPC   C1A 1434   7.163  10.237   7.196
   84POPC   D2A 1435   6.920   9.956   6.928
   84POPC   C3A 1436   6.826  10.208   6.596
   84POPC   C4A 1437   7.062  10.270   6.233
   84POPC   C1B 1438   7.522   9.846   7.381
   84POPC   C2B 1439   7.422   9.862   6.938
   84POPC   C3B 1440   7.262   9.825   6.523
   84POPC   C4B 1441   7.458   9.921   6.136
   85POPC   NC3 1442   4.332   0.586   8.264
   85POPC   PO4 1443   3.724   0.642   8.038
   85POPC   GL1 1444   3.894   0.379   7.727
   85POPC   GL2 1445   4.212   0.245   7.855
   85POPC   C1A 1446   3.855   0.264   7.297
   85POPC   D2A 1447   3.848   0.502   6.947
   85POPC   C3A 1448   3.926   0.289   6.582
   85POPC   C4A 1449   3.950   0.477   6.193
   85POPC   C1B 1450   4.383   0.233   7.435
   85POPC   C2B 1451   4.282   0.242   6.997
   85POPC   C3B 1452   4.457   0.255   6.577
   85POPC   C4B 1453   4.465   0.488   6.197
   86POPC   NC3 1454   1.630   2.368   8.373
   86POPC   PO4 1455   1.506   2.981   7.969
   86POPC   GL1 1456   1.645   2.822   7.570
   86POPC   GL2 1457   2.005   2.767   7.608
   86POPC   C1A 1458   1.669   2.564   7.197
   86POPC   D2A 1459   1.673   2.361   6.791
   86POPC   C3A 1460   1.507   2.517   6.467
   86POPC   C4A 1461   1.776   2.661   6.186
   86POPC   C1B 1462   2.164   2.482   7.350
   86POPC   C2B 1463   2.129   2.524   6.945
   86POPC   C3B 1464   2.129   2.554   6.542
   86POPC   C4B 1465   2.322   2.626   6.173
   87POPC   NC3 1466   8.445   5.103   8.048
   87POPC   PO4 1467   8.856   4.605   8.356
   87POPC   GL1 1468   9.031   4.864   7.914
   87POPC   GL2 1469   8.735   4.868   7.707
   87POPC   C1A 1470   9.097   5.022   7.412
   87POPC   D2A 1471   8.853   5.155   6.992
   87POPC   C3A 1472   8.826   4.959   6.588
   87POPC   C4A 1473   8.628   5.098   6.224
   87POPC   C1B 1474   8.633   4.793   7.277
   87POPC   C2B 1475   8.744   4.500   6.943
   87POPC   C3B 1476   8.623   4.438   6.518
   87POPC   C4B 1477   8.456   4.610   6.126
   88POPC   NC3 1478  10.165   9.845   8.193
   88POPC   PO4 1479   9.797  10.417   8.208
   88POPC   GL1 1480   9.952  10.254   7.751
   88POPC   GL2 1481  10.302  10.099   7.765
   88POPC   C1A 1482   9.810  10.431   7.302
   88POPC   D2A 1483   9.578  10.420   6.896
   88POPC   C3A 1484   9.831  10.327   6.549
   88POPC   C4A 1485  10.040  10.362   6.157
   88POPC   C1B 1486  10.290  10.277   7.347
   88POPC   C2B 1487  10.170  10.260   6.935
   88POPC   C3B 1488   0.000  10.171   6.645
   88POPC   C4B 1489  10.461  10.110   6.230
   89POPC   NC3 1490   0.736   1.922   8.398
   89POPC   PO4 1491   1.372   1.999   8.281
   89POPC   GL1 1492   1.410   2.102   7.867
   89POPC   GL2 1493   1.094   2.000   7.796
   89POPC   C1A 1494   1.470   1.943   7.454
   89POPC   D2A 1495   1.393   2.059   7.062
   89POPC   C3A 1496   1.289   1.928   6.653
   89POPC   C4A 1497   1.412   2.000   6.240
   89POPC   C1B 1498   1.004   2.131   7.390
   89POPC   C2B 1499   0.888   1.951   7.019
   89POPC   C3B 1500   0.778   1.944   6.628
   89POPC   C4B 1501   0.932   1.765   6.288
   90POPC   NC3 1502   8.648   5.102   8.543
   90POPC   PO4 1503   8.143   5.438   8.041
   90POPC   GL1 1504   8.106   5.207   7.622
   90POPC   GL2 1505   8.165   4.871   7.653
   90POPC   C1A 1506   8.296   5.151   7.177
   90POPC   D2A 1507   8.381   4.858   6.800
   90POPC   C3A 1508   8.164   4.997   6.394
   90POPC   C4A 1509   8.092   5.140   5.949
   90POPC   C1B 1510   8.116   4.678   7.222
   90POPC   C2B 1511   7.876   4.780   6.812
   90POPC   C3B 1512   7.666   4.856   6.376
   90POPC   C4B 1513   7.468   4.851   5.945
   91POPC   NC3 1514   5.610   2.124   7.970
   91POPC   PO4 1515   6.120   1.591   8.005
   91POPC   GL1 1516   5.798   1.739   7.685
   91POPC   GL2 1517   5.951   2.034   7.618
   91POPC   C1A 1518   5.576   2.010   7.291
   91POPC   D2A 1519   5.744   2.164   6.883
   91POPC   C3A 1520   5.510   2.193   6.477
   91POPC   C4A 1521   5.508   1.901   6.126
   91POPC   C1B 1522   6.051   1.856   7.228
   91POPC   C2B 1523   6.045   1.755   6.819
   91POPC   C3B 1524   5.931   1.917   6.450
   91POPC   C4B 1525   5.975   1.980   5.999
   92POPC   NC3 1526   1.687   8.021   8.019
   92POPC   PO4 1527   2.267   7.693   8.140
   92POPC   GL1 1528   2.119   7.717   7.662
   92POPC   GL2 1529   1.762   7.766   7.582
   92POPC   C1A 1530   2.083   7.726   7.165
   92POPC   D2A 1531   2.333   7.999   6.878
   92POPC   C3A 1532   2.327   8.016   6.403
   92POPC   C4A 1533   2.047   7.728   6.171
   92POPC   C1B 1534   1.953   8.153   7.403
   92POPC   C2B 1535   1.833   8.176   6.982
   92POPC   C3B 1536   1.866   7.957   6.610
   92POPC   C4B 1537   1.860   8.201   6.233
   93POPC   NC3 1538   9.563   3.661   8.188
   93POPC   PO4 1539   8.856   3.698   8.222
   93POPC   GL1 1540   9.085   3.520   7.830
   93POPC   GL2 1541   9.424   3.390   7.764
   93POPC   C1A 1542   9.216   3.658   7.390
   93POPC   D2A 1543   9.195   3.842   6.972
   93POPC   C3A 1544   9.110   3.667   6.614
   93POPC   C4A 1545   9.202   3.686   6.191
   93POPC   C1B 1546   9.268   3.148   7.385
   93POPC   C2B 1547   9.309   3.332   6.956
   93POPC   C3B 1548   9.524   3.354   6.541
   93POPC   C4B 1549   9.502   3.081   6.194
   94POPC   NC3 1550   0.510   4.400   8.074
   94POPC   PO4 1551   0.321   5.019   8.234
   94POPC   GL1 1552   0.272   4.788   7.788
   94POPC   GL2 1553   0.615   4.737   7.702
   94POPC   C1A 1554   0.322   4.700   7.288
   94POPC   D2A 1555   0.358   4.533   6.835
   94POPC   C3A 1556   0.232   4.753   6.451
   94POPC   C4A 1557   0.201   4.739   5.994
   94POPC   C1B 1558   0.487   5.139   7.473
   94POPC   C2B 1559   0.379   5.134   7.019
   94POPC   C3B 1560   0.325   5.268   6.586
   94POPC   C4B 1561   0.448   5.145   6.152
   95POPC   NC3 1562   1.212   8.643   8.091
   95POPC   PO4 1563   1.602   9.264   7.995
   95POPC   GL1 1564   1.429   8.915   7.700
   95POPC   GL2 1565   1.088   8.693   7.597
   95POPC   C1A 1566   1.321   8.994   7.268
   95POPC   D2A 1567   1.092   8.842   6.906
   95POPC   C3A 1568   1.274   9.021   6.550
   95POPC   C4A 1569   1.302   8.831   6.164
   95POPC   C1B 1570   1.083   8.416   7.214
   95POPC   C2B 1571   1.338   8.356   6.825
   95POPC   C3B 1572   1.273   8.360   6.363
   95POPC   C4B 1573   1.049   8.430   5.957
   96POPC   NC3 1574   6.657   0.927   7.916
   96POPC   PO4 1575   6.010   0.842   8.138
   96POPC   GL1 1576   6.163   0.995   7.738
   96POPC   GL2 1577   6.395   1.292   7.700
   96POPC   C1A 1578   6.354   0.909   7.328
   96POPC   D2A 1579   6.151   0.810   6.951
   96POPC   C3A 1580   6.329   0.914   6.574
   96POPC   C4A 1581   6.112   1.041   6.225
   96POPC   C1B 1582   6.146   1.373   7.354
   96POPC   C2B 1583   6.268   1.321   6.936
   96POPC   C3B 1584   6.307   1.436   6.508
   96POPC   C4B 1585   6.568   1.245   6.214
   97POPC   NC3 1586   3.253   1.762   8.203
   97POPC   PO4 1587   3.813   1.355   8.228
   97POPC   GL1 1588   3.796   1.587   7.789
   97POPC   GL2 1589   3.569   1.904   7.740
   97POPC   C1A 1590   3.665   1.595   7.327
   97POPC   D2A 1591   3.383   1.553   6.971
   97POPC   C3A 1592   3.465   1.667   6.523
   97POPC   C4A 1593   3.259   1.851   6.160
   97POPC   C1B 1594   3.479   2.071   7.314
   97POPC   C2B 1595   3.619   2.034   6.895
   97POPC   C3B 1596   3.516   2.179   6.490
   97POPC   C4B 1597   3.724   2.173   6.114
   98POPC   NC3 1598   6.295   0.518   8.336
   98POPC   PO4 1599   5.736   0.175   8.232
   98POPC   GL1 1600   6.020   0.105   7.789
   98POPC   GL2 1601   6.114   0.443   7.581
   98POPC   C1A 1602   6.168   0.009   7.322
   98POPC   D2A 1603   6.067   0.316   6.966
   98POPC   C3A 1604   6.268   0.390   6.550
   98POPC   C4A 1605   6.194   0.218   6.126
   98POPC   C1B 1606   6.483   0.411   7.270
   98POPC   C2B 1607   6.701   0.493   6.882
   98POPC   C3B 1608   6.750   0.589   6.476
   98POPC   C4B 1609   6.570   0.742   6.154
   99POPC   NC3 1610   1.276   2.595   7.899
   99POPC   PO4 1611   0.717   2.235   8.030
   99POPC   GL1 1612   0.662   2.437   7.607
   99POPC   GL2 1613   0.846   2.744   7.575
   99POPC   C1A 1614   0.744   2.486   7.124
   99POPC   D2A 1615   1.094   2.390   6.818
   99POPC   C3A 1616   1.029   2.328   6.370
   99POPC   C4A 1617   0.874   2.570   6.004
   99POPC   C1B 1618   1.190   2.778   7.283
   99POPC   C2B 1619   1.333   2.852   6.880
   99POPC   C3B 1620   1.084   2.827   6.517
   99POPC   C4B 1621   1.274   2.849   6.142
  100POPC   NC3 1622   1.952   4.038   8.139
  100POPC   PO4 1623   2.313   4.383   7.886
  100POPC   GL1 1624   1.915   4.424   7.673
  100POPC   GL2 1625   1.674   4.140   7.698
  100POPC   C1A 1626   1.686   4.432   7.268
  100POPC   D2A 1627   1.773   4.660   6.893
  100POPC   C3A 1628   1.757   4.422   6.512
  100POPC   C4A 1629   2.108   4.352   6.215
  100POPC   C1B 1630   1.934   4.009   7.374
  100POPC   C2B 1631   1.888   4.012   6.936
  100POPC   C3B 1632   2.056   3.938   6.529
  100POPC   C4B 1633   1.738   4.000   6.230
  101POPC   NC3 1634   8.128   2.642   8.134
  101POPC   PO4 1635   8.130   3.203   7.862
  101POPC   GL1 1636   7.949   2.822   7.662
  101POPC   GL2 1637   8.052   2.431   7.684
  101POPC   C1A 1638   7.834   2.971   7.247
  101POPC   D2A 1639   8.009   3.156   6.877
  101POPC   C3A 1640   7.866   3.049   6.443
  101POPC   C4A 1641   8.101   3.220   6.072
  101POPC   C1B 1642   8.004   2.497   7.257
  101POPC   C2B 1643   8.150   2.664   6.901
  101POPC   C3B 1644   8.044   2.565   6.508
  101POPC   C4B 1645   8.086   2.705   6.114
  102POPC   NC3 1646   1.221   0.361   8.018
  102POPC   PO4 1647   0.619   0.581   7.970
  102POPC   GL1 1648   0.788   0.280   7.663
  102POPC   GL2 1649   1.107   0.378   7.523
  102POPC   C1A 1650   0.850  10.468   7.329
  102POPC   D2A 1651   1.071   0.122   6.947
  102POPC   C3A 1652   0.905  10.458   6.544
  102POPC   C4A 1653   0.731   0.182   6.204
  102POPC   C1B 1654   1.409   0.630   7.306
  102POPC   C2B 1655   1.530   0.588   6.867
  102POPC   C3B 1656   1.343   0.371   6.520
  102POPC   C4B 1657   1.214   0.335   6.090
  103POPC   NC3 1658  10.382   4.946   8.115
  103POPC   PO4 1659   9.731   4.797   8.241
  103POPC   GL1 1660   9.957   4.742   7.847
  103POPC   GL2 1661  10.044   5.058   7.727
  103POPC   C1A 1662   9.949   4.695   7.389
  103POPC   D2A 1663   9.938   4.964   7.009
  103POPC   C3A 1664   9.836   4.758   6.609
  103POPC   C4A 1665   9.939   4.998   6.243
  103POPC   C1B 1666  10.400   4.932   7.450
  103POPC   C2B 1667  10.444   4.860   6.996
  103POPC   C3B 1668  10.305   4.973   6.612
  103POPC   C4B 1669  10.462   5.127   6.237
  104POPC   NC3 1670  10.234   7.081   7.948
  104POPC   PO4 1671   0.321   6.784   8.130
  104POPC   GL1 1672   0.017   6.680   7.743
  104POPC   GL2 1673  10.148   6.820   7.533
  104POPC   C1A 1674   0.092   6.821   7.327
  104POPC   D2A 1675  10.275   6.867   7.017
  104POPC   C3A 1676  10.394   6.886   6.611
  104POPC   C4A 1677  10.104   6.828   6.367
  104POPC   C1B 1678  10.224   7.263   7.326
  104POPC   C2B 1679  10.170   7.452   6.925
  104POPC   C3B 1680  10.347   7.421   6.528
  104POPC   C4B 1681  10.109   7.359   6.193
  105POPC   NC3 1682   8.298   5.863   7.997
  105POPC   PO4 1683   8.339   6.508   8.048
  105POPC   GL1 1684   8.351   6.269   7.646
  105POPC   GL2 1685   8.018   6.142   7.640
  105POPC   C1A 1686   8.280   6.141   7.197
  105POPC   D2A 1687   8.207   6.468   6.881
  105POPC   C3A 1688   8.105   6.406   6.471
  105POPC   C4A 1689   8.298   6.128   6.202
  105POPC   C1B 1690   7.899   6.472   7.311
  105POPC   C2B 1691   7.704   6.533   6.871
  105POPC   C3B 1692   7.610   6.264   6.510
  105POPC   C4B 1693   7.796   6.116   6.139
  106POPC   NC3 1694   1.789   1.839   8.093
  106POPC   PO4 1695   1.747   2.512   7.950
  106POPC   GL1 1696   1.843   2.223   7.614
  106POPC   GL2 1697   1.970   1.852   7.610
  106POPC   C1A 1698   1.899   2.075   7.158
  106POPC   D2A 1699   2.087   2.036   6.742
  106POPC   C3A 1700   1.890   2.140   6.361
  106POPC   C4A 1701   1.832   2.223   5.940
  106POPC   C1B 1702   1.749   1.570   7.278
  106POPC   C2B 1703   1.686   1.673   6.847
  106POPC   C3B 1704   1.879   1.616   6.461
  106POPC   C4B 1705   2.230   1.757   6.219
  107POPC   NC3 1706   9.538   6.355   8.264
  107POPC   PO4 1707   8.870   6.305   8.249
  107POPC   GL1 1708   9.201   6.293   7.832
  107POPC   GL2 1709   9.390   6.527   7.764
  107POPC   C1A 1710   9.320   6.232   7.341
  107POPC   D2A 1711   9.076   6.340   6.940
  107POPC   C3A 1712   9.239   6.333   6.514
  107POPC   C4A 1713   9.388   6.498   6.113
  107POPC   C1B 1714   9.494   6.700   7.362
  107POPC   C2B 1715   9.518   6.557   6.938
  107POPC   C3B 1716   9.506   6.783   6.560
  107POPC   C4B 1717   9.656   6.922   6.184
  108POPC   NC3 1718   2.209   2.633   8.081
  108POPC   PO4 1719   2.875   2.379   8.074
  108POPC   GL1 1720   2.866   2.575   7.655
  108POPC   GL2 1721   2.531   2.682   7.638
  108POPC   C1A 1722   2.826   2.426   7.252
  108POPC   D2A 1723   2.614   2.393   6.906
  108POPC   C3A 1724   2.619   2.689   6.646
  108POPC   C4A 1725   2.830   2.518   6.332
  108POPC   C1B 1726   2.485   2.814   7.177
  108POPC   C2B 1727   2.321   3.069   6.868
  108POPC   C3B 1728   2.314   3.057   6.422
  108POPC   C4B 1729   2.698   2.991   6.202
  109POPC   NC3 1730   6.548  10.434   7.888
  109POPC   PO4 1731   6.647   9.700   7.945
  109POPC   GL1 1732   6.524   9.836   7.564
  109POPC   GL2 1733   6.835   9.945   7.467
  109POPC   C1A 1734   6.265   9.965   7.218
  109POPC   D2A 1735   6.407   9.994   6.806
  109POPC   C3A 1736   6.233   9.800   6.432
  109POPC   C4A 1737   6.262   9.761   5.928
  109POPC   C1B 1738   6.656  10.315   7.233
  109POPC   C2B 1739   6.475   0.015   6.870
  109POPC   C3B 1740   6.296  10.366   6.492
  109POPC   C4B 1741   6.540  10.125   6.181
  110POPC   NC3 1742   2.038   5.532   8.049
  110POPC   PO4 1743   1.558   5.983   8.158
  110POPC   GL1 1744   1.602   5.846   7.706
  110POPC   GL2 1745   1.938   5.819   7.647
  110POPC   C1A 1746   1.613   5.715   7.270
  110POPC   D2A 1747   1.798   5.861   6.874
  110POPC   C3A 1748   1.580   5.730   6.517
  110POPC   C4A 1749   1.627   5.574   6.101
  110POPC   C1B 1750   2.098   5.614   7.276
  110POPC   C2B 1751   2.172   5.466   6.876
  110POPC   C3B 1752   1.996   5.462   6.486
  110POPC   C4B 1753   2.120   5.466   6.080
  111POPC   NC3 1754   0.733   3.429   7.990
  111POPC   PO4 1755   0.149   3.025   8.092
  111POPC   GL1 1756   0.391   3.144   7.720
  111POPC   GL2 1757   0.348   3.525   7.674
  111POPC   C1A 1758   0.684   3.238   7.369
  111POPC   D2A 1759   0.661   3.531   7.016
  111POPC   C3A 1760   0.733   3.339   6.629
  111POPC   C4A 1761   0.571   3.366   6.181
  111POPC   C1B 1762   0.208   3.431   7.269
  111POPC   C2B 1763   0.052   3.608   6.886
  111POPC   C3B 1764   0.293   3.592   6.537
  111POPC   C4B 1765   0.371   3.845   6.164
  112POPC   NC3 1766   6.445   2.624   8.046
  112POPC   PO4 1767   6.908   3.026   7.980
  112POPC   GL1 1768   6.670   2.905   7.624
  112POPC   GL2 1769   6.747   2.576   7.647
  112POPC   C1A 1770   6.386   3.039   7.255
  112POPC   D2A 1771   6.415   3.168   6.797
  112POPC   C3A 1772   6.713   2.992   6.464
  112POPC   C4A 1773   6.728   3.030   5.999
  112POPC   C1B 1774   6.538   2.551   7.258
  112POPC   C2B 1775   6.574   2.674   6.838
  112POPC   C3B 1776   6.246   2.747   6.523
  112POPC   C4B 1777   6.004   2.405   6.296
  113POPC   NC3 1778  10.054   8.964   8.062
  113POPC   PO4 1779  10.134   8.263   8.007
  113POPC   GL1 1780   9.970   8.455   7.631
  113POPC   GL2 1781   9.919   8.820   7.586
  113POPC   C1A 1782  10.072   8.311   7.216
  113POPC   D2A 1783   9.803   8.440   6.900
  113POPC   C3A 1784   9.906   8.363   6.521
  113POPC   C4A 1785   9.943   8.730   6.309
  113POPC   C1B 1786  10.157   8.816   7.200
  113POPC   C2B 1787  10.238   8.714   6.763
  113POPC   C3B 1788  10.401   8.934   6.413
  113POPC   C4B 1789   0.005   9.255   6.169
  114POPC   NC3 1790  10.159   3.076   8.018
  114POPC   PO4 1791  10.025   3.802   7.998
  114POPC   GL1 1792   9.959   3.487   7.709
  114POPC   GL2 1793  10.331   3.423   7.660
  114POPC   C1A 1794   9.708   3.393   7.319
  114POPC   D2A 1795   9.720   3.038   7.014
  114POPC   C3A 1796   9.901   2.996   6.589
  114POPC   C4A 1797   9.954   3.279   6.222
  114POPC   C1B 1798  10.195   3.439   7.224
  114POPC   C2B 1799  10.004   3.435   6.835
  114POPC   C3B 1800  10.102   3.677   6.473
  114POPC   C4B 1801  10.420   3.623   6.184
  115POPC   NC3 1802   7.226   0.511   8.047
  115POPC   PO4 1803   6.514   0.494   7.933
  115POPC   GL1 1804   6.911   0.489   7.620
  115POPC   GL2 1805   7.321   0.360   7.588
  115POPC   C1A 1806   6.983   0.249   7.236
  115POPC   D2A 1807   7.244   0.309   6.880
  115POPC   C3A 1808   7.026   0.171   6.546
  115POPC   C4A 1809   6.668   0.122   6.287
  115POPC   C1B 1810   7.312   0.668   7.265
  115POPC   C2B 1811   7.291   0.849   6.864
  115POPC   C3B 1812   7.261   0.647   6.484
  115POPC   C4B 1813   7.468   0.301   6.337
  116POPC   NC3 1814   9.229  10.193   8.227
  116POPC   PO4 1815   9.429   0.320   8.103
  116POPC   GL1 1816   9.463   0.027   7.745
  116POPC   GL2 1817   9.451  10.161   7.785
  116POPC   C1A 1818   9.294  10.386   7.344
  116POPC   D2A 1819   9.200  10.060   7.040
  116POPC   C3A 1820   9.158  10.252   6.628
  116POPC   C4A 1821   9.375  10.293   6.284
  116POPC   C1B 1822   9.622   9.981   7.421
  116POPC   C2B 1823   9.735   9.927   6.982
  116POPC   C3B 1824   9.551   9.891   6.562
  116POPC   C4B 1825   9.760   9.942   6.168
  117POPC   NC3 1826   7.525   1.170   7.989
  117POPC   PO4 1827   8.194   1.447   7.969
  117POPC   GL1 1828   8.135   1.258   7.570
  117POPC   GL2 1829   7.829   1.084   7.595
  117POPC   C1A 1830   8.283   1.009   7.245
  117POPC   D2A 1831   8.347   0.920   6.811
  117POPC   C3A 1832   8.037   1.148   6.580
  117POPC   C4A 1833   7.992   1.520   6.329
  117POPC   C1B 1834   7.528   1.136   7.275
  117POPC   C2B 1835   7.604   1.281   6.846
  117POPC   C3B 1836   7.545   1.075   6.451
  117POPC   C4B 1837   7.709   1.146   6.054
  118POPC   NC3 1838   9.397   9.234   7.999
  118POPC   PO4 1839   9.013   9.817   8.051
  118POPC   GL1 1840   9.311   9.653   7.694
  118POPC   GL2 1841   9.668   9.508   7.638
  118POPC   C1A 1842   9.371   9.584   7.231
  118POPC   D2A 1843   9.488   9.464   6.831
  118POPC   C3A 1844   9.138   9.473   6.508
  118POPC   C4A 1845   9.110   9.854   6.248
  118POPC   C1B 1846   9.727   9.191   7.280
  118POPC   C2B 1847   9.773   8.985   6.850
  118POPC   C3B 1848   9.598   9.133   6.459
  118POPC   C4B 1849   9.535   9.485   6.176
  119POPC   NC3 1850   0.388   5.470   8.133
  119POPC   PO4 1851   0.594   6.103   8.298
  119POPC   GL1 1852   0.555   5.935   7.838
  119POPC   GL2 1853   0.276   5.719   7.728
  119POPC   C1A 1854   0.613   5.842   7.374
  119POPC   D2A 1855   0.793   5.877   6.940
  119POPC   C3A 1856   0.585   5.765   6.560
  119POPC   C4A 1857   0.634   5.846   6.151
  119POPC   C1B 1858   0.172   5.542   7.343
  119POPC   C2B 1859   0.318   5.635   6.962
  119POPC   C3B 1860   0.065   5.740   6.624
  119POPC   C4B 1861   0.167   5.609   6.230
  120POPC   NC3 1862   4.224   1.543   8.301
  120POPC   PO4 1863   4.402   2.158   8.133
  120POPC   GL1 1864   4.285   1.919   7.733
  120POPC   GL2 1865   4.374   1.549   7.782
  120POPC   C1A 1866   4.004   2.019   7.354
  120POPC   D2A 1867   4.106   2.241   6.924
  120POPC   C3A 1868   4.066   2.072   6.501
  120POPC   C4A 1869   4.220   2.030   6.053
  120POPC   C1B 1870   4.168   1.543   7.370
  120POPC   C2B 1871   4.024   1.708   6.957
  120POPC   C3B 1872   3.981   1.572   6.551
  120POPC   C4B 1873   3.866   1.685   6.145
  121POPC   NC3 1874   2.079   9.488   8.027
  121POPC   PO4 1875   1.527   9.834   8.046
  121POPC   GL1 1876   1.738   9.645   7.669
  121POPC   GL2 1877   2.082   9.712   7.542
  121POPC   C1A 1878   1.809   9.467   7.214
  121POPC   D2A 1879   2.019   9.608   6.832
  121POPC   C3A 1880   1.900   9.476   6.428
  121POPC   C4A 1881   1.635   9.217   6.168
  121POPC   C1B 1882   2.227   9.298   7.427
  121POPC   C2B 1883   2.126   9.118   7.017
  121POPC   C3B 1884   2.302   9.172   6.601
  121POPC   C4B 1885   2.129   9.095   6.181
  122POPC   NC3 1886   8.709   1.534   8.030
  122POPC   PO4 1887   8.375   2.231   8.053
  122POPC   GL1 1888   8.490   1.920   7.772
  122POPC   GL2 1889   8.877   1.958   7.781
  122POPC   C1A 1890   8.414   1.676   7.378
  122POPC   D2A 1891   8.355   1.449   6.966
  122POPC   C3A 1892   8.364   1.741   6.630
  122POPC   C4A 1893   8.415   1.846   6.207
  122POPC   C1B 1894   8.730   2.116   7.364
  122POPC   C2B 1895   8.693   1.952   6.945
  122POPC   C3B 1896   8.800   2.077   6.489
  122POPC   C4B 1897   8.750   2.281   6.023
  123POPC   NC3 1898   8.613   9.945   7.865
  123POPC   PO4 1899   8.815  10.426   8.208
  123POPC   GL1 1900   8.959  10.365   7.766
  123POPC   GL2 1901   9.000  10.043   7.558
  123POPC   C1A 1902   8.782  10.491   7.343
  123POPC   D2A 1903   8.442  10.493   7.024
  123POPC   C3A 1904   8.655   0.048   6.642
  123POPC   C4A 1905   8.901   0.070   6.268
  123POPC   C1B 1906   8.687   9.997   7.210
  123POPC   C2B 1907   8.725  10.068   6.781
  123POPC   C3B 1908   8.669  10.117   6.336
  123POPC   C4B 1909   8.320  10.028   6.059
  124POPC   NC3 1910   1.907   3.181   7.887
  124POPC   PO4 1911   1.577   3.750   8.126
  124POPC   GL1 1912   1.787   3.630   7.711
  124POPC   GL2 1913   1.639   3.323   7.498
  124POPC   C1A 1914   2.059   3.534   7.332
  124POPC   D2A 1915   2.236   3.598   6.944
  124POPC   C3A 1916   2.026   3.416   6.623
  124POPC   C4A 1917   1.947   3.540   6.210
  124POPC   C1B 1918   1.890   3.063   7.181
  124POPC   C2B 1919   1.826   2.923   6.748
  124POPC   C3B 1920   1.666   3.124   6.367
  124POPC   C4B 1921   1.895   3.104   5.973
  125POPC   NC3 1922   4.871   2.027   8.059
  125POPC   PO4 1923   5.301   2.390   7.762
  125POPC   GL1 1924   5.189   1.986   7.643
  125POPC   GL2 1925   4.817   2.033   7.546
  125POPC   C1A 1926   5.189   1.690   7.341
  125POPC   D2A 1927   4.990   1.984   7.047
  125POPC   C3A 1928   5.071   1.939   6.623
  125POPC   C4A 1929   5.036   1.844   6.213
  125POPC   C1B 1930   4.496   2.039   7.207
  125POPC   C2B 1931   4.489   1.838   6.794
  125POPC   C3B 1932   4.580   1.972   6.392
  125POPC   C4B 1933   4.832   2.322   6.251
  126POPC   NC3 1934   2.768   9.310   8.156
  126POPC   PO4 1935   2.402   9.778   8.304
  126POPC   GL1 1936   2.557   9.660   7.836
  126POPC   GL2 1937   2.827   9.424   7.684
  126POPC   C1A 1938   2.572   9.735   7.366
  126POPC   D2A 1939   2.507   9.467   7.012
  126POPC   C3A 1940   2.668   9.550   6.620
  126POPC   C4A 1941   2.406   9.539   6.261
  126POPC   C1B 1942   2.995   9.427   7.293
  126POPC   C2B 1943   2.947   9.213   6.924
  126POPC   C3B 1944   3.090   9.266   6.532
  126POPC   C4B 1945   2.852   9.307   6.184
  127POPC   NC3 1946   7.357   2.030   8.146
  127POPC   PO4 1947   6.792   2.300   8.075
  127POPC   GL1 1948   7.108   2.209   7.724
  127POPC   GL2 1949   7.141   1.842   7.713
  127POPC   C1A 1950   7.454   2.102   7.384
  127POPC   D2A 1951   7.684   2.160   6.963
  127POPC   C3A 1952   7.495   2.282   6.575
  127POPC   C4A 1953   7.318   2.230   6.155
  127POPC   C1B 1954   6.968   1.936   7.302
  127POPC   C2B 1955   7.229   1.880   6.930
  127POPC   C3B 1956   7.100   1.927   6.500
  127POPC   C4B 1957   6.840   1.654   6.272
  128POPC   NC3 1958   3.434   0.215   8.030
  128POPC   PO4 1959   3.078   0.743   7.946
  128POPC   GL1 1960   3.103   0.351   7.644
  128POPC   GL2 1961   3.421   0.165   7.535
  128POPC   C1A 1962   3.093   0.175   7.175
  128POPC   D2A 1963   3.425   0.200   6.832
  128POPC   C3A 1964   3.225   0.280   6.415
  128POPC   C4A 1965   3.009   0.196   6.017
  128POPC   C1B 1966   3.426   0.555   7.259
  128POPC   C2B 1967   3.469   0.830   6.893
  128POPC   C3B 1968   3.569   0.661   6.537
  128POPC   C4B 1969   3.427   0.750   6.193
  129POPC   NC3 1970   8.152   0.956   7.994
  129POPC   PO4 1971   8.783   1.048   7.994
  129POPC   GL1 1972   8.682   1.261   7.585
  129POPC   GL2 1973   8.916   1.036   7.499
  129POPC   C1A 1974   8.825   1.489   7.165
  129POPC   D2A 1975   8.842   1.527   6.685
  129POPC   C3A 1976   8.505   1.297   6.472
  129POPC   C4A 1977   8.481   0.887   6.316
  129POPC   C1B 1978   8.789   0.976   7.095
  129POPC   C2B 1979   8.860   1.004   6.671
  129POPC   C3B 1980   8.945   1.148   6.258
  129POPC   C4B 1981   9.190   0.998   5.948
  130POPC   NC3 1982   8.284   7.902   8.176
  130POPC   PO4 1983   7.702   7.717   8.021
  130POPC   GL1 1984   7.796   8.039   7.722
  130POPC   GL2 1985   8.156   8.029   7.665
  130POPC   C1A 1986   7.677   8.216   7.305
  130POPC   D2A 1987   7.560   8.242   6.873
  130POPC   C3A 1988   7.503   8.070   6.467
  130POPC   C4A 1989   7.446   8.454   6.244
  130POPC   C1B 1990   8.121   7.971   7.200
  130POPC   C2B 1991   7.818   7.799   6.870
  130POPC   C3B 1992   7.842   7.647   6.445
  130POPC   C4B 1993   8.152   7.866   6.278
  131POPC   NC3 1994   7.262   7.791   8.067
  131POPC   PO4 1995   7.260   8.475   8.158
  131POPC   GL1 1996   7.282   8.196   7.751
  131POPC   GL2 1997   6.912   8.192   7.832
  131POPC   C1A 1998   7.400   7.823   7.396
  131POPC   D2A 1999   7.268   7.811   6.931
  131POPC   C3A 2000   7.331   7.588   6.523
  131POPC   C4A 2001   7.450   7.670   6.080
  131POPC   C1B 2002   6.927   7.940   7.446
  131POPC   C2B 2003   6.742   7.926   7.031
  131POPC   C3B 2004   6.872   7.941   6.611
  131POPC   C4B 2005   6.980   7.814   6.207
  132POPC   NC3 2006   0.197   0.751   7.975
  132POPC   PO4 2007  10.387   0.145   7.874
  132POPC   GL1 2008   0.278   0.269   7.588
  132POPC   GL2 2009   0.394   0.607   7.526
  132POPC   C1A 2010   0.513   0.315   7.154
  132POPC   D2A 2011   0.477   0.710   6.920
  132POPC   C3A 2012   0.412   0.612   6.504
  132POPC   C4A 2013   0.341   0.536   6.134
  132POPC   C1B 2014   0.788   0.729   7.330
  132POPC   C2B 2015   1.009   0.661   6.983
  132POPC   C3B 2016   0.875   0.492   6.615
  132POPC   C4B 2017   0.840   0.682   6.216
  133POPC   NC3 2018   4.199   8.069   8.086
  133POPC   PO4 2019   3.797   7.636   8.079
  133POPC   GL1 2020   3.895   7.866   7.684
  133POPC   GL2 2021   4.258   7.859   7.636
  133POPC   C1A 2022   3.948   7.910   7.208
  133POPC   D2A 2023   3.894   8.131   6.780
  133POPC   C3A 2024   3.984   7.898   6.363
  133POPC   C4A 2025   3.679   7.656   6.068
  133POPC   C1B 2026   4.419   8.116   7.302
  133POPC   C2B 2027   4.367   7.956   6.894
  133POPC   C3B 2028   4.556   7.940   6.515
  133POPC   C4B 2029   4.470   8.034   6.131
  134POPC   NC3 2030   8.515   8.593   8.048
  134POPC   PO4 2031   9.153   8.072   8.029
  134POPC   GL1 2032   9.044   8.280   7.634
  134POPC   GL2 2033   8.789   8.526   7.635
  134POPC   C1A 2034   9.109   8.421   7.270
  134POPC   D2A 2035   8.887   8.702   7.072
  134POPC   C3A 2036   8.766   8.593   6.668
  134POPC   C4A 2037   9.026   8.434   6.348
  134POPC   C1B 2038   8.506   8.748   7.401
  134POPC   C2B 2039   8.390   8.791   6.979
  134POPC   C3B 2040   8.265   8.724   6.557
  134POPC   C4B 2041   8.541   8.693   6.203
  135POPC   NC3 2042   0.406  10.490   8.008
  135POPC   PO4 2043   0.134   9.870   8.198
  135POPC   GL1 2044   0.321  10.008   7.747
  135POPC   GL2 2045   0.678  10.129   7.706
  135POPC   C1A 2046   0.307  10.321   7.372
  135POPC   D2A 2047   0.120   0.024   7.008
  135POPC   C3A 2048   0.362   0.088   6.603
  135POPC   C4A 2049   0.270  10.499   6.157
  135POPC   C1B 2050   0.607   9.944   7.273
  135POPC   C2B 2051   0.530  10.178   6.897
  135POPC   C3B 2052   0.486  10.069   6.469
  135POPC   C4B 2053   0.674  10.172   6.099
  136POPC   NC3 2054  10.084   1.121   7.896
  136POPC   PO4 2055  10.070   1.684   8.254
  136POPC   GL1 2056  10.038   1.619   7.747
  136POPC   GL2 2057  10.255   1.392   7.483
  136POPC   C1A 2058   9.839   1.613   7.316
  136POPC   D2A 2059  10.010   1.346   6.957
  136POPC   C3A 2060   9.858   1.510   6.558
  136POPC   C4A 2061  10.008   1.749   6.233
  136POPC   C1B 2062  10.226   0.982   7.285
  136POPC   C2B 2063  10.186   0.847   6.872
  136POPC   C3B 2064  10.235   1.130   6.538
  136POPC   C4B 2065  10.136   1.073   6.144
  137POPC   NC3 2066   0.614   6.431   7.977
  137POPC   PO4 2067   0.008   6.082   7.996
  137POPC   GL1 2068   0.138   6.183   7.594
  137POPC   GL2 2069   0.405   6.371   7.524
  137POPC   C1A 2070   0.186   6.064   7.177
  137POPC   D2A 2071   0.416   6.178   6.834
  137POPC   C3A 2072   0.269   6.149   6.444
  137POPC   C4A 2073   0.136   6.128   6.058
  137POPC   C1B 2074   0.724   6.320   7.215
  137POPC   C2B 2075   0.831   6.482   6.837
  137POPC   C3B 2076   0.789   6.270   6.484
  137POPC   C4B 2077   0.592   6.356   6.116
  138POPC   NC3 2078   9.244   1.006   7.935
  138POPC   PO4 2079   9.155   1.669   8.134
  138POPC   GL1 2080   9.177   1.457   7.722
  138POPC   GL2 2081   9.566   1.339   7.695
  138POPC   C1A 2082   9.276   1.329   7.286
  138POPC   D2A 2083   9.509   1.362   6.927
  138POPC   C3A 2084   9.335   1.320   6.541
  138POPC   C4A 2085   9.454   1.519   6.160
  138POPC   C1B 2086   9.732   1.103   7.319
  138POPC   C2B 2087   9.692   0.856   6.974
  138POPC   C3B 2088   9.756   0.999   6.581
  138POPC   C4B 2089   9.644   1.063   6.179
  139POPC   NC3 2090   2.147  10.485   7.991
  139POPC   PO4 2091   2.323   0.729   8.073
  139POPC   GL1 2092   2.102   0.550   7.728
  139POPC   GL2 2093   1.704   0.508   7.741
  139POPC   C1A 2094   2.217   0.648   7.330
  139POPC   D2A 2095   2.036   0.494   6.976
  139POPC   C3A 2096   1.980   0.734   6.640
  139POPC   C4A 2097   2.073   0.555   6.277
  139POPC   C1B 2098   1.773   0.284   7.389
  139POPC   C2B 2099   1.687   0.108   6.991
  139POPC   C3B 2100   1.827   0.214   6.582
  139POPC   C4B 2101   1.710   0.226   6.154
  140POPC   NC3 2102   5.240   9.572   8.220
  140POPC   PO4 2103   4.820   9.078   8.055
  140POPC   GL1 2104   4.812   9.242   7.686
  140POPC   GL2 2105   5.009   9.495   7.672
  140POPC   C1A 2106   4.899   9.084   7.297
  140POPC   D2A 2107   4.661   9.118   6.962
  140POPC   C3A 2108   4.844   9.145   6.603
  140POPC   C4A 2109   4.771   8.913   6.271
  140POPC   C1B 2110   4.825   9.589   7.262
  140POPC   C2B 2111   4.745   9.629   6.811
  140POPC   C3B 2112   4.812   9.624   6.408
  140POPC   C4B 2113   4.942   9.524   5.996
  141POPC   NC3 2114   9.614   1.890   8.263
  141POPC   PO4 2115   9.256   2.324   8.011
  141POPC   GL1 2116   9.499   2.193   7.651
  141POPC   GL2 2117   9.528   1.853   7.725
  141POPC   C1A 2118   9.518   2.146   7.175
  141POPC   D2A 2119   9.820   1.940   6.907
  141POPC   C3A 2120   9.744   2.099   6.519
  141POPC   C4A 2121   9.586   2.034   6.128
  141POPC   C1B 2122   9.185   1.841   7.393
  141POPC   C2B 2123   9.206   1.787   6.947
  141POPC   C3B 2124   9.270   1.841   6.510
  141POPC   C4B 2125   9.085   1.889   6.089
  142POPC   NC3 2126  10.404   2.290   8.382
  142POPC   PO4 2127  10.128   2.622   7.911
  142POPC   GL1 2128  10.101   2.690   7.541
  142POPC   GL2 2129  10.042   3.024   7.499
  142POPC   C1A 2130  10.086   2.701   7.108
  142POPC   D2A 2131   9.787   2.520   6.857
  142POPC   C3A 2132  10.088   2.501   6.551
  142POPC   C4A 2133  10.078   2.294   6.176
  142POPC   C1B 2134  10.441   3.001   7.335
  142POPC   C2B 2135  10.475   3.112   6.920
  142POPC   C3B 2136  10.369   3.236   6.527
  142POPC   C4B 2137  10.296   2.887   6.279
  143POPC   NC3 2138   4.471   9.490   8.046
  143POPC   PO4 2139   3.883   9.159   7.991
  143POPC   GL1 2140   4.204   9.190   7.710
  143POPC   GL2 2141   4.095   9.538   7.671
  143POPC   C1A 2142   4.418   9.309   7.363
  143POPC   D2A 2143   4.312   9.504   7.005
  143POPC   C3A 2144   4.377   9.329   6.587
  143POPC   C4A 2145   4.435   9.427   6.152
  143POPC   C1B 2146   3.904   9.353   7.269
  143POPC   C2B 2147   3.890   9.365   6.795
  143POPC   C3B 2148   3.918   9.380   6.387
  143POPC   C4B 2149   4.007   9.684   6.194
  144POPC   NC3 2150   4.929   8.605   8.122
  144POPC   PO4 2151   5.491   8.724   7.988
  144POPC   GL1 2152   5.142   8.734   7.645
  144POPC   GL2 2153   4.757   8.731   7.660
  144POPC   C1A 2154   5.233   8.714   7.207
  144POPC   D2A 2155   5.267   9.000   6.899
  144POPC   C3A 2156   5.242   8.838   6.518
  144POPC   C4A 2157   5.170   8.524   6.245
  144POPC   C1B 2158   4.764   8.530   7.248
  144POPC   C2B 2159   4.824   8.659   6.810
  144POPC   C3B 2160   4.702   8.436   6.445
  144POPC   C4B 2161   4.538   8.525   6.038
  145POPC   NC3 2162   8.699   4.138   8.280
  145POPC   PO4 2163   8.417   4.653   8.038
  145POPC   GL1 2164   8.449   4.445   7.626
  145POPC   GL2 2165   8.773   4.360   7.451
  145POPC   C1A 2166   8.318   4.198   7.267
  145POPC   D2A 2167   8.272   4.311   6.869
  145POPC   C3A 2168   8.247   4.030   6.514
  145POPC   C4A 2169   8.103   4.138   6.071
  145POPC   C1B 2170   8.792   4.029   7.196
  145POPC   C2B 2171   8.678   3.962   6.805
  145POPC   C3B 2172   8.736   3.917   6.386
  145POPC   C4B 2173   8.761   4.192   6.086
  146POPC   NC3 2174   7.133   2.644   8.041
  146POPC   PO4 2175   7.713   2.320   8.077
  146POPC   GL1 2176   7.519   2.526   7.668
  146POPC   GL2 2177   7.214   2.757   7.560
  146POPC   C1A 2178   7.507   2.579   7.199
  146POPC   D2A 2179   7.656   2.729   6.827
  146POPC   C3A 2180   7.384   2.816   6.520
  146POPC   C4A 2181   7.578   2.662   6.205
  146POPC   C1B 2182   7.032   2.437   7.264
  146POPC   C2B 2183   6.878   2.254   6.888
  146POPC   C3B 2184   6.992   2.421   6.530
  146POPC   C4B 2185   7.013   2.651   6.207
  147POPC   NC3 2186   4.816  10.413   7.885
  147POPC   PO4 2187   4.840   9.792   8.153
  147POPC   GL1 2188   5.104   9.961   7.822
  147POPC   GL2 2189   4.862  10.020   7.561
  147POPC   C1A 2190   5.274   9.840   7.363
  147POPC   D2A 2191   5.022   9.993   7.008
  147POPC   C3A 2192   5.200   9.897   6.589
  147POPC   C4A 2193   5.020  10.030   6.195
  147POPC   C1B 2194   4.642  10.299   7.279
  147POPC   C2B 2195   4.603  10.362   6.897
  147POPC   C3B 2196   4.715  10.163   6.575
  147POPC   C4B 2197   4.665  10.414   6.223
  148POPC   NC3 2198   8.955   0.358   8.107
  148POPC   PO4 2199   8.313   0.210   8.269
  148POPC   GL1 2200   8.364   0.448   7.828
  148POPC   GL2 2201   8.702   0.610   7.731
  148POPC   C1A 2202   8.370   0.521   7.348
  148POPC   D2A 2203   8.174   0.461   6.939
  148POPC   C3A 2204   8.331   0.441   6.515
  148POPC   C4A 2205   8.361   0.089   6.226
  148POPC   C1B 2206   8.879   0.504   7.315
  148POPC   C2B 2207   8.691   0.492   6.924
  148POPC   C3B 2208   8.852   0.507   6.548
  148POPC   C4B 2209   8.931   0.620   6.176
  149POPC   NC3 2210   4.196   8.806   8.056
  149POPC   PO4 2211   4.595   8.290   8.086
  149POPC   GL1 2212   4.310   8.468   7.678
  149POPC   GL2 2213   3.980   8.707   7.596
  149POPC   C1A 2214   4.364   8.809   7.315
  149POPC   D2A 2215   4.167   8.970   6.946
  149POPC   C3A 2216   4.326   8.838   6.525
  149POPC   C4A 2217   4.275   8.961   6.087
  149POPC   C1B 2218   4.017   8.433   7.231
  149POPC   C2B 2219   4.305   8.455   6.869
  149POPC   C3B 2220   4.197   8.361   6.419
  149POPC   C4B 2221   4.039   8.532   6.013
  150POPC   NC3 2222   9.815  10.323   4.130
  150POPC   PO4 2223   9.170  10.301   3.713
  150POPC   GL1 2224   9.192  10.043   4.182
  150POPC   GL2 2225   9.503  10.004   4.325
  150POPC   C1A 2226   9.131  10.151   4.652
  150POPC   D2A 2227   9.057  10.368   5.073
  150POPC   C3A 2228   9.267  10.230   5.453
  150POPC   C4A 2229   9.115  10.234   5.862
  150POPC   C1B 2230   9.654  10.189   4.741
  150POPC   C2B 2231   9.836  10.082   5.139
  150POPC   C3B 2232   9.853  10.350   5.510
  150POPC   C4B 2233   9.627  10.329   5.853
  151POPC   NC3 2234   6.313   9.844   3.891
  151POPC   PO4 2235   6.815  10.021   3.638
  151POPC   GL1 2236   6.672  10.118   4.106
  151POPC   GL2 2237   6.446  10.365   4.228
  151POPC   C1A 2238   6.467   9.934   4.524
  151POPC   D2A 2239   6.294   9.999   4.954
  151POPC   C3A 2240   6.577   9.926   5.271
  151POPC   C4A 2241   6.661   9.962   5.694
  151POPC   C1B 2242   6.252  10.404   4.633
  151POPC   C2B 2243   6.235   0.053   5.047
  151POPC   C3B 2244   6.345  10.358   5.391
  151POPC   C4B 2245   6.310  10.331   5.798
  152POPC   NC3 2246   0.743   9.607   4.118
  152POPC   PO4 2247   1.225   9.218   3.841
  152POPC   GL1 2248   1.186   9.392   4.252
  152POPC   GL2 2249   1.460   9.590   4.221
  152POPC   C1A 2250   1.016   9.247   4.672
  152POPC   D2A 2251   1.053   9.014   5.081
  152POPC   C3A 2252   0.819   9.155   5.445
  152POPC   C4A 2253   0.994   9.389   5.786
  152POPC   C1B 2254   1.445   9.686   4.636
  152POPC   C2B 2255   1.398   9.410   4.966
  152POPC   C3B 2256   1.292   9.381   5.369
  152POPC   C4B 2257   1.500   9.510   5.750
  153POPC   NC3 2258   1.262  10.340   3.871
  153POPC   PO4 2259   0.642  10.031   3.839
  153POPC   GL1 2260   0.893  10.195   4.217
  153POPC   GL2 2261   1.114   9.948   4.273
  153POPC   C1A 2262   1.148  10.290   4.626
  153POPC   D2A 2263   0.886  10.322   4.973
  153POPC   C3A 2264   0.949  10.320   5.414
  153POPC   C4A 2265   1.021  10.435   5.843
  153POPC   C1B 2266   0.953   9.819   4.687
  153POPC   C2B 2267   1.124   9.855   5.074
  153POPC   C3B 2268   1.147   9.847   5.498
  153POPC   C4B 2269   1.509  10.034   5.664
  154POPC   NC3 2270   1.103   1.440   4.057
  154POPC   PO4 2271   1.583   0.910   3.853
  154POPC   GL1 2272   1.492   1.112   4.267
  154POPC   GL2 2273   1.191   1.030   4.442
  154POPC   C1A 2274   1.482   1.364   4.702
  154POPC   D2A 2275   1.328   1.429   5.124
  154POPC   C3A 2276   1.566   1.487   5.522
  154POPC   C4A 2277   1.574   1.259   5.931
  154POPC   C1B 2278   0.928   1.340   4.678
  154POPC   C2B 2279   0.816   1.425   5.075
  154POPC   C3B 2280   0.855   1.197   5.401
  154POPC   C4B 2281   1.089   1.230   5.731
  155POPC   NC3 2282   8.788   7.726   3.864
  155POPC   PO4 2283   8.346   8.295   3.911
  155POPC   GL1 2284   8.344   8.110   4.294
  155POPC   GL2 2285   8.625   7.897   4.315
  155POPC   C1A 2286   8.315   8.027   4.718
  155POPC   D2A 2287   8.563   8.163   5.060
  155POPC   C3A 2288   8.528   8.002   5.470
  155POPC   C4A 2289   8.265   7.995   5.815
  155POPC   C1B 2290   8.839   7.866   4.699
  155POPC   C2B 2291   8.814   7.713   5.115
  155POPC   C3B 2292   9.024   7.860   5.496
  155POPC   C4B 2293   8.826   7.840   5.913
  156POPC   NC3 2294   2.731   1.093   3.967
  156POPC   PO4 2295   3.133   1.574   3.642
  156POPC   GL1 2296   3.082   1.380   4.158
  156POPC   GL2 2297   2.730   1.407   4.342
  156POPC   C1A 2298   3.096   1.376   4.667
  156POPC   D2A 2299   3.019   1.054   5.012
  156POPC   C3A 2300   3.073   1.193   5.444
  156POPC   C4A 2301   2.890   1.054   5.847
  156POPC   C1B 2302   2.546   1.204   4.698
  156POPC   C2B 2303   2.592   1.380   5.117
  156POPC   C3B 2304   2.576   1.298   5.533
  156POPC   C4B 2305   2.321   0.981   5.628
  157POPC   NC3 2306   0.639   3.302   4.030
  157POPC   PO4 2307  10.478   3.319   3.890
  157POPC   GL1 2308   0.158   3.446   4.285
  157POPC   GL2 2309   0.379   3.186   4.430
  157POPC   C1A 2310   0.076   3.511   4.727
  157POPC   D2A 2311   0.302   3.482   5.102
  157POPC   C3A 2312   0.144   3.461   5.494
  157POPC   C4A 2313   0.331   3.141   5.744
  157POPC   C1B 2314   0.641   3.433   4.683
  157POPC   C2B 2315   0.830   3.490   5.053
  157POPC   C3B 2316   0.735   3.343   5.450
  157POPC   C4B 2317   0.552   3.631   5.745
  158POPC   NC3 2318   8.786   5.378   3.846
  158POPC   PO4 2319   8.901   6.039   3.958
  158POPC   GL1 2320   8.828   5.755   4.333
  158POPC   GL2 2321   8.503   5.712   4.275
  158POPC   C1A 2322   8.942   5.516   4.749
  158POPC   D2A 2323   8.733   5.515   5.138
  158POPC   C3A 2324   8.840   5.549   5.545
  158POPC   C4A 2325   8.528   5.369   5.819
  158POPC   C1B 2326   8.465   5.691   4.719
  158POPC   C2B 2327   8.240   5.665   5.093
  158POPC   C3B 2328   8.414   5.851   5.424
  158POPC   C4B 2329   8.498   5.867   5.836
  159POPC   NC3 2330   7.896   4.923   3.832
  159POPC   PO4 2331   8.405   4.751   3.928
  159POPC   GL1 2332   8.216   4.778   4.311
  159POPC   GL2 2333   7.849   4.778   4.338
  159POPC   C1A 2334   8.198   4.863   4.765
  159POPC   D2A 2335   8.082   4.687   5.186
  159POPC   C3A 2336   7.822   4.799   5.564
  159POPC   C4A 2337   7.943   4.655   5.991
  159POPC   C1B 2338   7.738   5.053   4.738
  159POPC   C2B 2339   7.845   5.187   5.205
  159POPC   C3B 2340   7.628   5.259   5.639
  159POPC   C4B 2341   7.638   5.315   6.101
  160POPC   NC3 2342   1.968  10.275   3.811
  160POPC   PO4 2343   1.537   0.249   3.898
  160POPC   GL1 2344   1.782   0.039   4.240
  160POPC   GL2 2345   1.560  10.254   4.305
  160POPC   C1A 2346   2.068   0.012   4.676
  160POPC   D2A 2347   2.210  10.405   5.142
  160POPC   C3A 2348   2.024   0.085   5.553
  160POPC   C4A 2349   2.173   0.084   6.017
  160POPC   C1B 2350   1.655  10.163   4.754
  160POPC   C2B 2351   1.828  10.032   5.162
  160POPC   C3B 2352   2.012  10.074   5.584
  160POPC   C4B 2353   1.837  10.235   5.991
  161POPC   NC3 2354   1.886   4.505   4.060
  161POPC   PO4 2355   1.834   3.897   3.791
  161POPC   GL1 2356   2.028   4.042   4.219
  161POPC   GL2 2357   1.778   4.086   4.463
  161POPC   C1A 2358   2.203   4.007   4.696
  161POPC   D2A 2359   1.960   4.097   5.085
  161POPC   C3A 2360   2.177   4.001   5.498
  161POPC   C4A 2361   2.212   3.929   5.963
  161POPC   C1B 2362   1.792   4.480   4.699
  161POPC   C2B 2363   1.792   4.672   5.095
  161POPC   C3B 2364   1.780   4.427   5.440
  161POPC   C4B 2365   1.788   4.179   5.780
  162POPC   NC3 2366   7.087   0.534   4.022
  162POPC   PO4 2367   7.726   0.403   3.888
  162POPC   GL1 2368   7.556   0.583   4.246
  162POPC   GL2 2369   7.400   0.253   4.320
  162POPC   C1A 2370   7.540   0.587   4.699
  162POPC   D2A 2371   7.457   0.441   5.127
  162POPC   C3A 2372   7.391   0.698   5.502
  162POPC   C4A 2373   7.442   0.694   5.992
  162POPC   C1B 2374   7.115   0.304   4.690
  162POPC   C2B 2375   7.000   0.235   5.121
  162POPC   C3B 2376   7.097   0.281   5.595
  162POPC   C4B 2377   7.038   0.384   6.057
  163POPC   NC3 2378   7.926  10.496   3.930
  163POPC   PO4 2379   8.570   0.161   3.779
  163POPC   GL1 2380   8.234   0.314   4.166
  163POPC   GL2 2381   8.080   0.646   4.155
  163POPC   C1A 2382   7.892   0.174   4.536
  163POPC   D2A 2383   7.664  10.472   4.912
  163POPC   C3A 2384   7.811   0.084   5.341
  163POPC   C4A 2385   7.616   0.287   5.688
  163POPC   C1B 2386   8.034   0.675   4.576
  163POPC   C2B 2387   7.968   0.438   4.973
  163POPC   C3B 2388   7.873   0.635   5.351
  163POPC   C4B 2389   7.887   0.718   5.762
  164POPC   NC3 2390   8.792  10.301   4.014
  164POPC   PO4 2391   8.791   9.652   3.945
  164POPC   GL1 2392   8.871   9.708   4.366
  164POPC   GL2 2393   8.696  10.011   4.424
  164POPC   C1A 2394   8.871   9.729   4.818
  164POPC   D2A 2395   8.801   9.955   5.115
  164POPC   C3A 2396   8.980   9.825   5.500
  164POPC   C4A 2397   8.764   9.886   5.860
  164POPC   C1B 2398   8.664  10.354   4.716
  164POPC   C2B 2399   8.549  10.463   5.128
  164POPC   C3B 2400   8.645  10.248   5.495
  164POPC   C4B 2401   8.638  10.377   5.877
  165POPC   NC3 2402   2.172   2.662   3.956
  165POPC   PO4 2403   1.498   2.590   3.950
  165POPC   GL1 2404   1.649   2.810   4.309
  165POPC   GL2 2405   1.968   2.741   4.394
  165POPC   C1A 2406   1.599   2.795   4.762
  165POPC   D2A 2407   1.812   2.746   5.170
  165POPC   C3A 2408   1.528   2.857   5.383
  165POPC   C4A 2409   1.557   2.794   5.737
  165POPC   C1B 2410   2.095   2.655   4.785
  165POPC   C2B 2411   2.334   2.461   5.066
  165POPC   C3B 2412   2.172   2.357   5.449
  165POPC   C4B 2413   2.031   2.635   5.749
  166POPC   NC3 2414   6.621   8.372   3.748
  166POPC   PO4 2415   6.141   8.816   3.846
  166POPC   GL1 2416   6.140   8.765   4.380
  166POPC   GL2 2417   6.515   8.793   4.562
  166POPC   C1A 2418   6.251   8.437   4.753
  166POPC   D2A 2419   6.502   8.574   5.118
  166POPC   C3A 2420   6.325   8.540   5.538
  166POPC   C4A 2421   6.180   8.179   5.798
  166POPC   C1B 2422   6.223   8.954   4.862
  166POPC   C2B 2423   6.201   9.038   5.284
  166POPC   C3B 2424   6.553   8.993   5.530
  166POPC   C4B 2425   6.605   8.979   5.976
  167POPC   NC3 2426  10.176   7.269   3.952
  167POPC   PO4 2427   9.813   6.710   3.857
  167POPC   GL1 2428   9.817   7.015   4.259
  167POPC   GL2 2429  10.149   7.145   4.427
  167POPC   C1A 2430   9.791   7.014   4.741
  167POPC   D2A 2431   9.956   6.874   5.127
  167POPC   C3A 2432  10.003   7.091   5.489
  167POPC   C4A 2433  10.057   6.985   5.882
  167POPC   C1B 2434  10.204   7.375   4.826
  167POPC   C2B 2435  10.404   7.197   5.206
  167POPC   C3B 2436   0.003   6.956   5.634
  167POPC   C4B 2437   0.004   7.060   6.119
  168POPC   NC3 2438   8.182   1.675   4.167
  168POPC   PO4 2439   8.154   1.066   3.859
  168POPC   GL1 2440   8.181   1.156   4.257
  168POPC   GL2 2441   7.824   1.085   4.297
  168POPC   C1A 2442   8.358   1.103   4.669
  168POPC   D2A 2443   8.162   0.900   5.023
  168POPC   C3A 2444   8.277   0.953   5.476
  168POPC   C4A 2445   8.197   1.085   5.922
  168POPC   C1B 2446   7.883   1.287   4.716
  168POPC   C2B 2447   7.945   1.319   5.176
  168POPC   C3B 2448   7.816   1.192   5.558
  168POPC   C4B 2449   7.578   1.529   5.738
  169POPC   NC3 2450   4.904   8.468   4.031
  169POPC   PO4 2451   4.849   9.183   3.945
  169POPC   GL1 2452   4.881   8.962   4.317
  169POPC   GL2 2453   4.584   8.751   4.327
  169POPC   C1A 2454   4.779   9.024   4.740
  169POPC   D2A 2455   4.609   8.926   5.114
  169POPC   C3A 2456   4.793   8.821   5.455
  169POPC   C4A 2457   4.949   8.700   5.830
  169POPC   C1B 2458   4.790   8.500   4.667
  169POPC   C2B 2459   4.920   8.508   5.091
  169POPC   C3B 2460   4.835   8.317   5.510
  169POPC   C4B 2461   4.921   8.187   5.942
  170POPC   NC3 2462   7.792   6.498   3.903
  170POPC   PO4 2463   7.535   7.020   4.075
  170POPC   GL1 2464   7.795   6.716   4.391
  170POPC   GL2 2465   8.022   6.437   4.350
  170POPC   C1A 2466   7.932   6.534   4.839
  170POPC   D2A 2467   7.701   6.394   5.210
  170POPC   C3A 2468   7.763   6.576   5.621
  170POPC   C4A 2469   8.008   6.546   5.980
  170POPC   C1B 2470   8.210   6.140   4.620
  170POPC   C2B 2471   8.338   6.192   5.025
  170POPC   C3B 2472   8.188   6.365   5.380
  170POPC   C4B 2473   8.044   6.090   5.710
  171POPC   NC3 2474   5.594   2.199   3.978
  171POPC   PO4 2475   5.323   1.640   3.823
  171POPC   GL1 2476   5.517   1.718   4.236
  171POPC   GL2 2477   5.846   1.870   4.277
  171POPC   C1A 2478   5.666   1.627   4.680
  171POPC   D2A 2479   5.842   1.724   5.074
  171POPC   C3A 2480   5.596   1.840   5.416
  171POPC   C4A 2481   5.722   1.620   5.766
  171POPC   C1B 2482   5.654   2.128   4.648
  171POPC   C2B 2483   5.768   2.236   5.091
  171POPC   C3B 2484   5.887   2.257   5.551
  171POPC   C4B 2485   5.630   2.361   5.934
  172POPC   NC3 2486   1.509   3.789   4.111
  172POPC   PO4 2487   0.980   3.425   3.762
  172POPC   GL1 2488   1.035   3.608   4.186
  172POPC   GL2 2489   1.065   3.308   4.368
  172POPC   C1A 2490   1.096   3.736   4.656
  172POPC   D2A 2491   1.296   3.733   5.090
  172POPC   C3A 2492   0.994   3.781   5.460
  172POPC   C4A 2493   1.036   3.584   5.868
  172POPC   C1B 2494   1.336   3.256   4.714
  172POPC   C2B 2495   1.225   3.187   5.128
  172POPC   C3B 2496   1.358   3.378   5.486
  172POPC   C4B 2497   1.418   3.250   5.884
  173POPC   NC3 2498   0.604   2.304   3.989
  173POPC   PO4 2499   0.777   2.914   4.224
  173POPC   GL1 2500   0.677   2.574   4.420
  173POPC   GL2 2501   0.342   2.624   4.429
  173POPC   C1A 2502   0.679   2.362   4.781
  173POPC   D2A 2503   0.515   2.479   5.164
  173POPC   C3A 2504   0.636   2.666   5.564
  173POPC   C4A 2505   0.401   2.457   5.843
  173POPC   C1B 2506   0.472   2.873   4.814
  173POPC   C2B 2507   0.412   2.985   5.235
  173POPC   C3B 2508   0.143   2.686   5.451
  173POPC   C4B 2509  10.496   2.772   5.848
  174POPC   NC3 2510   1.829   7.171   3.993
  174POPC   PO4 2511   2.494   7.161   3.952
  174POPC   GL1 2512   2.216   7.093   4.326
  174POPC   GL2 2513   1.924   7.302   4.459
  174POPC   C1A 2514   2.163   7.015   4.784
  174POPC   D2A 2515   2.119   7.277   5.149
  174POPC   C3A 2516   2.145   6.973   5.456
  174POPC   C4A 2517   2.094   6.878   5.862
  174POPC   C1B 2518   1.673   7.170   4.792
  174POPC   C2B 2519   1.689   6.996   5.197
  174POPC   C3B 2520   1.693   7.153   5.604
  174POPC   C4B 2521   1.703   7.421   5.935
  175POPC   NC3 2522   7.239   7.373   4.052
  175POPC   PO4 2523   6.787   7.955   3.898
  175POPC   GL1 2524   7.045   8.043   4.344
  175POPC   GL2 2525   7.427   8.061   4.394
  175POPC   C1A 2526   7.086   7.832   4.760
  175POPC   D2A 2527   7.243   7.769   5.211
  175POPC   C3A 2528   7.082   7.700   5.655
  175POPC   C4A 2529   7.058   7.361   5.972
  175POPC   C1B 2530   7.313   8.312   4.743
  175POPC   C2B 2531   7.375   8.378   5.175
  175POPC   C3B 2532   7.193   8.189   5.514
  175POPC   C4B 2533   7.268   8.115   5.917
  176POPC   NC3 2534   1.391   2.167   3.824
  176POPC   PO4 2535   1.546   1.604   4.104
  176POPC   GL1 2536   1.428   1.924   4.341
  176POPC   GL2 2537   1.110   1.791   4.448
  176POPC   C1A 2538   1.484   1.876   4.786
  176POPC   D2A 2539   1.397   1.968   5.183
  176POPC   C3A 2540   1.101   1.746   5.456
  176POPC   C4A 2541   1.248   1.653   5.904
  176POPC   C1B 2542   0.984   1.853   4.878
  176POPC   C2B 2543   0.940   2.185   5.178
  176POPC   C3B 2544   0.753   2.173   5.559
  176POPC   C4B 2545   0.978   2.087   5.904
  177POPC   NC3 2546   5.007   0.540   3.828
  177POPC   PO4 2547   4.416   0.595   4.101
  177POPC   GL1 2548   4.631   0.592   4.458
  177POPC   GL2 2549   4.876   0.358   4.289
  177POPC   C1A 2550   4.647   0.603   4.924
  177POPC   D2A 2551   4.667   0.370   5.275
  177POPC   C3A 2552   4.744   0.589   5.624
  177POPC   C4A 2553   4.747   0.241   5.848
  177POPC   C1B 2554   4.982   0.297   4.697
  177POPC   C2B 2555   5.118   0.491   5.072
  177POPC   C3B 2556   5.146   0.323   5.456
  177POPC   C4B 2557   5.295   0.375   5.825
  178POPC   NC3 2558   3.495   1.849   3.853
  178POPC   PO4 2559   2.949   1.832   4.081
  178POPC   GL1 2560   3.256   1.839   4.384
  178POPC   GL2 2561   3.563   1.990   4.359
  178POPC   C1A 2562   3.195   1.861   4.843
  178POPC   D2A 2563   3.412   1.939   5.206
  178POPC   C3A 2564   3.207   1.678   5.453
  178POPC   C4A 2565   2.950   1.592   5.806
  178POPC   C1B 2566   3.466   2.258   4.736
  178POPC   C2B 2567   3.606   2.423   5.111
  178POPC   C3B 2568   3.729   2.288   5.505
  178POPC   C4B 2569   3.466   2.029   5.719
  179POPC   NC3 2570   6.499   2.299   3.968
  179POPC   PO4 2571   6.816   1.715   3.914
  179POPC   GL1 2572   6.713   1.956   4.304
  179POPC   GL2 2573   6.358   1.928   4.311
  179POPC   C1A 2574   6.622   2.005   4.758
  179POPC   D2A 2575   6.762   1.857   5.156
  179POPC   C3A 2576   6.600   2.078   5.502
  179POPC   C4A 2577   6.603   1.786   5.810
  179POPC   C1B 2578   6.127   1.957   4.716
  179POPC   C2B 2579   6.233   2.041   5.163
  179POPC   C3B 2580   6.147   1.814   5.551
  179POPC   C4B 2581   6.199   1.495   5.932
  180POPC   NC3 2582   9.009   0.264   3.736
  180POPC   PO4 2583   9.391  10.485   4.155
  180POPC   GL1 2584   8.998   0.094   4.386
  180POPC   GL2 2585   8.738   0.323   4.253
  180POPC   C1A 2586   8.906   0.312   4.792
  180POPC   D2A 2587   9.145   0.377   5.168
  180POPC   C3A 2588   8.947   0.166   5.488
  180POPC   C4A 2589   8.748   0.356   5.803
  180POPC   C1B 2590   8.549   0.610   4.613
  180POPC   C2B 2591   8.495   0.505   5.082
  180POPC   C3B 2592   8.318   0.421   5.513
  180POPC   C4B 2593   8.322   0.551   5.966
  181POPC   NC3 2594  10.348   0.596   3.972
  181POPC   PO4 2595   9.700   0.565   3.739
  181POPC   GL1 2596   9.846   0.339   4.157
  181POPC   GL2 2597  10.143   0.416   4.374
  181POPC   C1A 2598   9.822   0.191   4.645
  181POPC   D2A 2599   9.692   0.459   4.975
  181POPC   C3A 2600   9.861   0.438   5.396
  181POPC   C4A 2601   9.971   0.271   5.809
  181POPC   C1B 2602  10.162   0.549   4.773
  181POPC   C2B 2603  10.150   0.743   5.134
  181POPC   C3B 2604  10.339   0.676   5.496
  181POPC   C4B 2605  10.370   0.693   5.918
  182POPC   NC3 2606   8.566   2.490   3.916
  182POPC   PO4 2607   9.031   2.944   3.928
  182POPC   GL1 2608   8.896   2.806   4.311
  182POPC   GL2 2609   8.567   2.938   4.300
  182POPC   C1A 2610   9.073   2.706   4.725
  182POPC   D2A 2611   9.023   2.910   5.111
  182POPC   C3A 2612   9.058   2.653   5.451
  182POPC   C4A 2613   8.887   2.810   5.794
  182POPC   C1B 2614   8.541   2.623   4.623
  182POPC   C2B 2615   8.667   2.538   5.050
  182POPC   C3B 2616   8.554   2.803   5.370
  182POPC   C4B 2617   8.424   2.665   5.754
  183POPC   NC3 2618   4.633  10.227   3.924
  183POPC   PO4 2619   5.249   0.092   3.870
  183POPC   GL1 2620   5.237  10.451   4.269
  183POPC   GL2 2621   5.066  10.154   4.180
  183POPC   C1A 2622   5.340  10.442   4.692
  183POPC   D2A 2623   5.074  10.463   5.068
  183POPC   C3A 2624   5.258  10.334   5.440
  183POPC   C4A 2625   5.055  10.354   5.807
  183POPC   C1B 2626   4.838  10.274   4.578
  183POPC   C2B 2627   4.808  10.047   4.976
  183POPC   C3B 2628   4.966   9.884   5.352
  183POPC   C4B 2629   4.758   9.924   5.753
  184POPC   NC3 2630   9.478   0.764   4.092
  184POPC   PO4 2631  10.061   0.992   4.026
  184POPC   GL1 2632   9.749   1.120   4.347
  184POPC   GL2 2633   9.364   1.085   4.443
  184POPC   C1A 2634   9.775   0.953   4.765
  184POPC   D2A 2635   9.663   0.906   5.176
  184POPC   C3A 2636   9.872   1.119   5.442
  184POPC   C4A 2637   9.562   1.247   5.715
  184POPC   C1B 2638   9.367   1.316   4.799
  184POPC   C2B 2639   9.395   1.337   5.229
  184POPC   C3B 2640   9.107   1.227   5.507
  184POPC   C4B 2641   9.045   1.469   5.834
  185POPC   NC3 2642   2.470   8.788   3.996
  185POPC   PO4 2643   2.880   8.314   3.747
  185POPC   GL1 2644   2.765   8.429   4.234
  185POPC   GL2 2645   2.415   8.511   4.412
  185POPC   C1A 2646   2.812   8.618   4.691
  185POPC   D2A 2647   2.964   8.734   5.103
  185POPC   C3A 2648   2.758   9.070   5.364
  185POPC   C4A 2649   2.842   8.924   5.788
  185POPC   C1B 2650   2.217   8.365   4.782
  185POPC   C2B 2651   2.431   8.550   5.094
  185POPC   C3B 2652   2.633   8.587   5.474
  185POPC   C4B 2653   2.559   8.411   5.869
  186POPC   NC3 2654   7.240  10.111   3.822
  186POPC   PO4 2655   6.872   0.118   4.067
  186POPC   GL1 2656   7.074  10.341   4.333
  186POPC   GL2 2657   7.120   9.978   4.289
  186POPC   C1A 2658   6.888  10.166   4.691
  186POPC   D2A 2659   6.687  10.348   5.000
  186POPC   C3A 2660   6.873  10.335   5.405
  186POPC   C4A 2661   6.810  10.429   5.832
  186POPC   C1B 2662   7.293   9.840   4.668
  186POPC   C2B 2663   7.238  10.043   5.048
  186POPC   C3B 2664   7.082   9.861   5.408
  186POPC   C4B 2665   7.180  10.090   5.754
  187POPC   NC3 2666   7.108   9.243   3.808
  187POPC   PO4 2667   7.484   9.767   4.033
  187POPC   GL1 2668   7.361   9.413   4.319
  187POPC   GL2 2669   7.070   9.173   4.300
  187POPC   C1A 2670   7.221   9.317   4.760
  187POPC   D2A 2671   7.334   9.544   5.103
  187POPC   C3A 2672   7.356   9.315   5.451
  187POPC   C4A 2673   7.232   9.539   5.779
  187POPC   C1B 2674   6.883   9.586   4.489
  187POPC   C2B 2675   6.863   9.676   4.938
  187POPC   C3B 2676   6.880   9.347   5.297
  187POPC   C4B 2677   7.024   9.051   5.693
  188POPC   NC3 2678   9.164   8.909   3.818
  188POPC   PO4 2679   9.726   8.537   3.796
  188POPC   GL1 2680   9.692   8.779   4.181
  188POPC   GL2 2681   9.383   8.683   4.319
  188POPC   C1A 2682   9.760   8.794   4.648
  188POPC   D2A 2683   9.616   8.889   5.065
  188POPC   C3A 2684   9.862   8.840   5.444
  188POPC   C4A 2685   9.767   8.908   5.870
  188POPC   C1B 2686   9.190   8.833   4.735
  188POPC   C2B 2687   9.174   8.679   5.164
  188POPC   C3B 2688   9.280   8.744   5.603
  188POPC   C4B 2689   8.953   8.682   5.906
  189POPC   NC3 2690   3.639  10.148   3.849
  189POPC   PO4 2691   2.959   9.746   3.889
  189POPC   GL1 2692   3.138   9.812   4.284
  189POPC   GL2 2693   3.418   9.961   4.253
  189POPC   C1A 2694   2.988   9.857   4.704
  189POPC   D2A 2695   3.086  10.079   5.077
  189POPC   C3A 2696   3.037   9.885   5.471
  189POPC   C4A 2697   3.236   9.846   5.855
  189POPC   C1B 2698   3.418  10.138   4.658
  189POPC   C2B 2699   3.613  10.134   5.070
  189POPC   C3B 2700   3.535  10.179   5.500
  189POPC   C4B 2701   3.832   0.000   5.729
  190POPC   NC3 2702   8.433   9.370   3.852
  190POPC   PO4 2703   8.351  10.111   3.909
  190POPC   GL1 2704   8.356   9.685   4.233
  190POPC   GL2 2705   8.587   9.288   4.304
  190POPC   C1A 2706   8.428   9.577   4.662
  190POPC   D2A 2707   8.598   9.291   5.006
  190POPC   C3A 2708   8.603   9.541   5.324
  190POPC   C4A 2709   8.640   9.429   5.718
  190POPC   C1B 2710   8.916   9.262   4.625
  190POPC   C2B 2711   9.147   9.333   5.016
  190POPC   C3B 2712   9.061   9.310   5.456
  190POPC   C4B 2713   9.100   9.485   5.897
  191POPC   NC3 2714   2.390   0.509   3.808
  191POPC   PO4 2715   2.986   0.789   3.718
  191POPC   GL1 2716   2.759   0.553   4.142
  191POPC   GL2 2717   2.869   0.201   4.171
  191POPC   C1A 2718   2.696   0.690   4.653
  191POPC   D2A 2719   2.546   0.844   5.083
  191POPC   C3A 2720   2.752   0.809   5.412
  191POPC   C4A 2721   2.671   0.593   5.753
  191POPC   C1B 2722   2.539   0.238   4.514
  191POPC   C2B 2723   2.428   0.342   4.944
  191POPC   C3B 2724   2.471   0.309   5.379
  191POPC   C4B 2725   2.591   0.087   5.740
  192POPC   NC3 2726   8.792   6.510   3.886
  192POPC   PO4 2727   8.161   6.763   3.983
  192POPC   GL1 2728   8.490   6.602   4.292
  192POPC   GL2 2729   8.518   6.244   4.238
  192POPC   C1A 2730   8.473   6.607   4.747
  192POPC   D2A 2731   8.754   6.539   5.112
  192POPC   C3A 2732   8.740   6.734   5.548
  192POPC   C4A 2733   8.915   6.683   5.992
  192POPC   C1B 2734   8.736   6.149   4.648
  192POPC   C2B 2735   8.802   6.008   5.072
  192POPC   C3B 2736   8.771   6.191   5.489
  192POPC   C4B 2737   8.466   6.382   5.793
  193POPC   NC3 2738   9.722   8.082   3.892
  193POPC   PO4 2739   9.087   8.059   3.945
  193POPC   GL1 2740   9.202   8.207   4.351
  193POPC   GL2 2741   9.552   8.132   4.362
  193POPC   C1A 2742   9.427   8.385   4.763
  193POPC   D2A 2743   9.588   8.134   5.098
  193POPC   C3A 2744   9.425   8.234   5.516
  193POPC   C4A 2745   9.170   8.204   5.898
  193POPC   C1B 2746   9.355   7.879   4.702
  193POPC   C2B 2747   9.334   7.674   5.108
  193POPC   C3B 2748   9.549   7.702   5.521
  193POPC   C4B 2749   9.860   7.670   5.877
  194POPC   NC3 2750   1.217   2.954   4.019
  194POPC   PO4 2751   0.980   2.337   3.728
  194POPC   GL1 2752   1.086   2.311   4.218
  194POPC   GL2 2753   1.187   2.623   4.378
  194POPC   C1A 2754   1.189   2.273   4.704
  194POPC   D2A 2755   1.365   2.470   5.079
  194POPC   C3A 2756   1.192   2.451   5.538
  194POPC   C4A 2757   1.361   2.405   5.967
  194POPC   C1B 2758   1.069   2.791   4.781
  194POPC   C2B 2759   0.954   2.758   5.186
  194POPC   C3B 2760   1.072   2.947   5.579
  194POPC   C4B 2761   0.833   3.067   5.874
  195POPC   NC3 2762   6.612   0.995   3.505
  195POPC   PO4 2763   7.249   1.018   3.848
  195POPC   GL1 2764   7.056   1.024   4.211
  195POPC   GL2 2765   7.087   1.356   4.349
  195POPC   C1A 2766   6.957   0.812   4.609
  195POPC   D2A 2767   7.103   0.859   5.015
  195POPC   C3A 2768   6.903   0.683   5.335
  195POPC   C4A 2769   6.879   0.757   5.734
  195POPC   C1B 2770   7.407   1.080   4.592
  195POPC   C2B 2771   7.598   0.978   5.016
  195POPC   C3B 2772   7.373   1.183   5.331
  195POPC   C4B 2773   7.288   1.115   5.745
  196POPC   NC3 2774   1.885   1.308   3.962
  196POPC   PO4 2775   2.431   1.579   3.979
  196POPC   GL1 2776   2.193   1.466   4.359
  196POPC   GL2 2777   2.096   1.111   4.375
  196POPC   C1A 2778   2.050   1.370   4.794
  196POPC   D2A 2779   2.114   1.109   5.129
  196POPC   C3A 2780   2.088   1.397   5.447
  196POPC   C4A 2781   2.101   1.386   5.881
  196POPC   C1B 2782   1.774   0.958   4.657
  196POPC   C2B 2783   1.623   0.956   5.088
  196POPC   C3B 2784   1.770   0.997   5.531
  196POPC   C4B 2785   1.941   0.925   5.969
  197POPC   NC3 2786   3.352   9.253   4.075
  197POPC   PO4 2787   4.086   9.178   4.089
  197POPC   GL1 2788   3.756   9.167   4.381
  197POPC   GL2 2789   3.669   9.527   4.352
  197POPC   C1A 2790   3.721   9.201   4.836
  197POPC   D2A 2791   3.695   9.199   5.278
  197POPC   C3A 2792   3.879   9.574   5.421
  197POPC   C4A 2793   3.726   9.757   5.772
  197POPC   C1B 2794   3.377   9.547   4.686
  197POPC   C2B 2795   3.408   9.669   5.109
  197POPC   C3B 2796   3.366   9.511   5.496
  197POPC   C4B 2797   3.030   9.391   5.727
  198POPC   NC3 2798   8.392  10.288   3.457
  198POPC   PO4 2799   7.728  10.153   3.715
  198POPC   GL1 2800   7.852  10.136   4.236
  198POPC   GL2 2801   7.573  10.249   4.349
  198POPC   C1A 2802   8.198  10.198   4.557
  198POPC   D2A 2803   8.303   9.982   4.971
  198POPC   C3A 2804   8.139  10.140   5.388
  198POPC   C4A 2805   8.136  10.454   5.753
  198POPC   C1B 2806   7.763  10.000   4.697
  198POPC   C2B 2807   7.747   9.885   5.079
  198POPC   C3B 2808   7.598  10.065   5.438
  198POPC   C4B 2809   7.822  10.038   5.797
  199POPC   NC3 2810   4.904   1.872   3.753
  199POPC   PO4 2811   4.516   2.277   3.938
  199POPC   GL1 2812   4.736   1.937   4.241
  199POPC   GL2 2813   4.999   1.647   4.254
  199POPC   C1A 2814   4.662   1.718   4.653
  199POPC   D2A 2815   4.880   1.723   5.062
  199POPC   C3A 2816   4.665   1.683   5.457
  199POPC   C4A 2817   4.673   1.902   5.861
  199POPC   C1B 2818   5.191   1.819   4.634
  199POPC   C2B 2819   5.266   2.050   5.040
  199POPC   C3B 2820   4.966   2.116   5.416
  199POPC   C4B 2821   5.123   2.190   5.842
  200POPC   NC3 2822   2.564   2.054   4.158
  200POPC   PO4 2823   2.148   2.288   3.693
  200POPC   GL1 2824   1.875   2.258   4.109
  200POPC   GL2 2825   1.961   1.931   4.244
  200POPC   C1A 2826   1.711   2.315   4.568
  200POPC   D2A 2827   1.851   2.243   5.025
  200POPC   C3A 2828   1.676   2.326   5.450
  200POPC   C4A 2829   1.463   2.023   5.672
  200POPC   C1B 2830   1.969   1.862   4.679
  200POPC   C2B 2831   1.843   1.721   5.124
  200POPC   C3B 2832   1.951   1.872   5.565
  200POPC   C4B 2833   1.758   1.733   5.978
  201POPC   NC3 2834   3.054   3.534   4.070
  201POPC   PO4 2835   2.469   3.221   3.858
  201POPC   GL1 2836   2.410   3.331   4.287
  201POPC   GL2 2837   2.753   3.326   4.448
  201POPC   C1A 2838   2.327   3.494   4.701
  201POPC   D2A 2839   2.618   3.373   5.032
  201POPC   C3A 2840   2.527   3.335   5.441
  201POPC   C4A 2841   2.824   3.262   5.791
  201POPC   C1B 2842   2.765   3.748   4.728
  201POPC   C2B 2843   2.568   3.866   5.184
  201POPC   C3B 2844   2.630   3.779   5.687
  201POPC   C4B 2845   2.889   3.680   6.093
  202POPC   NC3 2846   5.263   9.393   3.908
  202POPC   PO4 2847   4.696   9.770   4.007
  202POPC   GL1 2848   4.843   9.721   4.402
  202POPC   GL2 2849   5.065   9.455   4.365
  202POPC   C1A 2850   4.938   9.579   4.835
  202POPC   D2A 2851   4.659   9.424   5.104
  202POPC   C3A 2852   4.759   9.424   5.520
  202POPC   C4A 2853   4.673   9.128   5.826
  202POPC   C1B 2854   5.261   9.205   4.697
  202POPC   C2B 2855   5.106   9.070   5.140
  202POPC   C3B 2856   5.168   9.108   5.614
  202POPC   C4B 2857   5.199   9.086   6.077
  203POPC   NC3 2858   9.290   2.581   4.089
  203POPC   PO4 2859   9.680   1.917   4.029
  203POPC   GL1 2860   9.591   2.251   4.328
  203POPC   GL2 2861   9.612   2.596   4.468
  203POPC   C1A 2862   9.314   2.249   4.673
  203POPC   D2A 2863   9.243   2.269   5.138
  203POPC   C3A 2864   9.668   2.294   5.382
  203POPC   C4A 2865   9.743   2.394   5.817
  203POPC   C1B 2866   9.676   2.523   4.891
  203POPC   C2B 2867   9.486   2.724   5.162
  203POPC   C3B 2868   9.583   2.771   5.533
  203POPC   C4B 2869   9.363   2.717   5.890
  204POPC   NC3 2870   2.231   5.125   4.081
  204POPC   PO4 2871   1.584   4.904   3.978
  204POPC   GL1 2872   1.719   5.155   4.310
  204POPC   GL2 2873   1.932   4.882   4.407
  204POPC   C1A 2874   1.715   5.422   4.730
  204POPC   D2A 2875   1.885   5.385   5.171
  204POPC   C3A 2876   1.634   5.420   5.556
  204POPC   C4A 2877   1.795   5.143   5.900
  204POPC   C1B 2878   2.073   5.045   4.795
  204POPC   C2B 2879   2.214   4.954   5.208
  204POPC   C3B 2880   2.059   4.841   5.560
  204POPC   C4B 2881   2.188   4.476   5.723
  205POPC   NC3 2882   2.198   5.751   3.659
  205POPC   PO4 2883   1.596   5.733   3.903
  205POPC   GL1 2884   1.966   5.580   4.141
  205POPC   GL2 2885   2.150   5.882   4.171
  205POPC   C1A 2886   2.180   5.559   4.577
  205POPC   D2A 2887   2.079   5.779   4.946
  205POPC   C3A 2888   2.249   5.749   5.392
  205POPC   C4A 2889   2.164   5.350   5.602
  205POPC   C1B 2890   1.796   5.909   4.510
  205POPC   C2B 2891   1.673   6.064   4.924
  205POPC   C3B 2892   1.765   5.952   5.350
  205POPC   C4B 2893   1.904   5.825   5.765
  206POPC   NC3 2894   5.806   0.661   3.995
  206POPC   PO4 2895   6.035   0.044   3.980
  206POPC   GL1 2896   5.824  10.492   4.370
  206POPC   GL2 2897   5.637   0.277   4.319
  206POPC   C1A 2898   5.802   0.105   4.795
  206POPC   D2A 2899   5.523   0.193   5.104
  206POPC   C3A 2900   5.661   0.185   5.475
  206POPC   C4A 2901   6.074   0.237   5.618
  206POPC   C1B 2902   5.489   0.507   4.679
  206POPC   C2B 2903   5.548   0.755   5.050
  206POPC   C3B 2904   5.408   0.776   5.468
  206POPC   C4B 2905   5.722   0.624   5.709
  207POPC   NC3 2906   6.542   1.338   3.964
  207POPC   PO4 2907   6.669   0.726   3.890
  207POPC   GL1 2908   6.567   1.002   4.319
  207POPC   GL2 2909   6.238   1.117   4.401
  207POPC   C1A 2910   6.601   1.175   4.748
  207POPC   D2A 2911   6.555   1.012   5.159
  207POPC   C3A 2912   6.870   1.185   5.428
  207POPC   C4A 2913   6.866   1.358   5.830
  207POPC   C1B 2914   6.122   1.410   4.711
  207POPC   C2B 2915   6.333   1.547   5.073
  207POPC   C3B 2916   6.414   1.399   5.476
  207POPC   C4B 2917   6.455   1.064   5.745
  208POPC   NC3 2918   7.044   3.041   3.583
  208POPC   PO4 2919   6.636   2.748   3.990
  208POPC   GL1 2920   6.979   2.735   4.291
  208POPC   GL2 2921   7.027   2.362   4.241
  208POPC   C1A 2922   7.216   2.949   4.672
  208POPC   D2A 2923   7.072   3.018   5.105
  208POPC   C3A 2924   7.277   3.000   5.516
  208POPC   C4A 2925   7.246   3.054   5.998
  208POPC   C1B 2926   7.318   2.470   4.557
  208POPC   C2B 2927   7.281   2.544   4.988
  208POPC   C3B 2928   7.430   2.510   5.403
  208POPC   C4B 2929   7.304   2.584   5.796
  209POPC   NC3 2930   9.929   3.642   3.639
  209POPC   PO4 2931  10.381   4.026   3.868
  209POPC   GL1 2932  10.207   4.125   4.252
  209POPC   GL2 2933  10.269   4.414   4.360
  209POPC   C1A 2934   9.954   4.093   4.626
  209POPC   D2A 2935   9.744   4.279   4.986
  209POPC   C3A 2936   9.938   4.079   5.303
  209POPC   C4A 2937  10.010   4.124   5.687
  209POPC   C1B 2938  10.457   4.125   4.694
  209POPC   C2B 2939  10.412   3.939   5.094
  209POPC   C3B 2940  10.418   4.248   5.411
  209POPC   C4B 2941  10.387   4.433   5.781
  210POPC   NC3 2942   7.922   3.230   4.022
  210POPC   PO4 2943   8.311   3.635   3.989
  210POPC   GL1 2944   8.135   3.502   4.400
  210POPC   GL2 2945   8.113   3.118   4.497
  210POPC   C1A 2946   8.174   3.490   4.854
  210POPC   D2A 2947   8.099   3.159   5.168
  210POPC   C3A 2948   8.010   3.342   5.583
  210POPC   C4A 2949   7.893   3.702   5.869
  210POPC   C1B 2950   7.733   3.255   4.775
  210POPC   C2B 2951   7.592   3.329   5.237
  210POPC   C3B 2952   7.504   3.419   5.700
  210POPC   C4B 2953   7.607   3.390   6.160
  211POPC   NC3 2954   0.298   8.934   4.007
  211POPC   PO4 2955   0.577   8.362   4.001
  211POPC   GL1 2956   0.553   8.534   4.369
  211POPC   GL2 2957   0.220   8.658   4.418
  211POPC   C1A 2958   0.450   8.357   4.753
  211POPC   D2A 2959   0.444   8.078   5.071
  211POPC   C3A 2960   0.437   8.324   5.423
  211POPC   C4A 2961   0.509   8.561   5.782
  211POPC   C1B 2962   0.485   8.957   4.656
  211POPC   C2B 2963   0.473   9.103   5.056
  211POPC   C3B 2964   0.364   8.880   5.410
  211POPC   C4B 2965   0.175   8.966   5.788
  212POPC   NC3 2966   2.317   6.734   3.925
  212POPC   PO4 2967   1.670   6.729   3.956
  212POPC   GL1 2968   1.759   6.813   4.368
  212POPC   GL2 2969   2.056   6.597   4.368
  212POPC   C1A 2970   1.763   6.664   4.791
  212POPC   D2A 2971   1.781   6.480   5.182
  212POPC   C3A 2972   1.749   6.641   5.585
  212POPC   C4A 2973   1.859   6.452   6.006
  212POPC   C1B 2974   2.110   6.269   4.706
  212POPC   C2B 2975   2.202   6.213   5.151
  212POPC   C3B 2976   2.109   6.260   5.582
  212POPC   C4B 2977   2.368   6.414   5.899
  213POPC   NC3 2978  10.137   4.430   3.845
  213POPC   PO4 2979   9.990   5.086   3.733
  213POPC   GL1 2980   9.984   4.833   4.139
  213POPC   GL2 2981  10.298   4.930   4.236
  213POPC   C1A 2982   9.992   4.710   4.629
  213POPC   D2A 2983  10.209   4.486   4.998
  213POPC   C3A 2984  10.011   4.570   5.400
  213POPC   C4A 2985   9.889   4.597   5.841
  213POPC   C1B 2986  10.278   5.138   4.641
  213POPC   C2B 2987  10.162   4.996   5.048
  213POPC   C3B 2988  10.058   5.061   5.476
  213POPC   C4B 2989  10.241   4.938   5.832
  214POPC   NC3 2990   3.358   2.567   3.814
  214POPC   PO4 2991   3.183   3.115   4.154
  214POPC   GL1 2992   3.512   2.785   4.273
  214POPC   GL2 2993   3.342   2.482   4.317
  214POPC   C1A 2994   3.780   2.707   4.673
  214POPC   D2A 2995   3.820   2.896   5.101
  214POPC   C3A 2996   3.698   2.796   5.539
  214POPC   C4A 2997   3.604   2.645   5.964
  214POPC   C1B 2998   3.287   2.737   4.728
  214POPC   C2B 2999   3.264   2.789   5.175
  214POPC   C3B 3000   3.222   2.593   5.588
  214POPC   C4B 3001   3.124   2.838   5.957
  215POPC   NC3 3002   1.486   8.831   3.843
  215POPC   PO4 3003   2.134   9.182   3.853
  215POPC   GL1 3004   2.017   8.931   4.206
  215POPC   GL2 3005   1.772   8.662   4.255
  215POPC   C1A 3006   2.058   8.830   4.643
  215POPC   D2A 3007   1.902   8.690   5.046
  215POPC   C3A 3008   2.102   8.757   5.417
  215POPC   C4A 3009   2.292   8.829   5.780
  215POPC   C1B 3010   1.675   8.435   4.661
  215POPC   C2B 3011   1.688   8.147   4.998
  215POPC   C3B 3012   1.919   8.227   5.354
  215POPC   C4B 3013   2.048   8.367   5.754
  216POPC   NC3 3014   0.455   9.478   3.696
  216POPC   PO4 3015  10.394   9.040   3.783
  216POPC   GL1 3016  10.461   9.157   4.287
  216POPC   GL2 3017   0.311   9.327   4.344
  216POPC   C1A 3018   0.030   9.242   4.759
  216POPC   D2A 3019   0.190   9.559   5.059
  216POPC   C3A 3020   0.311   9.393   5.457
  216POPC   C4A 3021   0.036   9.539   5.758
  216POPC   C1B 3022   0.556   9.484   4.725
  216POPC   C2B 3023   0.720   9.562   5.179
  216POPC   C3B 3024   0.665   9.747   5.665
  216POPC   C4B 3025   0.752   9.681   6.159
  217POPC   NC3 3026   4.168   7.934   3.897
  217POPC   PO4 3027   3.666   8.318   3.881
  217POPC   GL1 3028   3.793   8.038   4.263
  217POPC   GL2 3029   4.157   7.939   4.402
  217POPC   C1A 3030   3.768   7.825   4.697
  217POPC   D2A 3031   3.794   8.042   5.110
  217POPC   C3A 3032   3.890   7.813   5.508
  217POPC   C4A 3033   4.167   7.736   5.863
  217POPC   C1B 3034   4.324   8.091   4.832
  217POPC   C2B 3035   4.317   7.968   5.272
  217POPC   C3B 3036   4.636   7.850   5.605
  217POPC   C4B 3037   4.811   7.675   6.002
  218POPC   NC3 3038   0.593   7.083   4.022
  218POPC   PO4 3039   0.029   7.147   3.663
  218POPC   GL1 3040   0.126   7.161   4.189
  218POPC   GL2 3041   0.395   7.448   4.316
  218POPC   C1A 3042   0.155   7.179   4.678
  218POPC   D2A 3043   0.399   7.302   5.070
  218POPC   C3A 3044   0.286   7.359   5.505
  218POPC   C4A 3045   0.270   7.448   5.968
  218POPC   C1B 3046   0.681   7.209   4.650
  218POPC   C2B 3047   0.857   7.044   5.043
  218POPC   C3B 3048   0.803   7.267   5.414
  218POPC   C4B 3049   0.633   7.140   5.796
  219POPC   NC3 3050   0.858   0.551   4.174
  219POPC   PO4 3051   0.279   0.463   3.831
  219POPC   GL1 3052   0.409   0.328   4.240
  219POPC   GL2 3053   0.154   0.466   4.345
  219POPC   C1A 3054   0.508   0.465   4.713
  219POPC   D2A 3055   0.733   0.390   5.088
  219POPC   C3A 3056   0.755   0.680   5.405
  219POPC   C4A 3057   0.700   0.457   5.776
  219POPC   C1B 3058   0.063   0.209   4.656
  219POPC   C2B 3059   0.065   0.378   5.052
  219POPC   C3B 3060   0.322   0.382   5.388
  219POPC   C4B 3061   0.169   0.322   5.742
  220POPC   NC3 3062   6.260   2.914   4.188
  220POPC   PO4 3063   6.027   2.319   4.031
  220POPC   GL1 3064   6.207   2.406   4.418
  220POPC   GL2 3065   6.544   2.490   4.420
  220POPC   C1A 3066   6.320   2.435   4.855
  220POPC   D2A 3067   6.477   2.716   5.147
  220POPC   C3A 3068   6.319   2.579   5.542
  220POPC   C4A 3069   6.290   2.742   5.998
  220POPC   C1B 3070   6.835   2.464   4.720
  220POPC   C2B 3071   6.830   2.355   5.115
  220POPC   C3B 3072   6.918   2.625   5.419
  220POPC   C4B 3073   6.758   2.565   5.795
  221POPC   NC3 3074   1.717   8.161   4.076
  221POPC   PO4 3075   1.564   7.526   3.969
  221POPC   GL1 3076   1.986   7.732   4.208
  221POPC   GL2 3077   1.978   8.038   4.474
  221POPC   C1A 3078   2.260   7.648   4.632
  221POPC   D2A 3079   2.265   7.902   5.016
  221POPC   C3A 3080   2.126   7.724   5.409
  221POPC   C4A 3081   2.191   7.440   5.749
  221POPC   C1B 3082   1.733   7.731   4.667
  221POPC   C2B 3083   1.732   7.592   5.069
  221POPC   C3B 3084   1.618   7.677   5.461
  221POPC   C4B 3085   1.813   7.915   5.773
  222POPC   NC3 3086   1.081   7.816   3.839
  222POPC   PO4 3087   1.356   8.450   4.056
  222POPC   GL1 3088   1.294   8.210   4.383
  222POPC   GL2 3089   1.357   7.871   4.267
  222POPC   C1A 3090   1.161   8.255   4.800
  222POPC   D2A 3091   0.942   8.205   5.187
  222POPC   C3A 3092   1.272   8.266   5.497
  222POPC   C4A 3093   1.524   8.317   5.882
  222POPC   C1B 3094   1.230   7.770   4.627
  222POPC   C2B 3095   1.276   7.815   5.041
  222POPC   C3B 3096   1.106   7.787   5.414
  222POPC   C4B 3097   1.286   7.861   5.798
  223POPC   NC3 3098   0.212   7.942   3.919
  223POPC   PO4 3099   0.721   7.872   3.556
  223POPC   GL1 3100   0.673   7.881   4.142
  223POPC   GL2 3101   0.361   8.011   4.380
  223POPC   C1A 3102   0.757   7.922   4.649
  223POPC   D2A 3103   0.788   7.631   5.017
  223POPC   C3A 3104   0.605   7.764   5.429
  223POPC   C4A 3105   0.780   8.085   5.711
  223POPC   C1B 3106   0.265   7.716   4.746
  223POPC   C2B 3107   0.073   7.711   5.172
  223POPC   C3B 3108   0.135   7.823   5.623
  223POPC   C4B 3109   0.140   8.200   5.847
  224POPC   NC3 3110  10.205   3.656   4.079
  224POPC   PO4 3111   9.902   3.171   3.669
  224POPC   GL1 3112   9.878   3.163   4.165
  224POPC   GL2 3113  10.192   3.173   4.278
  224POPC   C1A 3114   9.924   3.365   4.661
  224POPC   D2A 3115  10.201   3.420   5.073
  224POPC   C3A 3116  10.136   3.628   5.489
  224POPC   C4A 3117   9.988   3.690   5.927
  224POPC   C1B 3118  10.454   3.018   4.577
  224POPC   C2B 3119  10.454   2.959   5.014
  224POPC   C3B 3120  10.338   3.073   5.444
  224POPC   C4B 3121  10.309   3.253   5.854
  225POPC   NC3 3122   1.824   0.579   4.057
  225POPC   PO4 3123   2.267   0.932   3.931
  225POPC   GL1 3124   2.255   0.628   4.316
  225POPC   GL2 3125   1.893   0.462   4.513
  225POPC   C1A 3126   2.213   0.756   4.731
  225POPC   D2A 3127   1.942   0.550   4.999
  225POPC   C3A 3128   2.078   0.621   5.375
  225POPC   C4A 3129   2.173   0.518   5.782
  225POPC   C1B 3130   1.580   0.166   4.692
  225POPC   C2B 3131   1.703   0.072   5.112
  225POPC   C3B 3132   1.608   0.433   5.366
  225POPC   C4B 3133   1.621   0.567   5.772
  226POPC   NC3 3134   7.218   1.504   3.853
  226POPC   PO4 3135   7.837   1.780   3.847
  226POPC   GL1 3136   7.562   1.616   4.221
  226POPC   GL2 3137   7.266   1.862   4.298
  226POPC   C1A 3138   7.458   1.600   4.704
  226POPC   D2A 3139   7.529   1.645   5.175
  226POPC   C3A 3140   7.155   1.651   5.470
  226POPC   C4A 3141   7.138   1.780   5.893
  226POPC   C1B 3142   7.136   2.023   4.742
  226POPC   C2B 3143   7.258   2.078   5.194
  226POPC   C3B 3144   7.067   2.181   5.614
  226POPC   C4B 3145   6.845   2.146   6.067
  227POPC   NC3 3146   7.971   8.001   3.966
  227POPC   PO4 3147   8.397   7.510   3.997
  227POPC   GL1 3148   8.172   7.631   4.355
  227POPC   GL2 3149   7.899   7.868   4.432
  227POPC   C1A 3150   8.072   7.566   4.791
  227POPC   D2A 3151   8.180   7.800   5.161
  227POPC   C3A 3152   8.129   7.587   5.554
  227POPC   C4A 3153   7.920   7.560   5.928
  227POPC   C1B 3154   7.616   7.796   4.783
  227POPC   C2B 3155   7.698   7.963   5.175
  227POPC   C3B 3156   7.630   7.880   5.611
  227POPC   C4B 3157   7.768   8.051   6.012
  228POPC   NC3 3158   4.347   2.690   3.891
  228POPC   PO4 3159   3.798   2.283   3.875
  228POPC   GL1 3160   3.893   2.373   4.291
  228POPC   GL2 3161   4.225   2.501   4.354
  228POPC   C1A 3162   3.970   2.244   4.722
  228POPC   D2A 3163   4.113   2.414   5.123
  228POPC   C3A 3164   4.172   2.607   5.501
  228POPC   C4A 3165   4.064   2.462   5.867
  228POPC   C1B 3166   4.299   2.704   4.763
  228POPC   C2B 3167   4.331   2.943   5.154
  228POPC   C3B 3168   4.305   3.091   5.594
  228POPC   C4B 3169   4.518   2.905   5.986
  229POPC   NC3 3170   9.688   5.310   4.001
  229POPC   PO4 3171   9.138   5.100   3.668
  229POPC   GL1 3172   9.245   4.905   4.197
  229POPC   GL2 3173   9.537   4.996   4.339
  229POPC   C1A 3174   9.175   5.038   4.678
  229POPC   D2A 3175   9.331   5.285   5.077
  229POPC   C3A 3176   9.185   5.151   5.538
  229POPC   C4A 3177   9.078   5.169   6.005
  229POPC   C1B 3178   9.695   5.118   4.733
  229POPC   C2B 3179   9.670   4.875   5.118
  229POPC   C3B 3180   9.528   4.762   5.527
  229POPC   C4B 3181   9.425   4.760   5.985
  230POPC   NC3 3182   7.945   7.196   3.952
  230POPC   PO4 3183   7.533   7.731   4.001
  230POPC   GL1 3184   7.668   7.421   4.371
  230POPC   GL2 3185   7.969   7.186   4.440
  230POPC   C1A 3186   7.644   7.274   4.821
  230POPC   D2A 3187   7.770   7.448   5.228
  230POPC   C3A 3188   7.531   7.375   5.635
  230POPC   C4A 3189   7.563   7.173   6.062
  230POPC   C1B 3190   8.118   7.003   4.807
  230POPC   C2B 3191   8.017   6.901   5.276
  230POPC   C3B 3192   7.966   7.057   5.741
  230POPC   C4B 3193   8.072   7.159   6.205
  231POPC   NC3 3194  10.392   6.383   3.927
  231POPC   PO4 3195   9.914   6.019   4.086
  231POPC   GL1 3196  10.153   6.272   4.367
  231POPC   GL2 3197  10.175   6.637   4.321
  231POPC   C1A 3198  10.316   6.304   4.788
  231POPC   D2A 3199  10.056   6.329   5.134
  231POPC   C3A 3200  10.198   6.080   5.475
  231POPC   C4A 3201  10.173   6.158   5.856
  231POPC   C1B 3202  10.310   6.803   4.754
  231POPC   C2B 3203  10.421   6.679   5.189
  231POPC   C3B 3204  10.125   6.588   5.575
  231POPC   C4B 3205   9.908   6.525   6.023
  232POPC   NC3 3206   5.623  10.326   3.938
  232POPC   PO4 3207   5.871   9.707   3.916
  232POPC   GL1 3208   5.890   9.980   4.265
  232POPC   GL2 3209   5.538  10.025   4.321
  232POPC   C1A 3210   5.821  10.082   4.727
  232POPC   D2A 3211   5.859  10.221   5.148
  232POPC   C3A 3212   6.053   9.970   5.479
  232POPC   C4A 3213   5.800  10.258   5.697
  232POPC   C1B 3214   5.229   9.962   4.621
  232POPC   C2B 3215   5.364  10.024   5.027
  232POPC   C3B 3216   5.533   9.917   5.409
  232POPC   C4B 3217   5.266   9.895   5.774
  233POPC   NC3 3218   0.471  10.467   3.843
  233POPC   PO4 3219   0.283   9.725   4.036
  233POPC   GL1 3220   0.430   9.981   4.336
  233POPC   GL2 3221   0.301  10.309   4.294
  233POPC   C1A 3222   0.486  10.005   4.770
  233POPC   D2A 3223   0.550  10.024   5.205
  233POPC   C3A 3224   0.230   9.892   5.455
  233POPC   C4A 3225   0.244  10.066   5.820
  233POPC   C1B 3226   0.586  10.472   4.579
  233POPC   C2B 3227   0.401  10.492   4.995
  233POPC   C3B 3228   0.253  10.395   5.401
  233POPC   C4B 3229   0.535  10.476   5.715
  234POPC   NC3 3230  10.473  10.067   3.980
  234POPC   PO4 3231  10.340   0.122   4.012
  234POPC   GL1 3232  10.285  10.379   4.374
  234POPC   GL2 3233  10.120  10.069   4.426
  234POPC   C1A 3234  10.200  10.367   4.809
  234POPC   D2A 3235  10.054   0.094   5.094
  234POPC   C3A 3236  10.301   0.159   5.432
  234POPC   C4A 3237  10.393  10.427   5.801
  234POPC   C1B 3238  10.472   9.920   4.640
  234POPC   C2B 3239   0.053  10.078   5.028
  234POPC   C3B 3240  10.297  10.152   5.372
  234POPC   C4B 3241  10.125  10.015   5.786
  235POPC   NC3 3242   3.343   0.604   3.977
  235POPC   PO4 3243   3.319  10.439   3.996
  235POPC   GL1 3244   3.546   0.170   4.311
  235POPC   GL2 3245   3.426   0.485   4.451
  235POPC   C1A 3246   3.640   0.097   4.755
  235POPC   D2A 3247   3.305   0.052   5.104
  235POPC   C3A 3248   3.413   0.180   5.541
  235POPC   C4A 3249   3.531   0.320   5.972
  235POPC   C1B 3250   3.081   0.300   4.664
  235POPC   C2B 3251   2.941   0.473   5.043
  235POPC   C3B 3252   2.977   0.368   5.435
  235POPC   C4B 3253   3.176   0.604   5.752
  236POPC   NC3 3254   9.621   6.299   3.866
  236POPC   PO4 3255   9.135   6.631   4.169
  236POPC   GL1 3256   9.606   6.515   4.317
  236POPC   GL2 3257   9.608   6.146   4.470
  236POPC   C1A 3258   9.845   6.524   4.692
  236POPC   D2A 3259   9.533   6.639   4.964
  236POPC   C3A 3260   9.640   6.535   5.346
  236POPC   C4A 3261   9.634   6.753   5.684
  236POPC   C1B 3262   9.609   6.145   4.953
  236POPC   C2B 3263   9.214   6.293   5.201
  236POPC   C3B 3264   9.215   6.413   5.629
  236POPC   C4B 3265   9.613   6.219   5.740
  237POPC   NC3 3266   1.200   4.572   3.943
  237POPC   PO4 3267   0.852   5.174   3.903
  237POPC   GL1 3268   1.150   4.962   4.301
  237POPC   GL2 3269   1.437   4.684   4.395
  237POPC   C1A 3270   1.079   4.791   4.761
  237POPC   D2A 3271   0.966   5.051   5.128
  237POPC   C3A 3272   1.060   4.934   5.558
  237POPC   C4A 3273   1.302   5.125   5.917
  237POPC   C1B 3274   1.547   4.951   4.735
  237POPC   C2B 3275   1.468   5.107   5.140
  237POPC   C3B 3276   1.558   4.892   5.517
  237POPC   C4B 3277   1.362   4.539   5.723
  238POPC   NC3 3278   8.761   8.331   4.091
  238POPC   PO4 3279   8.636   8.930   3.839
  238POPC   GL1 3280   8.512   8.775   4.241
  238POPC   GL2 3281   8.875   8.757   4.343
  238POPC   C1A 3282   8.560   8.885   4.700
  238POPC   D2A 3283   8.662   8.664   5.083
  238POPC   C3A 3284   8.760   8.885   5.441
  238POPC   C4A 3285   8.492   8.952   5.761
  238POPC   C1B 3286   8.900   8.405   4.709
  238POPC   C2B 3287   9.066   8.183   5.087
  238POPC   C3B 3288   8.898   8.363   5.484
  238POPC   C4B 3289   8.503   8.450   5.731
  239POPC   NC3 3290   7.292   8.155   3.923
  239POPC   PO4 3291   6.932   8.795   3.845
  239POPC   GL1 3292   7.004   8.650   4.265
  239POPC   GL2 3293   7.332   8.558   4.278
  239POPC   C1A 3294   7.050   8.830   4.685
  239POPC   D2A 3295   7.198   8.926   5.105
  239POPC   C3A 3296   6.961   8.647   5.362
  239POPC   C4A 3297   6.795   8.562   5.759
  239POPC   C1B 3298   7.573   8.746   4.630
  239POPC   C2B 3299   7.719   8.723   5.061
  239POPC   C3B 3300   7.550   8.825   5.474
  239POPC   C4B 3301   7.288   8.615   5.765
  240POPC   NC3 3302   4.243   0.967   3.859
  240POPC   PO4 3303   3.846   1.540   3.857
  240POPC   GL1 3304   3.974   1.202   4.206
  240POPC   GL2 3305   4.278   1.076   4.338
  240POPC   C1A 3306   3.935   1.205   4.678
  240POPC   D2A 3307   4.169   1.295   5.076
  240POPC   C3A 3308   4.066   1.103   5.463
  240POPC   C4A 3309   3.953   1.261   5.851
  240POPC   C1B 3310   4.355   0.944   4.721
  240POPC   C2B 3311   4.174   0.758   5.049
  240POPC   C3B 3312   4.266   0.629   5.412
  240POPC   C4B 3313   4.312   0.786   5.804
  241POPC   NC3 3314  10.000   9.264   3.929
  241POPC   PO4 3315  10.025   9.955   3.951
  241POPC   GL1 3316   9.861   9.664   4.222
  241POPC   GL2 3317  10.197   9.579   4.322
  241POPC   C1A 3318   9.849   9.726   4.673
  241POPC   D2A 3319  10.179   9.596   4.973
  241POPC   C3A 3320  10.171   9.659   5.421
  241POPC   C4A 3321   9.880   9.582   5.790
  241POPC   C1B 3322  10.022   9.245   4.592
  241POPC   C2B 3323  10.090   9.071   4.991
  241POPC   C3B 3324  10.360   9.186   5.307
  241POPC   C4B 3325  10.193   9.179   5.705
  242POPC   NC3 3326   6.363   7.790   3.982
  242POPC   PO4 3327   6.288   8.388   4.083
  242POPC   GL1 3328   6.611   8.325   4.303
  242POPC   GL2 3329   6.539   8.018   4.404
  242POPC   C1A 3330   6.799   8.382   4.695
  242POPC   D2A 3331   6.914   8.192   5.077
  242POPC   C3A 3332   6.672   8.185   5.428
  242POPC   C4A 3333   6.746   8.064   5.829
  242POPC   C1B 3334   6.497   7.995   4.847
  242POPC   C2B 3335   6.540   7.749   5.205
  242POPC   C3B 3336   6.405   7.748   5.625
  242POPC   C4B 3337   6.555   7.595   6.026
  243POPC   NC3 3338   8.556   0.772   3.969
  243POPC   PO4 3339   8.573   1.473   3.995
  243POPC   GL1 3340   8.718   1.171   4.290
  243POPC   GL2 3341   8.961   1.400   4.354
  243POPC   C1A 3342   8.881   1.023   4.701
  243POPC   D2A 3343   8.654   1.003   5.097
  243POPC   C3A 3344   8.773   0.758   5.457
  243POPC   C4A 3345   8.687   0.915   5.848
  243POPC   C1B 3346   8.705   1.516   4.732
  243POPC   C2B 3347   8.810   1.483   5.171
  243POPC   C3B 3348   8.623   1.330   5.544
  243POPC   C4B 3349   8.568   1.407   5.990
  244POPC   NC3 3350   2.554   9.466   3.840
  244POPC   PO4 3351   2.921   8.960   4.063
  244POPC   GL1 3352   2.577   9.197   4.274
  244POPC   GL2 3353   2.793   9.451   4.302
  244POPC   C1A 3354   2.300   9.296   4.620
  244POPC   D2A 3355   2.345   9.057   5.021
  244POPC   C3A 3356   2.276   9.241   5.417
  244POPC   C4A 3357   2.473   9.290   5.827
  244POPC   C1B 3358   2.820   9.360   4.730
  244POPC   C2B 3359   2.840   9.565   5.117
  244POPC   C3B 3360   2.601   9.633   5.477
  244POPC   C4B 3361   2.714   9.741   5.912
  245POPC   NC3 3362   5.779   8.601   4.024
  245POPC   PO4 3363   5.298   8.246   4.089
  245POPC   GL1 3364   5.301   8.660   4.303
  245POPC   GL2 3365   5.590   8.829   4.433
  245POPC   C1A 3366   5.245   8.712   4.758
  245POPC   D2A 3367   5.440   8.501   5.087
  245POPC   C3A 3368   5.299   8.651   5.440
  245POPC   C4A 3369   5.448   8.684   5.841
  245POPC   C1B 3370   5.795   8.656   4.743
  245POPC   C2B 3371   5.953   8.602   5.149
  245POPC   C3B 3372   5.812   8.477   5.527
  245POPC   C4B 3373   5.974   8.690   5.872
  246POPC   NC3 3374   9.481   3.038   3.819
  246POPC   PO4 3375   9.729   3.648   4.061
  246POPC   GL1 3376   9.462   3.416   4.351
  246POPC   GL2 3377   9.387   3.043   4.324
  246POPC   C1A 3378   9.431   3.571   4.758
  246POPC   D2A 3379   9.741   3.706   5.037
  246POPC   C3A 3380   9.610   3.689   5.476
  246POPC   C4A 3381   9.541   3.478   5.876
  246POPC   C1B 3382   9.526   3.043   4.760
  246POPC   C2B 3383   9.537   3.240   5.179
  246POPC   C3B 3384   9.282   3.161   5.549
  246POPC   C4B 3385   9.085   3.241   5.950
  247POPC   NC3 3386   0.200   1.794   3.823
  247POPC   PO4 3387   0.821   1.859   4.029
  247POPC   GL1 3388   0.615   1.606   4.332
  247POPC   GL2 3389   0.252   1.692   4.322
  247POPC   C1A 3390   0.512   1.707   4.753
  247POPC   D2A 3391   0.512   1.932   5.099
  247POPC   C3A 3392   0.586   1.707   5.436
  247POPC   C4A 3393   0.760   1.638   5.820
  247POPC   C1B 3394   0.242   2.109   4.585
  247POPC   C2B 3395   0.096   2.203   5.021
  247POPC   C3B 3396   0.230   2.173   5.448
  247POPC   C4B 3397   0.350   1.953   5.814
  248POPC   NC3 3398   9.528   0.133   3.744
  248POPC   PO4 3399   9.045   0.650   3.981
  248POPC   GL1 3400   9.109   0.625   4.418
  248POPC   GL2 3401   9.400   0.410   4.439
  248POPC   C1A 3402   9.292   0.727   4.805
  248POPC   D2A 3403   9.151   0.892   5.143
  248POPC   C3A 3404   9.332   0.724   5.537
  248POPC   C4A 3405   9.745   0.755   5.763
  248POPC   C1B 3406   9.358   0.116   4.772
  248POPC   C2B 3407   9.540   0.020   5.151
  248POPC   C3B 3408   9.457   0.206   5.559
  248POPC   C4B 3409   9.236   0.213   5.927
  249POPC   NC3 3410   8.592   3.269   3.889
  249POPC   PO4 3411   8.860   3.920   3.792
  249POPC   GL1 3412   8.788   3.644   4.195
  249POPC   GL2 3413   8.964   3.337   4.243
  249POPC   C1A 3414   8.591   3.388   4.573
  249POPC   D2A 3415   8.605   3.225   5.014
  249POPC   C3A 3416   8.416   3.537   5.295
  249POPC   C4A 3417   8.358   3.723   5.670
  249POPC   C1B 3418   9.053   3.227   4.682
  249POPC   C2B 3419   9.084   3.410   5.100
  249POPC   C3B 3420   8.866   3.437   5.495
  249POPC   C4B 3421   8.513   3.219   5.695
  250POPC   NC3 3422  10.232   5.733   3.869
  250POPC   PO4 3423   0.300   5.564   3.998
  250POPC   GL1 3424   0.113   5.580   4.398
  250POPC   GL2 3425  10.325   5.774   4.361
  250POPC   C1A 3426  10.484   5.562   4.830
  250POPC   D2A 3427   0.015   5.339   5.212
  250POPC   C3A 3428  10.245   5.536   5.492
  250POPC   C4A 3429  10.446   5.747   5.792
  250POPC   C1B 3430  10.081   5.868   4.680
  250POPC   C2B 3431  10.093   5.828   5.068
  250POPC   C3B 3432   9.751   5.865   5.365
  250POPC   C4B 3433   9.845   5.764   5.781
  251POPC   NC3 3434   9.190   9.781   3.765
  251POPC   PO4 3435   9.540   9.188   3.867
  251POPC   GL1 3436   9.360   9.490   4.167
  251POPC   GL2 3437   9.226   9.174   4.271
  251POPC   C1A 3438   9.321   9.661   4.616
  251POPC   D2A 3439   9.333   9.880   5.026
  251POPC   C3A 3440   9.478   9.713   5.389
  251POPC   C4A 3441   9.433   9.845   5.801
  251POPC   C1B 3442   9.505   9.211   4.623
  251POPC   C2B 3443   9.666   9.398   4.988
  251POPC   C3B 3444   9.805   9.321   5.357
  251POPC   C4B 3445   9.507   9.273   5.673
  252POPC   NC3 3446   3.093   5.510   4.033
  252POPC   PO4 3447   2.449   5.503   3.941
  252POPC   GL1 3448   2.625   5.573   4.302
  252POPC   GL2 3449   2.596   5.915   4.413
  252POPC   C1A 3450   2.662   5.453   4.725
  252POPC   D2A 3451   2.411   5.393   5.079
  252POPC   C3A 3452   2.646   5.316   5.487
  252POPC   C4A 3453   2.601   5.366   5.949
  252POPC   C1B 3454   2.547   5.934   4.867
  252POPC   C2B 3455   2.747   5.757   5.231
  252POPC   C3B 3456   2.812   5.773   5.675
  252POPC   C4B 3457   2.830   6.149   5.953
  253POPC   NC3 3458   2.098   3.520   3.777
  253POPC   PO4 3459   1.498   3.331   4.070
  253POPC   GL1 3460   1.892   3.252   4.221
  253POPC   GL2 3461   1.942   3.564   4.323
  253POPC   C1A 3462   1.942   3.161   4.664
  253POPC   D2A 3463   1.719   3.243   5.069
  253POPC   C3A 3464   1.903   3.200   5.473
  253POPC   C4A 3465   2.134   3.497   5.707
  253POPC   C1B 3466   1.837   3.652   4.758
  253POPC   C2B 3467   2.088   3.596   5.145
  253POPC   C3B 3468   1.762   3.706   5.401
  253POPC   C4B 3469   1.668   3.683   5.804
  254POPC   NC3 3470   0.279   4.207   3.805
  254POPC   PO4 3471   0.907   4.176   3.870
  254POPC   GL1 3472   0.566   4.263   4.222
  254POPC   GL2 3473   0.218   4.147   4.281
  254POPC   C1A 3474   0.457   4.381   4.659
  254POPC   D2A 3475   0.235   4.365   5.041
  254POPC   C3A 3476   0.400   4.440   5.432
  254POPC   C4A 3477   0.394   4.258   5.808
  254POPC   C1B 3478   0.413   3.876   4.563
  254POPC   C2B 3479   0.520   3.924   4.991
  254POPC   C3B 3480   0.331   3.935   5.405
  254POPC   C4B 3481   0.005   3.904   5.770
  255POPC   NC3 3482   5.030   1.272   3.898
  255POPC   PO4 3483   4.631   0.796   3.647
  255POPC   GL1 3484   4.708   0.980   4.098
  255POPC   GL2 3485   4.993   0.870   4.242
  255POPC   C1A 3486   4.752   1.215   4.513
  255POPC   D2A 3487   4.677   1.277   4.954
  255POPC   C3A 3488   4.570   1.008   5.292
  255POPC   C4A 3489   4.509   1.229   5.699
  255POPC   C1B 3490   5.062   0.820   4.679
  255POPC   C2B 3491   5.108   1.029   5.086
  255POPC   C3B 3492   4.972   1.265   5.441
  255POPC   C4B 3493   4.983   1.013   5.795
  256POPC   NC3 3494   8.176   8.756   3.804
  256POPC   PO4 3495   7.699   8.353   3.980
  256POPC   GL1 3496   7.862   8.393   4.340
  256POPC   GL2 3497   7.962   8.743   4.280
  256POPC   C1A 3498   7.830   8.263   4.764
  256POPC   D2A 3499   8.077   8.336   5.132
  256POPC   C3A 3500   7.805   8.354   5.482
  256POPC   C4A 3501   7.762   8.525   5.857
  256POPC   C1B 3502   8.106   8.679   4.710
  256POPC   C2B 3503   8.197   8.904   5.112
  256POPC   C3B 3504   8.065   8.800   5.550
  256POPC   C4B 3505   8.067   8.870   6.040
  257POPC   NC3 3506   2.790   4.422   3.642
  257POPC   PO4 3507   2.345   4.682   4.054
  257POPC   GL1 3508   2.253   4.464   4.437
  257POPC   GL2 3509   2.507   4.220   4.345
  257POPC   C1A 3510   2.249   4.506   4.906
  257POPC   D2A 3511   2.581   4.524   5.208
  257POPC   C3A 3512   2.628   4.282   5.568
  257POPC   C4A 3513   2.586   4.427   5.997
  257POPC   C1B 3514   2.660   4.243   4.774
  257POPC   C2B 3515   2.977   4.172   5.084
  257POPC   C3B 3516   3.139   4.246   5.501
  257POPC   C4B 3517   3.000   4.148   5.918
  258POPC   NC3 3518   5.718   1.316   3.820
  258POPC   PO4 3519   5.370   0.839   3.926
  258POPC   GL1 3520   5.406   1.193   4.231
  258POPC   GL2 3521   5.748   1.264   4.322
  258POPC   C1A 3522   5.314   1.271   4.669
  258POPC   D2A 3523   5.607   1.262   5.052
  258POPC   C3A 3524   5.465   1.286   5.497
  258POPC   C4A 3525   5.341   1.356   5.978
  258POPC   C1B 3526   5.799   0.961   4.640
  258POPC   C2B 3527   6.054   0.969   5.012
  258POPC   C3B 3528   5.949   1.076   5.442
  258POPC   C4B 3529   5.794   1.116   5.856
  259POPC   NC3 3530   9.269   5.829   4.123
  259POPC   PO4 3531   9.799   5.666   3.724
  259POPC   GL1 3532   9.705   5.654   4.344
  259POPC   GL2 3533   9.392   5.511   4.507
  259POPC   C1A 3534   9.673   5.642   4.861
  259POPC   D2A 3535   9.857   5.391   5.140
  259POPC   C3A 3536   9.647   5.372   5.483
  259POPC   C4A 3537   9.697   5.164   5.842
  259POPC   C1B 3538   9.232   5.900   4.755
  259POPC   C2B 3539   9.245   5.785   5.182
  259POPC   C3B 3540   9.228   5.884   5.599
  259POPC   C4B 3541   9.370   5.554   5.869
  260POPC   NC3 3542   6.112   9.272   3.894
  260POPC   PO4 3543   5.519   9.019   3.982
  260POPC   GL1 3544   5.760   9.267   4.257
  260POPC   GL2 3545   5.580   9.525   4.312
  260POPC   C1A 3546   5.804   9.191   4.715
  260POPC   D2A 3547   5.601   8.997   5.075
  260POPC   C3A 3548   5.719   8.993   5.508
  260POPC   C4A 3549   5.682   9.114   5.944
  260POPC   C1B 3550   5.546   9.617   4.749
  260POPC   C2B 3551   5.397   9.485   5.171
  260POPC   C3B 3552   5.483   9.475   5.637
  260POPC   C4B 3553   5.757   9.782   5.862
  261POPC   NC3 3554   9.402   6.939   3.929
  261POPC   PO4 3555   9.731   7.538   3.821
  261POPC   GL1 3556   9.558   7.616   4.230
  261POPC   GL2 3557   9.381   7.318   4.302
  261POPC   C1A 3558   9.655   7.475   4.670
  261POPC   D2A 3559   9.772   7.404   5.089
  261POPC   C3A 3560   9.532   7.195   5.378
  261POPC   C4A 3561   9.603   7.244   5.804
  261POPC   C1B 3562   9.147   7.402   4.686
  261POPC   C2B 3563   9.276   7.095   4.952
  261POPC   C3B 3564   9.186   6.815   5.289
  261POPC   C4B 3565   9.185   6.953   5.684
  262POPC   NC3 3566   2.687   1.844   3.699
  262POPC   PO4 3567   2.934   2.443   3.986
  262POPC   GL1 3568   2.910   2.233   4.464
  262POPC   GL2 3569   2.790   1.856   4.553
  262POPC   C1A 3570   2.759   2.169   4.924
  262POPC   D2A 3571   3.056   2.303   5.201
  262POPC   C3A 3572   2.983   2.117   5.615
  262POPC   C4A 3573   2.802   2.067   6.014
  262POPC   C1B 3574   2.450   1.718   4.746
  262POPC   C2B 3575   2.295   1.943   5.085
  262POPC   C3B 3576   2.512   1.985   5.446
  262POPC   C4B 3577   2.461   1.735   5.772
  263POPC   NC3 3578   4.146   1.960   3.909
  263POPC   PO4 3579   4.648   1.530   3.905
  263POPC   GL1 3580   4.310   1.617   4.286
  263POPC   GL2 3581   4.257   1.990   4.384
  263POPC   C1A 3582   4.098   1.699   4.751
  263POPC   D2A 3583   3.904   1.948   5.117
  263POPC   C3A 3584   3.879   1.785   5.523
  263POPC   C4A 3585   4.230   1.652   5.718
  263POPC   C1B 3586   4.473   2.191   4.722
  263POPC   C2B 3587   4.423   1.993   5.112
  263POPC   C3B 3588   4.331   2.121   5.528
  263POPC   C4B 3589   4.579   2.412   5.793
  264POPC   NC3 3590   2.937  10.191   3.989
  264POPC   PO4 3591   2.330   0.057   3.900
  264POPC   GL1 3592   2.524  10.287   4.270
  264POPC   GL2 3593   2.562   9.904   4.202
  264POPC   C1A 3594   2.809  10.330   4.673
  264POPC   D2A 3595   2.775  10.490   5.117
  264POPC   C3A 3596   3.010  10.376   5.506
  264POPC   C4A 3597   2.895  10.207   5.895
  264POPC   C1B 3598   2.491   9.794   4.643
  264POPC   C2B 3599   2.566  10.002   5.054
  264POPC   C3B 3600   2.543  10.144   5.490
  264POPC   C4B 3601   2.378  10.123   5.927
  265POPC   NC3 3602   4.286   0.399   3.714
  265POPC   PO4 3603   3.762   0.821   3.835
  265POPC   GL1 3604   3.902   0.659   4.245
  265POPC   GL2 3605   4.041   0.295   4.258
  265POPC   C1A 3606   3.826   0.641   4.702
  265POPC   D2A 3607   3.590   0.482   5.084
  265POPC   C3A 3608   3.808   0.475   5.487
  265POPC   C4A 3609   3.803   0.772   5.817
  265POPC   C1B 3610   4.239   0.348   4.679
  265POPC   C2B 3611   4.072   0.245   5.052
  265POPC   C3B 3612   4.222   0.098   5.404
  265POPC   C4B 3613   4.241   0.293   5.783
  266POPC   NC3 3614   1.283   6.968   3.878
  266POPC   PO4 3615   0.909   7.420   4.051
  266POPC   GL1 3616   1.065   7.098   4.312
  266POPC   GL2 3617   1.399   7.255   4.353
  266POPC   C1A 3618   1.302   6.849   4.611
  266POPC   D2A 3619   1.303   6.706   5.029
  266POPC   C3A 3620   1.202   6.877   5.440
  266POPC   C4A 3621   1.296   6.945   5.871
  266POPC   C1B 3622   1.187   7.309   4.778
  266POPC   C2B 3623   1.299   7.325   5.209
  266POPC   C3B 3624   1.232   7.376   5.646
  266POPC   C4B 3625   0.854   7.585   5.849
  267POPC   NC3 3626   7.885   2.249   3.840
  267POPC   PO4 3627   8.221   2.879   3.915
  267POPC   GL1 3628   8.115   2.556   4.231
  267POPC   GL2 3629   7.748   2.534   4.263
  267POPC   C1A 3630   8.094   2.383   4.650
  267POPC   D2A 3631   8.162   2.675   5.000
  267POPC   C3A 3632   8.093   2.519   5.409
  267POPC   C4A 3633   7.814   2.473   5.744
  267POPC   C1B 3634   7.743   2.752   4.655
  267POPC   C2B 3635   7.665   2.849   5.072
  267POPC   C3B 3636   7.775   2.899   5.463
  267POPC   C4B 3637   7.722   2.979   5.854
  268POPC   NC3 3638   1.668   9.323   3.855
  268POPC   PO4 3639   1.603   9.996   3.654
  268POPC   GL1 3640   1.864   9.867   4.110
  268POPC   GL2 3641   2.008   9.527   4.189
  268POPC   C1A 3642   1.963   9.763   4.620
  268POPC   D2A 3643   2.173   9.619   5.038
  268POPC   C3A 3644   1.908   9.591   5.433
  268POPC   C4A 3645   2.030   9.605   5.894
  268POPC   C1B 3646   1.770   9.277   4.509
  268POPC   C2B 3647   1.863   9.212   4.927
  268POPC   C3B 3648   1.729   9.115   5.313
  268POPC   C4B 3649   1.882   9.144   5.722
  269POPC   NC3 3650   9.069   1.627   3.889
  269POPC   PO4 3651   9.049   2.330   3.797
  269POPC   GL1 3652   8.871   2.230   4.236
  269POPC   GL2 3653   8.697   1.880   4.312
  269POPC   C1A 3654   8.828   2.210   4.693
  269POPC   D2A 3655   8.762   2.006   5.080
  269POPC   C3A 3656   8.745   2.218   5.481
  269POPC   C4A 3657   8.674   1.849   5.756
  269POPC   C1B 3658   8.398   1.957   4.700
  269POPC   C2B 3659   8.281   2.171   5.091
  269POPC   C3B 3660   8.261   2.055   5.529
  269POPC   C4B 3661   8.252   2.234   5.929
  270POPC   NC3 3662   2.835   2.889   3.921
  270POPC   PO4 3663   2.405   2.459   4.293
  270POPC   GL1 3664   2.535   2.830   4.342
  270POPC   GL2 3665   2.888   2.778   4.403
  270POPC   C1A 3666   2.458   3.007   4.719
  270POPC   D2A 3667   2.212   3.070   5.078
  270POPC   C3A 3668   2.315   2.869   5.420
  270POPC   C4A 3669   2.368   3.017   5.830
  270POPC   C1B 3670   2.802   2.643   4.786
  270POPC   C2B 3671   2.742   2.762   5.163
  270POPC   C3B 3672   2.663   2.491   5.474
  270POPC   C4B 3673   2.710   2.559   5.856
  271POPC   NC3 3674  10.118   8.690   3.622
  271POPC   PO4 3675  10.159   8.069   3.736
  271POPC   GL1 3676  10.094   8.381   4.116
  271POPC   GL2 3677  10.209   8.722   4.154
  271POPC   C1A 3678   9.974   8.355   4.568
  271POPC   D2A 3679  10.035   8.541   5.002
  271POPC   C3A 3680   9.943   8.354   5.375
  271POPC   C4A 3681   9.866   8.430   5.777
  271POPC   C1B 3682  10.283   8.784   4.613
  271POPC   C2B 3683   0.019   8.764   5.026
  271POPC   C3B 3684  10.361   8.697   5.471
  271POPC   C4B 3685  10.258   8.729   5.922
  272POPC   NC3 3686   8.873   4.735   3.931
  272POPC   PO4 3687   9.161   5.378   4.112
  272POPC   GL1 3688   8.783   5.244   4.345
  272POPC   GL2 3689   8.733   4.918   4.360
  272POPC   C1A 3690   8.616   5.149   4.778
  272POPC   D2A 3691   8.895   5.042   5.097
  272POPC   C3A 3692   8.683   5.057   5.440
  272POPC   C4A 3693   8.780   4.838   5.789
  272POPC   C1B 3694   8.815   4.669   4.710
  272POPC   C2B 3695   8.583   4.667   5.040
  272POPC   C3B 3696   8.551   4.563   5.394
  272POPC   C4B 3697   8.307   4.758   5.665
  273POPC   NC3 3698  10.246   2.902   3.825
  273POPC   PO4 3699   9.703   2.631   3.923
  273POPC   GL1 3700  10.049   2.679   4.262
  273POPC   GL2 3701  10.377   2.587   4.214
  273POPC   C1A 3702  10.004   2.855   4.699
  273POPC   D2A 3703   9.941   2.959   5.151
  273POPC   C3A 3704   9.864   3.181   5.579
  273POPC   C4A 3705   9.913   2.869   5.930
  273POPC   C1B 3706  10.402   2.521   4.674
  273POPC   C2B 3707  10.176   2.519   5.083
  273POPC   C3B 3708  10.135   2.571   5.531
  273POPC   C4B 3709  10.405   2.285   5.807
  274POPC   NC3 3710   0.257   0.942   3.789
  274POPC   PO4 3711   0.879   0.989   4.049
  274POPC   GL1 3712   0.668   0.934   4.457
  274POPC   GL2 3713   0.357   0.946   4.297
  274POPC   C1A 3714   0.612   0.933   4.932
  274POPC   D2A 3715   0.251   0.842   5.216
  274POPC   C3A 3716   0.309   0.813   5.669
  274POPC   C4A 3717   0.657   0.969   5.831
  274POPC   C1B 3718   0.306   1.264   4.624
  274POPC   C2B 3719   0.327   1.350   5.067
  274POPC   C3B 3720   0.357   1.267   5.467
  274POPC   C4B 3721   0.333   1.403   5.835
  275POPC   NC3 3722   4.305   9.654   3.788
  275POPC   PO4 3723   4.277  10.418   3.712
  275POPC   GL1 3724   4.168  10.287   4.147
  275POPC   GL2 3725   3.853  10.240   4.307
  275POPC   C1A 3726   4.310  10.341   4.590
  275POPC   D2A 3727   4.559   0.012   4.948
  275POPC   C3A 3728   4.667  10.334   5.389
  275POPC   C4A 3729   4.429  10.307   5.782
  275POPC   C1B 3730   3.937  10.001   4.684
  275POPC   C2B 3731   4.150  10.173   5.073
  275POPC   C3B 3732   4.039  10.094   5.509
  275POPC   C4B 3733   3.995  10.120   5.987
  276POPC   NC3 3734   6.535   8.780   4.075
  276POPC   PO4 3735   6.544   9.439   3.937
  276POPC   GL1 3736   6.561   9.231   4.314
  276POPC   GL2 3737   6.249   9.265   4.429
  276POPC   C1A 3738   6.662   9.226   4.779
  276POPC   D2A 3739   6.382   9.474   5.043
  276POPC   C3A 3740   6.432   9.503   5.482
  276POPC   C4A 3741   6.705   9.459   5.781
  276POPC   C1B 3742   6.062   9.626   4.643
  276POPC   C2B 3743   5.904   9.679   5.089
  276POPC   C3B 3744   5.945   9.460   5.483
  276POPC   C4B 3745   6.165   9.195   5.797
  277POPC   NC3 3746   1.336   5.331   3.940
  277POPC   PO4 3747   1.043   5.951   4.006
  277POPC   GL1 3748   1.050   5.572   4.284
  277POPC   GL2 3749   1.412   5.581   4.357
  277POPC   C1A 3750   1.101   5.324   4.688
  277POPC   D2A 3751   0.927   5.555   5.040
  277POPC   C3A 3752   1.084   5.431   5.454
  277POPC   C4A 3753   0.883   5.757   5.698
  277POPC   C1B 3754   1.303   5.793   4.697
  277POPC   C2B 3755   1.421   5.644   5.089
  277POPC   C3B 3756   1.264   5.878   5.382
  277POPC   C4B 3757   1.397   5.926   5.751
  278POPC   NC3 3758   1.155   3.839   3.695
  278POPC   PO4 3759   1.486   4.254   4.096
  278POPC   GL1 3760   1.252   4.169   4.399
  278POPC   GL2 3761   1.004   4.425   4.405
  278POPC   C1A 3762   1.410   4.168   4.815
  278POPC   D2A 3763   1.336   4.401   5.183
  278POPC   C3A 3764   1.390   4.080   5.491
  278POPC   C4A 3765   1.311   4.017   5.932
  278POPC   C1B 3766   0.910   4.220   4.798
  278POPC   C2B 3767   0.839   4.251   5.231
  278POPC   C3B 3768   0.907   4.285   5.656
  278POPC   C4B 3769   0.804   4.030   5.997
  279POPC   NC3 3770  10.064   1.634   3.993
  279POPC   PO4 3771   0.116   2.224   3.930
  279POPC   GL1 3772  10.369   2.017   4.190
  279POPC   GL2 3773  10.080   2.163   4.211
  279POPC   C1A 3774  10.320   1.819   4.587
  279POPC   D2A 3775  10.396   1.595   4.965
  279POPC   C3A 3776   0.073   1.705   5.342
  279POPC   C4A 3777  10.423   1.709   5.741
  279POPC   C1B 3778   9.996   2.219   4.635
  279POPC   C2B 3779  10.124   2.015   5.016
  279POPC   C3B 3780  10.198   2.076   5.404
  279POPC   C4B 3781   9.982   1.962   5.771
  280POPC   NC3 3782   9.268   3.997   4.003
  280POPC   PO4 3783   9.847   4.100   3.656
  280POPC   GL1 3784   9.719   4.174   4.150
  280POPC   GL2 3785   9.586   4.486   4.231
  280POPC   C1A 3786   9.456   4.085   4.607
  280POPC   D2A 3787   9.292   4.005   5.051
  280POPC   C3A 3788   9.450   4.217   5.438
  280POPC   C4A 3789   9.557   4.043   5.860
  280POPC   C1B 3790   9.493   4.610   4.663
  280POPC   C2B 3791   9.241   4.560   5.014
  280POPC   C3B 3792   9.051   4.642   5.388
  280POPC   C4B 3793   9.104   4.439   5.770
  281POPC   NC3 3794   2.616   7.934   3.807
  281POPC   PO4 3795   2.133   8.345   4.043
  281POPC   GL1 3796   2.446   8.015   4.282
  281POPC   GL2 3797   2.531   7.634   4.208
  281POPC   C1A 3798   2.657   8.109   4.688
  281POPC   D2A 3799   2.761   8.166   5.145
  281POPC   C3A 3800   2.415   8.144   5.447
  281POPC   C4A 3801   2.357   7.943   5.845
  281POPC   C1B 3802   2.810   7.638   4.584
  281POPC   C2B 3803   2.744   7.668   4.988
  281POPC   C3B 3804   2.642   7.698   5.401
  281POPC   C4B 3805   2.730   7.592   5.804
  282POPC   NC3 3806   0.651   6.197   3.966
  282POPC   PO4 3807   0.246   6.669   4.067
  282POPC   GL1 3808   0.459   6.485   4.381
  282POPC   GL2 3809   0.690   6.738   4.381
  282POPC   C1A 3810   0.370   6.525   4.820
  282POPC   D2A 3811   0.264   6.240   5.139
  282POPC   C3A 3812   0.099   6.365   5.542
  282POPC   C4A 3813   0.340   6.592   5.762
  282POPC   C1B 3814   0.882   6.609   4.740
  282POPC   C2B 3815   0.809   6.520   5.142
  282POPC   C3B 3816   0.702   6.751   5.458
  282POPC   C4B 3817   0.862   6.689   5.855
  283POPC   NC3 3818  10.086   7.658   3.568
  283POPC   PO4 3819  10.430   7.617   4.112
  283POPC   GL1 3820  10.064   7.636   4.368
  283POPC   GL2 3821  10.008   7.910   4.265
  283POPC   C1A 3822   9.903   7.884   4.756
  283POPC   D2A 3823  10.080   7.932   5.134
  283POPC   C3A 3824  10.116   7.594   5.407
  283POPC   C4A 3825  10.318   7.421   5.738
  283POPC   C1B 3826  10.364   8.031   4.579
  283POPC   C2B 3827  10.468   8.249   4.935
  283POPC   C3B 3828  10.441   8.211   5.363
  283POPC   C4B 3829  10.170   8.020   5.686
  284POPC   NC3 3830   8.448   7.081   4.153
  284POPC   PO4 3831   8.965   6.944   3.746
  284POPC   GL1 3832   8.942   7.096   4.201
  284POPC   GL2 3833   8.811   7.419   4.310
  284POPC   C1A 3834   8.842   6.982   4.666
  284POPC   D2A 3835   8.762   7.066   5.116
  284POPC   C3A 3836   9.042   7.321   5.358
  284POPC   C4A 3837   9.151   7.460   5.772
  284POPC   C1B 3838   8.563   7.424   4.738
  284POPC   C2B 3839   8.320   7.308   5.146
  284POPC   C3B 3840   8.424   7.158   5.529
  284POPC   C4B 3841   8.640   7.520   5.580
  285POPC   NC3 3842   6.462   0.300   3.944
  285POPC   PO4 3843   6.099   1.019   3.928
  285POPC   GL1 3844   6.240   0.627   4.252
  285POPC   GL2 3845   6.627   0.508   4.353
  285POPC   C1A 3846   6.119   0.493   4.688
  285POPC   D2A 3847   5.978   0.478   5.142
  285POPC   C3A 3848   6.262   0.677   5.441
  285POPC   C4A 3849   6.178   0.677   5.869
  285POPC   C1B 3850   6.600   0.274   4.693
  285POPC   C2B 3851   6.530   0.468   5.054
  285POPC   C3B 3852   6.594   0.284   5.436
  285POPC   C4B 3853   6.568   0.360   5.828
  286POPC   NC3 3854   4.499   9.369   4.190
  286POPC   PO4 3855   3.926   9.802   3.970
  286POPC   GL1 3856   4.239   9.797   4.295
  286POPC   GL2 3857   4.140   9.503   4.517
  286POPC   C1A 3858   4.439   9.851   4.694
  286POPC   D2A 3859   4.217   9.663   5.021
  286POPC   C3A 3860   4.430   9.808   5.367
  286POPC   C4A 3861   4.281   9.714   5.760
  286POPC   C1B 3862   4.249   9.147   4.776
  286POPC   C2B 3863   4.132   8.994   5.167
  286POPC   C3B 3864   4.260   9.231   5.524
  286POPC   C4B 3865   3.975   9.310   5.868
  287POPC   NC3 3866   8.466   4.068   3.974
  287POPC   PO4 3867   9.050   4.374   4.177
  287POPC   GL1 3868   8.636   4.425   4.279
  287POPC   GL2 3869   8.700   4.085   4.427
  287POPC   C1A 3870   8.369   4.405   4.625
  287POPC   D2A 3871   8.580   4.186   4.925
  287POPC   C3A 3872   8.381   4.082   5.300
  287POPC   C4A 3873   8.455   4.213   5.720
  287POPC   C1B 3874   8.916   3.780   4.703
  287POPC   C2B 3875   8.814   3.814   5.138
  287POPC   C3B 3876   8.889   4.131   5.414
  287POPC   C4B 3877   9.083   3.936   5.751
  288POPC   NC3 3878   8.206   1.498   3.697
  288POPC   PO4 3879   8.281   2.107   4.023
  288POPC   GL1 3880   7.875   2.043   4.319
  288POPC   GL2 3881   7.911   1.773   4.557
  288POPC   C1A 3882   7.640   2.136   4.720
  288POPC   D2A 3883   7.764   2.340   5.055
  288POPC   C3A 3884   7.776   2.073   5.384
  288POPC   C4A 3885   7.541   2.044   5.734
  288POPC   C1B 3886   7.977   1.790   4.963
  288POPC   C2B 3887   8.328   1.653   5.215
  288POPC   C3B 3888   8.185   1.547   5.633
  288POPC   C4B 3889   7.978   1.808   5.905
  289POPC   NC3 3890   9.505   2.200   3.733
  289POPC   PO4 3891   9.489   1.463   3.755
  289POPC   GL1 3892   9.439   1.545   4.240
  289POPC   GL2 3893   9.245   1.881   4.276
  289POPC   C1A 3894   9.653   1.716   4.625
  289POPC   D2A 3895   9.640   1.996   4.950
  289POPC   C3A 3896   9.615   1.800   5.326
  289POPC   C4A 3897   9.513   1.749   5.724
  289POPC   C1B 3898   9.127   1.778   4.642
  289POPC   C2B 3899   9.202   1.760   5.029
  289POPC   C3B 3900   9.102   1.845   5.451
  289POPC   C4B 3901   9.244   2.219   5.709
  290POPC   NC3 3902   3.287   8.527   3.680
  290POPC   PO4 3903   3.009   7.863   4.025
  290POPC   GL1 3904   3.316   7.853   4.356
  290POPC   GL2 3905   3.354   7.514   4.351
  290POPC   C1A 3906   3.405   8.174   4.730
  290POPC   D2A 3907   3.273   8.232   5.176
  290POPC   C3A 3908   3.509   8.139   5.563
  290POPC   C4A 3909   3.801   8.116   5.923
  290POPC   C1B 3910   3.279   7.671   4.815
  290POPC   C2B 3911   3.423   7.713   5.234
  290POPC   C3B 3912   3.173   7.767   5.595
  290POPC   C4B 3913   2.885   8.082   5.667
  291POPC   NC3 3914   0.360   5.114   3.944
  291POPC   PO4 3915   0.066   4.561   3.987
  291POPC   GL1 3916   0.251   4.698   4.312
  291POPC   GL2 3917   0.254   5.081   4.436
  291POPC   C1A 3918   0.046   4.689   4.682
  291POPC   D2A 3919   0.160   4.880   5.017
  291POPC   C3A 3920   0.022   4.805   5.416
  291POPC   C4A 3921   0.167   5.151   5.688
  291POPC   C1B 3922   0.598   4.887   4.629
  291POPC   C2B 3923   0.635   4.693   5.025
  291POPC   C3B 3924   0.549   4.913   5.404
  291POPC   C4B 3925   0.654   4.742   5.786
  292POPC   NC3 3926   0.950   8.615   3.873
  292POPC   PO4 3927   0.674   9.175   3.966
  292POPC   GL1 3928   0.898   8.931   4.282
  292POPC   GL2 3929   1.269   8.893   4.306
  292POPC   C1A 3930   0.935   8.701   4.684
  292POPC   D2A 3931   0.700   8.642   5.086
  292POPC   C3A 3932   0.929   8.651   5.477
  292POPC   C4A 3933   0.890   8.890   5.860
  292POPC   C1B 3934   1.443   8.893   4.736
  292POPC   C2B 3935   1.406   8.604   5.104
  292POPC   C3B 3936   1.598   8.661   5.506
  292POPC   C4B 3937   1.382   9.003   5.706
  293POPC   NC3 3938   7.937   9.791   3.918
  293POPC   PO4 3939   7.997   9.190   3.753
  293POPC   GL1 3940   7.984   9.281   4.211
  293POPC   GL2 3941   7.863   9.605   4.371
  293POPC   C1A 3942   8.103   9.190   4.663
  293POPC   D2A 3943   8.136   9.474   5.057
  293POPC   C3A 3944   8.201   9.290   5.473
  293POPC   C4A 3945   8.211   9.693   5.699
  293POPC   C1B 3946   7.694   9.481   4.735
  293POPC   C2B 3947   7.717   9.231   5.102
  293POPC   C3B 3948   7.780   9.549   5.458
  293POPC   C4B 3949   7.808   9.310   5.830
  294POPC   NC3 3950   3.470   1.231   3.802
  294POPC   PO4 3951   3.099   0.883   4.242
  294POPC   GL1 3952   3.489   1.047   4.324
  294POPC   GL2 3953   3.551   1.435   4.278
  294POPC   C1A 3954   3.482   1.031   4.768
  294POPC   D2A 3955   3.722   0.976   5.111
  294POPC   C3A 3956   3.467   0.859   5.431
  294POPC   C4A 3957   3.388   1.062   5.821
  294POPC   C1B 3958   3.580   1.569   4.681
  294POPC   C2B 3959   3.681   1.489   5.081
  294POPC   C3B 3960   3.610   1.352   5.469
  294POPC   C4B 3961   3.498   1.540   5.849
  295POPC   NC3 3962   3.241   8.259   4.083
  295POPC   PO4 3963   3.519   8.882   3.859
  295POPC   GL1 3964   3.537   8.677   4.246
  295POPC   GL2 3965   3.216   8.678   4.377
  295POPC   C1A 3966   3.633   8.727   4.667
  295POPC   D2A 3967   3.476   8.792   5.051
  295POPC   C3A 3968   3.529   8.614   5.420
  295POPC   C4A 3969   3.133   8.520   5.593
  295POPC   C1B 3970   3.215   9.030   4.675
  295POPC   C2B 3971   3.193   9.205   5.079
  295POPC   C3B 3972   3.243   9.015   5.465
  295POPC   C4B 3973   3.513   9.103   5.767
  296POPC   NC3 3974   2.930   7.328   4.036
  296POPC   PO4 3975   3.482   7.060   4.072
  296POPC   GL1 3976   3.135   7.039   4.410
  296POPC   GL2 3977   2.791   6.891   4.287
  296POPC   C1A 3978   3.079   7.207   4.849
  296POPC   D2A 3979   3.035   7.374   5.300
  296POPC   C3A 3980   3.047   7.195   5.760
  296POPC   C4A 3981   2.932   7.192   6.237
  296POPC   C1B 3982   2.621   7.174   4.619
  296POPC   C2B 3983   2.604   7.179   5.066
  296POPC   C3B 3984   2.591   7.199   5.508
  296POPC   C4B 3985   2.533   7.109   5.945
  297POPC   NC3 3986   1.454   6.229   3.968
  297POPC   PO4 3987   0.888   6.713   3.878
  297POPC   GL1 3988   1.136   6.536   4.230
  297POPC   GL2 3989   0.930   6.256   4.392
  297POPC   C1A 3990   1.365   6.349   4.619
  297POPC   D2A 3991   1.189   6.202   5.005
  297POPC   C3A 3992   1.347   6.369   5.402
  297POPC   C4A 3993   1.361   6.448   5.834
  297POPC   C1B 3994   0.726   6.113   4.787
  297POPC   C2B 3995   0.761   6.020   5.253
  297POPC   C3B 3996   0.915   6.251   5.620
  297POPC   C4B 3997   1.037   6.141   6.053
  298POPC   NC3 3998   0.727   5.633   3.861
  298POPC   PO4 3999   0.257   6.174   3.711
  298POPC   GL1 4000   0.226   6.053   4.189
  298POPC   GL2 4001   0.568   5.860   4.332
  298POPC   C1A 4002   0.220   6.021   4.655
  298POPC   D2A 4003   0.418   5.753   4.983
  298POPC   C3A 4004   0.235   5.802   5.380
  298POPC   C4A 4005   0.460   6.053   5.690
  298POPC   C1B 4006   0.605   5.459   4.586
  298POPC   C2B 4007   0.508   5.251   4.988
  298POPC   C3B 4008   0.571   5.417   5.408
  298POPC   C4B 4009   0.420   5.560   5.800
  299POPC   NC3 4010   1.313   0.575   3.667
  299POPC   PO4 4011   0.905   0.143   3.960
  299POPC   GL1 4012   1.209   0.191   4.295
  299POPC   GL2 4013   1.366   0.546   4.273
  299POPC   C1A 4014   1.048   0.272   4.714
  299POPC   D2A 4015   1.212   0.199   5.102
  299POPC   C3A 4016   1.143   0.311   5.519
  299POPC   C4A 4017   1.499   0.063   5.722
  299POPC   C1B 4018   1.396   0.637   4.702
  299POPC   C2B 4019   1.141   0.726   5.040
  299POPC   C3B 4020   1.263   0.841   5.436
  299POPC   C4B 4021   1.134   0.739   5.812
  300POPC   NC3 4022   3.946   8.736   3.957
  300POPC   PO4 4023   4.472   8.259   4.012
  300POPC   GL1 4024   4.148   8.431   4.305
  300POPC   GL2 4025   4.085   8.773   4.444
  300POPC   C1A 4026   3.913   8.325   4.678
  300POPC   D2A 4027   3.912   8.540   5.087
  300POPC   C3A 4028   3.972   8.351   5.485
  300POPC   C4A 4029   4.303   8.220   5.705
  300POPC   C1B 4030   4.326   8.625   4.799
  300POPC   C2B 4031   4.420   8.473   5.230
  300POPC   C3B 4032   4.326   8.718   5.598
  300POPC   C4B 4033   3.921   8.854   5.640
  301POPC   NC3 4034   9.775   1.100   3.681
  301POPC   PO4 4035  10.482   1.361   3.809
  301POPC   GL1 4036  10.408   1.273   4.283
  301POPC   GL2 4037  10.361   0.898   4.403
  301POPC   C1A 4038  10.093   1.355   4.628
  301POPC   D2A 4039   9.860   1.443   5.015
  301POPC   C3A 4040  10.059   1.588   5.399
  301POPC   C4A 4041   9.996   1.450   5.836
  301POPC   C1B 4042   0.110   0.796   4.725
  301POPC   C2B 4043  10.419   1.093   4.922
  301POPC   C3B 4044  10.370   1.201   5.317
  301POPC   C4B 4045  10.409   1.162   5.731
  302W        W 4046  10.381   3.617   8.981
  303W        W 4047   3.394   7.416   2.270
  304W        W 4048   8.001   2.752   1.850
  305W        W 4049   6.077   0.518   0.261
  306W        W 4050   9.037   2.357   8.533
  307W        W 4051   9.899   3.078   8.707
  308W        W 4052   8.190   5.498   9.716
  309W        W 4053   2.265   3.556   0.843
  310W        W 4054  10.016   3.169   0.997
  311W        W 4055   0.270   7.408  10.521
  312W        W 4056   5.254   1.890   2.184
  313W        W 4057   9.694   7.146   9.546
  314W        W 4058   9.911   7.960   8.991
  315W        W 4059   8.430   5.667   0.074
  316W        W 4060   8.936   0.838   3.229
  317W        W 4061   5.260   6.453   1.669
  318W        W 4062   8.003   6.164   1.484
  319W        W 4063   5.651  10.453  11.925
  320W        W 4064   6.513  10.336   1.440
  321W        W 4065   1.852   5.689  11.745
  322W        W 4066   3.515   6.671  11.482
  323W        W 4067   6.452   8.061   0.348
  324W        W 4068   8.962   7.679   9.836
  325W        W 4069   0.976   1.865   9.819
  326W        W 4070  10.277   1.808   9.114
  327W        W 4071   4.629   0.756  10.110
  328W        W 4072   9.999   8.578  10.909
  329W        W 4073   9.754   2.265   0.755
  330W        W 4074   1.853   6.967   2.761
  331W        W 4075   1.364   7.009   1.782
  332W        W 4076   9.568   2.103  11.797
  333W        W 4077   6.355   3.138   9.998
  334W        W 4078   2.189   2.852   2.528
  335W        W 4079   0.455   1.054   9.429
  336W        W 4080   8.728   2.240   2.151
  337W        W 4081   8.883   8.827  10.591
  338W        W 4082   4.973   0.448   1.496
  339W        W 4083   2.721   9.479  11.144
  340W        W 4084   3.518   7.374   2.989
  341W        W 4085   9.069   0.935   2.739
  342W        W 4086   1.386   2.543   0.093
  343W        W 4087   2.366   4.697   2.660
  344W        W 4088   6.624  10.483   3.586
  345W        W 4089  10.458   4.227   9.665
  346W        W 4090   7.011  10.303   1.702
  347W        W 4091   7.398   3.689   9.921
  348W        W 4092   1.645   6.778  10.308
  349W        W 4093  10.269   5.065   2.002
  350W        W 4094   8.441   5.603   0.609
  351W        W 4095   3.584   6.897  11.024
  352W        W 4096   6.972   4.118   1.898
  353W        W 4097   4.689   4.181  10.386
  354W        W 4098   8.485   7.608   9.071
  355W        W 4099   5.148  10.099  10.710
  356W        W 4100   8.538   7.673   9.578
  357W        W 4101   6.430   9.142   2.066
  358W        W 4102   2.261   1.287   1.695
  359W        W 4103   7.578   4.654   9.420
  360W        W 4104   0.891   0.842   0.292
  361W        W 4105   4.811   8.442   9.709
  362W        W 4106   5.297   4.778   0.319
  363W        W 4107   8.374   3.198   1.892
  364W        W 4108   0.427   0.810   1.391
  365W        W 4109   8.900   8.140   0.216
  366W        W 4110   5.191   3.045  11.392
  367W        W 4111   9.379   2.639   3.537
  368W        W 4112   2.141   1.843   3.062
  369W        W 4113   4.841   0.938   1.756
  370W        W 4114   8.456   0.229   1.762
  371W        W 4115   8.979   9.116  10.162
  372W        W 4116   9.261   1.384   1.099
  373W        W 4117   8.037   6.066   2.913
  374W        W 4118   6.136   3.719   0.689
  375W        W 4119   4.920   7.931   0.233
  376W        W 4120   8.727   9.764  10.933
  377W        W 4121   0.929   8.627   9.465
  378W        W 4122   5.687   9.444  10.206
  379W        W 4123   1.018   7.176   2.582
  380W        W 4124   1.922   0.931   1.774
  381W        W 4125   4.579   9.905   9.805
  382W        W 4126   6.703   9.709  11.726
  383W        W 4127   0.975   4.675   2.987
  384W        W 4128   7.142   3.555  10.466
  385W        W 4129   8.117   7.334   1.652
  386W        W 4130   4.782   2.175   2.893
  387W        W 4131   9.651   9.842   0.705
  388W        W 4132   8.501   9.571   3.170
  389W        W 4133   6.674   4.594   9.181
  390W        W 4134   7.026   9.446  10.242
  391W        W 4135   0.776   7.729   0.014
  392W        W 4136   5.437   7.572  10.481
  393W        W 4137   7.494   6.258  11.820
  394W        W 4138   1.621   0.534   1.733
  395W        W 4139   7.815   1.256   2.959
  396W        W 4140   0.913   3.728   8.799
  397W        W 4141   3.522   2.392  11.371
  398W        W 4142   4.047   9.632   9.785
  399W        W 4143   3.093   5.279   2.800
  400W        W 4144   7.199   4.353   3.338
  401W        W 4145   9.409   8.082   2.582
  402W        W 4146   7.689   1.425   9.490
  403W        W 4147   2.324   5.490   8.580
  404W        W 4148   8.169   3.756   2.904
  405W        W 4149   9.789   8.572   1.529
  406W        W 4150   7.592   4.596   3.137
  407W        W 4151   0.740  10.343   0.681
  408W        W 4152   2.610   2.723   2.245
  409W        W 4153   8.137   9.314   9.306
  410W        W 4154   1.737   4.500   8.697
  411W        W 4155   0.389   4.367   9.926
  412W        W 4156   7.908  10.273  10.578
  413W        W 4157   1.196   9.164  11.191
  414W        W 4158   7.054   8.208  11.900
  415W        W 4159   1.261   3.631   9.610
  416W        W 4160   6.359   9.774  11.322
  417W        W 4161   3.649   0.461   0.486
  418W        W 4162   9.251   7.216   2.877
  419W        W 4163   6.684   9.390  11.230
  420W        W 4164   8.061   1.234  10.128
  421W        W 4165   7.872   0.438   0.010
  422W        W 4166   7.749   2.685   8.810
  423W        W 4167  10.193   3.381   3.293
  424W        W 4168   0.965  10.487   1.744
  425W        W 4169   4.174   2.507  11.773
  426W        W 4170   4.752   4.114   2.207
  427W        W 4171   5.314   6.096   3.368
  428W        W 4172   7.392   8.628   3.707
  429W        W 4173   2.088   0.899   3.429
  430W        W 4174   4.273   0.834   1.862
  431W        W 4175  10.083   6.847  11.786
  432W        W 4176   1.975   9.125   1.252
  433W        W 4177   7.511   7.673   2.727
  434W        W 4178   1.771   2.107   0.372
  435W        W 4179   9.896   2.812  10.077
  436W        W 4180   0.224   4.659   9.536
  437W        W 4181   4.457   3.174   3.649
  438W        W 4182   6.514   5.026  11.569
  439W        W 4183   7.901   1.616   3.323
  440W        W 4184   1.879   0.657   8.897
  441W        W 4185   5.008   6.686   0.301
  442W        W 4186   3.739   3.746   1.957
  443W        W 4187   4.101   8.525  10.933
  444W        W 4188   1.336   0.461   2.830
  445W        W 4189   4.546   1.721   1.909
  446W        W 4190   8.151   5.708   9.221
  447W        W 4191   6.910   9.910   0.358
  448W        W 4192   3.448   0.765   0.862
  449W        W 4193   9.550   5.551   2.164
  450W        W 4194   6.613   9.937   2.999
  451W        W 4195   9.129   4.386   3.679
  452W        W 4196   5.081   5.243  11.404
  453W        W 4197   6.762   9.449   2.912
  454W        W 4198  10.344  10.361   2.433
  455W        W 4199   8.407   0.230  11.332
  456W        W 4200   2.857   1.313   8.790
  457W        W 4201   6.081   3.789  11.212
  458W        W 4202   0.765   8.621   1.764
  459W        W 4203   2.173   7.191   1.258
  460W        W 4204   9.498   9.584   2.377
  461W        W 4205   6.682   4.099  11.835
  462W        W 4206   6.943   4.153   9.277
  463W        W 4207   3.240   2.319   2.899
  464W        W 4208   8.172   3.730   0.294
  465W        W 4209   1.772   2.255  11.864
  466W        W 4210   8.018   1.073   3.381
  467W        W 4211   1.495  10.316  11.892
  468W        W 4212   5.483   6.610   9.426
  469W        W 4213   2.094   0.813   0.874
  470W        W 4214   5.960   8.166   0.498
  471W        W 4215  10.362   2.016   1.579
  472W        W 4216   6.621   4.106   9.671
  473W        W 4217   9.046   0.293   9.099
  474W        W 4218   8.035   4.683   2.919
  475W        W 4219   5.126   2.514   1.733
  476W        W 4220   3.065   8.226   2.602
  477W        W 4221   7.425   8.938  11.737
  478W        W 4222   2.887   0.351  11.805
  479W        W 4223  10.385   0.229   1.664
  480W        W 4224   1.944   0.870   0.385
  481W        W 4225   9.283   8.375   3.565
  482W        W 4226   9.828   6.403   8.995
  483W        W 4227   6.042   9.183  11.941
  484W        W 4228   9.408   6.646  10.815
  485W        W 4229   7.562   8.907   9.209
  486W        W 4230   2.393   4.237   9.889
  487W        W 4231   5.498   3.275   1.270
  488W        W 4232   4.504   9.962  11.327
  489W        W 4233   5.234   3.733   1.175
  490W        W 4234   5.027   0.754   9.756
  491W        W 4235   5.151   0.795   9.259
  492W        W 4236   1.293   4.970   3.547
  493W        W 4237   8.125   4.193  10.015
  494W        W 4238   2.924   2.387   3.296
  495W        W 4239   8.507   8.431  11.463
  496W        W 4240   9.779   2.351  10.304
  497W        W 4241   2.355   6.269   8.803
  498W        W 4242   5.967   6.294   9.490
  499W        W 4243   6.137   3.729   1.209
  500W        W 4244   2.806   7.415   0.987
  501W        W 4245   9.323   5.155  10.497
  502W        W 4246   6.840   2.134   1.679
  503W        W 4247   7.220   5.342   2.107
  504W        W 4248   6.123   6.029   2.536
  505W        W 4249   3.258   1.376   2.478
  506W        W 4250   0.080   3.895   0.800
  507W        W 4251   0.180   1.267   2.283
  508W        W 4252  10.070   3.986   8.726
  509W        W 4253   7.202   5.832   8.157
  510W        W 4254   2.784   5.869   9.476
  511W        W 4255  10.142   4.267  10.073
  512W        W 4256   2.174   5.217   2.951
  513W        W 4257   3.824   2.795  11.526
  514W        W 4258   8.311   6.494   0.049
  515W        W 4259   6.870   0.116  10.835
  516W        W 4260   6.641   4.557   1.913
  517W        W 4261   5.633   6.529   3.256
  518W        W 4262   6.161   3.731   2.795
  519W        W 4263   7.707   3.559   2.899
  520W        W 4264   6.568   5.948   1.817
  521W        W 4265   4.609   5.445   2.408
  522W        W 4266   2.910   3.280   0.357
  523W        W 4267   5.146   0.837   0.667
  524W        W 4268   1.423   7.588   1.139
  525W        W 4269   2.801   2.740  11.716
  526W        W 4270   6.483   1.439   2.783
  527W        W 4271   1.808   5.881   9.411
  528W        W 4272   3.579   2.360   2.208
  529W        W 4273  10.023   0.025  10.469
  530W        W 4274   6.498   1.652  10.078
  531W        W 4275   5.804   6.232   4.208
  532W        W 4276   6.706   7.028   0.104
  533W        W 4277   7.717   4.320  11.834
  534W        W 4278   9.303   8.580   9.505
  535W        W 4279   9.065  10.219  10.878
  536W        W 4280   9.120   4.669  10.564
  537W        W 4281   4.215   1.256  10.594
  538W        W 4282   9.882   4.746   1.221
  539W        W 4283   1.677   6.104   0.757
  540W        W 4284   9.644   4.155  10.049
  541W        W 4285   3.477   2.283   3.369
  542W        W 4286   0.469   5.264   9.782
  543W        W 4287   0.398   4.525   2.420
  544W        W 4288   2.400   6.039  10.313
  545W        W 4289   5.553  10.460  10.495
  546W        W 4290   1.942   0.676   2.241
  547W        W 4291   7.634   3.539   8.938
  548W        W 4292   7.973   1.869   9.341
  549W        W 4293   6.633   5.458   0.461
  550W        W 4294   9.803   7.172  10.535
  551W        W 4295  10.152   4.664  10.396
  552W        W 4296   3.747   6.623  10.634
  553W        W 4297   9.536   2.619   3.048
  554W        W 4298   7.553   1.150  11.477
  555W        W 4299   6.624   8.617   2.712
  556W        W 4300   4.556   1.788   3.329
  557W        W 4301   5.020   2.769   8.018
  558W        W 4302   4.186   0.588   9.891
  559W        W 4303   6.465   5.676   2.260
  560W        W 4304   8.921   5.096   9.532
  561W        W 4305   8.937   2.177   0.483
  562W        W 4306   8.449   2.791   2.203
  563W        W 4307   2.178   4.711   9.878
  564W        W 4308   1.390   0.718   0.349
  565W        W 4309   7.868   7.443   1.218
  566W        W 4310   6.915   3.144   1.223
  567W        W 4311  10.116   5.068  10.064
  568W        W 4312   0.803   2.784   9.728
  569W        W 4313   5.221   4.315   2.317
  570W        W 4314   1.197   4.760   9.621
  571W        W 4315   6.579   5.891   0.207
  572W        W 4316   2.018   8.024  11.925
  573W        W 4317   4.720   4.953  11.638
  574W        W 4318   0.638   1.683   1.730
  575W        W 4319   7.104   5.577  11.923
  576W        W 4320   3.348   1.876   2.174
  577W        W 4321   8.851   4.241   1.548
  578W        W 4322   0.343   9.887   1.811
  579W        W 4323   0.471   5.626   1.895
  580W        W 4324   8.507   8.955   8.782
  581W        W 4325   6.067   6.947   2.761
  582W        W 4326   6.243   6.553   9.859
  583W        W 4327   2.714   5.211   3.159
  584W        W 4328   7.123   6.513   9.374
  585W        W 4329   3.766   2.572   0.066
  586W        W 4330   3.256   8.242   0.553
  587W        W 4331   9.360   7.334   9.186
  588W        W 4332   6.681   9.257   0.666
  589W        W 4333   3.098   3.336   2.577
  590W        W 4334   9.414   7.538   2.459
  591W        W 4335   9.052   4.113   0.400
  592W        W 4336   4.510   4.110   0.676
  593W        W 4337   5.195   7.076   9.317
  594W        W 4338   5.119   9.929   9.048
  595W        W 4339   1.946   6.704   9.888
  596W        W 4340   3.766   6.065  10.467
  597W        W 4341   5.974   9.717   3.427
  598W        W 4342   9.445   3.788   0.438
  599W        W 4343   0.880   0.329  10.502
  600W        W 4344   2.322   4.572   0.999
  601W        W 4345   6.690   1.760   8.667
  602W        W 4346   2.708   3.548   3.319
  603W        W 4347   7.693   3.718   3.852
  604W        W 4348   6.042   3.217  10.788
  605W        W 4349   1.292   3.833   9.129
  606W        W 4350   9.553   4.720   1.963
  607W        W 4351   0.878   8.332  11.191
  608W        W 4352   3.569   1.565   3.404
  609W        W 4353   1.261   7.470   8.848
  610W        W 4354   4.795   1.025   1.210
  611W        W 4355   7.674   2.805   1.323
  612W        W 4356   1.339   2.394  11.052
  613W        W 4357   4.616   2.160  10.577
  614W        W 4358   3.228   9.738   9.168
  615W        W 4359   9.287   6.265   9.801
  616W        W 4360   4.092   8.394   9.074
  617W        W 4361   6.975   1.845  11.009
  618W        W 4362   4.111   5.991  11.777
  619W        W 4363   3.419   1.014   2.132
  620W        W 4364   9.021   1.690   0.657
  621W        W 4365   5.151   3.827   0.666
  622W        W 4366   3.365   5.004   9.837
  623W        W 4367   2.131   5.695  10.007
  624W        W 4368   4.541   2.809   8.807
  625W        W 4369   1.581   0.273   9.064
  626W        W 4370   6.911   6.980   3.518
  627W        W 4371   7.656   1.023   9.814
  628W        W 4372   2.402   7.361   0.227
  629W        W 4373   7.619   4.138  10.026
  630W        W 4374   6.142   8.356   1.871
  631W        W 4375   4.796   4.586   2.435
  632W        W 4376   7.240   3.630  11.957
  633W        W 4377   3.611   6.125   2.671
  634W        W 4378   4.727   7.360   0.989
  635W        W 4379   2.413   6.547  10.072
  636W        W 4380   7.516   0.829  11.859
  637W        W 4381   5.025   6.494  10.349
  638W        W 4382   3.213  10.302  11.401
  639W        W 4383   9.893   8.472   9.037
  640W        W 4384   9.195   5.746   0.711
  641W        W 4385   0.363   5.962   0.380
  642W        W 4386  10.082   2.800   1.777
  643W        W 4387   5.527   5.129  10.910
  644W        W 4388   2.164   2.073   9.961
  645W        W 4389   3.283   8.381  10.501
  646W        W 4390   4.739   0.018   2.002
  647W        W 4391  10.059   8.298   9.960
  648W        W 4392   5.671   4.141   9.535
  649W        W 4393   4.082   2.347   2.313
  650W        W 4394   4.512   4.209   1.185
  651W        W 4395   7.991  10.431   0.428
  652W        W 4396   9.456   6.732   9.885
  653W        W 4397   0.029   6.573  11.050
  654W        W 4398   1.766   6.967   3.270
  655W        W 4399   8.989   4.290   1.029
  656W        W 4400   1.926   8.796  10.524
  657W        W 4401   8.619   7.216   2.305
  658W        W 4402   9.830   1.365   0.259
  659W        W 4403   3.304   5.092   8.355
  660W        W 4404   2.332   2.099   1.014
  661W        W 4405   9.332   7.703   2.939
  662W        W 4406   6.696   6.093   8.748
  663W        W 4407   5.240   5.772   9.074
  664W        W 4408   7.609   5.697   2.147
  665W        W 4409   4.851   2.687  11.262
  666W        W 4410   9.080   2.319   1.372
  667W        W 4411   5.660   5.598   1.085
  668W        W 4412   5.914   8.626   1.496
  669W        W 4413   4.061   3.260   2.301
  670W        W 4414   6.102   0.323   2.489
  671W        W 4415   9.458   9.451   8.954
  672W        W 4416   3.821   0.041   1.704
  673W        W 4417   4.978   3.250   3.652
  674W        W 4418  10.069   3.625   1.718
  675W        W 4419   1.215   4.223   1.953
  676W        W 4420   0.489   3.352   3.538
  677W        W 4421   8.063   8.622  11.010
  678W        W 4422   6.513   3.605  11.726
  679W        W 4423   5.369  10.362   2.968
  680W        W 4424   5.061   6.061   1.413
  681W        W 4425   8.005   1.764   0.811
  682W        W 4426   0.828   0.947  11.804
  683W        W 4427   9.829   6.983   0.942
  684W        W 4428   1.944   3.687  11.919
  685W        W 4429   6.552   0.551   2.236
  686W        W 4430   0.300   2.078   1.846
  687W        W 4431   0.344   3.959  10.537
  688W        W 4432   6.223   4.680   0.498
  689W        W 4433   9.635   0.600   0.087
  690W        W 4434   0.506   4.731   1.938
  691W        W 4435   9.925   2.311   1.712
  692W        W 4436  10.252   7.801   9.832
  693W        W 4437   6.734   7.264   2.206
  694W        W 4438   0.847   8.580   2.257
  695W        W 4439   2.346   1.559   9.999
  696W        W 4440   8.632   6.527   1.903
  697W        W 4441   4.726   0.359   3.422
  698W        W 4442   1.933  10.449   3.341
  699W        W 4443   0.280   4.820  11.122
  700W        W 4444   7.232   1.811   8.605
  701W        W 4445   2.034   3.973   9.337
  702W        W 4446   3.746   7.630   2.608
  703W        W 4447   8.935   3.109   0.561
  704W        W 4448   7.796   3.111   3.118
  705W        W 4449   3.822   0.139   3.549
  706W        W 4450   7.973   8.386   3.096
  707W        W 4451   4.768   0.342   0.025
  708W        W 4452   5.211   6.028   1.932
  709W        W 4453   8.523   9.495   2.659
  710W        W 4454   1.271   5.687   8.570
  711W        W 4455   5.609   3.429   8.975
  712W        W 4456   7.938   5.208   9.053
  713W        W 4457   0.983   8.074   9.502
  714W        W 4458   2.314   6.983   8.898
  715W        W 4459   7.012  10.405   8.495
  716W        W 4460   7.138   7.401   1.883
  717W        W 4461   1.635  10.321   2.414
  718W        W 4462   3.209   0.337   0.793
  719W        W 4463   5.171   7.875  10.833
  720W        W 4464   7.104   4.222  10.919
  721W        W 4465   8.412   8.876   9.291
  722W        W 4466   5.670   8.925   2.181
  723W        W 4467   9.772   6.958   9.073
  724W        W 4468   5.136   7.162   0.479
  725W        W 4469   5.509   5.154   2.635
  726W        W 4470   6.420   7.421   0.387
  727W        W 4471   8.173   4.891   8.620
  728W        W 4472   6.406   7.399  11.193
  729W        W 4473   7.721   0.533   9.949
  730W        W 4474   1.411   1.432   1.712
  731W        W 4475   0.299   7.915   2.293
  732W        W 4476   1.574   8.406   1.647
  733W        W 4477   6.043   4.236  11.477
  734W        W 4478   0.094   4.711   0.428
  735W        W 4479   3.636   9.930   9.989
  736W        W 4480   9.536   5.270  10.968
  737W        W 4481   9.744   0.144   9.970
  738W        W 4482   3.781   1.907   0.421
  739W        W 4483   1.255   3.799   0.030
  740W        W 4484   0.420   5.733  11.041
  741W        W 4485   9.903   2.642   3.447
  742W        W 4486   1.153   7.805   3.297
  743W        W 4487   5.668   1.854   0.035
  744W        W 4488   2.121   9.269   8.947
  745W        W 4489   7.560   6.663   1.098
  746W        W 4490   5.638   9.561   8.852
  747W        W 4491   5.685   2.183   2.943
  748W        W 4492  10.046   3.510  10.710
  749W        W 4493   7.384   9.701   8.924
  750W        W 4494   1.765   7.588  11.827
  751W        W 4495   1.441   0.063  11.298
  752W        W 4496   4.318   6.662   1.604
  753W        W 4497   9.980   8.811  10.000
  754W        W 4498   0.579  10.496  10.796
  755W        W 4499   4.179  10.079   2.410
  756W        W 4500   5.338  10.055   9.536
  757W        W 4501   4.496   1.300   8.721
  758W        W 4502   0.447   0.824  11.000
  759W        W 4503   9.424   9.899   9.457
  760W        W 4504   2.069   3.181   0.021
  761W        W 4505   8.991   2.708  11.266
  762W        W 4506   7.274   7.920   9.117
  763W        W 4507   3.267   7.911   2.280
  764W        W 4508   1.352   1.975  10.740
  765W        W 4509   6.993   2.636   1.878
  766W        W 4510   8.972   3.133   0.059
  767W        W 4511   2.586  10.480   8.967
  768W        W 4512   2.172   8.953  11.788
  769W        W 4513   6.571   4.066   1.008
  770W        W 4514   9.909   9.991   9.246
  771W        W 4515   3.079   6.263   3.732
  772W        W 4516   1.699  10.401   1.287
  773W        W 4517   2.337   9.457   2.738
  774W        W 4518   9.613   8.451   0.296
  775W        W 4519   3.351   1.929  10.355
  776W        W 4520   1.305   0.660   1.198
  777W        W 4521   7.408   8.134  10.098
  778W        W 4522   2.751   6.444  10.969
  779W        W 4523   3.792   4.780   0.564
  780W        W 4524   7.694   5.775   1.320
  781W        W 4525   6.167   7.040  11.472
  782W        W 4526   0.348   2.317   1.401
  783W        W 4527   6.159   5.490   0.988
  784W        W 4528   5.546   6.023  10.230
  785W        W 4529   5.071   3.322   2.219
  786W        W 4530   0.850   6.197  11.503
  787W        W 4531   5.747   1.238  10.251
  788W        W 4532   6.333   9.497   3.170
  789W        W 4533   5.594   6.732   2.795
  790W        W 4534   0.362   2.277   8.628
  791W        W 4535   4.299   3.087   1.868
  792W        W 4536   6.646   0.335   1.356
  793W        W 4537   2.691   5.594   9.005
  794W        W 4538   0.141   9.423   3.306
  795W        W 4539   3.238   0.789   1.706
  796W        W 4540   0.251   6.562  10.578
  797W        W 4541   3.103   4.275   2.783
  798W        W 4542   4.261   9.346   8.874
  799W        W 4543   1.248   1.885   2.982
  800W        W 4544   3.010   4.310   8.557
  801W        W 4545   8.270   1.068  10.994
  802W        W 4546   7.251   2.819   0.018
  803W        W 4547   5.195   6.516   1.173
  804W        W 4548   7.240   4.229   8.525
  805W        W 4549  10.006   3.973  10.903
  806W        W 4550   4.780   0.354  11.512
  807W        W 4551   4.148   2.769   9.603
  808W        W 4552   8.939   0.198   8.606
  809W        W 4553   6.784   5.336   1.295
  810W        W 4554   9.336   4.103   1.369
  811W        W 4555   8.969   7.917   1.800
  812W        W 4556   7.027   7.560  10.380
  813W        W 4557   0.946   0.818  10.227
  814W        W 4558   3.729   4.016   3.758
  815W        W 4559   4.671   9.333  10.948
  816W        W 4560   7.553   7.329   3.647
  817W        W 4561  10.250   9.493  10.490
  818W        W 4562   6.932   3.692   9.528
  819W        W 4563  10.236   7.449  10.538
  820W        W 4564   5.627   2.243  11.186
  821W        W 4565   1.076   1.465   9.031
  822W        W 4566   0.131   5.570   9.543
  823W        W 4567   5.115   0.952   3.496
  824W        W 4568   3.594   4.245   1.818
  825W        W 4569   3.736   7.828   2.110
  826W        W 4570   7.114   1.194   0.802
  827W        W 4571   5.990   8.389  11.480
  828W        W 4572   2.630   6.926   2.980
  829W        W 4573   6.722   1.486   2.255
  830W        W 4574   8.050   2.870  11.218
  831W        W 4575   4.495   1.631   0.883
  832W        W 4576   8.548   9.474  10.546
  833W        W 4577   2.688   2.637   9.451
  834W        W 4578   7.916  10.182  10.088
  835W        W 4579   2.570   0.704   3.364
  836W        W 4580   7.392   5.557   8.575
  837W        W 4581   7.931   6.543  11.197
  838W        W 4582   6.040   3.283   0.938
  839W        W 4583   5.624   6.741   1.921
  840W        W 4584   9.228   1.081   2.050
  841W        W 4585   7.113   4.720   0.236
  842W        W 4586   4.848   6.177   0.350
  843W        W 4587   1.087   9.677  11.302
  844W        W 4588   0.733   9.844   2.515
  845W        W 4589   4.774   4.720   0.425
  846W        W 4590   4.752   3.713   9.506
  847W        W 4591   2.224   7.359  11.756
  848W        W 4592   6.198   4.272  11.961
  849W        W 4593   9.956   9.959   3.394
  850W        W 4594   6.574   8.349  10.374
  851W        W 4595   2.894   2.686  10.305
  852W        W 4596   7.935   4.682   8.209
  853W        W 4597   3.360   5.725   2.832
  854W        W 4598   1.814   1.743   2.343
  855W        W 4599   3.094   6.471   2.200
  856W        W 4600   4.067   8.611  11.436
  857W        W 4601   3.345   8.531   1.440
  858W        W 4602   2.142   2.420   2.279
  859W        W 4603   7.765   2.472   9.999
  860W        W 4604   2.281   3.827   3.194
  861W        W 4605   6.669   7.058  11.436
  862W        W 4606   0.490   8.456   3.240
  863W        W 4607   2.754   6.013   0.066
  864W        W 4608   6.667   4.799   2.413
  865W        W 4609   1.304   7.273  11.654
  866W        W 4610   8.903   7.461  10.870
  867W        W 4611   1.161   9.317   3.097
  868W        W 4612   3.657   2.756  10.029
  869W        W 4613   8.068   6.464  10.713
  870W        W 4614   6.454   3.239   0.550
  871W        W 4615   8.654   3.581   2.057
  872W        W 4616   9.534   6.635   1.177
  873W        W 4617   4.180   9.817  10.961
  874W        W 4618   1.448   0.521   2.319
  875W        W 4619   7.896   3.283  10.489
  876W        W 4620   0.337   3.192   9.141
  877W        W 4621   1.761   5.077   3.250
  878W        W 4622   4.117   0.397  10.743
  879W        W 4623   2.587   6.549   2.175
  880W        W 4624   0.523   0.896   9.926
  881W        W 4625   7.522   9.969   1.034
  882W        W 4626   2.065   1.011  11.807
  883W        W 4627   7.451   4.975   9.810
  884W        W 4628   8.457   4.659  10.783
  885W        W 4629  10.052   0.917  10.598
  886W        W 4630   9.655   6.628   2.193
  887W        W 4631   9.374   6.129  10.741
  888W        W 4632   4.981   2.612   8.983
  889W        W 4633   8.435   4.545   8.900
  890W        W 4634   4.683   2.208  11.444
  891W        W 4635  10.243   7.996   1.447
  892W        W 4636   9.082   2.828   0.964
  893W        W 4637   6.562   5.124   0.876
  894W        W 4638   8.154   3.650   8.923
  895W        W 4639  10.422   3.295   9.440
  896W        W 4640   0.688   9.755  10.458
  897W        W 4641   0.880   0.942   1.216
  898W        W 4642   8.117   4.783  11.216
  899W        W 4643   9.371   9.420  10.465
  900W        W 4644   0.495   7.569   0.842
  901W        W 4645   3.998   7.663   1.284
  902W        W 4646   3.581  10.031   0.474
  903W        W 4647   4.736   1.713   8.934
  904W        W 4648   5.620   9.392  11.753
  905W        W 4649   4.269   3.630   0.672
  906W        W 4650   7.538   7.638  10.311
  907W        W 4651   0.801   8.037   2.434
  908W        W 4652   2.553   1.166  11.461
  909W        W 4653   0.936   9.131   1.913
  910W        W 4654   0.853   3.058   2.313
  911W        W 4655   8.014   9.335   3.174
  912W        W 4656   7.513   0.990   3.350
  913W        W 4657   8.534   0.508   0.615
  914W        W 4658   8.426   1.965  11.933
  915W        W 4659   6.988   1.478   0.410
  916W        W 4660   6.422   2.726   3.258
  917W        W 4661   2.231   9.353  11.272
  918W        W 4662   8.102   1.375   9.169
  919W        W 4663   1.718   7.213   8.871
  920W        W 4664   2.152   4.106  10.748
  921W        W 4665   6.518   0.731   0.406
  922W        W 4666   9.889   2.717  11.132
  923W        W 4667   6.402   6.814  10.539
  924W        W 4668   0.934   8.756  10.348
  925W        W 4669   3.528   0.952   1.322
  926W        W 4670   3.323   6.808   0.214
  927W        W 4671  10.017   7.351  11.861
  928W        W 4672   8.863   4.206  10.478
  929W        W 4673   7.024   6.979   9.973
  930W        W 4674   1.522   8.191  11.919
  931W        W 4675   9.067   9.484  11.831
  932W        W 4676   0.583   9.132  11.137
  933W        W 4677   5.493   6.648   4.068
  934W        W 4678   8.839  10.026   8.522
  935W        W 4679   0.575   4.833   0.544
  936W        W 4680   9.363   6.212   8.744
  937W        W 4681   6.621   3.759   1.423
  938W        W 4682   9.437   6.406  10.289
  939W        W 4683   4.372  10.350   2.892
  940W        W 4684   3.872   7.300   2.205
  941W        W 4685   8.407   0.734  11.360
  942W        W 4686   4.556   5.771  11.897
  943W        W 4687   8.724   9.318   2.176
  944W        W 4688   3.677   6.054   1.291
  945W        W 4689   8.313   9.441   0.879
  946W        W 4690   5.202   5.238   9.550
  947W        W 4691   7.917   4.052   1.139
  948W        W 4692   1.832   1.611   0.534
  949W        W 4693   5.098   5.221   0.828
  950W        W 4694   1.705   4.155   3.201
  951W        W 4695   3.269   8.381   9.535
  952W        W 4696   9.940   3.182   9.250
  953W        W 4697   6.089   2.455  10.352
  954W        W 4698   1.882   9.384  10.821
  955W        W 4699   5.600   6.483   2.360
  956W        W 4700   2.599   9.976   9.116
  957W        W 4701   1.005   9.066   2.434
  958W        W 4702   3.823   9.382  11.768
  959W        W 4703   2.689   8.064   3.323
  960W        W 4704   4.577   4.061   8.904
  961W        W 4705   3.683   7.570   3.455
  962W        W 4706   2.398   0.290  11.812
  963W        W 4707   5.672   8.028  11.312
  964W        W 4708   1.426   5.663   2.492
  965W        W 4709   5.262   0.958  11.354
  966W        W 4710   7.501   6.949   8.660
  967W        W 4711   2.892   3.182   8.903
  968W        W 4712   2.629   8.941   9.989
  969W        W 4713   5.648   7.561   8.863
  970W        W 4714   4.088   2.225   8.883
  971W        W 4715   5.956   6.794   9.494
  972W        W 4716   9.840  10.286  11.455
  973W        W 4717   4.243   0.332   2.736
  974W        W 4718   7.352   1.023   2.878
  975W        W 4719   4.260   8.570   2.728
  976W        W 4720   1.858   5.072   9.994
  977W        W 4721   8.885   4.534   2.015
  978W        W 4722   3.206   6.114   9.657
  979W        W 4723   9.016   0.841  11.417
  980W        W 4724   5.549   1.682  10.524
  981W        W 4725   2.812   8.076   1.787
  982W        W 4726   6.642   8.122   2.786
  983W        W 4727   6.657  10.030   1.017
  984W        W 4728   6.701   4.454   0.635
  985W        W 4729   4.820   9.818   0.881
  986W        W 4730  10.413   1.425   0.845
  987W        W 4731  10.312   4.694  11.374
  988W        W 4732   3.551   5.265   9.412
  989W        W 4733   5.459   4.336   1.668
  990W        W 4734   0.156   0.191   2.108
  991W        W 4735   0.865   7.149   3.585
  992W        W 4736   4.571   2.662   2.766
  993W        W 4737   1.166   6.099  10.850
  994W        W 4738   9.072   9.724   2.153
  995W        W 4739   8.803   9.870  11.520
  996W        W 4740   6.879   8.343   2.346
  997W        W 4741   0.216   9.197   2.420
  998W        W 4742   8.965   0.062  10.484
  999W        W 4743  10.313   3.259  11.355
 1000W        W 4744   2.364   2.053   2.026
 1001W        W 4745   7.838   3.293   1.115
 1002W        W 4746   0.792   0.513  11.562
 1003W        W 4747   4.987   4.502   3.076
 1004W        W 4748   2.285   7.837   0.370
 1005W        W 4749   9.858   9.284   2.630
 1006W        W 4750   4.068   3.948   9.138
 1007W        W 4751   5.344   7.890   2.658
 1008W        W 4752   6.591   5.701  11.734
 1009W        W 4753   5.944   2.245  10.778
 1010W        W 4754   5.697   8.561   0.714
 1011W        W 4755  10.310  10.019  11.788
 1012W        W 4756   1.675   9.064   9.120
 1013W        W 4757   2.577   2.587   3.616
 1014W        W 4758   7.431   1.331   1.706
 1015W        W 4759   1.144   1.861   1.603
 1016W        W 4760   3.139   6.126  11.768
 1017W        W 4761   7.924   9.137   0.786
 1018W        W 4762   3.542   7.685   1.647
 1019W        W 4763   3.682   4.671   8.207
 1020W        W 4764   7.095   4.744  10.386
 1021W        W 4765   9.384   3.722  10.135
 1022W        W 4766   8.559   5.700   3.083
 1023W        W 4767   3.994   4.437   1.564
 1024W        W 4768   9.161   3.581  11.336
 1025W        W 4769   9.535   6.347   0.163
 1026W        W 4770   2.537   2.677   3.098
 1027W        W 4771   9.322   7.829  11.503
 1028W        W 4772   8.377  10.191   0.201
 1029W        W 4773   5.548  10.487   8.891
 1030W        W 4774   5.805   9.844   9.595
 1031W        W 4775   1.328   0.766   9.529
 1032W        W 4776   1.260   5.095   3.010
 1033W        W 4777   5.661  10.385   1.975
 1034W        W 4778   5.757   0.673   1.322
 1035W        W 4779   1.862   8.587   3.182
 1036W        W 4780   1.113   1.024   3.594
 1037W        W 4781  10.447   1.758  10.106
 1038W        W 4782   2.305   3.682  11.078
 1039W        W 4783   8.875   5.716   2.672
 1040W        W 4784   8.101   9.268   9.812
 1041W        W 4785   5.215   3.531   1.737
 1042W        W 4786   1.879   8.460  10.153
 1043W        W 4787   5.586   3.701  11.965
 1044W        W 4788   8.330   3.306  10.823
 1045W        W 4789   6.625   8.528   9.850
 1046W        W 4790   2.792   0.387   9.766
 1047W        W 4791   7.544   0.271   2.289
 1048W        W 4792  10.227   5.072   3.215
 1049W        W 4793   1.298   5.921   3.392
 1050W        W 4794   4.588   1.887  11.046
 1051W        W 4795   4.280   3.313  11.260
 1052W        W 4796   8.258  10.265   8.836
 1053W        W 4797   9.739   4.012   1.691
 1054W        W 4798  10.170   5.991   8.995
 1055W        W 4799   2.580   4.522   8.747
 1056W        W 4800   6.659   7.533   1.757
 1057W        W 4801   5.783   6.192  11.513
 1058W        W 4802   6.857   5.141   9.511
 1059W        W 4803   0.915   3.570  10.818
 1060W        W 4804   4.067   0.205  11.218
 1061W        W 4805  10.018   3.225   9.770
 1062W        W 4806   0.820   7.974   2.967
 1063W        W 4807   1.357   9.982  10.604
 1064W        W 4808   0.590   0.590   9.128
 1065W        W 4809   7.099   1.104   8.927
 1066W        W 4810   0.776   2.621   2.990
 1067W        W 4811   8.698   7.308  11.853
 1068W        W 4812   7.127   3.378   8.935
 1069W        W 4813   4.433   0.004   2.403
 1070W        W 4814   7.846   5.177  11.430
 1071W        W 4815   9.559   7.124  10.996
 1072W        W 4816   4.132  10.076  10.033
 1073W        W 4817   6.996   6.088   9.617
 1074W        W 4818   0.124   7.476   9.578
 1075W        W 4819   7.081   4.683   4.272
 1076W        W 4820   7.462   0.862  10.902
 1077W        W 4821   5.257   8.300   0.487
 1078W        W 4822   4.753   9.319   0.928
 1079W        W 4823   9.263   1.595   1.965
 1080W        W 4824   5.150   8.968   1.959
 1081W        W 4825   3.638   8.566   8.913
 1082W        W 4826   6.940   0.177  11.823
 1083W        W 4827   9.895   1.856   1.463
 1084W        W 4828   7.577   5.406  10.996
 1085W        W 4829   8.663   6.816   1.470
 1086W        W 4830   5.782   4.638   1.371
 1087W        W 4831   5.101  10.438   1.554
 1088W        W 4832   8.348   6.213   2.187
 1089W        W 4833   6.129   3.688   1.721
 1090W        W 4834  10.420   1.283   2.748
 1091W        W 4835   3.565   2.747   1.854
 1092W        W 4836   5.263   8.991  11.456
 1093W        W 4837   1.749   7.160   9.813
 1094W        W 4838   9.869   7.088   2.969
 1095W        W 4839   3.682   9.605   0.211
 1096W        W 4840   6.864   2.228  10.684
 1097W        W 4841   9.411   1.218   9.991
 1098W        W 4842   5.347   0.423  10.593
 1099W        W 4843   3.275  10.176  10.885
 1100W        W 4844   8.148   8.389   0.313
 1101W        W 4845   6.462   3.317   2.801
 1102W        W 4846   4.630   7.868   2.324
 1103W        W 4847   2.304   8.356   1.389
 1104W        W 4848   6.081   9.672  10.459
 1105W        W 4849   6.092   1.040   0.174
 1106W        W 4850   3.284   0.507   2.780
 1107W        W 4851   3.905   4.639   2.720
 1108W        W 4852   2.851   3.555  11.741
 1109W        W 4853   5.282   1.347  10.999
 1110W        W 4854   2.949   4.602   9.612
 1111W        W 4855   6.238   1.376  10.518
 1112W        W 4856   3.202   4.575  11.555
 1113W        W 4857   6.574  10.232   0.550
 1114W        W 4858   9.870   1.393  10.694
 1115W        W 4859   0.140   8.317   0.372
 1116W        W 4860   3.411   3.655  10.379
 1117W        W 4861   0.180   6.182   9.857
 1118W        W 4862   4.959   5.634  10.276
 1119W        W 4863   6.164   6.504   1.217
 1120W        W 4864   5.652   3.135  11.159
 1121W        W 4865   4.704   9.097   9.140
 1122W        W 4866   9.525   9.591   0.035
 1123W        W 4867   4.995   4.516   1.857
 1124W        W 4868   1.751   6.025   9.917
 1125W        W 4869   2.204   9.488   9.846
 1126W        W 4870   0.355   2.772   1.169
 1127W        W 4871   2.972   5.943   0.548
 1128W        W 4872   2.241   0.932  10.561
 1129W        W 4873   0.188   1.667  11.082
 1130W        W 4874   3.566   1.706  11.992
 1131W        W 4875   9.969   6.157   1.366
 1132W        W 4876   8.041   7.233   8.647
 1133W        W 4877   5.978   7.477   1.519
 1134W        W 4878   3.696   3.525   1.458
 1135W        W 4879   8.477   5.915   9.572
 1136W        W 4880   0.998   5.908   9.411
 1137W        W 4881   2.817   8.884   2.160
 1138W        W 4882   4.807   3.150   2.715
 1139W        W 4883   9.892   6.014   0.006
 1140W        W 4884   5.002   4.186   8.663
 1141W        W 4885  10.387   7.243   0.209
 1142W        W 4886   9.569   7.061  11.941
 1143W        W 4887   7.585   5.778  11.916
 1144W        W 4888   3.711   1.423   9.353
 1145W        W 4889   0.793   7.036  10.584
 1146W        W 4890   9.182   1.717  10.819
 1147W        W 4891   8.941   3.313   1.073
 1148W        W 4892  10.315   0.471   0.702
 1149W        W 4893   0.285   6.974  10.252
 1150W        W 4894   8.410   5.055   9.598
 1151W        W 4895   0.289   2.751   3.096
 1152W        W 4896   4.406   9.527  10.126
 1153W        W 4897   7.896  10.235   9.576
 1154W        W 4898   2.680   5.659   1.730
 1155W        W 4899   7.184   7.014   0.206
 1156W        W 4900   5.419   7.302   3.707
 1157W        W 4901   8.381  10.483  11.773
 1158W        W 4902   6.462   1.382   9.614
 1159W        W 4903   1.792   4.277   0.626
 1160W        W 4904   9.895   8.896  11.554
 1161W        W 4905   3.513   7.550   1.158
 1162W        W 4906   1.663   3.169   2.966
 1163W        W 4907   6.988   6.037   0.953
 1164W        W 4908   0.475   2.114   0.934
 1165W        W 4909   7.147   9.307   3.248
 1166W        W 4910   2.693   1.923   9.921
 1167W        W 4911   3.708   8.863   0.898
 1168W        W 4912   1.361   0.866  10.534
 1169W        W 4913   9.975   5.699  10.307
 1170W        W 4914   8.754  10.061  10.495
 1171W        W 4915   3.120   9.810  11.351
 1172W        W 4916   1.827   5.746  11.232
 1173W        W 4917   0.920   1.375   3.288
 1174W        W 4918   9.536   7.076   3.456
 1175W        W 4919  10.340   9.850   1.678
 1176W        W 4920   5.750   7.010   2.353
 1177W        W 4921   7.384   5.627   9.098
 1178W        W 4922   2.844   4.828   2.812
 1179W        W 4923   9.505   3.561   3.342
 1180W        W 4924   9.549   4.505   0.411
 1181W        W 4925   5.647   1.335   8.690
 1182W        W 4926   7.058   3.975   2.411
 1183W        W 4927   5.643   3.733   1.988
 1184W        W 4928   7.685   3.826  11.869
 1185W        W 4929   7.169   2.657  10.618
 1186W        W 4930  10.423   4.373   0.773
 1187W        W 4931   7.192   1.231  11.870
 1188W        W 4932   2.887   2.942   8.413
 1189W        W 4933   5.561   2.224   8.767
 1190W        W 4934   8.148   1.844   2.923
 1191W        W 4935   3.322   0.514   2.257
 1192W        W 4936   7.933   7.387   2.716
 1193W        W 4937   0.275   1.350   9.837
 1194W        W 4938   2.381   1.856   8.610
 1195W        W 4939   0.629   8.899   0.939
 1196W        W 4940   6.173   6.007   1.040
 1197W        W 4941   9.070   3.744  10.536
 1198W        W 4942   4.262   1.172   0.845
 1199W        W 4943   2.661   3.776   0.621
 1200W        W 4944   7.890   5.105   0.210
 1201W        W 4945   7.848   8.285  11.329
 1202W        W 4946   7.927   6.600  11.696
 1203W        W 4947   1.217   7.343   3.063
 1204W        W 4948   1.436   6.499  11.012
 1205W        W 4949   7.601   7.865  11.064
 1206W        W 4950   1.632   2.734   3.240
 1207W        W 4951   6.053   1.961   0.732
 1208W        W 4952   2.167   8.568   2.311
 1209W        W 4953   6.909   7.916  10.012
 1210W        W 4954   1.384   5.567   9.442
 1211W        W 4955   1.869   5.909  10.406
 1212W        W 4956   1.740   7.719   8.747
 1213W        W 4957   7.188   1.482  11.320
 1214W        W 4958   2.275   3.778   8.895
 1215W        W 4959  10.022   3.814  10.280
 1216W        W 4960   0.024   9.378   1.402
 1217W        W 4961   9.850   5.509   9.828
 1218W        W 4962   7.637   9.493   8.526
 1219W        W 4963   3.164   2.781   9.332
 1220W        W 4964   7.292   4.421   0.600
 1221W        W 4965   2.954   7.562   8.633
 1222W        W 4966   4.027   7.951   3.375
 1223W        W 4967   3.529   3.151   3.257
 1224W        W 4968   8.196   4.682   0.162
 1225W        W 4969   5.589   1.670   2.490
 1226W        W 4970   3.122   4.093  10.814
 1227W        W 4971   9.523   0.708  11.586
 1228W        W 4972   5.652   8.464   0.209
 1229W        W 4973   2.152   7.336  11.246
 1230W        W 4974   4.589   5.027  10.806
 1231W        W 4975   3.750   1.323  10.367
 1232W        W 4976   2.277   8.354   9.011
 1233W        W 4977   8.943   0.054   1.868
 1234W        W 4978   6.026   5.808   9.569
 1235W        W 4979   0.894  10.005   3.413
 1236W        W 4980   5.722   9.562   3.013
 1237W        W 4981   9.412   1.731   1.493
 1238W        W 4982   3.515   1.710   0.798
 1239W        W 4983   6.973   0.296   9.551
 1240W        W 4984   9.489   0.961   0.900
 1241W        W 4985   9.359   9.612   2.865
 1242W        W 4986   9.347   5.095   9.213
 1243W        W 4987   1.511   7.770   2.934
 1244W        W 4988   2.188   5.805   2.347
 1245W        W 4989   6.175   6.459   3.913
 1246W        W 4990   5.250   3.791   2.324
 1247W        W 4991   0.514   8.289   9.496
 1248W        W 4992   6.221   2.715  10.765
 1249W        W 4993   4.956   3.715   7.825
 1250W        W 4994   4.278   3.899  10.339
 1251W        W 4995   7.383   6.762   3.671
 1252W        W 4996   5.381   7.081  10.564
 1253W        W 4997   5.972   8.396   9.540
 1254W        W 4998   7.122   7.362   0.659
 1255W        W 4999   5.085   0.706   2.139
 1256W        W 5000   4.757   2.708  10.752
 1257W        W 5001   3.347   2.809   0.259
 1258W        W 5002   7.962   0.888   8.854
 1259W        W 5003   5.986   3.911  10.208
 1260W        W 5004   2.197   5.764   8.984
 1261W        W 5005   2.768   4.697   1.948
 1262W        W 5006   9.719   7.148   1.438
 1263W        W 5007   8.570   3.366   3.369
 1264W        W 5008   4.999   7.981   9.792
 1265W        W 5009   1.689   4.693   9.699
 1266W        W 5010   9.093   8.173   9.268
 1267W        W 5011   7.485   5.208   3.604
 1268W        W 5012   6.491   7.345   2.747
 1269W        W 5013   4.549   8.131  10.025
 1270W        W 5014   4.478   9.692   8.524
 1271W        W 5015   7.801  10.420  11.952
 1272W        W 5016   4.131   1.405   0.390
 1273W        W 5017   1.254   6.462   0.302
 1274W        W 5018   8.105   8.910   0.336
 1275W        W 5019   0.160   6.842   8.614
 1276W        W 5020   4.611   5.019   2.680
 1277W        W 5021   9.425   2.492   9.954
 1278W        W 5022  10.151   0.462   9.871
 1279W        W 5023   1.832   1.661  10.052
 1280W        W 5024   1.279   2.181   1.167
 1281W        W 5025   7.931   8.846   3.350
 1282W        W 5026  10.277   6.483   9.651
 1283W        W 5027   0.468   3.466  10.589
 1284W        W 5028   7.046   5.372   0.778
 1285W        W 5029   5.598   9.411   1.465
 1286W        W 5030   3.496   8.359   3.262
 1287W        W 5031   7.470   5.022   0.474
 1288W        W 5032   7.244   9.292   1.875
 1289W        W 5033   9.131   1.351   0.210
 1290W        W 5034   2.851   4.038   3.279
 1291W        W 5035   9.757   0.505   1.877
 1292W        W 5036   1.831   5.568   0.251
 1293W        W 5037   3.108  10.486   9.617
 1294W        W 5038   1.838  10.330  11.522
 1295W        W 5039  10.267   1.901   2.070
 1296W        W 5040   6.877   7.583   1.235
 1297W        W 5041   6.487   3.540  10.740
 1298W        W 5042   8.748  10.409   9.471
 1299W        W 5043   3.225   5.988   2.324
 1300W        W 5044   4.463   4.615   0.828
 1301W        W 5045  10.483   5.425   2.352
 1302W        W 5046   3.073   0.684   3.232
 1303W        W 5047   6.713   5.559  10.846
 1304W        W 5048   8.901   7.641   0.370
 1305W        W 5049   8.395   8.609   3.325
 1306W        W 5050   2.406   0.295   9.405
 1307W        W 5051   8.397   1.806   0.437
 1308W        W 5052   0.861   2.382   8.607
 1309W        W 5053   0.702   4.142   2.240
 1310W        W 5054   6.963   2.216   8.822
 1311W        W 5055   4.653   7.082   1.660
 1312W        W 5056   0.372   6.414  11.912
 1313W        W 5057   3.195   7.627   3.288
 1314W        W 5058   4.158   7.871   9.791
 1315W        W 5059   2.497   9.591   8.784
 1316W        W 5060   7.665   6.529   1.558
 1317W        W 5061   6.849   2.316  11.744
 1318W        W 5062   1.162   7.567  11.258
 1319W        W 5063   4.589   9.937   2.689
 1320W        W 5064   7.810   6.026   4.146
 1321W        W 5065   4.846   1.322  11.250
 1322W        W 5066   6.564   5.851   2.739
 1323W        W 5067   9.913   7.469   1.822
 1324W        W 5068   6.485   0.955   9.313
 1325W        W 5069   2.400   1.465   9.025
 1326W        W 5070   4.760   6.522   1.822
 1327W        W 5071   4.623   6.153  10.380
 1328W        W 5072   6.984   9.450   1.445
 1329W        W 5073   4.154   4.698   9.965
 1330W        W 5074   2.713   3.219  10.864
 1331W        W 5075   4.200   0.348   1.185
 1332W        W 5076   7.696   8.314   0.528
 1333W        W 5077   9.398   0.219   9.525
 1334W        W 5078   2.817   1.430   9.832
 1335W        W 5079   3.196   4.097  11.313
 1336W        W 5080   7.428   9.757   0.465
 1337W        W 5081   1.207   6.519   1.732
 1338W        W 5082  10.423   0.171   1.146
 1339W        W 5083   8.840   3.141   9.544
 1340W        W 5084   6.072   7.363   3.079
 1341W        W 5085   5.085   7.422  10.070
 1342W        W 5086   7.712   7.324   9.942
 1343W        W 5087   3.818   2.252   1.786
 1344W        W 5088   2.582   3.171  11.946
 1345W        W 5089   3.948   2.627   8.577
 1346W        W 5090   7.893   7.037   9.547
 1347W        W 5091   3.864   3.645  11.036
 1348W        W 5092   6.083   0.372   0.805
 1349W        W 5093   2.177   4.448   8.432
 1350W        W 5094   6.214   0.025  10.838
 1351W        W 5095   7.519   2.943   2.303
 1352W        W 5096   5.556   4.361  11.415
 1353W        W 5097   8.205   5.812   3.867
 1354W        W 5098   8.981   7.678   9.301
 1355W        W 5099   4.718   7.234   9.475
 1356W        W 5100   7.926   1.156   1.943
 1357W        W 5101   7.855   8.349   9.853
 1358W        W 5102   3.700   1.405   1.492
 1359W        W 5103   7.419   7.425  11.269
 1360W        W 5104   6.574   6.861   2.725
 1361W        W 5105   8.476   4.577   3.127
 1362W        W 5106   7.747   5.087   7.980
 1363W        W 5107   4.568  10.357  10.050
 1364W        W 5108   5.758   4.647   2.925
 1365W        W 5109   9.718  10.455   1.256
 1366W        W 5110  10.086   0.515  11.817
 1367W        W 5111   5.103   6.144  11.044
 1368W        W 5112   2.313   6.228   3.789
 1369W        W 5113   2.001   1.159   8.796
 1370W        W 5114   1.807   3.206  10.998
 1371W        W 5115   4.089   2.375   0.461
 1372W        W 5116   9.392   0.431   8.606
 1373W        W 5117   2.896   4.022   2.366
 1374W        W 5118   8.963   2.714  10.744
 1375W        W 5119   4.481   6.772  11.819
 1376W        W 5120   0.141   9.311  11.291
 1377W        W 5121  10.314   6.364   2.520
 1378W        W 5122   5.820   7.689   1.958
 1379W        W 5123   2.658   9.915   3.234
 1380W        W 5124   8.388   4.181   9.547
 1381W        W 5125   5.725   8.312   1.154
 1382W        W 5126   4.720   3.248   9.686
 1383W        W 5127   2.630   1.216  10.289
 1384W        W 5128   7.801  10.345   1.250
 1385W        W 5129   8.299   0.246   0.223
 1386W        W 5130   7.069   8.822   3.360
 1387W        W 5131   7.857   9.364   2.656
 1388W        W 5132   2.267   9.839   1.417
 1389W        W 5133   6.001   2.958  10.333
 1390W        W 5134   7.226   7.876   1.688
 1391W        W 5135   1.743   2.665   9.540
 1392W        W 5136   5.420   0.849  10.883
 1393W        W 5137  10.007   0.659   3.216
 1394W        W 5138   1.268   0.530  11.397
 1395W        W 5139   8.552   1.799   1.421
 1396W        W 5140   2.452   2.197   9.565
 1397W        W 5141   1.949   3.300   1.508
 1398W        W 5142   5.713   8.213   2.739
 1399W        W 5143   1.005   2.332   9.591
 1400W        W 5144   0.715   2.868  11.445
 1401W        W 5145   7.701   1.972  10.266
 1402W        W 5146   5.448   0.825   3.106
 1403W        W 5147   3.950   5.640  10.201
 1404W        W 5148   2.914   4.548  10.973
 1405W        W 5149   8.964   6.190   2.812
 1406W        W 5150   5.574   2.036   0.977
 1407W        W 5151   1.611   8.049  10.069
 1408W        W 5152   2.677   7.030   3.487
 1409W        W 5153   7.671   1.340   3.683
 1410W        W 5154   2.798   3.736   1.952
 1411W        W 5155  10.363   3.095   8.959
 1412W        W 5156   9.107   6.667   2.669
 1413W        W 5157   1.206   3.327   0.238
 1414W        W 5158   5.555   0.900   8.422
 1415W        W 5159   3.581   3.225  10.675
 1416W        W 5160   1.463   2.273   9.356
 1417W        W 5161   0.441   6.895  10.931
 1418W        W 5162   2.137   7.682   1.191
 1419W        W 5163   1.338   4.333   9.017
 1420W        W 5164   2.582   2.678   0.835
 1421W        W 5165   9.122   5.562   9.248
 1422W        W 5166   0.291   4.133  11.935
 1423W        W 5167   2.423   0.857   1.934
 1424W        W 5168   2.384   6.092   9.797
 1425W        W 5169   5.016   3.785   9.041
 1426W        W 5170   8.900   5.291   0.436
 1427W        W 5171   6.210   5.487   0.071
 1428W        W 5172   1.462   5.093   1.947
 1429W        W 5173   0.250   0.564   0.983
 1430W        W 5174   6.178   8.384  10.050
 1431W        W 5175   0.321   0.384  11.364
 1432W        W 5176   9.495   4.149   0.054
 1433W        W 5177   7.978   8.742   1.695
 1434W        W 5178  10.255   8.481   3.135
 1435W        W 5179   4.821   4.562   1.368
 1436W        W 5180   0.944   0.332   0.319
 1437W        W 5181   8.961   9.859   3.119
 1438W        W 5182   1.076  10.367   0.175
 1439W        W 5183   7.993   4.629   2.413
 1440W        W 5184  10.361  10.068   8.995
 1441W        W 5185   8.893   5.602   9.730
 1442W        W 5186   8.840   9.046  11.977
 1443W        W 5187   4.778   1.227   0.736
 1444W        W 5188   7.955   6.507   2.651
 1445W        W 5189   5.435   2.151  10.729
 1446W        W 5190   4.201   5.857  10.631
 1447W        W 5191   2.212   2.185  11.137
 1448W        W 5192   5.237   4.237   3.629
 1449W        W 5193   3.712   5.891   2.212
 1450W        W 5194   1.734   9.594   8.977
 1451W        W 5195   5.272   0.052  10.974
 1452W        W 5196   6.098   9.898   2.949
 1453W        W 5197   2.161   6.546   1.885
 1454W        W 5198   8.120   5.754   8.454
 1455W        W 5199   1.642   4.606   0.267
 1456W        W 5200   7.626   3.282  11.933
 1457W        W 5201   2.837   5.751  10.383
 1458W        W 5202   6.618   6.616   3.163
 1459W        W 5203   6.809   2.066  10.194
 1460W        W 5204   5.724   3.736   2.497
 1461W        W 5205   5.182   1.758   0.831
 1462W        W 5206   3.809   3.559   9.388
 1463W        W 5207  10.220   6.039   0.922
 1464W        W 5208   4.224   1.425   9.586
 1465W        W 5209   2.977   0.887   2.391
 1466W        W 5210   3.563   0.147  11.283
 1467W        W 5211   4.652   0.326   9.863
 1468W        W 5212   1.723   3.142   2.474
 1469W        W 5213   1.010   8.344   0.432
 1470W        W 5214   3.537   6.701   8.668
 1471W        W 5215   2.269   5.478  11.997
 1472W        W 5216   6.445   5.265   2.592
 1473W        W 5217   2.336   0.251   3.387
 1474W        W 5218   7.527   1.503   0.732
 1475W        W 5219   9.749  10.114  10.330
 1476W        W 5220   9.583   2.224   1.269
 1477W        W 5221   1.783   7.276  10.353
 1478W        W 5222   0.787   4.192   3.259
 1479W        W 5223   1.673   7.622  11.315
 1480W        W 5224   8.540   5.298   1.274
 1481W        W 5225   5.729   7.125   4.065
 1482W        W 5226   4.555   8.145   8.963
 1483W        W 5227   9.794   7.659   9.393
 1484W        W 5228   4.990   7.901   8.810
 1485W        W 5229   8.744   5.826   0.971
 1486W        W 5230   3.271   6.340   1.449
 1487W        W 5231   6.854   8.102   8.865
 1488W        W 5232   8.995   3.358   1.575
 1489W        W 5233   9.496   4.716  10.959
 1490W        W 5234   2.746   4.630   0.698
 1491W        W 5235   9.869   2.203   0.201
 1492W        W 5236  10.373   6.108   0.273
 1493W        W 5237   3.155   5.648   1.919
 1494W        W 5238   7.870   7.161  10.421
 1495W        W 5239   6.146   0.512  10.757
 1496W        W 5240   7.856   9.752  11.450
 1497W        W 5241   3.956   8.408   3.099
 1498W        W 5242   0.257   8.562   9.131
 1499W        W 5243   5.313   4.492   1.201
 1500W        W 5244   8.472   6.360   1.264
 1501W        W 5245   7.705   9.571   3.535
 1502W        W 5246   3.705  10.076   9.112
 1503W        W 5247   8.556   1.001   2.867
 1504W        W 5248   4.266   1.493  11.096
 1505W        W 5249   3.573   4.316   0.428
 1506W        W 5250   4.525   6.948   0.637
 1507W        W 5251   8.442   9.009   2.502
 1508W        W 5252   2.075   7.714   2.140
 1509W        W 5253   8.477   8.273  11.950
 1510W        W 5254   1.755   2.118   2.804
 1511W        W 5255   5.663   1.290   0.256
 1512W        W 5256   7.012   7.466   3.423
 1513W        W 5257   0.195   5.938  11.889
 1514W        W 5258   9.428   5.051   1.249
 1515W        W 5259   4.258   1.113   9.993
 1516W        W 5260   0.004   8.416  10.980
 1517W        W 5261   9.353   0.537  10.469
 1518W        W 5262   3.135   6.978   2.145
 1519W        W 5263   7.682   4.225   8.268
 1520W        W 5264   1.462   5.490  11.467
 1521W        W 5265   5.105   0.019   3.377
 1522W        W 5266   9.544   5.452   0.945
 1523W        W 5267   9.043   5.836   3.175
 1524W        W 5268   8.776   7.049   2.774
 1525W        W 5269   3.743   8.620   2.667
 1526W        W 5270   2.743  10.422  11.583
 1527W        W 5271   3.507   2.773  10.970
 1528W        W 5272   7.285   2.311   9.766
 1529W        W 5273   3.211   9.216   3.609
 1530W        W 5274  10.321   6.201   3.005
 1531W        W 5275   1.829   3.717  10.885
 1532W        W 5276   7.488   6.121   9.413
 1533W        W 5277   6.033   7.431   2.569
 1534W        W 5278   5.625   8.292   3.627
 1535W        W 5279   2.229   5.792   1.456
 1536W        W 5280   5.543   6.855   0.405
 1537W        W 5281   3.261   1.157   3.344
 1538W        W 5282  10.347   6.471   9.112
 1539W        W 5283   6.775   8.479   0.295
 1540W        W 5284   9.822   5.239  10.459
 1541W        W 5285   4.473   7.540   1.467
 1542W        W 5286   3.674   6.686   9.167
 1543W        W 5287   1.473   5.558   2.991
 1544W        W 5288   5.599   3.092   9.378
 1545W        W 5289   7.551   8.885   1.962
 1546W        W 5290  10.169   5.993   9.862
 1547W        W 5291   9.836   6.034   8.584
 1548W        W 5292   6.150   9.889   9.974
 1549W        W 5293   9.874   3.251  11.138
 1550W        W 5294   6.089   6.477  11.807
 1551W        W 5295   4.517   7.482   1.981
 1552W        W 5296   2.376   7.582  10.104
 1553W        W 5297   4.471   7.248  11.077
 1554W        W 5298   5.595   1.299   9.230
 1555W        W 5299   7.264   4.470   8.994
 1556W        W 5300   7.669   6.957   0.333
 1557W        W 5301  10.300   4.960   2.498
 1558W        W 5302   9.005   6.226   3.509
 1559W        W 5303   8.095   1.270  11.469
 1560W        W 5304   6.756   5.691   9.848
 1561W        W 5305   1.495   1.894   1.976
 1562W        W 5306   4.880   5.624   9.404
 1563W        W 5307   5.104   1.197   3.003
 1564W        W 5308   3.609   3.749   8.943
 1565W        W 5309   7.480   6.753  11.886
 1566W        W 5310   5.675   2.794   1.592
 1567W        W 5311   3.692   5.888   3.175
 1568W        W 5312   6.119   5.931  11.818
 1569W        W 5313   2.840   0.736  11.486
 1570W        W 5314   7.368   2.362  11.763
 1571W        W 5315   5.296   9.313   2.949
 1572W        W 5316   9.690   5.453   9.316
 1573W        W 5317   2.132   8.033  10.121
 1574W        W 5318   8.022   4.401   3.930
 1575W        W 5319   9.573   0.479   0.588
 1576W        W 5320   4.588   0.741   0.828
 1577W        W 5321   2.204   4.069   0.862
 1578W        W 5322   1.349   9.393  11.629
 1579W        W 5323   1.051   8.391  10.709
 1580W        W 5324   1.604   0.760   0.799
 1581W        W 5325   7.766   1.134   2.461
 1582W        W 5326   9.191   5.607   3.636
 1583W        W 5327   1.849   9.241   0.342
 1584W        W 5328   9.953   0.330   2.814
 1585W        W 5329   1.354   8.415   9.258
 1586W        W 5330   8.837   0.813   9.060
 1587W        W 5331   6.549   5.039  11.058
 1588W        W 5332   8.944   7.914   3.383
 1589W        W 5333   5.426   7.103   8.748
 1590W        W 5334   1.801   8.083   9.125
 1591W        W 5335   6.361   2.423  11.937
 1592W        W 5336   1.231   1.139   0.029
 1593W        W 5337   3.351   8.748   0.440
 1594W        W 5338   5.708   0.192  11.460
 1595W        W 5339   7.099   6.599   1.501
 1596W        W 5340   8.015   7.672  10.630
 1597W        W 5341   9.279   2.370  10.462
 1598W        W 5342   9.870   6.163   2.310
 1599W        W 5343   7.237   2.916   0.910
 1600W        W 5344   0.958   5.163   0.581
 1601W        W 5345  10.336   4.506   1.263
 1602W        W 5346   3.562   3.647   9.822
 1603W        W 5347   8.966   3.597   0.273
 1604W        W 5348   6.025   5.198  10.129
 1605W        W 5349   9.760   8.154  10.722
 1606W        W 5350   8.876   4.364   2.557
 1607W        W 5351   7.402   6.586   1.970
 1608W        W 5352   1.314   5.747   9.935
 1609W        W 5353   0.002   8.760   2.232
 1610W        W 5354   7.614   8.115   1.448
 1611W        W 5355   6.953   4.540  11.806
 1612W        W 5356   5.488   6.226   2.801
 1613W        W 5357   8.178   0.665   9.698
 1614W        W 5358   6.016   9.179   1.745
 1615W        W 5359   5.309   9.894   0.888
 1616W        W 5360   7.670   9.561  11.019
 1617W        W 5361   7.079   3.599   2.070
 1618W        W 5362   4.720   3.621   0.931
 1619W        W 5363   8.509   1.499   9.967
 1620W        W 5364   8.434   3.807   2.456
 1621W        W 5365   2.516   1.646   0.895
 1622W        W 5366   4.123   6.578   9.382
 1623W        W 5367   3.367   2.294   9.627
 1624W        W 5368   9.638   3.469  11.554
 1625W        W 5369   6.132   0.320   1.349
 1626W        W 5370   5.216   3.920   9.512
 1627W        W 5371   4.896   9.042   2.859
 1628W        W 5372   3.328   7.527   3.807
 1629W        W 5373   9.424   9.773   1.748
 1630W        W 5374   1.660  10.427   2.914
 1631W        W 5375   8.451   2.787   9.483
 1632W        W 5376   4.114   4.122   1.949
 1633W        W 5377   1.307   9.427   9.228
 1634W        W 5378   2.827   7.366   0.487
 1635W        W 5379   8.943   3.147  11.030
 1636W        W 5380   5.054  10.491   0.286
 1637W        W 5381   1.226   2.775   1.433
 1638W        W 5382   8.533   5.546  10.551
 1639W        W 5383   2.662   6.028   2.913
 1640W        W 5384   0.175   2.693   9.150
 1641W        W 5385   6.990   6.052   3.568
 1642W        W 5386   4.458   5.673  10.235
 1643W        W 5387   4.312   1.371   3.549
 1644W        W 5388   4.070   6.136   2.900
 1645W        W 5389   7.172   3.202  11.695
 1646W        W 5390   5.934   5.624  10.415
 1647W        W 5391   1.352   6.872   2.844
 1648W        W 5392   0.940   2.694  10.195
 1649W        W 5393   7.239   3.720   2.870
 1650W        W 5394   4.985   5.179   0.328
 1651W        W 5395   7.050   0.347   1.698
 1652W        W 5396   6.033   2.427   2.224
 1653W        W 5397   5.581   2.434   1.968
 1654W        W 5398   7.823   5.652   8.838
 1655W        W 5399   2.161   7.781  11.470
 1656W        W 5400   8.524   0.682   1.519
 1657W        W 5401   5.498  10.236  11.457
 1658W        W 5402   4.783   8.084  11.697
 1659W        W 5403   4.607   5.941   1.178
 1660W        W 5404  10.382   3.080   2.926
 1661W        W 5405   1.956   1.355   9.268
 1662W        W 5406   4.750   3.656  10.494
 1663W        W 5407   0.516   5.232   0.895
 1664W        W 5408   0.547   9.346   0.702
 1665W        W 5409   9.902   2.366   9.793
 1666W        W 5410   2.721   7.902   2.835
 1667W        W 5411   1.242   6.580   2.237
 1668W        W 5412   0.967   9.365   8.397
 1669W        W 5413   6.138   1.042  11.426
 1670W        W 5414   2.186   6.828   2.356
 1671W        W 5415   2.123   4.309   0.140
 1672W        W 5416   0.390   6.514   8.942
 1673W        W 5417   3.941   3.208   3.576
 1674W        W 5418   5.474   3.366   3.711
 1675W        W 5419   4.702   1.272   2.631
 1676W        W 5420   5.175   1.216   1.498
 1677W        W 5421   3.919   8.936   3.035
 1678W        W 5422   1.591   9.184  10.451
 1679W        W 5423   1.111   8.485   1.408
 1680W        W 5424   6.217   1.395   2.331
 1681W        W 5425   3.807   2.827   0.546
 1682W        W 5426   7.563   3.078   9.190
 1683W        W 5427   1.358   2.457  11.581
 1684W        W 5428   5.109   2.233   0.621
 1685W        W 5429   6.351   7.307  10.454
 1686W        W 5430   9.818   1.791  11.460
 1687W        W 5431   0.997   1.414   1.403
 1688W        W 5432   6.375   1.988   1.568
 1689W        W 5433   5.664   8.506   3.161
 1690W        W 5434   4.213   6.728   2.396
 1691W        W 5435   2.266   0.828   2.902
 1692W        W 5436   5.647   3.268   1.786
 1693W        W 5437   7.349   6.919   0.714
 1694W        W 5438   4.475   2.193   0.063
 1695W        W 5439   2.729   5.658  11.261
 1696W        W 5440   7.613   4.093   3.027
 1697W        W 5441  10.242   5.734  11.796
 1698W        W 5442   8.053   1.659  11.799
 1699W        W 5443   5.671   3.200   3.276
 1700W        W 5444   7.905   1.937  10.744
 1701W        W 5445   2.091   4.200   1.845
 1702W        W 5446   5.522  10.270   0.398
 1703W        W 5447   2.230  10.434   9.753
 1704W        W 5448   5.239   2.028   2.695
 1705W        W 5449   2.315   5.145   0.378
 1706W        W 5450   4.768   7.164   8.985
 1707W        W 5451   2.845   9.043   9.002
 1708W        W 5452  10.078   9.404   1.676
 1709W        W 5453   6.965   6.559   0.032
 1710W        W 5454   5.657   2.198   0.490
 1711W        W 5455   9.669   1.792  10.968
 1712W        W 5456   5.591   7.311   1.213
 1713W        W 5457   0.279   4.721   0.945
 1714W        W 5458   9.875   8.061  11.211
 1715W        W 5459   7.351   9.680  11.506
 1716W        W 5460   4.164   9.129   0.720
 1717W        W 5461   9.267   5.476   0.093
 1718W        W 5462   4.628   8.216   2.703
 1719W        W 5463   0.254   2.861  10.889
 1720W        W 5464   6.413   2.472   0.846
 1721W        W 5465   3.320   0.733  10.026
 1722W        W 5466   2.797   1.415  11.865
 1723W        W 5467   0.664   5.075   2.764
 1724W        W 5468  10.259   3.188   0.319
 1725W        W 5469   2.682   7.232   9.790
 1726W        W 5470   2.910   9.020  10.482
 1727W        W 5471   2.844   6.969   0.151
 1728W        W 5472   7.665   7.963   0.957
 1729W        W 5473   0.777  10.081   2.044
 1730W        W 5474   3.935   5.202  11.451
 1731W        W 5475   6.187   2.401   1.323
 1732W        W 5476  10.245   6.488  10.619
 1733W        W 5477   6.263   8.555   0.344
 1734W        W 5478   4.155   6.863   0.247
 1735W        W 5479   2.156   6.103  10.769
 1736W        W 5480   2.631   5.536   2.224
 1737W        W 5481  10.478   7.003  10.732
 1738W        W 5482   5.089   3.114  10.896
 1739W        W 5483   3.054   1.875   1.722
 1740W        W 5484   7.435   7.144   2.726
 1741W        W 5485   6.075   3.360   2.442
 1742W        W 5486   0.282   6.199  11.442
 1743W        W 5487   7.527   8.619   1.467
 1744W        W 5488   9.110   7.091   2.380
 1745W        W 5489   8.686   4.810   0.371
 1746W        W 5490   1.160   7.546   9.358
 1747W        W 5491   4.338   9.985   0.928
 1748W        W 5492   2.479   9.905  11.936
 1749W        W 5493   4.140   2.245   1.399
 1750W        W 5494   7.715   4.819  11.778
 1751W        W 5495   9.176   3.491   2.932
 1752W        W 5496   2.801   6.103   9.009
 1753W        W 5497   0.497   7.354   0.360
 1754W        W 5498   1.499   1.956   9.769
 1755W        W 5499   9.125   7.526   0.805
 1756W        W 5500  10.374   0.779   2.851
 1757W        W 5501   4.970   3.329   1.338
 1758W        W 5502   2.296   3.498  11.592
 1759W        W 5503   9.836   1.339   2.673
 1760W        W 5504   4.990   1.235   8.991
 1761W        W 5505   4.311   3.717   2.196
 1762W        W 5506   9.844   8.365  11.829
 1763W        W 5507   7.425   4.064   1.644
 1764W        W 5508   2.652   3.568   2.412
 1765W        W 5509   4.594   7.245   3.427
 1766W        W 5510   3.249   1.367   9.567
 1767W        W 5511   0.382   8.066   9.041
 1768W        W 5512   8.392   7.063   3.131
 1769W        W 5513   5.899   8.914   8.836
 1770W        W 5514   3.531   6.419  11.924
 1771W        W 5515   2.441   5.226  11.159
 1772W        W 5516   2.912   9.905   1.285
 1773W        W 5517   3.527   4.527   1.380
 1774W        W 5518   7.002  10.473  11.346
 1775W        W 5519   2.886   7.643  10.072
 1776W        W 5520   9.525   2.643   2.013
 1777W        W 5521   5.136   8.311  10.568
 1778W        W 5522   2.720   8.634   8.668
 1779W        W 5523   0.586   3.532   1.620
 1780W        W 5524   5.486   4.699  10.129
 1781W        W 5525   2.296   7.214   2.718
 1782W        W 5526   4.089   6.681   8.859
 1783W        W 5527   5.336   7.997   1.256
 1784W        W 5528   0.069   5.722  11.413
 1785W        W 5529   7.576   0.409   9.046
 1786W        W 5530   5.474   2.644   9.134
 1787W        W 5531   5.693   9.551   0.938
 1788W        W 5532   3.033   2.227   1.354
 1789W        W 5533   8.883   8.556  11.844
 1790W        W 5534   3.298   1.474  11.094
 1791W        W 5535   2.845   6.236  10.508
 1792W        W 5536   8.697   1.951   3.785
 1793W        W 5537   1.150   6.973   0.413
 1794W        W 5538   5.966   6.966   1.363
 1795W        W 5539   2.099   4.281   2.875
 1796W        W 5540   7.140   8.180   1.266
 1797W        W 5541   5.718   5.594  10.915
 1798W        W 5542   4.191   2.835   0.190
 1799W        W 5543   5.978   1.185   1.891
 1800W        W 5544   6.144   6.161   0.266
 1801W        W 5545   5.211   2.870   0.255
 1802W        W 5546   0.004   2.117  11.070
 1803W        W 5547   3.117   2.735  11.309
 1804W        W 5548   6.614   1.869   2.580
 1805W        W 5549   9.863   9.867   1.436
 1806W        W 5550   4.862   9.863  11.691
 1807W        W 5551   7.417   7.287  11.796
 1808W        W 5552   6.031   1.645   9.293
 1809W        W 5553   9.448   8.515   2.295
 1810W        W 5554   3.888   3.642  10.526
 1811W        W 5555   4.911   7.504  11.100
 1812W        W 5556   3.687   9.532   1.495
 1813W        W 5557   3.582   2.669   3.025
 1814W        W 5558   5.165   3.410   9.406
 1815W        W 5559   4.590   6.898   1.199
 1816W        W 5560  10.495   9.120  11.894
 1817W        W 5561   1.910   0.393   9.452
 1818W        W 5562   3.573   9.007   1.379
 1819W        W 5563   6.150   0.629   9.558
 1820W        W 5564   2.054   3.770   1.270
 1821W        W 5565   3.547   2.238   1.346
 1822W        W 5566   5.558   6.060   9.723
 1823W        W 5567   4.195   9.142   9.834
 1824W        W 5568   5.763  10.062   0.815
 1825W        W 5569   8.581   8.572   2.305
 1826W        W 5570   7.048   0.993  11.412
 1827W        W 5571   9.531   2.630   2.533
 1828W        W 5572   0.149   4.076   2.345
 1829W        W 5573   1.709   2.382   9.983
 1830W        W 5574   6.213   7.465   9.991
 1831W        W 5575   6.585   4.537   0.134
 1832W        W 5576   7.663   7.513   2.250
 1833W        W 5577  10.198   2.275   2.426
 1834W        W 5578   6.529   2.807   9.475
 1835W        W 5579   7.533   3.937   0.739
 1836W        W 5580   4.729   0.238   2.920
 1837W        W 5581   8.619   1.769   2.800
 1838W        W 5582   4.073   6.470  11.938
 1839W        W 5583   8.949   7.034   3.246
 1840W        W 5584   6.883   6.789   0.544
 1841W        W 5585   2.764   9.417   1.401
 1842W        W 5586   4.422   4.566   2.799
 1843W        W 5587   7.920   2.790   0.355
 1844W        W 5588   6.125   8.945   2.433
 1845W        W 5589   5.032  10.418  11.429
 1846W        W 5590   1.706   3.789   0.762
 1847W        W 5591   2.195   2.606   9.770
 1848W        W 5592   5.621   7.057   3.286
 1849W        W 5593   0.681   4.882   9.538
 1850W        W 5594   1.279   9.554   2.118
 1851W        W 5595   3.860   7.094   3.263
 1852W        W 5596   6.951   3.283   0.687
 1853W        W 5597   4.339   4.706   1.319
 1854W        W 5598  10.218   8.316  10.511
 1855W        W 5599   8.886   5.141   9.010
 1856W        W 5600   1.000   7.909   8.636
 1857W        W 5601   3.682   4.923   2.330
 1858W        W 5602   1.395   4.104  11.491
 1859W        W 5603   7.923   9.067  11.873
 1860W        W 5604   7.168   9.790   1.765
 1861W        W 5605  10.442   9.900   3.207
 1862W        W 5606   8.479   4.719   2.641
 1863W        W 5607   0.244   2.741   1.713
 1864W        W 5608  10.405   1.122   1.892
 1865W        W 5609   9.717   8.758   1.029
 1866W        W 5610   7.003   1.717   3.436
 1867W        W 5611   2.085   2.719  10.957
 1868W        W 5612   0.427   0.325   3.370
 1869W        W 5613   4.541   6.768  11.272
 1870W        W 5614   5.176   3.505   2.732
 1871W        W 5615   3.665   6.257   9.445
 1872W        W 5616   1.748   2.726   2.197
 1873W        W 5617   9.483   5.584   3.176
 1874W        W 5618   5.853   3.777   8.579
 1875W        W 5619   3.050   0.934   1.137
 1876W        W 5620   5.160   9.264  10.756
 1877W        W 5621   8.546   8.144   2.571
 1878W        W 5622   5.917   2.981   9.779
 1879W        W 5623   0.196   5.582   2.827
 1880W        W 5624   2.313   4.207   1.368
 1881W        W 5625   6.608   2.002   0.819
 1882W        W 5626   1.814   9.879  10.970
 1883W        W 5627   0.708   8.036   1.022
 1884W        W 5628  10.363   2.684   9.901
 1885W        W 5629   1.711   1.786  11.595
 1886W        W 5630   0.947   7.805   1.920
 1887W        W 5631   1.248   3.757   0.525
 1888W        W 5632   6.298   2.632   9.903
 1889W        W 5633   0.803   1.861  10.292
 1890W        W 5634   8.314   6.095   0.854
 1891W        W 5635   1.834   8.115   1.249
 1892W        W 5636   4.858   4.022   9.889
 1893W        W 5637   9.282   0.660   1.794
 1894W        W 5638  10.448   7.051   3.159
 1895W        W 5639   3.185   5.656   0.002
 1896W        W 5640   5.744   7.720   2.889
 1897W        W 5641   1.742   4.004   8.926
 1898W        W 5642   9.439   9.836   3.310
 1899W        W 5643   7.492   8.668  10.052
 1900W        W 5644   3.805   7.349   0.793
 1901W        W 5645   8.572   0.427   9.265
 1902W        W 5646   3.610   6.040   0.687
 1903W        W 5647   2.835   7.188   8.942
 1904W        W 5648   6.123   4.423   9.468
 1905W        W 5649   3.431   2.728   8.494
 1906W        W 5650   3.202   1.826  11.454
 1907W        W 5651   9.475   5.249   1.737
 1908W        W 5652  10.262   7.614   9.199
 1909W        W 5653   3.840   6.115   0.223
 1910W        W 5654   6.454   2.325   2.477
 1911W        W 5655   5.037   6.270   9.066
 1912W        W 5656   5.696   4.068   0.716
 1913W        W 5657   1.199   7.901   0.293
 1914W        W 5658   4.437  10.483   9.567
 1915W        W 5659   0.516   8.337  10.809
 1916W        W 5660   4.191   4.862   1.791
 1917W        W 5661   1.731   6.593   2.443
 1918W        W 5662  10.216   5.650   1.365
 1919W        W 5663   6.286   3.628   0.201
 1920W        W 5664   7.654   9.439   2.177
 1921W        W 5665   8.105   6.633   9.258
 1922W        W 5666   7.035   5.778   0.471
 1923W        W 5667   6.468   4.894   2.953
 1924W        W 5668   6.446   6.359  10.294
 1925W        W 5669  10.375   2.641   0.415
 1926W        W 5670   6.027   1.135   9.496
 1927W        W 5671   1.366   8.941   9.577
 1928W        W 5672  10.467   4.613   3.102
 1929W        W 5673   9.535   5.862   0.346
 1930W        W 5674   3.714   9.972  11.043
 1931W        W 5675   5.239   0.365   3.017
 1932W        W 5676   6.382   1.885   9.601
 1933W        W 5677   3.116   2.110   3.675
 1934W        W 5678   4.552   3.624   9.992
 1935W        W 5679   8.326   8.067  10.489
 1936W        W 5680   2.877   3.658  11.052
 1937W        W 5681   9.908   6.192   0.525
 1938W        W 5682   0.825   2.670   1.952
 1939W        W 5683   0.198   1.934   0.508
 1940W        W 5684   8.002   4.213   0.280
 1941W        W 5685   8.046   4.386   8.611
 1942W        W 5686   9.871   3.558   8.917
 1943W        W 5687   9.425   4.612   0.982
 1944W        W 5688  10.497  10.467   3.519
 1945W        W 5689   3.148   7.836   9.026
 1946W        W 5690   3.383   0.897   0.355
 1947W        W 5691  10.327   0.051   8.808
 1948W        W 5692   9.992   1.273   8.693
 1949W        W 5693   6.100   7.451   9.096
 1950W        W 5694   7.452   3.112   0.406
 1951W        W 5695   6.191   1.263   0.974
 1952W        W 5696   5.083   1.607   1.799
 1953W        W 5697  10.492   2.194   2.840
 1954W        W 5698   5.673   3.696   1.486
 1955W        W 5699   6.601   2.541  10.354
 1956W        W 5700   1.513   9.122   3.399
 1957W        W 5701   8.038   0.235   1.464
 1958W        W 5702   0.777   0.237   2.854
 1959W        W 5703   1.354   3.697  11.075
 1960W        W 5704   6.894   2.883   9.049
 1961W        W 5705   4.788   9.431  10.460
 1962W        W 5706   0.210   6.956   0.484
 1963W        W 5707   0.966   5.613   1.704
 1964W        W 5708   2.337   5.549   1.012
 1965W        W 5709   4.723   6.628   8.593
 1966W        W 5710   8.572   3.710   1.576
 1967W        W 5711   2.632   0.795  11.046
 1968W        W 5712   5.562   7.422   0.173
 1969W        W 5713   0.756   5.103   8.991
 1970W        W 5714   1.307   1.471   9.853
 1971W        W 5715   1.758  10.303   9.005
 1972W        W 5716   5.770   5.424   0.622
 1973W        W 5717   4.944   6.989  10.318
 1974W        W 5718   9.842   6.038   2.833
 1975W        W 5719   7.177   4.118   9.725
 1976W        W 5720  10.475   5.538   3.290
 1977W        W 5721   5.417   8.054   3.210
 1978W        W 5722   7.947   7.375   0.406
 1979W        W 5723   4.795   4.958   9.397
 1980W        W 5724   5.409   6.190   8.720
 1981W        W 5725   6.645   4.955   0.393
 1982W        W 5726  10.270   4.539   2.122
 1983W        W 5727   8.344   1.351   0.749
 1984W        W 5728   0.061   6.675  11.566
 1985W        W 5729   8.235   4.146   0.741
 1986W        W 5730   2.634   4.482   9.239
 1987W        W 5731   4.582   2.637   9.316
 1988W        W 5732   1.797   5.654   1.681
 1989W        W 5733   4.295   7.955   1.930
 1990W        W 5734  10.465   4.573  11.940
 1991W        W 5735   3.647   5.417  11.813
 1992W        W 5736   1.708   3.801   9.831
 1993W        W 5737   2.946   0.736   0.652
 1994W        W 5738   6.003   1.589   9.788
 1995W        W 5739   0.445   4.291   8.719
 1996W        W 5740  10.489   2.256   8.964
 1997W        W 5741   4.520   3.606   8.097
 1998W        W 5742   9.493  10.347   0.770
 1999W        W 5743   9.280   8.796   1.888
 2000W        W 5744   8.816   5.325   3.322
 2001W        W 5745   8.953  10.286   2.802
 2002W        W 5746  10.182   7.875  10.828
 2003W        W 5747   9.541   9.249   8.487
 2004W        W 5748   0.516   6.992   2.436
 2005W        W 5749   3.089   7.652   1.895
 2006W        W 5750  10.276   5.842   2.643
 2007W        W 5751   2.309   9.904   2.427
 2008W        W 5752   4.626   7.629   9.770
 2009W        W 5753   7.840   4.627   9.877
 2010W        W 5754   5.079   5.175   1.912
 2011W        W 5755   0.518   6.400  11.032
 2012W        W 5756   6.747   3.127   3.177
 2013W        W 5757   2.130   2.553  11.477
 2014W        W 5758   5.459   6.898   0.945
 2015W        W 5759   2.402  10.356   3.095
 2016W        W 5760   8.486   3.567   0.982
 2017W        W 5761   5.993   6.983   9.967
 2018W        W 5762   3.738   3.077  11.982
 2019W        W 5763   0.245   0.044   9.134
 2020W        W 5764   6.558  10.127   1.897
 2021W        W 5765   0.882   9.854   9.060
 2022W        W 5766   5.994   4.180   8.868
 2023W        W 5767   2.122   9.858  11.506
 2024W        W 5768   6.588   9.513   1.096
 2025W        W 5769   8.750   6.455   0.320
 2026W        W 5770   1.269   3.409  10.411
 2027W        W 5771   8.083   0.030  10.987
 2028W        W 5772   0.837   8.638   0.068
 2029W        W 5773   1.412   5.351   8.945
 2030W        W 5774   6.634   8.587   0.780
 2031W        W 5775   3.156   8.029   8.548
 2032W        W 5776   3.423   3.109   2.252
 2033W        W 5777   0.719   5.177   1.758
 2034W        W 5778   0.994   9.476   1.373
 2035W        W 5779   8.819   5.552  11.292
 2036W        W 5780   2.260   0.772   1.418
 2037W        W 5781   3.305   1.733   8.738
 2038W        W 5782   2.298   4.682   2.163
 2039W        W 5783   1.688   6.650   9.351
 2040W        W 5784  10.344  10.339  11.396
 2041W        W 5785   0.284   1.812   1.379
 2042W        W 5786   0.599   2.009   3.565
 2043W        W 5787   5.330   8.557   8.452
 2044W        W 5788   8.592   0.808   1.024
 2045W        W 5789   1.939   0.412   3.071
 2046W        W 5790   9.850   5.189  11.376
 2047W        W 5791   6.680   4.452   2.784
 2048W        W 5792   5.202   0.994   0.180
 2049W        W 5793   1.937   2.298   3.234
 2050W        W 5794   0.265   6.116   1.776
 2051W        W 5795   2.359   6.103   9.294
 2052W        W 5796   3.491   9.649   3.704
 2053W        W 5797   3.189   4.561  10.056
 2054W        W 5798   1.789   2.281  10.842
 2055W        W 5799   9.252   5.434  11.566
 2056W        W 5800  10.486   1.301   3.294
 2057W        W 5801   8.650   3.590   2.900
 2058W        W 5802   4.526   6.685  10.352
 2059W        W 5803   6.979   3.239   0.172
 2060W        W 5804   4.242  10.285   9.151
 2061W        W 5805   3.096   1.184  11.494
 2062W        W 5806   2.152   6.991   0.493
 2063W        W 5807   7.500   2.611  11.339
 2064W        W 5808   6.117   3.986   9.733
 2065W        W 5809   7.003   8.710  11.884
 2066W        W 5810   4.640   3.641   3.454
 2067W        W 5811   2.714   5.252  10.297
 2068W        W 5812   8.480   7.176  10.961
 2069W        W 5813   3.823   3.590   0.070
 2070W        W 5814   5.162   3.528   3.246
 2071W        W 5815   0.139  10.045   9.990
 2072W        W 5816   1.685   5.198   2.718
 2073W        W 5817   1.949   1.712   8.881
 2074W        W 5818   4.300   7.044   9.178
 2075W        W 5819   9.877  10.035   1.913
 2076W        W 5820   7.001   2.229   2.204
 2077W        W 5821   5.697   6.811  10.873
 2078W        W 5822   2.048   4.843   0.039
 2079W        W 5823   7.851   1.671   2.480
 2080W        W 5824   5.965   5.537   1.481
 2081W        W 5825   1.122   4.537  11.465
 2082W        W 5826   2.733   5.608  11.757
 2083W        W 5827   2.760   8.472  11.194
 2084W        W 5828   7.069   1.748   1.956
 2085W        W 5829   1.367   1.164   1.185
 2086W        W 5830   4.209   2.341   3.540
 2087W        W 5831   0.521   7.791   9.524
 2088W        W 5832   2.967  10.005  11.839
 2089W        W 5833   1.340   0.907  11.058
 2090W        W 5834   5.618   4.643   9.630
 2091W        W 5835   7.949   3.633   2.428
 2092W        W 5836   8.955   5.364   0.972
 2093W        W 5837   7.941   2.165  11.921
 2094W        W 5838   0.768   5.975   3.369
 2095W        W 5839   3.867   7.115   2.707
 2096W        W 5840   3.614   4.188   8.577
 2097W        W 5841   8.869   2.674   9.240
 2098W        W 5842   7.731   2.858   0.823
 2099W        W 5843   4.710   4.023  11.905
 2100W        W 5844   0.887  10.139   9.517
 2101W        W 5845   8.772   7.899  10.630
 2102W        W 5846   5.229   2.317   3.144
 2103W        W 5847   1.839   3.159   3.464
 2104W        W 5848   3.310   9.666  10.894
 2105W        W 5849   8.624   0.921  11.835
 2106W        W 5850  10.422   4.659  10.822
 2107W        W 5851   7.112   7.977   2.647
 2108W        W 5852   4.244   9.261   3.319
 2109W        W 5853   2.339   3.191   3.376
 2110W        W 5854   7.674   1.295  10.999
 2111W        W 5855   9.408   3.091   1.795
 2112W        W 5856   7.444   7.040   3.240
 2113W        W 5857   5.466   9.389   2.011
 2114W        W 5858   4.764   0.781   0.296
 2115W        W 5859   6.078   6.064   1.554
 2116W        W 5860   5.588   4.088   8.241
 2117W        W 5861   7.628   1.508  10.020
 2118W        W 5862   3.307   7.215   1.705
 2119W        W 5863   0.312   2.856   0.278
 2120W        W 5864   4.687   1.448  10.786
 2121W        W 5865   2.235   6.607   2.808
 2122W        W 5866   1.196   7.975  10.961
 2123W        W 5867   7.444  10.081  10.269
 2124W        W 5868   8.144   0.512   1.014
 2125W        W 5869   8.426   4.062   8.713
 2126W        W 5870   7.001   3.865   3.289
 2127W        W 5871   1.635   9.713   0.358
 2128W        W 5872   8.376   8.462   9.015
 2129W        W 5873   1.389   9.297   1.676
 2130W        W 5874   1.630   4.139   1.632
 2131W        W 5875   7.512   8.075  10.595
 2132W        W 5876   9.027   6.645   1.152
 2133W        W 5877   1.462   1.396   3.663
 2134W        W 5878   2.797   2.183   0.881
 2135W        W 5879   8.935   6.169   1.325
 2136W        W 5880   1.270   3.809  10.094
 2137W        W 5881   0.338   0.508   2.908
 2138W        W 5882   0.438   8.780   9.561
 2139W        W 5883   7.827   0.586   3.337
 2140W        W 5884   9.146   0.777   9.878
 2141W        W 5885   8.089   2.869  10.226
 2142W        W 5886   1.069   6.303   3.644
 2143W        W 5887   8.493   1.890   9.631
 2144W        W 5888   9.491   0.033   2.889
 2145W        W 5889   7.050   2.391   0.205
 2146W        W 5890   8.767   0.227   2.331
 2147W        W 5891   1.831   8.739   0.426
 2148W        W 5892  10.327   8.977   2.702
 2149W        W 5893   1.005   5.316  11.247
 2150W        W 5894   3.171   2.804   9.851
 2151W        W 5895   0.694   1.764   3.061
 2152W        W 5896   7.448   7.414   0.299
 2153W        W 5897  10.004   4.688   2.892
 2154W        W 5898   4.701   3.732   0.412
 2155W        W 5899   9.921   1.245   0.784
 2156W        W 5900   9.287   0.280  11.414
 2157W        W 5901   1.328   9.883   9.467
 2158W        W 5902   2.922   4.830   8.563
 2159W        W 5903   9.084   6.694   0.643
 2160W        W 5904   8.979   8.441   3.115
 2161W        W 5905   8.072   3.535  11.786
 2162W        W 5906   6.814   9.003   0.243
 2163W        W 5907   6.117   9.529   1.380
 2164W        W 5908   7.925   6.041   2.400
 2165W        W 5909   7.754   7.629  11.986
 2166W        W 5910   4.412   2.753   3.287
 2167W        W 5911   4.124   5.014   0.922
 2168W        W 5912   3.388   9.948   1.462
 2169W        W 5913   7.719   9.354   9.030
 2170W        W 5914  10.292   8.443   2.573
 2171W        W 5915   5.263   1.460   0.002
 2172W        W 5916   7.058   0.407  10.467
 2173W        W 5917   2.586   2.065   1.580
 2174W        W 5918   4.463   2.759   0.606
 2175W        W 5919   1.352   6.855  11.952
 2176W        W 5920   2.638   1.173   2.700
 2177W        W 5921   4.217   4.804   2.343
 2178W        W 5922   0.004   4.712   1.707
 2179W        W 5923   7.208  10.286   2.913
 2180W        W 5924   4.626   8.949  10.617
 2181W        W 5925   9.296   5.738   1.733
 2182W        W 5926   8.464   2.332   0.324
 2183W        W 5927   3.468   9.101   2.860
 2184W        W 5928   3.107   2.738   2.096
 2185W        W 5929  10.303   2.590   3.117
 2186W        W 5930   5.083   9.793   2.024
 2187W        W 5931  10.261   9.699  10.019
 2188W        W 5932   5.586   9.297   0.264
 2189W        W 5933   1.766   8.670   2.636
 2190W        W 5934   7.003   2.827   0.462
 2191W        W 5935   9.881   8.588   9.537
 2192W        W 5936   5.616   9.981   2.732
 2193W        W 5937   7.059   4.932   9.084
 2194W        W 5938   1.801   6.684  11.732
 2195W        W 5939   8.086   5.046  10.020
 2196W        W 5940   2.595   8.049   9.934
 2197W        W 5941   0.328   6.876   1.365
 2198W        W 5942   5.053   4.933  11.014
 2199W        W 5943   8.582   1.465  11.855
 2200W        W 5944   5.871   9.893  11.453
 2201W        W 5945   8.212   7.792   1.837
 2202W        W 5946   9.668   1.370   2.189
 2203W        W 5947   8.327   0.758   0.218
 2204W        W 5948   7.080  10.168   0.754
 2205W        W 5949   9.230   5.088   3.155
 2206W        W 5950   7.032   9.871  10.528
 2207W        W 5951   2.759   0.706   2.842
 2208W        W 5952   9.969   9.377  11.311
 2209W        W 5953   4.150   0.503   0.688
 2210W        W 5954   5.110   7.082  11.522
 2211W        W 5955   8.024   2.282   9.020
 2212W        W 5956   9.779   1.810   0.506
 2213W        W 5957   4.398   7.053   8.649
 2214W        W 5958   8.524   0.050   2.761
 2215W        W 5959   8.134   7.326   2.185
 2216W        W 5960   4.642   2.583  10.261
 2217W        W 5961   2.827   1.742   1.286
 2218W        W 5962   0.338   1.758  11.558
 2219W        W 5963   1.579   2.787  10.798
 2220W        W 5964   4.136   5.265   2.579
 2221W        W 5965   4.120   4.380  10.366
 2222W        W 5966   4.164   8.357   9.573
 2223W        W 5967   2.015   1.511   8.424
 2224W        W 5968   6.014   2.446  11.515
 2225W        W 5969   9.056   3.826   1.732
 2226W        W 5970  10.335  10.449   0.698
 2227W        W 5971   8.384   5.199   0.266
 2228W        W 5972   8.439   7.430   2.740
 2229W        W 5973   7.626   2.702   2.771
 2230W        W 5974   5.619   8.477   1.913
 2231W        W 5975   3.741   9.361   1.018
 2232W        W 5976   0.710   2.576  11.010
 2233W        W 5977   6.180   9.868   1.013
 2234W        W 5978   6.049  10.341   1.188
 2235W        W 5979   8.343   8.555  10.604
 2236W        W 5980   2.417   1.234  10.944
 2237W        W 5981   8.294  10.288   1.311
 2238W        W 5982  10.110   7.496   0.935
 2239W        W 5983   7.117   5.119   1.632
 2240W        W 5984   8.544   3.739  10.535
 2241W        W 5985   6.921   7.429  11.203
 2242W        W 5986   1.025   5.693  11.658
 2243W        W 5987   7.475   4.301   1.157
 2244W        W 5988   3.097   3.238  10.518
 2245W        W 5989   8.397   8.797  11.842
 2246W        W 5990   2.507   2.785  10.616
 2247W        W 5991   9.900   6.060  11.483
 2248W        W 5992   1.006   7.111   9.111
 2249W        W 5993   5.682   1.797  11.499
 2250W        W 5994   6.505   7.106   3.204
 2251W        W 5995   8.417   7.921   3.582
 2252W        W 5996   1.866   5.602   0.760
 2253W        W 5997   2.686   6.547   3.627
 2254W        W 5998   9.621   0.350   3.275
 2255W        W 5999   3.684   4.761   1.834
 2256W        W 6000   8.435   0.960   1.948
 2257W        W 6001   3.171   6.123   3.248
 2258W        W 6002   1.190   2.261  10.068
 2259W        W 6003   4.319   9.899   1.486
 2260W        W 6004   3.285   5.659   0.895
 2261W        W 6005   5.443   0.835  10.045
 2262W        W 6006   6.340   4.974   9.385
 2263W        W 6007   3.614   5.369  11.101
 2264W        W 6008   0.249   5.089   3.357
 2265W        W 6009   2.347   6.063   1.902
 2266W        W 6010   3.094   8.112   9.936
 2267W        W 6011   7.964   3.311   9.428
 2268W        W 6012   7.393   4.044  11.330
 2269W        W 6013   2.346   6.483   0.848
 2270W        W 6014   4.443   4.613   9.554
 2271W        W 6015   8.443   7.688  10.971
 2272W        W 6016   5.733   1.215   2.321
 2273W        W 6017   9.226   0.282  10.039
 2274W        W 6018   9.961   6.952   0.294
 2275W        W 6019   6.285   6.189  11.393
 2276W        W 6020   5.474   5.861  11.284
 2277W        W 6021   5.040   6.973   9.805
 2278W        W 6022   2.846   7.486  11.978
 2279W        W 6023   8.071   4.520   1.919
 2280W        W 6024   8.965   6.041   9.429
 2281W        W 6025   7.179   1.701   1.472
 2282W        W 6026  10.317   9.896   2.196
 2283W        W 6027   5.551   7.065   9.666
 2284W        W 6028   1.402   7.524   9.798
 2285W        W 6029   6.595   6.202  11.808
 2286W        W 6030   7.161   9.254  11.317
 2287W        W 6031   5.257   7.898  11.850
 2288W        W 6032   2.902   1.065   0.275
 2289W        W 6033   3.397   0.377  11.740
 2290W        W 6034   4.930   4.399   9.526
 2291W        W 6035  10.180   1.408   2.266
 2292W        W 6036   9.379   8.110  11.096
 2293W        W 6037   8.018   0.277   2.498
 2294W        W 6038   1.569   3.348  10.006
 2295W        W 6039   1.523   8.272   0.521
 2296W        W 6040   7.050   3.093   2.209
 2297W        W 6041   0.073   4.020  10.121
 2298W        W 6042   9.194   1.382   2.442
 2299W        W 6043   6.481   2.437   1.927
 2300W        W 6044   0.271   6.460   0.404
 2301W        W 6045   1.263   6.901   3.362
 2302W        W 6046   1.957  10.439   0.751
 2303W        W 6047   2.807   6.409   8.574
 2304W        W 6048   0.529   2.322   9.080
 2305W        W 6049   8.008   4.189   2.680
 2306W        W 6050   7.052   8.864   9.079
 2307W        W 6051   1.163   5.098   1.537
 2308W        W 6052   9.611  10.322  10.860
 2309W        W 6053   8.344  10.452   2.270
 2310W        W 6054   1.587   5.186   0.869
 2311W        W 6055   9.545   0.907   3.156
 2312W        W 6056   0.755   3.377   2.791
 2313W        W 6057   2.803   8.522   1.355
 2314W        W 6058   0.097   2.108   3.426
 2315W        W 6059   1.268   3.197  10.866
 2316W        W 6060   0.319   2.354  10.767
 2317W        W 6061   3.586   4.136   0.894
 2318W        W 6062   5.067   8.405  11.054
 2319W        W 6063   0.449   1.833   9.849
 2320W        W 6064   0.873   0.913  11.281
 2321W        W 6065   1.992   7.054   9.308
 2322W        W 6066   5.211   6.640  10.791
 2323W        W 6067   0.901   6.335   1.383
 2324W        W 6068   2.245  10.205  10.756
 2325W        W 6069   7.378   5.708   3.530
 2326W        W 6070   6.254   2.880  11.708
 2327W        W 6071   3.373   7.092   9.539
 2328W        W 6072   8.096   8.136   0.784
 2329W        W 6073   3.742   6.877  11.912
 2330W        W 6074   1.380   9.309   0.133
 2331W        W 6075   5.468   6.070   1.120
 2332W        W 6076   3.670   7.164  10.570
 2333W        W 6077  10.101   6.571  11.350
 2334W        W 6078   7.475   3.274  10.198
 2335W        W 6079   6.661   3.712   0.638
 2336W        W 6080   7.096   4.542   1.581
 2337W        W 6081   0.528   1.874  10.733
 2338W        W 6082   3.801   8.715   3.475
 2339W        W 6083   9.681   2.784   9.077
 2340W        W 6084   5.576   7.961   0.234
 2341W        W 6085   9.280   9.874   9.954
 2342W        W 6086   7.201   2.677   8.609
 2343W        W 6087   5.252   7.592   3.098
 2344W        W 6088   3.735   3.768  11.537
 2345W        W 6089   5.576   1.719   9.525
 2346W        W 6090   8.700   1.352   2.525
 2347W        W 6091   7.985   3.674   0.789
 2348W        W 6092   9.076   2.643   2.838
 2349W        W 6093  10.041   7.161   3.464
 2350W        W 6094   8.892   5.717  11.818
 2351W        W 6095   4.226   3.786   9.606
 2352W        W 6096   7.493   5.083   8.826
 2353W        W 6097   0.472   4.593   0.093
 2354W        W 6098   3.216   5.420  10.233
 2355W        W 6099   3.273   1.235   0.763
 2356W        W 6100   1.692   9.803   9.829
 2357W        W 6101   6.075   1.249   8.981
 2358W        W 6102   1.661   9.680  10.331
 2359W        W 6103   0.482   2.117  11.212
 2360W        W 6104   1.512  10.407   1.785
 2361W        W 6105   7.174   5.043   1.146
 2362W        W 6106   7.374   3.139   2.791
 2363W        W 6107   6.480   4.516  11.600
 2364W        W 6108   0.722   1.251  10.949
 2365W        W 6109   4.329   2.733   1.422
 2366W        W 6110   5.566   8.945   1.674
 2367W        W 6111   6.535   0.034   9.631
 2368W        W 6112   3.160   3.698   3.548
 2369W        W 6113   2.305   9.449  11.778
 2370W        W 6114  10.290   9.141   8.938
 2371W        W 6115   4.638   3.723   1.423
 2372W        W 6116   1.986   9.532   8.530
 2373W        W 6117   9.080   4.589   0.607
 2374W        W 6118   8.076   6.611   9.750
 2375W        W 6119   2.828   3.944   1.486
 2376W        W 6120  10.137   5.656   9.423
 2377W        W 6121   2.963   8.581  10.154
 2378W        W 6122   3.644   7.969  11.823
 2379W        W 6123   6.827   5.515   1.770
 2380W        W 6124   3.812   8.347   2.154
 2381W        W 6125   0.268   1.314  10.734
 2382W        W 6126   3.285   1.293  10.075
 2383W        W 6127   9.032   8.207   8.501
 2384W        W 6128   5.279   3.013   2.570
 2385W        W 6129  10.335   9.179  10.099
 2386W        W 6130   2.054   2.834   8.881
 2387W        W 6131   2.650   5.022   2.368
 2388W        W 6132   8.952   9.829   1.257
 2389W        W 6133   3.170   6.138   0.999
 2390W        W 6134   8.750   0.450   0.122
 2391W        W 6135   1.241   8.168   2.741
 2392W        W 6136   4.591   1.638   9.902
 2393W        W 6137   6.598   2.239   0.362
 2394W        W 6138   3.034   4.111   9.412
 2395W        W 6139   8.969   9.306  10.786
 2396W        W 6140   8.616   4.619   9.382
 2397W        W 6141   4.497  10.448   0.291
 2398W        W 6142   0.169   9.778  10.484
 2399W        W 6143   7.904   4.742  10.751
 2400W        W 6144   1.444   9.080   2.179
 2401W        W 6145   5.936   7.615  10.408
 2402W        W 6146   5.086   8.153   3.642
 2403W        W 6147   0.823   3.551   2.295
 2404W        W 6148   9.846   6.172  10.445
 2405W        W 6149   5.992   8.687  11.882
 2406W        W 6150   3.350   6.836  10.380
 2407W        W 6151   4.659   2.636  11.763
 2408W        W 6152   4.251   1.760   8.752
 2409W        W 6153   3.798   7.580   4.001
 2410W        W 6154   8.921   7.530   2.579
 2411W        W 6155   7.598   0.333   8.384
 2412W        W 6156  10.047   9.469   1.182
 2413W        W 6157   1.623   4.524   3.645
 2414W        W 6158   8.540   9.372  10.046
 2415W        W 6159   5.317   4.793   2.155
 2416W        W 6160   8.860  10.439  11.360
 2417W        W 6161   2.842   0.299   3.620
 2418W        W 6162   7.583   2.683   9.549
 2419W        W 6163   5.549   8.304  11.753
 2420W        W 6164  10.415   7.953   3.328
 2421W        W 6165   6.522   0.469  11.955
 2422W        W 6166   2.371   6.848   9.615
 2423W        W 6167   2.868   8.085   9.359
 2424W        W 6168   8.427   4.223   1.239
 2425W        W 6169   5.572   5.146  10.362
 2426W        W 6170   9.936   1.880   9.941
 2427W        W 6171   4.763   3.672   2.463
 2428W        W 6172  10.114   8.390   0.287
 2429W        W 6173   5.077   9.241   0.222
 2430W        W 6174   4.676   1.208  10.323
 2431W        W 6175   0.685   2.279   9.995
 2432W        W 6176   2.241   4.774   9.060
 2433W        W 6177   8.882   9.560   1.716
 2434W        W 6178   7.241   6.488   9.893
 2435W        W 6179   0.398   4.319   0.537
 2436W        W 6180   9.217   5.749   1.220
 2437W        W 6181   2.799   9.399   2.963
 2438W        W 6182   2.712   7.830   0.687
 2439W        W 6183   2.557   0.312  11.302
 2440W        W 6184   6.152   4.736  11.263
 2441W        W 6185   2.909   0.281   9.253
 2442W        W 6186   0.914   0.519   8.409
 2443W        W 6187   9.883   3.725   1.260
 2444W        W 6188   4.959   3.995   4.110
 2445W        W 6189   7.171   7.716  10.844
 2446W        W 6190   8.864   6.133   8.914
 2447W        W 6191   1.649   4.208  10.763
 2448W        W 6192   7.075   4.605   9.512
 2449W        W 6193   0.763   1.434  10.006
 2450W        W 6194   8.889   0.278   0.915
 2451W        W 6195  10.402   7.163   8.965
 2452W        W 6196   2.134   1.844  10.776
 2453W        W 6197   3.727   0.988   9.105
 2454W        W 6198   2.327   8.691   9.462
 2455W        W 6199   4.162   1.325   1.818
 2456W        W 6200   7.621   7.997   3.572
 2457W        W 6201   6.917   0.818   9.577
 2458W        W 6202   1.834   1.363   2.011
 2459W        W 6203   7.468   8.430  11.654
 2460W        W 6204   2.753   2.123   2.892
 2461W        W 6205  10.457  10.043  10.944
 2462W        W 6206   3.304   8.016   3.607
 2463W        W 6207   7.931   0.738   2.786
 2464W        W 6208   2.314   7.656   3.004
 2465W        W 6209   2.601   2.254   2.431
 2466W        W 6210  10.395   3.721   0.015
 2467W        W 6211   6.490   6.981   1.839
 2468W        W 6212   6.104  10.475   1.724
 2469W        W 6213   3.884   0.078   8.935
 2470W        W 6214   3.776   0.538   9.330
 2471W        W 6215   7.174   7.837   0.879
 2472W        W 6216   5.068   3.563   9.879
 2473W        W 6217   8.102   9.307  10.338
 2474W        W 6218   1.774   0.885   1.289
 2475W        W 6219   1.879   2.103  10.375
 2476W        W 6220   6.684   2.888   0.864
 2477W        W 6221   4.608   8.558  11.899
 2478W        W 6222   9.905   9.602   8.578
 2479W        W 6223   6.270   8.836  11.449
 2480W        W 6224   0.402   4.188   1.029
 2481W        W 6225   6.071   6.347   3.415
 2482W        W 6226   8.275   8.009   8.799
 2483W        W 6227   4.206   7.662   0.819
 2484W        W 6228   5.226  10.164  11.912
 2485W        W 6229  10.150   8.521   1.177
 2486W        W 6230   5.116   2.520  10.000
 2487W        W 6231   3.197  10.420   1.298
 2488W        W 6232   5.008   6.005  11.885
 2489W        W 6233   7.556   8.813   8.694
 2490W        W 6234   8.941   3.204   9.059
 2491W        W 6235   0.848   7.479  10.289
 2492W        W 6236   0.374   1.590  10.313
 2493W        W 6237   0.915   8.969   1.425
 2494W        W 6238  10.088   8.121   9.461
 2495W        W 6239   7.157   2.887  11.074
 2496W        W 6240   2.914   0.230   1.578
 2497W        W 6241   2.495   7.249   9.299
 2498W        W 6242   3.864   8.085   1.663
 2499W        W 6243   5.452   4.259   3.153
 2500W        W 6244   9.939   2.450  11.652
 2501W        W 6245   3.379   0.301   1.780
 2502W        W 6246   7.570   3.809  10.428
 2503W        W 6247   4.248   3.868  11.282
 2504W        W 6248   0.034   5.933   2.206
 2505W        W 6249   0.659   6.580  10.284
 2506W        W 6250   7.911   2.288   2.820
 2507W        W 6251   9.395   3.138   1.283
 2508W        W 6252   3.737   1.285   0.991
 2509W        W 6253   4.593   7.986   3.607
 2510W        W 6254   1.210   5.314  10.299
 2511W        W 6255   5.716   9.897   1.302
 2512W        W 6256   0.727   7.449   2.246
 2513W        W 6257   7.940  10.033  11.045
 2514W        W 6258   9.433   7.646  10.183
 2515W        W 6259   5.689   4.483   9.151
 2516W        W 6260   8.007   1.769   1.981
 2517W        W 6261   7.828   7.057   0.871
 2518W        W 6262   8.081   0.248   2.995
 2519W        W 6263   9.360   2.826   0.464
 2520W        W 6264   2.136   7.434   1.722
 2521W        W 6265   4.151   8.628   0.857
 2522W        W 6266   8.908   5.965  10.958
 2523W        W 6267   9.590  10.072   3.773
 2524W        W 6268   9.981   4.465   1.690
 2525W        W 6269   2.387   5.328   1.470
 2526W        W 6270  10.056   4.879  11.805
 2527W        W 6271   8.127   2.433   1.449
 2528W        W 6272   9.145   3.696   9.151
 2529W        W 6273   6.277   2.885   1.169
 2530W        W 6274  10.277   1.274   9.947
 2531W        W 6275  10.382   2.420   1.963
 2532W        W 6276   6.485   2.763   2.769
 2533W        W 6277   8.287   7.135   9.127
 2534W        W 6278   9.940  10.322   2.748
 2535W        W 6279   0.825   6.801   1.166
 2536W        W 6280   3.254   0.224  10.032
 2537W        W 6281   2.116   2.728   3.451
 2538W        W 6282   4.069   5.279   0.474
 2539W        W 6283   6.215   6.924   9.076
 2540W        W 6284   2.873   4.166   9.888
 2541W        W 6285   3.194   9.689   9.901
 2542W        W 6286   5.954   6.622  11.301
 2543W        W 6287   8.155   4.036  11.826
 2544W        W 6288   7.229   5.575   1.196
 2545W        W 6289   0.920   9.148   9.431
 2546W        W 6290   5.229   0.269   1.933
 2547W        W 6291   6.218   1.204  10.030
 2548W        W 6292   7.860   5.449   1.768
 2549W        W 6293   7.438   8.107   3.101
 2550W        W 6294   5.451   7.828   3.762
 2551W        W 6295   7.042   6.065   0.043
 2552W        W 6296   1.901   4.261   9.851
 2553W        W 6297   4.990   2.926   8.549
 2554W        W 6298   3.162   3.461   3.078
 2555W        W 6299   9.326   9.324   3.403
 2556W        W 6300   6.261   5.001   2.147
 2557W        W 6301   4.497   7.712  11.471
 2558W        W 6302   9.011   4.504  11.044
 2559W        W 6303   8.563   9.295  11.128
 2560W        W 6304   5.968   3.507   9.874
 2561W        W 6305  10.418   0.343   3.149
 2562W        W 6306   3.582   2.248   8.738
 2563W        W 6307   8.140   9.334  11.501
 2564W        W 6308   4.729   8.373   0.402
 2565W        W 6309   8.928   1.468   1.537
 2566W        W 6310   6.929   0.810  10.946
 2567W        W 6311   4.597   6.653   9.086
 2568W        W 6312   9.137   3.434   2.066
 2569W        W 6313   8.459   7.412   0.344
 2570W        W 6314   4.683   9.061  10.107
 2571W        W 6315   1.711   6.509   3.494
 2572W        W 6316   5.192   1.348   2.495
 2573W        W 6317   3.620   8.391  10.881
 2574W        W 6318   5.618   1.702   0.549
 2575W        W 6319   3.827   7.489   9.771
 2576W        W 6320   5.657   5.143   1.315
 2577W        W 6321   9.410   7.917   2.083
 2578W        W 6322   7.209   1.353   9.763
 2579W        W 6323   8.518   6.708  10.004
 2580W        W 6324   9.807   9.861   2.916
 2581W        W 6325   4.062   1.530  11.562
 2582W        W 6326   0.754   6.095   9.875
 2583W        W 6327   1.380   8.486  11.087
 2584W        W 6328   3.316   1.460  10.588
 2585W        W 6329  10.480   0.021   9.704
 2586W        W 6330   2.638   4.911   3.608
 2587W        W 6331   5.749   0.761  10.499
 2588W        W 6332   0.765   4.317   1.743
 2589W        W 6333   5.990   7.315   9.568
 2590W        W 6334   0.853   4.662   8.675
 2591W        W 6335   4.594   8.470  11.366
 2592W        W 6336   2.226   3.195  10.708
 2593W        W 6337   6.666   8.386   1.837
 2594W        W 6338   0.377   5.720   9.989
 2595W        W 6339   9.642   5.365   0.441
 2596W        W 6340   9.800   3.067   0.071
 2597W        W 6341   4.315   9.516  11.842
 2598W        W 6342   1.711   3.665  10.393
 2599W        W 6343   0.456   0.484   0.357
 2600W        W 6344   1.763   5.699   8.732
 2601W        W 6345  10.206   2.810  11.949
 2602W        W 6346   5.808   2.490   9.940
 2603W        W 6347   6.579   2.949   1.924
 2604W        W 6348   6.480   3.922  10.333
 2605W        W 6349   7.480   2.241   8.801
 2606W        W 6350   6.500  10.375  10.121
 2607W        W 6351   2.238   9.638   9.265
 2608W        W 6352   4.702   6.419   1.325
 2609W        W 6353   3.611  10.413  10.291
 2610W        W 6354   2.951   5.670   3.123
 2611W        W 6355   6.315  10.233   3.271
 2612W        W 6356   9.379   3.052   2.815
 2613W        W 6357   8.056   1.780   8.829
 2614W        W 6358   8.947   9.527   9.793
 2615W        W 6359   9.429   2.186   1.774
 2616W        W 6360   8.476   0.222   8.803
 2617W        W 6361   5.376   9.570   9.826
 2618W        W 6362   6.982   2.195   3.262
 2619W        W 6363   7.890   3.872  11.361
 2620W        W 6364   1.136   1.399  11.209
 2621W        W 6365   7.091   5.028  11.813
 2622W        W 6366   8.305   7.106   1.235
 2623W        W 6367   4.231   6.552   1.093
 2624W        W 6368   2.732   9.893  10.021
 2625W        W 6369   5.458   7.612   1.584
 2626W        W 6370   7.108   5.729  10.225
 2627W        W 6371   8.446   0.739   8.754
 2628W        W 6372   7.248   9.303   9.266
 2629W        W 6373   6.060   1.990  11.216
 2630W        W 6374   7.331   5.202  10.248
 2631W        W 6375   2.040   9.925   0.666
 2632W        W 6376   9.950   9.317  11.857
 2633W        W 6377   4.592   0.684  10.648
 2634W        W 6378   9.849   9.459  10.803
 2635W        W 6379   9.454   1.818   2.406
 2636W        W 6380   9.557   0.435   9.088
 2637W        W 6381   5.197   1.935  10.259
 2638W        W 6382   2.781   9.301   2.467
 2639W        W 6383   1.149   0.986   0.746
 2640W        W 6384   5.970   3.037   9.021
 2641W        W 6385   6.516  10.173  11.591
 2642W        W 6386   6.978   8.519  10.723
 2643W        W 6387   0.357   2.669  10.052
 2644W        W 6388   2.440   9.541   0.614
 2645W        W 6389   0.519   7.411  10.978
 2646W        W 6390   3.781   0.419   2.521
 2647W        W 6391   5.231   5.050  11.862
 2648W        W 6392   3.714   6.712   9.688
 2649W        W 6393   9.767   6.625   9.483
 2650W        W 6394   0.016   3.396   0.814
 2651W        W 6395   9.471   9.836  10.737
 2652W        W 6396   2.226  10.439  10.275
 2653W        W 6397   0.210   3.342  11.014
 2654W        W 6398   6.115   1.103   2.742
 2655W        W 6399   2.828   6.061   1.441
 2656W        W 6400   5.664   0.061   0.888
 2657W        W 6401   8.942   4.722   2.921
 2658W        W 6402   8.507   4.149   2.848
 2659W        W 6403   3.637   7.095  10.036
 2660W        W 6404   5.239   6.495   9.864
 2661W        W 6405   6.176   7.723   0.067
 2662W        W 6406   7.564   3.938   2.547
 2663W        W 6407   6.083   1.479   0.516
 2664W        W 6408   4.614   8.367   2.137
 2665W        W 6409   7.057   4.829   2.037
 2666W        W 6410   8.005   7.606   3.648
 2667W        W 6411   8.519   3.390   0.485
 2668W        W 6412   5.540   6.479  10.455
 2669W        W 6413   6.355   8.186   8.675
 2670W        W 6414   9.291   4.277   1.865
 2671W        W 6415   4.488   3.228   1.415
 2672W        W 6416   4.218   8.057  10.782
 2673W        W 6417   9.448   6.773   3.050
 2674W        W 6418   1.482   1.931   0.744
 2675W        W 6419   9.735   9.039   1.823
 2676W        W 6420   6.847   8.212   8.352
 2677W        W 6421  10.311   2.760  11.449
 2678W        W 6422   1.837   0.382   0.501
 2679W        W 6423   8.871   5.497   1.905
 2680W        W 6424   0.258   1.307  11.768
 2681W        W 6425   1.630   4.144   2.664
 2682W        W 6426   8.483   4.577   1.646
 2683W        W 6427   6.679   4.462  10.556
 2684W        W 6428   6.677   3.141  11.541
 2685W        W 6429   7.660   0.483   1.231
 2686W        W 6430   9.892   9.106  10.427
 2687W        W 6431  10.353   2.586  10.978
 2688W        W 6432   4.491   5.594   0.378
 2689W        W 6433   1.422   6.029   1.654
 2690W        W 6434   2.219   1.304   0.685
 2691W        W 6435   3.730   1.889   9.549
 2692W        W 6436   9.638   1.783   2.907
 2693W        W 6437   8.398   5.699  11.568
 2694W        W 6438   9.802   1.717   8.868
 2695W        W 6439   0.295   5.101   8.765
 2696W        W 6440   0.304   4.917  10.571
 2697W        W 6441   5.886   7.586   3.882
 2698W        W 6442   8.491   7.573   1.354
 2699W        W 6443   9.257   8.107   9.756
 2700W        W 6444   1.084   7.667   2.658
 2701W        W 6445   4.206   8.911   1.704
 2702W        W 6446   8.810   0.552   1.937
 2703W        W 6447   0.820   9.483  10.014
 2704W        W 6448   4.987   4.001   3.233
 2705W        W 6449   7.455   5.546  11.480
 2706W        W 6450   1.157   4.318  10.358
 2707W        W 6451   2.325   2.700  11.951
 2708W        W 6452   4.524   6.550   0.299
 2709W        W 6453   0.379   9.800   1.273
 2710W        W 6454   2.257   7.201   3.250
 2711W        W 6455   9.737   6.472  11.718
 2712W        W 6456   7.910   8.464   9.226
 2713W        W 6457   7.515   4.757   2.269
 2714W        W 6458   4.368   4.192   9.915
 2715W        W 6459   5.807   9.297   9.632
 2716W        W 6460   8.618   9.368  11.629
 2717W        W 6461   3.103   1.516   0.349
 2718W        W 6462   9.450   6.219  11.251
 2719W        W 6463   9.213   0.692   9.384
 2720W        W 6464   8.384   3.313  10.264
 2721W        W 6465   1.839   0.670  10.339
 2722W        W 6466   3.502   6.924   0.716
 2723W        W 6467   1.393   5.612  11.986
 2724W        W 6468   8.837   7.139   0.635
 2725W        W 6469   0.372   0.227  10.405
 2726W        W 6470   8.613   4.787  11.858
 2727W        W 6471   2.669   9.798   1.742
 2728W        W 6472   7.862   5.274   8.478
 2729W        W 6473  10.332   5.256  11.603
 2730W        W 6474   7.315   6.937   9.160
 2731W        W 6475   2.078  10.270   2.122
 2732W        W 6476   8.576   7.812  10.137
 2733W        W 6477   1.927   6.199   1.594
 2734W        W 6478   6.368   0.671   2.722
 2735W        W 6479   3.219   9.533   2.643
 2736W        W 6480   5.832   4.535   0.867
 2737W        W 6481   0.407  10.380   0.248
 2738W        W 6482   6.181   1.650   1.885
 2739W        W 6483   1.857   8.570   9.265
 2740W        W 6484   6.582  10.306  11.116
 2741W        W 6485   9.267   2.359   0.867
 2742W        W 6486   3.213   0.967  10.471
 2743W        W 6487   1.519   0.965   2.086
 2744W        W 6488   8.722   8.177   9.804
 2745W        W 6489   6.117   4.283  10.993
 2746W        W 6490   3.794   7.672  11.443
 2747W        W 6491   0.481   1.863   0.050
 2748W        W 6492   8.009   3.156   8.901
 2749W        W 6493   7.026   9.178   1.021
 2750W        W 6494   7.490   0.535   2.968
 2751W        W 6495  10.461   4.663   9.986
 2752W        W 6496   9.403   9.385   9.952
 2753W        W 6497   7.479   0.154  11.338
 2754W        W 6498   7.836   6.977   1.398
 2755W        W 6499  10.315   1.219  10.950
 2756W        W 6500   5.160   1.337  10.508
 2757W        W 6501   3.047  10.249   9.156
 2758W        W 6502   0.964   7.015   8.587
 2759W        W 6503   7.087   8.838   0.632
 2760W        W 6504   2.288   8.845   1.528
 2761W        W 6505  10.334   6.019   3.474
 2762W        W 6506   0.366   0.915   0.087
 2763W        W 6507  10.350   4.139  10.582
 2764W        W 6508   8.580   2.601   1.189
 2765W        W 6509   8.428   0.239   9.716
 2766W        W 6510   0.651   7.344   9.356
 2767W        W 6511   8.367   5.541   1.743
 2768W        W 6512   8.759   4.184   9.080
 2769W        W 6513   0.821   3.716   9.348
 2770W        W 6514   6.176   4.429   2.136
 2771W        W 6515   8.381   6.539  11.470
 2772W        W 6516   2.575   4.764  11.271
 2773W        W 6517   9.939   6.935   1.880
 2774W        W 6518   8.292   9.633   0.404
 2775W        W 6519   3.420   3.221  10.101
 2776W        W 6520   0.079   5.991   1.300
 2777W        W 6521   2.014   8.261   0.378
 2778W        W 6522  10.425   6.440   1.516
 2779W        W 6523   6.839   5.309  10.164
 2780W        W 6524   2.663   5.988   0.960
 2781W        W 6525   7.488   5.895  10.794
 2782W        W 6526   6.148  10.001   1.552
 2783W        W 6527   9.125   1.764   2.812
 2784W        W 6528   8.594   5.073   1.744
 2785W        W 6529   0.196   8.592   2.840
 2786W        W 6530   8.345   9.734  11.281
 2787W        W 6531   5.710   7.090   9.163
 2788W        W 6532   7.243   1.850  10.004
 2789W        W 6533   6.151   8.638  10.510
 2790W        W 6534   1.775   6.015   3.544
 2791W        W 6535   5.951   4.119   3.099
 2792W        W 6536   7.019   0.702   0.724
 2793W        W 6537   2.505   8.272   0.542
 2794W        W 6538   9.771   5.921   1.836
 2795W        W 6539   8.378   9.104   3.438
 2796W        W 6540   8.541   2.853  10.486
 2797W        W 6541   3.283   3.233   8.562
 2798W        W 6542   3.113   2.247  11.120
 2799W        W 6543   9.054   1.268   8.762
 2800W        W 6544   8.899   7.014   1.898
 2801W        W 6545   0.208   3.081  10.405
 2802W        W 6546  10.393   8.233   2.103
 2803W        W 6547   2.205   6.410  11.593
 2804W        W 6548  10.446   6.052   9.421
 2805W        W 6549   3.087   2.377   0.125
 2806W        W 6550   3.883   3.334   0.521
 2807W        W 6551   5.567   3.324  11.624
 2808W        W 6552   8.562   8.589   2.835
 2809W        W 6553   8.784  10.334   8.951
 2810W        W 6554   1.928   8.051   1.776
 2811W        W 6555   5.293   9.562   3.404
 2812W        W 6556   3.873   2.335   9.798
 2813W        W 6557   4.539   7.942   0.578
 2814W        W 6558   8.160   1.713  10.330
 2815W        W 6559   9.871   0.510  10.318
 2816W        W 6560   9.855   0.958  10.067
 2817W        W 6561   6.004   2.733   8.395
 2818W        W 6562   7.963   8.886   1.217
 2819W        W 6563   1.244   4.272   3.470
 2820W        W 6564   6.050   0.020   0.229
 2821W        W 6565   9.969   7.456  10.098
 2822W        W 6566   1.133   8.997   0.978
 2823W        W 6567   8.339   0.036   0.828
 2824W        W 6568   3.145   5.251   1.484
 2825W        W 6569   1.896   3.719   1.791
 2826W        W 6570   8.455   6.079   1.697
 2827W        W 6571   0.019   0.206   0.285
 2828W        W 6572   0.331   1.021   8.407
 2829W        W 6573   7.619   1.074  10.340
 2830W        W 6574   7.831   6.198   1.019
 2831W        W 6575   4.083   9.016   1.221
 2832W        W 6576  10.082   2.649   0.848
 2833W        W 6577   9.493   8.907   0.496
 2834W        W 6578   1.048   5.198   9.388
 2835W        W 6579   5.961   8.821   9.852
 2836W        W 6580   9.413   2.331   0.374
 2837W        W 6581   8.015   6.168   8.775
 2838W        W 6582   7.194   5.484  10.649
 2839W        W 6583   8.366   5.445   3.528
 2840W        W 6584   0.313   9.960  11.923
 2841W        W 6585   9.350   5.363   9.682
 2842W        W 6586   3.305   1.321   9.049
 2843W        W 6587   1.017   4.788   1.968
 2844W        W 6588   8.592   6.202   3.199
 2845W        W 6589   9.415   6.298   9.294
 2846W        W 6590   6.951  10.449   0.302
 2847W        W 6591   0.009   0.744   2.300
 2848W        W 6592   6.691   7.835  11.903
 2849W        W 6593   5.300   1.433  11.505
 2850W        W 6594   6.234   8.894   2.949
 2851W        W 6595   1.402   0.964  10.025
 2852W        W 6596   7.916   2.161   2.333
 2853W        W 6597   1.014   5.859   0.318
 2854W        W 6598   8.681   0.032   0.464
 2855W        W 6599   4.644   8.929   9.610
 2856W        W 6600   5.547   3.228   0.168
 2857W        W 6601   1.848   6.762  11.216
 2858W        W 6602   4.140   6.372   0.599
 2859W        W 6603   3.452  10.044  11.994
 2860W        W 6604   2.603   4.107  10.430
 2861W        W 6605   5.278   8.650   3.761
 2862W        W 6606   0.481   8.931   2.070
 2863W        W 6607   1.316   2.029  11.856
 2864W        W 6608   0.387   7.209   2.880
 2865W        W 6609   3.224   1.821   9.851
 2866W        W 6610   7.253   0.369  10.003
 2867W        W 6611   4.738   3.132  10.255
 2868W        W 6612   4.546   9.426   9.582
 2869W        W 6613   8.482   4.375   3.582
 2870W        W 6614   8.593   3.866   0.045
 2871W        W 6615   9.322   1.788   3.351
 2872W        W 6616   3.047   2.666   1.080
 2873W        W 6617   1.289  10.366   9.251
 2874W        W 6618   6.640   5.662   0.926
 2875W        W 6619   4.421   5.831  11.402
 2876W        W 6620   7.963   8.155  10.833
 2877W        W 6621   1.400   4.749  11.843
 2878W        W 6622   1.845   9.924   1.130
 2879W        W 6623   3.008   9.162  11.868
 2880W        W 6624   8.808   9.510   0.284
 2881W        W 6625   4.177   7.418  10.131
 2882W        W 6626   8.506   1.332  10.455
 2883W        W 6627   3.027   0.064   2.096
 2884W        W 6628   0.433   7.110   1.941
 2885W        W 6629   9.278   9.304   1.928
 2886W        W 6630   7.419   0.096   1.469
 2887W        W 6631   1.126   8.287   1.914
 2888W        W 6632   5.051   8.710   9.313
 2889W        W 6633   4.592   9.094  11.985
 2890W        W 6634   1.489   9.328   1.154
 2891W        W 6635   2.761   9.487   9.242
 2892W        W 6636   5.939   7.983   8.915
 2893W        W 6637   7.865   9.767  10.425
 2894W        W 6638   6.190   4.222   0.710
 2895W        W 6639   3.334   0.455  10.479
 2896W        W 6640   8.274   2.336   1.987
 2897W        W 6641   4.622   2.649   1.897
 2898W        W 6642  10.162   5.215   0.504
 2899W        W 6643   6.752   1.673  10.555
 2900W        W 6644   2.102   2.166   1.446
 2901W        W 6645   8.352   6.941  11.803
 2902W        W 6646   6.908   6.605  10.300
 2903W        W 6647   8.063   5.215  10.942
 2904W        W 6648   8.773   5.719   1.474
 2905W        W 6649   4.024   4.657  11.642
 2906W        W 6650   6.014   5.301   9.626
 2907W        W 6651   9.873   4.188  11.402
 2908W        W 6652   4.312   3.100   9.968
 2909W        W 6653   1.594   4.564  11.147
 2910W        W 6654   2.408   4.307   3.322
 2911W        W 6655   7.122   6.919  11.219
 2912W        W 6656   5.656   4.207   2.670
 2913W        W 6657   2.826   9.324   0.873
 2914W        W 6658   3.039   4.735   1.164
 2915W        W 6659  10.318   3.464   1.291
 2916W        W 6660   4.883   8.649   2.512
 2917W        W 6661   5.203   0.489   0.263
 2918W        W 6662   8.186   3.725   8.018
 2919W        W 6663   7.874   6.899   3.530
 2920W        W 6664   2.721   9.446   9.746
 2921W        W 6665  10.176   5.970  10.757
 2922W        W 6666   9.801   5.580   2.642
 2923W        W 6667   5.109   7.545   9.559
 2924W        W 6668   3.583   4.014   9.400
 2925W        W 6669   1.114   0.110  11.713
 2926W        W 6670   1.666  10.235   0.373
 2927W        W 6671  10.472   7.386  10.071
 2928W        W 6672   7.661   6.536   9.045
 2929W        W 6673   8.312   5.815   1.275
 2930W        W 6674   4.591   6.283  11.863
 2931W        W 6675   3.397   4.538  11.091
 2932W        W 6676   9.995   1.361   9.204
 2933W        W 6677   0.197   5.268  10.220
 2934W        W 6678   0.985   1.617  10.712
 2935W        W 6679   1.685   7.434   1.970
 2936W        W 6680   0.219   0.392  10.871
 2937W        W 6681   7.021   4.868   0.707
 2938W        W 6682   6.835   8.890   1.877
 2939W        W 6683   4.552   8.540   9.286
 2940W        W 6684   7.530   4.768   1.390
 2941W        W 6685   4.192   8.305   0.473
 2942W        W 6686   5.126   3.209  11.874
 2943W        W 6687   4.693   5.962   1.746
 2944W        W 6688   8.599   8.095   9.303
 2945W        W 6689   0.180   4.463  10.404
 2946W        W 6690   6.379   2.044  10.524
 2947W        W 6691   0.236   7.988   0.746
 2948W        W 6692   9.814   0.373  11.297
 2949W        W 6693   8.477   7.449  10.507
 2950W        W 6694   1.187   5.198  11.757
 2951W        W 6695   6.565   3.758   2.323
 2952W        W 6696   5.197   7.407   2.638
 2953W        W 6697   3.862   1.269  11.958
 2954W        W 6698   2.520   6.654   0.397
 2955W        W 6699   5.549   8.071   2.228
 2956W        W 6700   5.102   8.361   0.022
 2957W        W 6701   0.430   1.201   3.101
 2958W        W 6702   6.288   2.133  10.021
 2959W        W 6703   8.122   5.515   2.218
 2960W        W 6704   4.263   4.811   0.368
 2961W        W 6705   1.310   2.818   1.931
 2962W        W 6706   0.269   4.245   3.317
 2963W        W 6707   5.275   3.509  11.214
 2964W        W 6708   1.972   8.261  10.624
 2965W        W 6709   5.685   2.119  10.271
 2966W        W 6710   9.043   1.212   9.289
 2967W        W 6711   9.278   7.893  10.645
 2968W        W 6712   7.775   6.016   3.638
 2969W        W 6713   4.223   2.093  10.227
 2970W        W 6714   0.597   8.524   1.294
 2971W        W 6715   8.537   5.093   0.780
 2972W        W 6716   8.760   1.966   8.318
 2973W        W 6717   4.073   3.234  10.788
 2974W        W 6718   4.172   6.106  10.154
 2975W        W 6719   2.245   7.893   8.797
 2976W        W 6720   0.403   4.666   3.595
 2977W        W 6721   1.684   9.457   2.458
 2978W        W 6722   3.761   1.398   9.855
 2979W        W 6723   9.751   8.506   3.299
 2980W        W 6724   0.894   3.223   9.488
 2981W        W 6725   7.037   4.064   1.312
 2982W        W 6726   0.702   2.792   9.236
 2983W        W 6727   5.160   4.054   2.758
 2984W        W 6728   2.994   6.914   0.670
 2985W        W 6729   4.006   6.859   0.729
 2986W        W 6730   9.103   4.641   9.325
 2987W        W 6731   3.775   5.751   9.469
 2988W        W 6732   5.515   4.301   8.700
 2989W        W 6733   7.856   2.623   3.246
 2990W        W 6734   1.711   1.667  10.550
 2991W        W 6735   3.682   7.145  11.454
 2992W        W 6736   8.659   2.340   3.438
 2993W        W 6737   6.978   0.472  11.370
 2994W        W 6738   2.404   8.386  10.383
 2995W        W 6739   1.656   3.551   0.306
 2996W        W 6740   3.173   6.451   8.951
 2997W        W 6741  10.357   4.184  11.221
 2998W        W 6742   5.163   2.345   3.680
 2999W        W 6743   4.277   3.361   3.189
 3000W        W 6744   3.600   5.913  11.826
 3001W        W 6745   9.462   4.125   0.820
 3002W        W 6746   6.202   5.724   0.545
 3003W        W 6747   0.953   3.305  11.802
 3004W        W 6748   2.717   4.957   1.500
 3005W        W 6749   0.896   7.094  11.106
 3006W        W 6750   3.244   5.919  10.109
 3007W        W 6751   8.523   1.823   1.933
 3008W        W 6752   6.620   9.817   1.498
 3009W        W 6753   7.062  10.398   9.907
 3010W        W 6754   5.013   9.352  11.731
 3011W        W 6755   4.246   7.040   1.973
 3012W        W 6756   7.831   9.641   0.794
 3013W        W 6757   7.090   8.552   8.658
 3014W        W 6758  10.043   5.716   0.400
 3015W        W 6759  10.061   3.498   8.426
 3016W        W 6760   1.234   3.336   3.125
 3017W        W 6761   4.256   6.166   1.473
 3018W        W 6762   4.739   7.488   0.487
 3019W        W 6763   0.976   5.589   8.997
 3020W        W 6764   5.687   0.394  10.983
 3021W        W 6765   5.538   0.989  11.811
 3022W        W 6766   8.015   8.915   8.974
 3023W        W 6767   6.025  10.321   8.974
 3024W        W 6768   1.447   0.228   0.199
 3025W        W 6769   9.761   1.386   1.270
 3026W        W 6770   8.565   5.238   2.258
 3027W        W 6771   2.689   6.046   3.440
 3028W        W 6772   4.667   3.131   9.200
 3029W        W 6773   9.910   5.246   1.255
 3030W        W 6774   5.198   0.285   0.747
 3031W        W 6775   2.840   1.792   9.013
 3032W        W 6776   5.191   5.554  10.976
 3033W        W 6777   2.656   3.078   2.608
 3034W        W 6778   9.643   2.179   3.243
 3035W        W 6779   8.964   6.527   9.238
 3036W        W 6780   1.004   9.552   0.359
 3037W        W 6781   6.465   9.972   0.114
 3038W        W 6782   4.501   4.487  11.689
 3039W        W 6783   1.776   5.893   1.221
 3040W        W 6784   6.007   8.870   9.342
 3041W        W 6785   7.574   9.598   9.510
 3042W        W 6786   3.742   6.998   1.182
 3043W        W 6787   7.024   4.049   0.783
 3044W        W 6788   8.035   5.031   2.085
 3045W        W 6789   8.465   0.309  10.438
 3046W        W 6790   6.543   4.048  10.835
 3047W        W 6791   4.644   0.843   8.563
 3048W        W 6792   8.919   1.794  11.663
 3049W        W 6793  10.191   7.521   3.092
 3050W        W 6794   3.192   4.946   3.165
 3051W        W 6795   5.960   3.625   3.255
 3052W        W 6796   1.495   7.574  10.813
 3053W        W 6797   0.437   2.249  11.705
 3054W        W 6798   4.702   9.600   1.345
 3055W        W 6799   8.071   3.405  11.302
 3056W        W 6800   5.172   7.489   9.036
 3057W        W 6801   2.188  10.320   1.202
 3058W        W 6802   1.934   5.148   1.745
 3059W        W 6803   9.079   5.020  10.945
 3060W        W 6804   4.626   2.526   1.032
 3061W        W 6805   1.906   3.170  11.521
 3062W        W 6806   3.790   6.251  11.485
 3063W        W 6807  10.323   1.775   9.619
 3064W        W 6808   1.274   3.888  10.609
 3065W        W 6809   9.452   5.523  10.149
 3066W        W 6810   9.990   5.672   3.176
 3067W        W 6811   6.628   6.151   2.288
 3068W        W 6812   3.800   7.113   8.865
 3069W        W 6813   3.116   6.381  11.325
 3070W        W 6814   1.838   5.028   8.879
 3071W        W 6815   2.589   3.723  10.094
 3072W        W 6816   7.870   9.888   8.794
 3073W        W 6817   4.287   8.429  10.428
 3074W        W 6818   0.707   7.881  10.943
 3075W        W 6819  10.481   6.954   9.803
 3076W        W 6820   4.200   9.409   1.588
 3077W        W 6821   2.041   0.278  11.390
 3078W        W 6822   8.161   2.897   1.211
 3079W        W 6823   2.044   8.526   1.826
 3080W        W 6824   1.177   1.311  10.329
 3081W        W 6825   7.463   6.628   2.469
 3082W        W 6826   7.479   0.788   8.688
 3083W        W 6827   6.737   1.789   1.270
 3084W        W 6828   0.207   7.008   9.345
 3085W        W 6829   2.799   1.257   9.312
 3086W        W 6830   7.490   4.088   0.258
 3087W        W 6831   2.571   2.785   8.980
 3088W        W 6832   4.386   0.773   3.215
 3089W        W 6833   7.483   5.523   0.363
 3090W        W 6834   3.330   7.503   9.867
 3091W        W 6835   4.841   0.353   8.626
 3092W        W 6836   0.500   9.480   9.180
 3093W        W 6837   3.541   8.658  11.305
 3094W        W 6838   6.499   0.026   0.971
 3095W        W 6839  10.250   5.168   9.275
 3096W        W 6840   2.575   1.442   0.354
 3097W        W 6841   7.229   7.473   9.922
 3098W        W 6842   3.828   6.588   2.694
 3099W        W 6843   3.330   1.778   1.260
 3100W        W 6844   7.507   0.155   0.327
 3101W        W 6845   6.456   5.519   9.474
 3102W        W 6846   9.156   5.859   2.251
 3103W        W 6847   4.503   9.892   3.198
 3104W        W 6848   5.935   7.579  11.307
 3105W        W 6849   6.700   3.435  10.278
 3106W        W 6850   9.684   1.414   3.277
 3107W        W 6851   6.745   2.778  11.944
 3108W        W 6852   3.141   6.106  10.901
 3109W        W 6853   7.400   0.059   9.389
 3110W        W 6854   1.914   4.480   2.419
 3111W        W 6855   5.717   5.604   9.956
 3112W        W 6856   6.490   6.365   2.725
 3113W        W 6857   3.451   0.065   9.250
 3114W        W 6858   8.536   9.081   2.981
 3115W        W 6859   0.772   0.582   3.678
 3116W        W 6860   9.451   4.664   8.962
 3117W        W 6861   3.982   2.961   3.126
 3118W        W 6862   2.214   9.059   0.766
 3119W        W 6863   2.301   1.974   9.133
 3120W        W 6864   2.885   9.504  10.642
 3121W        W 6865   1.373   9.948   8.961
 3122W        W 6866   9.039   7.497   2.086
 3123W        W 6867   7.421   1.473   3.211
 3124W        W 6868   8.976   2.203   9.027
 3125W        W 6869   0.771   6.357   9.388
 3126W        W 6870   0.038  10.457  10.695
 3127W        W 6871   9.763   7.229   2.250
 3128W        W 6872   2.571   7.649   1.951
 3129W        W 6873   5.922   2.562   8.873
 3130W        W 6874   2.720   9.524   0.171
 3131W        W 6875   4.215   8.184   2.390
 3132W        W 6876   9.801   3.340   2.956
 3133W        W 6877   3.791   9.465  10.798
 3134W        W 6878   0.243   4.449  11.498
 3135W        W 6879   6.572   4.635   9.690
 3136W        W 6880   7.466  10.431   1.933
 3137W        W 6881   0.152   0.442  11.846
 3138W        W 6882   6.476   3.104  11.051
 3139W        W 6883   0.057   9.476   0.860
 3140W        W 6884   8.297   8.420   9.559
 3141W        W 6885   3.763   6.491  10.151
 3142W        W 6886   7.335   5.613   1.696
 3143W        W 6887   1.484   8.895   8.453
 3144W        W 6888   8.438   1.658  11.418
 3145W        W 6889   1.754   3.655  11.429
 3146W        W 6890   6.249   1.510   0.011
 3147W        W 6891   2.704   6.979   2.465
 3148W        W 6892   0.031   1.828  10.621
 3149W        W 6893   7.179   6.148   8.556
 3150W        W 6894   8.815   7.015  10.290
 3151W        W 6895   0.790   6.832   1.659
 3152W        W 6896   7.583  10.226   0.615
 3153W        W 6897   5.349   3.815   8.630
 3154W        W 6898   9.501   0.060  10.421
 3155W        W 6899   2.304   8.131   2.574
 3156W        W 6900   1.640   8.604   2.137
 3157W        W 6901   8.209   2.603  11.972
 3158W        W 6902   4.678   5.215  10.328
 3159W        W 6903   0.044   0.845  10.685
 3160W        W 6904   9.887   4.470   0.795
 3161W        W 6905   0.962   6.611   0.724
 3162W        W 6906   7.409   9.504  10.571
 3163W        W 6907   5.165  10.274   2.045
 3164W        W 6908  10.423   6.416   2.032
 3165W        W 6909   3.027   1.879  11.955
 3166W        W 6910   4.841   3.365   8.799
 3167W        W 6911   7.676   0.929   1.512
 3168W        W 6912   5.747   2.687  10.922
 3169W        W 6913   3.113   6.185   2.761
 3170W        W 6914   6.328   9.075   0.362
 3171W        W 6915   6.176   4.303  10.500
 3172W        W 6916   2.350   8.130   2.064
 3173W        W 6917   7.636   9.928  11.859
 3174W        W 6918   5.161   5.629   1.155
 3175W        W 6919   4.158   1.581  10.174
 3176W        W 6920   3.608   5.219   2.746
 3177W        W 6921   6.127   0.169   9.344
 3178W        W 6922   4.124   1.363   9.073
 3179W        W 6923   4.982   2.735   0.694
 3180W        W 6924   1.004   8.437   9.934
 3181W        W 6925  10.366   8.230   9.040
 3182W        W 6926   2.270   5.637   9.503
 3183W        W 6927   0.933   1.000   9.226
 3184W        W 6928   2.510   4.237   0.467
 3185W        W 6929   5.578   8.050  10.393
 3186W        W 6930   6.893   3.031   2.693
 3187W        W 6931   3.308   4.520  10.600
 3188W        W 6932   6.921   5.389  11.485
 3189W        W 6933   0.469   3.779  11.001
 3190W        W 6934   9.848   1.411   9.697
 3191W        W 6935   6.261   5.631   9.986
 3192W        W 6936   5.978   5.075   1.715
 3193W        W 6937   8.919   8.078  11.693
 3194W        W 6938   8.540   8.553   1.765
 3195W        W 6939   6.594   1.254   8.897
 3196W        W 6940   2.139   9.667   0.231
 3197W        W 6941   5.209   7.552   0.989
 3198W        W 6942   4.151   6.177   8.791
 3199W        W 6943   8.095   0.445   9.090
 3200W        W 6944   2.767   4.447   1.477
 3201W        W 6945   2.634   4.577   8.236
 3202W        W 6946   2.213   1.490  11.706
 3203W        W 6947   6.029   6.108  10.525
 3204W        W 6948   3.135   4.124  10.317
 3205W        W 6949   3.197   0.385   0.238
 3206W        W 6950   9.917  10.256   0.484
 3207W        W 6951   8.871   8.826   1.279
 3208W        W 6952   7.172   3.554   3.696
 3209W        W 6953   9.301   6.886  10.378
 3210W        W 6954   0.633   8.416  11.641
 3211W        W 6955   4.588   7.148   9.989
 3212W        W 6956   8.144   9.535  10.839
 3213W        W 6957   9.428   7.574   0.366
 3214W        W 6958   3.177   8.350   9.009
 3215W        W 6959   1.918   8.535  11.952
 3216W        W 6960   6.062   9.522   0.337
 3217W        W 6961   4.045   4.895  10.462
 3218W        W 6962   4.650   9.108   1.872
 3219W        W 6963   8.426   5.084   2.998
 3220W        W 6964   0.237   5.517   1.436
 3221W        W 6965   4.053   9.711  11.444
 3222W        W 6966   1.532   3.532   3.612
 3223W        W 6967   0.733   7.453   8.725
 3224W        W 6968   1.355   5.620  10.984
 3225W        W 6969   9.453   6.173   1.452
 3226W        W 6970   4.756  10.372  11.850
 3227W        W 6971   0.928   6.089   1.855
 3228W        W 6972   0.451   9.986  10.883
 3229W        W 6973   7.843   0.133   0.860
 3230W        W 6974   5.662   7.994   9.571
 3231W        W 6975   6.320   5.444   1.837
 3232W        W 6976   9.952   3.734   2.678
 3233W        W 6977   2.836   5.170  11.487
 3234W        W 6978   8.446   9.734   9.675
 3235W        W 6979   9.971   0.394   1.404
 3236W        W 6980   6.374   9.475  10.824
 3237W        W 6981   9.301   4.946   0.261
 3238W        W 6982   0.785   3.636   0.274
 3239W        W 6983   4.997   4.826  10.283
 3240W        W 6984  10.398   7.998  11.315
 3241W        W 6985   6.768   1.207  10.015
 3242W        W 6986   0.623   1.642   0.492
 3243W        W 6987   1.990   6.319   9.572
 3244W        W 6988   6.061   9.355  11.432
 3245W        W 6989  10.148   7.339   9.636
 3246W        W 6990   6.143   3.528   8.928
 3247W        W 6991   3.781   6.315   8.419
 3248W        W 6992   2.859   6.094   1.952
 3249W        W 6993   5.222   6.992   2.336
 3250W        W 6994   7.787   4.375   0.731
 3251W        W 6995   8.090   9.781   2.906
 3252W        W 6996   6.754   6.576   8.573
 3253W        W 6997  10.207   9.071   0.914
 3254W        W 6998   9.054   8.020  10.208
 3255W        W 6999   5.206   0.366   8.988
 3256W        W 7000   0.419   1.959   2.671
 3257W        W 7001   5.989   5.120   2.798
 3258W        W 7002   3.612   7.890   3.055
 3259W        W 7003   2.758   0.282   3.098
 3260W        W 7004   9.365   1.210   1.573
 3261W        W 7005   7.948   3.308   9.985
 3262W        W 7006   8.149   0.952   1.303
 3263W        W 7007   3.152   5.012   2.360
 3264W        W 7008   6.629   0.997   2.992
 3265W        W 7009   6.096   8.108  10.520
 3266W        W 7010   1.917   5.591   3.250
 3267W        W 7011   7.214   5.437   9.786
 3268W        W 7012  10.498   5.295   1.028
 3269W        W 7013   0.700   5.283  11.668
 3270W        W 7014   9.114  10.305   0.421
 3271W        W 7015   8.663   4.650  10.287
 3272W        W 7016  10.140   0.353   3.586
 3273W        W 7017   5.327   8.370   9.578
 3274W        W 7018   9.611   6.702  11.284
 3275W        W 7019   7.860   4.248  10.463
 3276W        W 7020   8.425   6.950   9.571
 3277W        W 7021   7.359   6.253   3.840
 3278W        W 7022   5.551   3.781   2.966
 3279W        W 7023   5.791   5.791   0.255
 3280W        W 7024   3.118   2.723   1.574
 3281W        W 7025   5.090   6.760   8.942
 3282W        W 7026   7.876   4.232   9.575
 3283W        W 7027   2.712   6.674   9.005
 3284W        W 7028   3.600   9.485  11.293
 3285W        W 7029   7.924   0.396  11.492
 3286W        W 7030   7.655   5.576   8.108
 3287W        W 7031   8.596   5.459   9.314
 3288W        W 7032   8.205   0.587   3.669
 3289W        W 7033   2.736   6.508   2.663
 3290W        W 7034   5.315   5.580   3.148
 3291W        W 7035   7.363   0.552   3.545
 3292W        W 7036   3.770   9.161   1.823
 3293W        W 7037   6.591   6.007   9.281
 3294W        W 7038   6.460   8.637   2.218
 3295W        W 7039   0.119   8.426  11.551
 3296W        W 7040   5.922   7.112   8.176
 3297W        W 7041   1.424   2.408  10.486
 3298W        W 7042   7.439   3.411   0.826
 3299W        W 7043   0.982   1.802   2.088
 3300W        W 7044   7.350  10.324  11.697
 3301W        W 7045   6.167   3.243   1.947
 3302W        W 7046   7.870   4.690   8.996
 3303W        W 7047   4.227   9.621   0.318
 3304W        W 7048  10.051   5.476  10.828
 3305W        W 7049   6.453   8.081   2.201
 3306W        W 7050   0.011   7.467  10.977
 3307W        W 7051   1.178   0.460   9.946
 3308W        W 7052   1.674   1.781   9.309
 3309W        W 7053   5.737   1.872   2.008
 3310W        W 7054   3.014   2.795  10.801
 3311W        W 7055   9.909   5.218   2.306
 3312W        W 7056   8.564   9.794   2.072
 3313W        W 7057  10.377   9.869   1.170
 3314W        W 7058   4.318   7.134   2.977
 3315W        W 7059   4.017   6.343   3.368
 3316W        W 7060   4.311   1.390   2.313
 3317W        W 7061   9.993   9.793   0.228
 3318W        W 7062   5.247   4.756   9.274
 3319W        W 7063   2.208  10.303   8.519
 3320W        W 7064   4.715   7.506   8.598
 3321W        W 7065   3.693   7.849   0.730
 3322W        W 7066   7.408   7.651   1.283
 3323W        W 7067   8.685   9.897   3.534
 3324W        W 7068   2.708   4.988   9.017
 3325W        W 7069   6.487   9.260  11.695
 3326W        W 7070   1.901   2.625  10.431
 3327W        W 7071   8.528   1.028   3.506
 3328W        W 7072   8.200   1.231   0.066
 3329W        W 7073   5.573   3.633   0.468
 3330W        W 7074   7.016   4.498   1.051
 3331W        W 7075   2.341   0.430  10.470
 3332W        W 7076   2.858   9.520   3.446
 3333W        W 7077   0.673   0.420  10.027
 3334W        W 7078   9.333   7.467   1.253
 3335W        W 7079  10.265   7.068   0.694
 3336W        W 7080   4.707   7.670   9.194
 3337W        W 7081   0.169   8.071   9.926
 3338W        W 7082   8.130   7.552  10.128
 3339W        W 7083   9.115   0.322   0.448
 3340W        W 7084   8.988   9.362   8.756
 3341W        W 7085   1.773   1.231   0.894
 3342W        W 7086   5.682   3.632   0.964
 3343W        W 7087   7.329   1.785   9.481
 3344W        W 7088   4.041  10.244   3.281
 3345W        W 7089   1.856   2.200   9.013
 3346W        W 7090   3.634   0.511  10.940
 3347W        W 7091   3.410   4.532   0.011
 3348W        W 7092   2.425   1.924  10.365
 3349W        W 7093   1.279   5.086   2.435
 3350W        W 7094   1.065   5.200   8.577
 3351W        W 7095   4.343   3.672  10.820
 3352W        W 7096   0.277   3.364   2.421
 3353W        W 7097   8.958   7.961   2.324
 3354W        W 7098   4.596   8.337   0.905
 3355W        W 7099   3.933   4.618   8.667
 3356W        W 7100   2.982  10.312   0.850
 3357W        W 7101   8.402   5.008   9.093
 3358W        W 7102   2.440   8.604   3.324
 3359W        W 7103   5.340   0.745   1.671
 3360W        W 7104   8.420   6.078   0.358
 3361W        W 7105   5.140   3.329   0.862
 3362W        W 7106   6.993  10.036   2.158
 3363W        W 7107   2.119   8.918  10.040
 3364W        W 7108   0.816   5.193   2.255
 3365W        W 7109   5.685   9.907  11.940
 3366W        W 7110   8.129   3.637   1.357
 3367W        W 7111   5.694   7.587   3.377
 3368W        W 7112   6.772   2.842   9.938
 3369W        W 7113   5.813   4.489   0.253
 3370W        W 7114  10.423   9.472   8.495
 3371W        W 7115   5.417   2.144   9.816
 3372W        W 7116   8.942   2.758   3.336
 3373W        W 7117   4.212   8.428   1.799
 3374W        W 7118  10.013   0.017   3.206
 3375W        W 7119   4.961   7.685   1.416
 3376W        W 7120   1.829   2.809   0.738
 3377W        W 7121   5.723   7.826  10.840
 3378W        W 7122   3.824   0.539  11.501
 3379W        W 7123   6.632   8.557   8.929
 3380W        W 7124   9.593   2.785   0.919
 3381W        W 7125   9.466   8.933  10.175
 3382W        W 7126   6.221   2.657   3.709
 3383W        W 7127   3.588   8.912  10.801
 3384W        W 7128   3.144   7.769   0.394
 3385W        W 7129   4.080   4.022   0.966
 3386W        W 7130   1.360   5.506   0.489
 3387W        W 7131   7.736   8.130   2.695
 3388W        W 7132   5.108   9.919   1.355
 3389W        W 7133   3.254   6.927   9.056
 3390W        W 7134   8.104   5.462   3.079
 3391W        W 7135   9.373   0.450   1.049
 3392W        W 7136   8.864   3.225  10.050
 3393W        W 7137   9.029   9.342  11.336
 3394W        W 7138   5.709   2.671   3.793
 3395W        W 7139   1.777   5.519  10.721
 3396W        W 7140   6.936   4.275  11.388
 3397W        W 7141   4.271   3.883   0.169
 3398W        W 7142   2.193   8.092  11.068
 3399W        W 7143   6.180   7.638   8.600
 3400W        W 7144   1.776   1.243   9.745
 3401W        W 7145   5.420   6.489   0.023
 3402W        W 7146   1.311   7.143  10.130
 3403W        W 7147   8.919   3.582  11.768
 3404W        W 7148   6.043   5.184  11.625
 3405W        W 7149   0.514   7.858  10.455
 3406W        W 7150   7.428   6.520  11.380
 3407W        W 7151   8.174   7.862   2.754
 3408W        W 7152   2.545   0.169   1.912
 3409W        W 7153  10.192   0.528  10.935
 3410W        W 7154   6.388  10.488   2.250
 3411W        W 7155   2.759   5.110   4.059
 3412W        W 7156   8.361  10.330  10.320
 3413W        W 7157   9.025   3.516   8.664
 3414W        W 7158   7.177   3.682   0.462
 3415W        W 7159   8.209   7.979   9.824
 3416W        W 7160   0.692   1.200  10.453
 3417W        W 7161   6.753   9.296   9.406
 3418W        W 7162   1.144   0.464   1.886
 3419W        W 7163   4.205   9.353  11.130
 3420W        W 7164   4.972   7.419  10.598
 3421W        W 7165   8.165   6.924   0.285
 3422W        W 7166   4.722   5.449   9.853
 3423W        W 7167   4.019   6.591  11.085
 3424W        W 7168   7.063   8.314   3.468
 3425W        W 7169   3.867   1.956   3.482
 3426W        W 7170   7.404   6.292   0.771
 3427W        W 7171   4.235   3.209   8.914
 3428W        W 7172   0.963   0.404   2.381
 3429W        W 7173   4.297   0.920   0.390
 3430W        W 7174   5.237   1.260   0.990
 3431W        W 7175   7.503   4.760   0.893
 3432W        W 7176   6.938   3.741  10.919
 3433W        W 7177   7.118   1.699   0.947
 3434W        W 7178   5.477   4.894   0.908
 3435W        W 7179   7.155   0.381   8.655
 3436W        W 7180   1.888   6.216   9.045
 3437W        W 7181   6.080   6.818   3.237
 3438W        W 7182   6.475   4.825  10.238
 3439W        W 7183   2.106   9.932   8.861
 3440W        W 7184   3.599   0.837  11.864
 3441W        W 7185   6.545   6.277   3.531
 3442W        W 7186   3.620   9.953  10.538
 3443W        W 7187   7.570   9.078   2.998
 3444W        W 7188   6.466   8.291   9.384
 3445W        W 7189   0.341   1.574   9.389
 3446W        W 7190   9.381   4.866   9.663
 3447W        W 7191   6.096   2.859   0.687
 3448W        W 7192   1.157   4.280   2.463
 3449W        W 7193   8.925   4.869   2.421
 3450W        W 7194   9.499   3.562   1.606
 3451W        W 7195   4.342   2.791   2.316
 3452W        W 7196   0.699   9.209  10.437
 3453W        W 7197   3.854   8.524   1.278
 3454W        W 7198   1.070   2.819   8.834
 3455W        W 7199   4.750   3.048   4.069
 3456W        W 7200   7.052   1.902   0.010
 3457W        W 7201   0.634   6.607   8.490
 3458W        W 7202   1.727   6.083   2.538
 3459W        W 7203   6.962   7.933   3.148
 3460W        W 7204   5.161   8.327   2.833
 3461W        W 7205   5.365   8.834   0.409
 3462W        W 7206   8.785   5.613   8.835
 3463W        W 7207   7.007   9.259  11.827
 3464W        W 7208  10.387  10.214   0.237
 3465W        W 7209   1.474   3.240   0.678
 3466W        W 7210   7.072   6.593   0.997
 3467W        W 7211  10.362   0.678   0.214
 3468W        W 7212   9.922   4.183   9.609
 3469W        W 7213   3.314   5.011  11.298
 3470W        W 7214   7.886   6.914   2.963
 3471W        W 7215   4.716   3.040   1.001
 3472W        W 7216   4.113   4.127  11.726
 3473W        W 7217   9.446   8.334   1.805
 3474W        W 7218   0.851   2.850   0.983
 3475W        W 7219   2.903   5.199   1.934
 3476W        W 7220   1.032   2.298   9.085
 3477W        W 7221   9.888   7.109  11.407
 3478W        W 7222   5.682   7.118  11.347
 3479W        W 7223  10.123   4.565   0.367
 3480W        W 7224   5.565  10.005   3.293
 3481W        W 7225   5.147   1.244   9.504
 3482W        W 7226   1.230   4.243   2.963
 3483W        W 7227   9.734   3.992   9.168
 3484W        W 7228   3.738   8.201  11.372
 3485W        W 7229   0.427   8.635  11.206
 3486W        W 7230  10.233   2.174   0.594
 3487W        W 7231   5.104   0.688  11.779
 3488W        W 7232   7.222   1.885  10.529
 3489W        W 7233   3.825   8.806   9.945
 3490W        W 7234   8.068   3.236   0.193
 3491W        W 7235   1.857   7.885   0.761
 3492W        W 7236   5.528   8.807   1.172
 3493W        W 7237   1.285   8.112  11.442
 3494W        W 7238   9.916   4.692   3.420
 3495W        W 7239   2.682   2.980   1.263
 3496W        W 7240   6.544   8.982   1.120
 3497W        W 7241   1.962   3.516   2.731
 3498W        W 7242   8.717   0.539  10.063
 3499W        W 7243   6.612   6.736   1.384
 3500W        W 7244   5.626   9.969  10.074
 3501W        W 7245   8.788   3.620  10.980
 3502W        W 7246  10.010   0.280   0.303
 3503W        W 7247   9.853   8.327   2.838
 3504W        W 7248   3.173   1.331   1.458
 3505W        W 7249   5.652   6.293   3.714
 3506W        W 7250   4.520   7.647   8.081
 3507W        W 7251   2.829   8.099  10.382
 3508W        W 7252   6.713   5.930  11.282
 3509W        W 7253   2.629  10.313   3.568
 3510W        W 7254   1.377  10.083  11.127
 3511W        W 7255   1.886   6.971   1.960
 3512W        W 7256   3.186   4.766   1.676
 3513W        W 7257   7.102   0.275   3.133
 3514W        W 7258   7.941   0.809  10.694
 3515W        W 7259   2.323   2.882   0.438
 3516W        W 7260   3.066   1.872  10.778
 3517W        W 7261   1.332   3.077   3.547
 3518W        W 7262   8.025   3.533   3.351
 3519W        W 7263  10.234   9.443   2.976
 3520W        W 7264   2.936   1.178  10.839
 3521W        W 7265   0.252   4.291   1.908
 3522W        W 7266   9.707  10.311   9.590
 3523W        W 7267   1.322   1.804  10.249
 3524W        W 7268   7.244   7.885   9.634
 3525W        W 7269   4.496   0.793   2.726
 3526W        W 7270   5.766   8.070   1.612
 3527W        W 7271   1.191   4.297  11.925
 3528W        W 7272   3.109   9.912  10.439
 3529W        W 7273   6.586   0.177   1.833
 3530W        W 7274   5.384   0.483   3.509
 3531W        W 7275   5.087   9.980   2.499
 3532W        W 7276   0.621   0.232  11.936
 3533W        W 7277   6.581   4.498  11.088
 3534W        W 7278   0.738   0.411  11.053
 3535W        W 7279   2.925   1.644  10.291
 3536W        W 7280   3.180   7.868   0.923
 3537W        W 7281   2.641   4.251  11.950
 3538W        W 7282   2.274   1.653  11.231
 3539W        W 7283   4.657   9.614   9.081
 3540W        W 7284   3.719   0.324   0.985
 3541W        W 7285   5.019   6.068   0.866
 3542W        W 7286   3.353   2.687  11.768
 3543W        W 7287   0.427   4.012   1.524
 3544W        W 7288   7.591   7.423  10.770
 3545W        W 7289   7.112   6.228  11.071
 3546W        W 7290   8.426   8.935   0.981
 3547W        W 7291   0.573   2.535   3.484
 3548W        W 7292   0.388   7.439  11.867
 3549W        W 7293   3.567   4.971  10.719
 3550W        W 7294   7.101   8.869   9.608
 3551W        W 7295   9.764   4.296   3.155
 3552W        W 7296   3.641   8.502  11.799
 3553W        W 7297   3.980   0.044   2.188
 3554W        W 7298   6.956   7.896   2.103
 3555W        W 7299   1.376   4.974  11.359
 3556W        W 7300   0.325   5.290  11.324
 3557W        W 7301   7.535   3.192   9.698
 3558W        W 7302  10.008   9.108   9.415
 3559W        W 7303   7.129   0.404   1.179
 3560W        W 7304   0.575   1.395   8.981
 3561W        W 7305   5.712   6.434   1.440
 3562W        W 7306   8.875   0.548  10.627
 3563W        W 7307   0.817   7.016  10.078
 3564W        W 7308   4.547   7.650  10.763
 3565W        W 7309   2.348   6.879   8.114
 3566W        W 7310   4.729   6.831   3.147
 3567W        W 7311   2.855   3.174  11.408
 3568W        W 7312  10.347   2.958   1.310
 3569W        W 7313   0.529   7.024   8.931
 3570W        W 7314   9.954   9.504   9.074
 3571W        W 7315   4.260   3.650   2.708
 3572W        W 7316   8.586   6.686   3.445
 3573W        W 7317   0.803   7.787   9.101
 3574W        W 7318   1.929   2.190   9.530
 3575W        W 7319   7.242   9.407   2.764
 3576W        W 7320   1.476   7.966   9.542
 3577W        W 7321   6.687   7.007  10.924
 3578W        W 7322   4.593   0.762  11.795
 3579W        W 7323   1.294   1.024  11.551
 3580W        W 7324   5.203   4.270   9.125
 3581W        W 7325   6.721   7.415   9.980
 3582W        W 7326   4.001   3.123   1.406
 3583W        W 7327   4.719   6.950   2.146
 3584W        W 7328   5.572   2.567  10.472
 3585W        W 7329   6.282   8.692   8.566
 3586W        W 7330   4.038   8.047   8.693
 3587W        W 7331   2.234   6.586   9.206
 3588W        W 7332  10.273   8.025   2.861
 3589W        W 7333   3.114   1.910   3.217
 3590W        W 7334  10.439   0.901  11.761
 3591W        W 7335   7.495  10.089   1.540
 3592W        W 7336   1.221   3.280   2.620
 3593W        W 7337   3.368   6.113   1.868
 3594W        W 7338   0.889   4.712   2.465
 3595W        W 7339   6.068   2.001  11.745
 3596W        W 7340   8.610   9.394   1.284
 3597W        W 7341   6.545   2.311   3.004
 3598W        W 7342   6.922   6.463  11.489
 3599W        W 7343   4.546   1.121   9.243
 3600W        W 7344   0.771   8.440   2.759
 3601W        W 7345  10.259   0.923   3.570
 3602W        W 7346   4.290   9.435  10.614
 3603W        W 7347   0.544   2.783   8.756
 3604W        W 7348   4.189   4.204   3.598
 3605W        W 7349   4.567   9.969   0.461
 3606W        W 7350   2.211   3.776   9.765
 3607W        W 7351   5.602   5.107   9.844
 3608W        W 7352   5.491   9.871  11.064
 3609W        W 7353   9.232   8.910   8.738
 3610W        W 7354   1.415   9.263   0.633
 3611W        W 7355   9.369   8.097  11.957
 3612W        W 7356   1.363   9.974   2.834
 3613W        W 7357   2.472   1.805   0.020
 3614W        W 7358   5.957   7.915   9.998
 3615W        W 7359   0.781  10.220   2.883
 3616W        W 7360   1.234   2.860   2.924
 3617W        W 7361   5.704   3.553   4.249
 3618W        W 7362   0.395   8.960  11.588
 3619W        W 7363   2.634   7.535  11.497
 3620W        W 7364   7.474  10.104  11.254
 3621W        W 7365   1.778   2.811   1.708
 3622W        W 7366   1.736   9.313   9.967
 3623W        W 7367  10.346   5.990   8.499
 3624W        W 7368   2.056   7.125   8.475
 3625W        W 7369  10.009   7.908  10.302
 3626W        W 7370   1.230   3.644  11.559
 3627W        W 7371   7.310   0.113   3.793
 3628W        W 7372   3.990   0.886  10.939
 3629W        W 7373   7.781   6.149  10.450
 3630W        W 7374   7.689   1.992   9.759
 3631W        W 7375   7.910   7.866   3.181
 3632W        W 7376   1.707   5.204  11.874
 3633W        W 7377   5.072   4.094   8.160
 3634W        W 7378   8.066   2.000  11.411
 3635W        W 7379   5.346   4.437   0.688
 3636W        W 7380   8.714   2.603   0.690
 3637W        W 7381   6.858   1.739   9.664
 3638W        W 7382   6.949   4.027  10.484
 3639W        W 7383   1.357   4.330   9.884
 3640W        W 7384   5.283   6.651   8.479
 3641W        W 7385  10.039   2.205  11.201
 3642W        W 7386   2.444   1.276   3.560
 3643W        W 7387   5.752   5.096   2.179
 3644W        W 7388   6.953   0.181   0.749
 3645W        W 7389  10.341   9.001   3.253
 3646W        W 7390   9.950   2.810   2.815
 3647W        W 7391   4.710   3.114  11.577
 3648W        W 7392   2.234   9.902   2.950
 3649W        W 7393  10.280   3.077  10.858
 3650W        W 7394   9.506   1.103  11.941
 3651W        W 7395   4.419   8.890  11.128
 3652W        W 7396   0.887   6.677   2.590
 3653W        W 7397   7.946   4.100   2.184
 3654W        W 7398   6.409   9.026   9.009
 3655W        W 7399   5.209   8.374   8.910
 3656W        W 7400   4.973  10.446   9.730
 3657W        W 7401   4.495   9.582   2.341
 3658W        W 7402   1.150   0.484   0.747
 3659W        W 7403   4.861   0.276  10.527
 3660W        W 7404   3.887   9.877   1.183
 3661W        W 7405   4.187   7.901  10.305
 3662W        W 7406   3.738   1.934  11.507
 3663W        W 7407  10.277   8.479   1.667
 3664W        W 7408   7.623   1.821   1.656
 3665W        W 7409   7.519   9.972  10.753
 3666W        W 7410   8.833   9.027   1.763
 3667W        W 7411   1.786   8.110  11.481
 3668W        W 7412   1.018   5.523   3.224
 3669W        W 7413   9.446   7.872   3.524
 3670W        W 7414   9.394   8.605  11.859
 3671W        W 7415   8.598   4.295  11.776
 3672W        W 7416   3.557  10.329   3.073
 3673W        W 7417   4.184   4.373  11.251
 3674W        W 7418   9.742   1.004   1.839
 3675W        W 7419   7.539   8.993   4.045
 3676W        W 7420   2.605   2.378   0.413
 3677W        W 7421   9.849   9.804  11.707
 3678W        W 7422   4.460   3.613   9.125
 3679W        W 7423   9.359   2.208   2.767
 3680W        W 7424   4.216   6.557   9.921
 3681W        W 7425   0.992   2.388   0.786
 3682W        W 7426   6.245   0.779   1.144
 3683W        W 7427   5.983   5.690  11.375
 3684W        W 7428   4.230   8.936  10.299
 3685W        W 7429   8.504   8.004   1.037
 3686W        W 7430   0.496   5.110   0.129
 3687W        W 7431   7.822   9.366   0.343
 3688W        W 7432   2.839   9.012   3.323
 3689W        W 7433   2.196   1.217   1.178
 3690W        W 7434   9.863   2.285   2.792
 3691W        W 7435   1.815   1.432   1.423
 3692W        W 7436   0.296   4.921  11.686
 3693W        W 7437   8.936   7.992   2.857
 3694W        W 7438   8.921   1.726   9.325
 3695W        W 7439   4.577   9.072   2.426
 3696W        W 7440   8.351   2.373   2.504
 3697W        W 7441   3.614   1.383   0.407
 3698W        W 7442   8.302   6.316   3.718
 3699W        W 7443   1.828   4.801  11.573
 3700W        W 7444   6.747   6.727   9.062
 3701W        W 7445   7.643   0.917   0.725
 3702W        W 7446   8.581   1.453  10.964
 3703W        W 7447   2.082   9.300  10.353
 3704W        W 7448   9.825   4.627   9.894
 3705W        W 7449   3.785   9.143  10.375
 3706W        W 7450   0.663   9.399   2.245
 3707W        W 7451   2.643   2.271  11.904
 3708W        W 7452   2.826   3.047   3.300
 3709W        W 7453   9.957   6.402   1.838
 3710W        W 7454   1.467   3.633   8.671
 3711W        W 7455   9.439   3.948  11.541
 3712W        W 7456   8.319  10.002  10.726
 3713W        W 7457   2.011   4.884   3.691
 3714W        W 7458   0.763   6.514   2.080
 3715W        W 7459   0.641   0.357   1.953
 3716W        W 7460   9.641   4.268   8.743
 3717W        W 7461   0.904   2.777  11.914
 3718W        W 7462   8.100   7.940  11.788
 3719W        W 7463   6.478   8.502  10.878
 3720W        W 7464   3.606   7.562   9.330
 3721W        W 7465   3.292   3.799   2.651
 3722W        W 7466   6.009   6.097  10.013
 3723W        W 7467  10.408   8.169  11.937
 3724W        W 7468   9.780   4.995   0.786
 3725W        W 7469   7.475   4.579  11.003
 3726W        W 7470   5.191   8.370  10.075
 3727W        W 7471  10.323   5.117  10.556
 3728W        W 7472  10.298   7.057   1.211
 3729W        W 7473   7.140   7.211  10.797
 3730W        W 7474   7.577   9.096   9.721
 3731W        W 7475   8.603   9.267   9.539
 3732W        W 7476   9.577   3.515   9.363
 3733W        W 7477   0.040   0.859   9.704
 3734W        W 7478   9.900   9.314   9.897
 3735W        W 7479   9.907   6.132   9.450
 3736W        W 7480   6.911  10.163  11.887
 3737W        W 7481   5.445   9.979   1.723
 3738W        W 7482   5.503   3.312   9.831
 3739W        W 7483   9.553   6.653   1.679
 3740W        W 7484   5.064   8.508  11.547
 3741W        W 7485   3.733  10.477  10.816
 3742W        W 7486   9.335   9.485   0.506
 3743W        W 7487   4.776   8.665   8.851
 3744W        W 7488   9.353  10.327  11.848
 3745W        W 7489   3.723   8.648   1.762
 3746W        W 7490  10.350   5.536   9.975
 3747W        W 7491   1.487   3.671   2.780
 3748W        W 7492   6.624   8.486   1.322
 3749W        W 7493   2.888   7.433   2.314
 3750W        W 7494   3.099   5.126  10.848
 3751W        W 7495   5.257   9.670   0.047
 3752W        W 7496   0.031   3.201   9.940
 3753W        W 7497   9.391   3.295   0.288
 3754W        W 7498   8.912   8.347   1.066
 3755W        W 7499   4.272   6.813   3.392
 3756W        W 7500   9.983   8.829   0.542
 3757W        W 7501   2.418   3.403   0.367
 3758W        W 7502   7.425   2.446   0.939
 3759W        W 7503   6.619   0.229   8.700
 3760W        W 7504   2.669   6.931   8.528
 3761W        W 7505   0.256   3.353   0.333
 3762W        W 7506   9.418   6.262   3.048
 3763W        W 7507   7.589   0.020   9.868
 3764W        W 7508   3.047   6.607   3.072
 3765W        W 7509   1.483   8.191   3.208
 3766W        W 7510   2.808   2.800   0.229
 3767W        W 7511   1.259   9.781   8.481
 3768W        W 7512   5.785   4.231   3.595
 3769W        W 7513   0.221   4.173   2.832
 3770W        W 7514   9.762   5.871  11.021
 3771W        W 7515   5.981  10.378   9.926
 3772W        W 7516   4.234   7.327   0.444
 3773W        W 7517   7.335   9.024   0.218
 3774W        W 7518  10.302   9.470   2.475
 3775W        W 7519   3.275   7.083  11.750
 3776W        W 7520   2.471   7.830  11.871
 3777W        W 7521   5.703   0.712  11.423
 3778W        W 7522   9.148   2.292   3.241
 3779W        W 7523   3.760   3.173  11.178
 3780W        W 7524   4.742   3.172   3.217
 3781W        W 7525   7.390   6.977   1.652
 3782W        W 7526   2.384   9.946   9.632
 3783W        W 7527   8.323   3.782  11.043
 3784W        W 7528   5.653   9.086   0.760
 3785W        W 7529   3.841   9.451   2.918
 3786W        W 7530   1.721   9.464  11.289
 3787W        W 7531   1.760   6.514   2.975
 3788W        W 7532   3.347   7.391   8.934
 3789W        W 7533   0.326   1.561   8.520
 3790W        W 7534   6.541   0.184  11.498
 3791W        W 7535   4.705   4.586  11.195
 3792W        W 7536   8.209   2.657   0.759
 3793W        W 7537   6.204   8.202   1.377
 3794W        W 7538   0.819   9.302  11.548
 3795W        W 7539   5.144   6.050   2.437
 3796W        W 7540   2.671   8.096  10.862
 3797W        W 7541   6.138   4.253   1.233
 3798W        W 7542   4.760   8.560  10.275
 3799W        W 7543   5.613   9.040  10.527
 3800W        W 7544   7.533   0.081  10.367
 3801W        W 7545   4.506   4.726  10.357
 3802W        W 7546   7.130   4.931   3.358
 3803W        W 7547   4.896   7.266   8.065
 3804W        W 7548   7.959   3.181   1.593
 3805W        W 7549   5.454  10.438   9.922
 3806W        W 7550   9.172   6.699   0.135
 3807W        W 7551   9.579   8.969   9.691
 3808W        W 7552   2.250   0.748   9.639
 3809W        W 7553   8.042   6.612  10.245
 3810W        W 7554   5.241   7.091   4.210
 3811W        W 7555   7.359   7.138  10.332
 3812W        W 7556   3.062   6.636  11.768
 3813W        W 7557   0.291   2.923   9.594
 3814W        W 7558   6.226   7.030   3.999
 3815W        W 7559   1.834   6.722   1.512
 3816W        W 7560   1.132   5.259   1.053
 3817W        W 7561   8.724   7.379   3.530
 3818W        W 7562   1.325   7.068  10.659
 3819W        W 7563   8.809  10.277   0.910
 3820W        W 7564   7.008   7.077   8.778
 3821W        W 7565   1.820   4.962   2.294
 3822W        W 7566   4.235   5.208  10.083
 3823W        W 7567   6.188   8.371   2.874
 3824W        W 7568   5.068   3.348   0.365
 3825W        W 7569   3.164   1.014   2.847
 3826W        W 7570  10.436   0.641   1.367
 3827W        W 7571   1.509   7.825   2.421
 3828W        W 7572   6.870   6.266   8.161
 3829W        W 7573   5.947   9.639  11.026
 3830W        W 7574   4.456   1.692   2.820
 3831W        W 7575   8.123   2.757   2.829
 3832W        W 7576   8.591   6.772   0.941
 3833W        W 7577   4.813   1.336   2.125
 3834W        W 7578   9.392  10.140   2.136
 3835W        W 7579   9.966  10.123   0.980
 3836W        W 7580   7.648   8.144   0.038
 3837W        W 7581   3.280   6.009   9.176
 3838W        W 7582   2.274   5.985  11.868
 3839W        W 7583   8.358   6.945  10.476
 3840W        W 7584   0.228   7.152   0.952
 3841W        W 7585   8.545   2.841   9.979
 3842W        W 7586   5.139   6.507   2.160
 3843W        W 7587   1.366   6.862   8.878
 3844W        W 7588   5.646   3.310   2.784
 3845W        W 7589   8.161   6.520   3.182
 3846W        W 7590   4.678   9.848  10.819
 3847W        W 7591   8.970   4.744   1.535
 3848W        W 7592   1.785   2.889   9.994
 3849W        W 7593   7.024   8.953   2.869
 3850W        W 7594   6.134   6.501  10.834
 3851W        W 7595   1.339   3.300   2.140
 3852W        W 7596   7.047   2.735  11.541
 3853W        W 7597   9.874  10.249  11.977
 3854W        W 7598   3.764   8.061   9.507
 3855W        W 7599   3.172   1.442   1.963
 3856W        W 7600   6.478   0.223   0.460
 3857W        W 7601   5.078   1.786  10.754
 3858W        W 7602   2.286   5.573  11.499
 3859W        W 7603   5.377   5.687   8.576
 3860W        W 7604   2.189   7.370   9.664
 3861W        W 7605   6.126   8.109  11.059
 3862W        W 7606   2.149   7.792   9.357
 3863W        W 7607   6.943   3.496   2.548
 3864W        W 7608   1.882   4.526   1.415
 3865W        W 7609   0.337   0.955   2.665
 3866W        W 7610   0.916   5.076   9.954
 3867W        W 7611   0.461   4.842  10.087
 3868W        W 7612   4.624   5.363  11.203
 3869W        W 7613   5.118   3.792   0.142
 3870W        W 7614   4.307   4.606  10.821
 3871W        W 7615   5.583   3.294   2.279
 3872W        W 7616   2.106   9.754  10.567
 3873W        W 7617   7.641   9.603   1.649
 3874W        W 7618   4.103   6.057   1.000
 3875W        W 7619  10.326   1.790  11.465
 3876W        W 7620   8.948   2.865   1.451
 3877W        W 7621   0.590   5.908   1.459
 3878W        W 7622   7.414   0.559   9.543
 3879W        W 7623   8.498   3.895   3.316
 3880W        W 7624   9.069   2.243  11.462
 3881W        W 7625   9.340   4.610  10.106
 3882W        W 7626   1.952   9.113   2.823
 3883W        W 7627   1.794   0.888   9.349
 3884W        W 7628   9.442   1.263  10.929
 3885W        W 7629   8.575   4.590  11.307
 3886W        W 7630   8.428   2.728   8.958
 3887W        W 7631   8.835   1.898   3.233
 3888W        W 7632   7.226   7.856   8.591
 3889W        W 7633   1.961   7.734   2.641
 3890W        W 7634   9.894   0.666   0.983
 3891W        W 7635   1.168   4.044   1.452
 3892W        W 7636   5.738   1.282  10.758
 3893W        W 7637   8.061   7.840  11.270
 3894W        W 7638   2.280   5.265   3.472
 3895W        W 7639   7.996   9.818   9.292
 3896W        W 7640   2.684   8.959  10.982
 3897W        W 7641  10.490   1.849  11.959
 3898W        W 7642   9.430   8.602   2.811
 3899W        W 7643   3.211   4.703   3.611
 3900W        W 7644   9.755   0.844  11.015
 3901W        W 7645   7.143   6.687  10.750
 3902W        W 7646   9.044   0.731   0.755
 3903W        W 7647   9.972   9.957  10.812
 3904W        W 7648   5.244   9.709  10.365
 3905W        W 7649   7.496   8.605   3.201
 3906W        W 7650   5.715   6.462   0.938
 3907W        W 7651   1.393   9.547  10.888
 3908W        W 7652   9.781   3.706   9.815
 3909W        W 7653   6.972   0.118   9.065
 3910W        W 7654   6.475   6.633  11.218
 3911W        W 7655   1.745   6.180  11.848
 3912W        W 7656   5.268   4.469  11.017
 3913W        W 7657   5.682   4.208   2.147
 3914W        W 7658   5.578   5.095   3.141
 3915W        W 7659   1.922   3.226   9.635
 3916W        W 7660   6.155   3.329  11.430
 3917W        W 7661   6.366   7.731   1.282
 3918W        W 7662   5.640   0.270   0.412
 3919W        W 7663   3.271   4.986   4.040
 3920W        W 7664   8.200   6.692   2.223
 3921W        W 7665   1.075   3.543   1.482
 3922W        W 7666   4.818   9.470   3.181
 3923W        W 7667  10.467  10.484  10.200
 3924W        W 7668   9.293   4.045   2.480
 3925W        W 7669   8.337   1.873   2.403
 3926W        W 7670   3.679   4.027   1.370
 3927W        W 7671   1.075   7.101   9.647
 3928W        W 7672   9.654   4.741  10.477
 3929W        W 7673   2.764   1.219   0.775
 3930W        W 7674   2.245   8.310  11.564
 3931W        W 7675   8.028   8.448  11.775
 3932W        W 7676   1.820  10.030   1.639
 3933W        W 7677   6.546   9.341  10.354
 3934W        W 7678   9.614   3.782  10.593
 3935W        W 7679  10.490   0.814  11.241
 3936W        W 7680   1.317   1.424   2.218
 3937W        W 7681   9.429   2.664   1.504
 3938W        W 7682   4.886  10.232   2.961
 3939W        W 7683   4.108   2.698   9.076
 3940W        W 7684   9.402  10.074   2.646
 3941W        W 7685   5.596   6.634   8.926
 3942W        W 7686   8.072   2.863  10.720
 3943W        W 7687   1.805   2.763  11.803
 3944W        W 7688   3.589   0.895   2.594
 3945W        W 7689   8.479   8.924  10.285
 3946W        W 7690   0.268   4.219   9.231
 3947W        W 7691   1.561   1.388   8.931
 3948W        W 7692   4.949   2.236  11.875
 3949W        W 7693   8.595  10.488  10.864
 3950W        W 7694   2.144   1.067  10.061
 3951W        W 7695   0.953   6.995   2.115
 3952W        W 7696   8.060   0.670   1.744
 3953W        W 7697   7.297   6.221  10.347
 3954W        W 7698   9.310   0.850   3.600
 3955W        W 7699  10.491   5.096   9.722
 3956W        W 7700   8.818   5.093  10.490
 3957W        W 7701   8.936   4.654   8.852
 3958W        W 7702   4.906   3.689   8.422
 3959W        W 7703   4.979   5.683   0.280
 3960W        W 7704   2.361   0.317   2.791
 3961W        W 7705   9.805   9.045   3.471
 3962W        W 7706  10.460   8.592  10.090
 3963W        W 7707   6.338  10.322   2.753
 3964W        W 7708   4.251   5.352  10.575
 3965W        W 7709   7.064   3.358  11.233
 3966W        W 7710   1.450   1.675   0.216
 3967W        W 7711   7.419   5.186   9.350
 3968W        W 7712   3.275   0.474   1.284
 3969W        W 7713   1.219   3.705   1.015
 3970W        W 7714   7.072   6.078   9.095
 3971W        W 7715   5.974   2.121   9.108
 3972W        W 7716   9.837   1.825   9.398
 3973W        W 7717   0.856   1.702   2.571
 3974W        W 7718   3.323   9.571  11.801
 3975W        W 7719   6.577   0.508   0.874
 3976W        W 7720   3.331   3.947   3.125
 3977W        W 7721   3.405   5.408   3.231
 3978W        W 7722   7.233   4.118  11.810
 3979W        W 7723   1.215   6.120  11.882
 3980W        W 7724   0.858   9.639   9.528
 3981W        W 7725   7.162   7.489   2.391
 3982W        W 7726   9.406   3.665   1.109
 3983W        W 7727   3.923   9.719   0.701
 3984W        W 7728   5.542   1.685   3.010
 3985W        W 7729   3.286   4.905   0.528
 3986W        W 7730   5.077   4.075  10.749
 3987W        W 7731   8.042   5.395   1.268
 3988W        W 7732   4.514   4.139   9.397
 3989W        W 7733   5.347   9.759  11.548
 3990W        W 7734   7.499   9.607  10.055
 3991W        W 7735   6.885   9.393  10.734
 3992W        W 7736   0.204   6.189   0.832
 3993W        W 7737   2.632   5.651   9.927
 3994W        W 7738   3.173   4.213   1.235
 3995W        W 7739  10.190   6.905   9.371
 3996W        W 7740   9.620   7.435   0.833
 3997W        W 7741   7.063   5.236   0.291
 3998W        W 7742   5.947   0.761  10.007
 3999W        W 7743   8.130   8.447   2.609
 4000W        W 7744   6.587   6.678   2.261
 4001W        W 7745   6.941   4.879   9.933
 4002W        W 7746   3.838   3.084   9.241
 4003W        W 7747   1.746   2.233  11.349
 4004W        W 7748   6.843  10.322   2.558
 4005W        W 7749   1.391  10.374  10.260
 4006W        W 7750   5.949   4.736  10.340
 4007W        W 7751   4.959   7.872   8.266
 4008W        W 7752   8.424   3.619   8.477
 4009W        W 7753  10.351   0.897   8.701
 4010W        W 7754   9.026   2.525   1.840
 4011W        W 7755   2.901   4.612   4.098
 4012W        W 7756   4.647   6.475   2.329
 4013W        W 7757   5.062   7.173   1.340
 4014W        W 7758   0.712   6.178   0.924
 4015W        W 7759   9.547   0.063   0.274
 4016W        W 7760   2.901   3.702  10.528
 4017W        W 7761   3.227   8.324  11.507
 4018W        W 7762   7.858   2.404  10.515
 4019W        W 7763   0.839   1.367   0.914
 4020W        W 7764   9.463   1.847   0.920
 4021W        W 7765   7.184   2.639   2.552
 4022W        W 7766   1.460   8.452   1.037
 4023W        W 7767   3.066   2.524   0.602
 4024W        W 7768   7.551   6.130   2.738
 4025W        W 7769   5.636   1.159   1.291
 4026W        W 7770   7.025   9.657   0.823
 4027W        W 7771   9.574   7.175  10.068
 4028W        W 7772   5.947   6.720   4.304
 4029W        W 7773   4.605   3.234  10.812
 4030W        W 7774  10.054   0.985   1.414
 4031W        W 7775   0.416   8.927   1.548
 4032W        W 7776   2.721   7.906   1.215
 4033W        W 7777  10.359   8.537   0.734
 4034W        W 7778   9.952   5.445   1.770
 4035W        W 7779   6.667   5.268  11.981
 4036W        W 7780   5.070   7.886  10.303
 4037W        W 7781   9.940   4.959  10.872
 4038W        W 7782   9.846   1.438  10.197
 4039W        W 7783   4.250   4.445   9.078
 4040W        W 7784   5.597   9.498  10.711
 4041W        W 7785   4.509   6.012   0.693
 4042W        W 7786   7.642   5.557   3.975
 4043W        W 7787   2.153   0.382   9.990
 4044W        W 7788   6.485  10.013   2.382
 4045W        W 7789   5.204   9.455   0.649
 4046W        W 7790   9.665   9.815  11.218
 4047W        W 7791   7.969   0.296  10.551
 4048W        W 7792   0.808   7.901  11.488
 4049W        W 7793  10.339  10.311   1.922
 4050W        W 7794   5.698   3.579  10.934
 4051W        W 7795   2.307   5.060  11.634
 4052W        W 7796  10.068   5.700   2.196
 4053W        W 7797   4.696   2.762   9.789
 4054W        W 7798   6.036   7.215   3.563
 4055W        W 7799   7.578   6.665  10.463
 4056W        W 7800   1.630   8.582  11.536
 4057W        W 7801   5.994   7.119   1.885
 4058W        W 7802   8.725   1.501   3.517
 4059W        W 7803   4.497   7.948   8.496
 4060W        W 7804   8.387   6.179   9.127
 4061W        W 7805   3.402   4.650   8.632
 4062W        W 7806   8.375   9.260   0.060
 4063W        W 7807   1.335   6.381   2.694
 4064W        W 7808  10.200   4.150   2.892
 4065W        W 7809   7.458   5.797   0.801
 4066W        W 7810  10.470   1.755   2.535
 4067W        W 7811   2.934   2.072   9.473
 4068W        W 7812   0.093   1.591   1.804
 4069W        W 7813   4.058   6.918  10.302
 4070W        W 7814   6.749   4.596   3.276
 4071W        W 7815   7.173   2.645   1.372
 4072W        W 7816   4.861   2.819   2.321
 4073W        W 7817   4.882   9.515   2.675
 4074W        W 7818   5.138   4.683  11.477
 4075W        W 7819   8.967   0.403   1.445
 4076W        W 7820   4.014   7.537   3.058
 4077W        W 7821   1.826   3.240   1.988
 4078W        W 7822   1.632   9.518   2.968
 4079W        W 7823   7.107   7.863  11.467
 4080W        W 7824   1.275   4.264   0.427
 4081W        W 7825   9.388   8.501   9.006
 4082W        W 7826   0.808   3.841  11.782
 4083W        W 7827   0.745   7.106   0.756
 4084W        W 7828   3.355   8.864   3.291
 4085W        W 7829   9.555  10.326   3.339
 4086W        W 7830   1.194   2.860   0.469
 4087W        W 7831   6.951   9.974  11.379
 4088W        W 7832   2.332   3.853   2.687
 4089W        W 7833   4.950   4.219   0.926
 4090W        W 7834   4.651   4.955   9.896
 4091W        W 7835   2.773   1.132   3.193
 4092W        W 7836   9.001   8.421   2.579
 4093W        W 7837   3.295   2.386  10.124
 4094W        W 7838   1.797   6.264  11.318
 4095W        W 7839   4.630   7.628  10.266
 4096W        W 7840   6.492   3.041  10.501
 4097W        W 7841   7.342   1.036   9.382
 4098W        W 7842   7.033   7.449   9.433
 4099W        W 7843   4.079  10.102   0.350
 4100W        W 7844   8.371   1.979  10.989
 4101W        W 7845   5.662   1.132   0.748
 4102W        W 7846   8.181   6.621   1.620
 4103W        W 7847   9.403   3.122  11.256
 4104W        W 7848   0.281   7.809   0.254
 4105W        W 7849   0.292   1.837   8.943
 4106W        W 7850   4.463   1.036  10.989
 4107W        W 7851   7.485   2.755   1.792
 4108W        W 7852   8.333   0.900   9.238
 4109W        W 7853   4.688   3.020   0.110
 4110W        W 7854   5.865   2.392   0.043
 4111W        W 7855   7.373   5.038  11.380
 4112W        W 7856   7.446   3.269   1.898
 4113W        W 7857   1.228   7.454   2.184
 4114W        W 7858   4.176   0.786  10.384
 4115W        W 7859   6.753   1.467  11.950
 4116W        W 7860   2.607   3.872  11.442
 4117W        W 7861   6.953   0.975   0.284
 4118W        W 7862   1.433   8.664  10.496
 4119W        W 7863   8.338   9.826  10.203
 4120W        W 7864   8.041   6.028   0.006
 4121W        W 7865   1.904   8.526  11.102
 4122W        W 7866   9.768   9.846   9.848
 4123W        W 7867   3.790   1.817   9.022
 4124W        W 7868   4.451   8.083   0.084
 4125W        W 7869   5.194   9.443   1.156
 4126W        W 7870   1.331  10.309   9.760
 4127W        W 7871   6.510   3.643   3.207
 4128W        W 7872   2.809   8.548  10.646
 4129W        W 7873   5.535   6.396  11.115
 4130W        W 7874   7.047   8.656   1.102
 4131W        W 7875   5.132   8.965   0.870
 4132W        W 7876  10.171  10.291   1.425
 4133W        W 7877   1.440   9.082   2.726
 4134W        W 7878   4.638   5.454   1.845
 4135W        W 7879   1.271   8.460   8.737
 4136W        W 7880   4.479  10.456  11.419
 4137W        W 7881  10.406   3.648   2.156
 4138W        W 7882   8.068   7.506   9.594
 4139W        W 7883   4.068   6.824  11.532
 4140W        W 7884   7.455   7.604   3.224
 4141W        W 7885  10.074   6.836   2.406
 4142W        W 7886   2.820   4.557  10.475
 4143W        W 7887   6.106   0.210  11.769
 4144W        W 7888   0.457   0.427   2.434
 4145W        W 7889   2.776   5.523   0.757
 4146W        W 7890   4.592  10.346  10.546
 4147W        W 7891   6.115   0.329   8.841
 4148W        W 7892   5.613  10.380   1.447
 4149W        W 7893   6.909   3.822  10.028
 4150W        W 7894   2.844   8.890   2.796
 4151W        W 7895   7.573   5.263   1.396
 4152W        W 7896   2.309   5.649   0.507
 4153W        W 7897   9.372   7.594  11.053
 4154W        W 7898   7.437   9.049   2.459
 4155W        W 7899   8.671   2.403  11.863
 4156W        W 7900   8.810   6.136   9.918
 4157W        W 7901   8.970  10.049   1.776
 4158W        W 7902   3.737   8.094  10.461
 4159W        W 7903   3.296   2.167   0.901
 4160W        W 7904   0.009   2.904   0.817
 4161W        W 7905   0.716   2.905   1.501
 4162W        W 7906   4.160   8.851   9.416
 4163W        W 7907   3.615   8.065   9.030
 4164W        W 7908   1.658   2.250   2.331
 4165W        W 7909   0.271   5.990   3.184
 4166W        W 7910   4.776  10.354  11.003
 4167W        W 7911   0.243   6.081   2.666
 4168W        W 7912   0.897   5.540   9.743
 4169W        W 7913   5.044   6.503   2.661
 4170W        W 7914   1.829   9.932   9.348
 4171W        W 7915   7.980   8.835   9.557
 4172W        W 7916   5.143   1.266  10.014
 4173W        W 7917   4.794   2.038   0.996
 4174W        W 7918   6.633   4.259   2.320
 4175W        W 7919   2.757   0.695   1.487
 4176W        W 7920   3.268   8.604   2.858
 4177W        W 7921   6.125   0.461  11.295
 4178W        W 7922   7.766   0.431  10.997
 4179W        W 7923   2.506   6.978   0.858
 4180W        W 7924  10.001   5.518   8.916
 4181W        W 7925   8.120   3.036  11.701
 4182W        W 7926   5.485   0.798   2.454
 4183W        W 7927   5.578   7.314   0.686
 4184W        W 7928   2.229   8.611   2.823
 4185W        W 7929   3.296   3.716   1.185
 4186W        W 7930   7.227   3.888   8.945
 4187W        W 7931   2.787   8.485   9.693
 4188W        W 7932   6.075   3.841  10.704
 4189W        W 7933   7.673   4.221   3.531
 4190W        W 7934   2.415   4.796   3.156
 4191W        W 7935   0.313   1.232  11.262
 4192W        W 7936   8.010   7.390  11.053
 4193W        W 7937   6.507   5.856  10.384
 4194W        W 7938   0.275   9.526  10.050
 4195W        W 7939   5.046   6.650  11.255
 4196W        W 7940   2.176   6.078   2.795
 4197W        W 7941   9.242   9.034   0.934
 4198W        W 7942   0.061   3.784   9.428
 4199W        W 7943   2.213   3.319   2.333
 4200W        W 7944   7.055   1.219   3.430
 4201W        W 7945   3.198   7.685   2.733
 4202W        W 7946   9.436   5.039   2.332
 4203W        W 7947   8.691   1.794  10.622
 4204W        W 7948   3.171   5.607  11.017
 4205W        W 7949   1.821   0.280   2.591
 4206W        W 7950   9.987   2.720   2.281
 4207W        W 7951   6.728   4.822   1.302
 4208W        W 7952   3.037   8.808  11.452
 4209W        W 7953   8.805   8.899  11.475
 4210W        W 7954   2.147   8.975  10.935
 4211W        W 7955   5.899   7.661   0.506
 4212W        W 7956   8.496   8.131   3.107
 4213W        W 7957   3.631   5.642   0.310
 4214W        W 7958   4.972   6.896   0.875
 4215W        W 7959   2.293   9.356   1.648
 4216W        W 7960   2.605   2.370  11.408
 4217W        W 7961   2.872   5.088   9.847
 4218W        W 7962   8.036   2.361   9.547
 4219W        W 7963   6.724   2.332   9.754
 4220W        W 7964   0.995   8.367   3.233
 4221W        W 7965   8.912   4.633   9.818
 4222W        W 7966   1.922   6.523   0.567
 4223W        W 7967   3.404   8.166   1.861
 4224W        W 7968   4.285  10.289   1.852
 4225W        W 7969   3.342   5.779  10.573
 4226W        W 7970   6.019   1.749  10.261
 4227W        W 7971   1.395   3.726   1.855
 4228W        W 7972   3.424   9.586   0.673
 4229W        W 7973   7.107   6.556   3.296
 4230W        W 7974   5.387   2.048   1.690
 4231W        W 7975   2.122   4.672   0.532
 4232W        W 7976   4.939   1.456   3.440
 4233W        W 7977   9.251   8.512  10.399
 4234W        W 7978   8.559   8.059   1.535
 4235W        W 7979   3.777   3.217   1.873
 4236W        W 7980   0.257   6.469   9.424
 4237W        W 7981   5.996   1.748  10.767
 4238W        W 7982   3.698   4.878   3.135
 4239W        W 7983   2.101   1.324   0.196
 4240W        W 7984   2.746   2.363  10.792
 4241W        W 7985   7.914   1.337   0.471
 4242W        W 7986   6.979   4.189   0.260
 4243W        W 7987   5.630   0.479  11.911
 4244W        W 7988   2.298   6.716   1.290
 4245W        W 7989   9.794   9.289   0.341
 4246W        W 7990   4.083   9.003  10.771
 4247W        W 7991   7.157   1.839   2.959
 4248W        W 7992   6.989   8.388   9.275
 4249W        W 7993   8.854   4.064  11.391
 4250W        W 7994   2.255   4.458  10.332
 4251W        W 7995  10.048   5.553   0.880
 4252W        W 7996   6.923   7.129   1.499
 4253W        W 7997   3.096   5.018   9.362
 4254W        W 7998   8.068   8.905   2.856
 4255W        W 7999   9.186   0.557   2.317
 4256W        W 8000   5.684   0.390   9.196
 4257W        W 8001   2.705   3.601   9.127
 4258W        W 8002   8.942   1.465  10.234
 4259W        W 8003   0.697   9.347   2.746
 4260W        W 8004   7.850   5.047   3.266
 4261W        W 8005   0.783   1.855   1.246
 4262W        W 8006   6.646   8.561   3.223
 4263W        W 8007   7.450   3.446   2.410
 4264W        W 8008  10.497   5.573   0.222
 4265W        W 8009   4.711   5.483   1.341
 4266W        W 8010   3.172   5.137  11.949
 4267W        W 8011   3.276   0.477   9.560
 4268W        W 8012   7.622   4.753  10.318
 4269W        W 8013   4.332   4.908  11.305
 4270W        W 8014   1.594   8.846  10.041
 4271W        W 8015   6.002   6.593  10.316
 4272W        W 8016   4.299   1.765  10.640
 4273W        W 8017   8.481   6.663  10.958
 4274W        W 8018   0.312   8.645  11.981
 4275W        W 8019   7.384  10.491   0.986
 4276W        W 8020   6.591   9.895   9.241
 4277W        W 8021   7.199   0.880  10.003
 4278W        W 8022   6.242   2.869   2.347
 4279W        W 8023   3.720   8.221   0.267
 4280W        W 8024   8.434   3.221   9.207
 4281W        W 8025  10.438   0.330   2.612
 4282W        W 8026   4.023   4.276   9.533
 4283W        W 8027   4.175   3.546   1.719
 4284W        W 8028   6.746   3.728   9.013
 4285W        W 8029   9.594   7.615  11.883
 4286W        W 8030   3.826   2.805   2.295
 4287W        W 8031   0.521   9.311   1.224
 4288W        W 8032   6.232   3.196   3.278
 4289W        W 8033   9.857   4.262  10.509
 4290W        W 8034   7.721   2.761  11.882
 4291W        W 8035   3.621   6.882   2.297
 4292W        W 8036   1.264   8.770   1.822
 4293W        W 8037   4.173   3.975   1.469
 4294W        W 8038   4.076   9.919   2.887
 4295W        W 8039   2.628   5.963  10.871
 4296W        W 8040   8.424   0.538   2.689
 4297W        W 8041   5.698   0.329   1.699
 4298W        W 8042   0.997   7.486  10.773
 4299W        W 8043   6.615   0.492   3.141
 4300W        W 8044   6.131   8.161   3.672
 4301W        W 8045   2.847   8.790   0.790
 4302W        W 8046   2.268   7.664   3.539
 4303W        W 8047   5.962   7.184   0.348
 4304W        W 8048   6.743   9.549   3.453
 4305W        W 8049   4.273   9.941  10.491
 4306W        W 8050   9.395   7.825   9.001
 4307W        W 8051   4.218   3.085  11.749
 4308W        W 8052   6.462   4.052   1.864
 4309W        W 8053   6.230   7.930  11.582
 4310W        W 8054   3.251   0.207   3.206
 4311W        W 8055   4.231   8.126  11.291
 4312W        W 8056   1.349   5.792  10.473
 4313W        W 8057   5.834   1.877   1.448
 4314W        W 8058   2.128   5.143  10.765
 4315W        W 8059   7.954   2.289   0.456
 4316W        W 8060   5.696   9.319   3.591
 4317W        W 8061   8.488   2.756   1.674
 4318W        W 8062   4.128  10.415  11.929
 4319W        W 8063   8.760   6.601  11.805
 4320W        W 8064   6.926   0.447   0.284
 4321W        W 8065   0.397   1.472   2.685
 4322W        W 8066   0.197   6.034   8.969
 4323W        W 8067   2.783   0.329   1.064
 4324W        W 8068   3.875   3.897   0.491
 4325W        W 8069   2.961   7.915  11.702
 4326W        W 8070   3.977   8.300  10.039
 4327W        W 8071   2.740   6.901  10.731
 4328W        W 8072   4.081   0.081   9.944
 4329W        W 8073   3.764   9.546   8.980
 4330W        W 8074   2.785   8.043   0.190
 4331W        W 8075   4.666   2.046   9.534
 4332W        W 8076   5.996   5.012   0.943
 4333W        W 8077   2.663   6.625  11.423
 4334W        W 8078   6.627   0.257   2.652
 4335W        W 8079   2.694   2.296   9.063
 4336W        W 8080   0.421   1.723   2.210
 4337W        W 8081   9.813   7.968   0.195
 4338W        W 8082   2.608   8.021  11.365
 4339W        W 8083   9.898   8.014   3.256
 4340W        W 8084   4.454   2.397  11.033
 4341W        W 8085  10.440   8.977   1.757
 4342W        W 8086   2.763   5.909   3.924
 4343W        W 8087   8.862   8.753   0.756
 4344W        W 8088   4.086   7.993   2.838
 4345W        W 8089   5.688   6.230   1.900
 4346W        W 8090  10.456   6.564  10.137
 4347W        W 8091   9.896   3.702   2.183
 4348W        W 8092   3.864   5.079   9.768
 4349W        W 8093   0.818   4.171   9.054
 4350W        W 8094   3.307   8.944   1.923
 4351W        W 8095   8.543   6.669   9.017
 4352W        W 8096   9.417   9.374  11.025
 4353W        W 8097   6.003  10.027   0.335
 4354W        W 8098   3.170  10.457  11.891
 4355W        W 8099   9.801   7.454   8.921
 4356W        W 8100   6.026   9.341   9.157
 4357W        W 8101   1.952   1.782   0.043
 4358W        W 8102   2.548   8.529   1.841
 4359W        W 8103   7.601   5.678  10.341
 4360W        W 8104   5.161   5.233  10.061
 4361W        W 8105  10.328   0.933   0.950
 4362W        W 8106   8.105   3.175   0.694
 4363W        W 8107   9.119   8.599   0.303
 4364W        W 8108   3.607   4.221   2.741
 4365W        W 8109   0.511   1.351   1.357
 4366W        W 8110   0.981   6.175  10.353
 4367W        W 8111   9.345   4.944  11.398
 4368W        W 8112   0.859   9.627   1.838
 4369W        W 8113   0.458   9.825   3.193
 4370W        W 8114   2.756   4.730  11.740
 4371W        W 8115   5.253   7.669   0.501
 4372W        W 8116   9.358   9.543   1.024
 4373W        W 8117   2.788   3.654   9.620
 4374W        W 8118   1.737   2.936   1.225
 4375W        W 8119   1.349   2.765   0.947
 4376W        W 8120   4.668   0.072   9.041
 4377W        W 8121   9.842   3.552   0.223
 4378W        W 8122   2.807   7.209   1.821
 4379W        W 8123   1.158   2.831  11.218
 4380W        W 8124   1.841   9.544   1.483
 4381W        W 8125   7.615   2.298   1.387
 4382W        W 8126   4.943   2.240  10.962
 4383W        W 8127  10.256   8.061   0.927
 4384W        W 8128   8.328   7.109   3.637
 4385W        W 8129   5.932   3.974   0.278
 4386W        W 8130   7.510   8.450   0.981
 4387W        W 8131   3.708   4.525   3.574
 4388W        W 8132   9.021   5.502  10.762
 4389W        W 8133   0.547   5.758  11.537
 4390W        W 8134   6.079   2.864   0.173
 4391W        W 8135   1.629   4.139  10.266
 4392W        W 8136   4.342   2.201   1.900
 4393W        W 8137   3.384  10.060   9.533
 4394W        W 8138   3.829   2.643   1.419
 4395W        W 8139   9.705   0.191  11.769
 4396W        W 8140   9.898   8.892   2.996
 4397W        W 8141   5.497   7.248   1.944
 4398W        W 8142   2.115   3.963  10.237
 4399W        W 8143   7.986   5.621   0.331
 4400W        W 8144   2.341   7.876  10.555
 4401W        W 8145   2.299   5.528  10.451
 4402W        W 8146   8.600   5.774   2.226
 4403W        W 8147   4.881   0.734   3.102
 4404W        W 8148   0.453   2.220   3.104
 4405W        W 8149   8.148   4.735   0.665
 4406W        W 8150   3.687   1.443   1.998
 4407W        W 8151   0.834   0.013   3.462
 4408W        W 8152   8.124   8.504   2.114
 4409W        W 8153   2.826   4.524   2.413
 4410W        W 8154   0.751   3.121   0.301
 4411W        W 8155   2.819   3.779   2.845
 4412W        W 8156   9.503   9.044   2.320
 4413W        W 8157   8.690   6.730   2.367
 4414W        W 8158   6.438   4.137   9.155
 4415W        W 8159   7.247   9.226   8.745
 4416W        W 8160   9.860   5.057   9.592
 4417W        W 8161   3.184  10.489   2.729
 4418W        W 8162   6.901   5.523   2.539
 4419W        W 8163   3.598   1.326   2.949
 4420W        W 8164   3.823   9.025   9.043
 4421W        W 8165   6.986   3.154   1.712
 4422W        W 8166   0.800   8.929   9.886
 4423W        W 8167   3.420   3.141  11.542
 4424W        W 8168   4.036   7.535   1.784
 4425W        W 8169   0.336   6.621   1.811
 4426W        W 8170   9.396   4.407  11.363
 4427W        W 8171   3.198   5.411   0.449
 4428W        W 8172   6.240   3.956   3.547
 4429W        W 8173   4.706   7.088   0.155
 4430W        W 8174   4.709   3.506  11.960
 4431W        W 8175   5.627   1.762   8.987
 4432W        W 8176   8.852   4.767   3.419
 4433W        W 8177   1.385   5.219   9.817
 4434W        W 8178   8.392   3.267   9.733
 4435W        W 8179   7.949   9.122  11.066
 4436W        W 8180   0.831   1.228   2.801
 4437W        W 8181   3.273   8.810   9.262
 4438W        W 8182   7.554   2.013   0.674
 4439W        W 8183   7.525   8.270   8.534
 4440W        W 8184   7.452   7.887   0.453
 4441W        W 8185   8.497   6.450  10.431
 4442W        W 8186   0.678   6.842   9.425
 4443W        W 8187   5.657   5.065   9.330
 4444W        W 8188   5.915   1.280   3.197
 4445W        W 8189   5.130   0.792   8.712
 4446W        W 8190   5.617   0.007   3.454
 4447W        W 8191   6.007   7.366   0.952
 4448W        W 8192   1.243   9.980   1.832
 4449W        W 8193   6.899   5.180   2.937
 4450W        W 8194   7.950   9.757   9.830
 4451W        W 8195   6.396   6.930   0.518
 4452W        W 8196   9.476   9.966   8.952
 4453W        W 8197   9.799   4.694  11.408
 4454W        W 8198   5.907   2.755   3.314
 4455W        W 8199   4.643  10.076   8.860
 4456W        W 8200   4.417   3.651   8.619
 4457W        W 8201   8.990   6.557   3.147
 4458W        W 8202   4.677   6.900   2.647
 4459W        W 8203   2.702   7.522   3.317
 4460W        W 8204   5.643   0.786   0.342
 4461W        W 8205   3.327   5.973   4.063
 4462W        W 8206   9.696   5.692   1.387
 4463W        W 8207   1.788   4.615  10.215
 4464W        W 8208   9.169   9.803  11.162
 4465W        W 8209   7.938   8.950   2.328
 4466W        W 8210   7.028   2.190   9.335
 4467W        W 8211   4.792   1.769   0.498
 4468W        W 8212   4.792   7.323   2.952
 4469W        W 8213   1.379   1.262   9.396
 4470W        W 8214   9.872   0.027   1.761
 4471W        W 8215  10.280   5.117   8.752
 4472W        W 8216   7.607   6.608   9.536
 4473W        W 8217   2.202   2.231   0.134
 4474W        W 8218   8.457   2.895   0.341
 4475W        W 8219   8.306   6.533   0.586
 4476W        W 8220   5.627   5.678   2.751
 4477W        W 8221   5.167   4.360  10.339
 4478W        W 8222   6.441   2.163   8.896
 4479W        W 8223   3.279   9.113   0.789
 4480W        W 8224   4.330   3.395  10.390
 4481W        W 8225   4.876   1.539   1.188
 4482W        W 8226   7.544   1.848  11.805
 4483W        W 8227   8.100   3.965   3.636
 4484W        W 8228   3.632   2.725   9.526
 4485W        W 8229   2.765   4.333  11.436
 4486W        W 8230   9.382   1.891   9.149
 4487W        W 8231   3.410   4.438   4.008
 4488W        W 8232   9.273   3.269  10.377
 4489W        W 8233   7.761   3.214  10.975
 4490W        W 8234   1.383   5.616   1.971
 4491W        W 8235   1.862   8.162   2.283
 4492W        W 8236   7.908   3.685  10.804
 4493W        W 8237   5.274   4.681   2.680
 4494W        W 8238   1.864   7.093   0.043
 4495W        W 8239   6.939   1.295   1.281
 4496W        W 8240   5.440   7.431  11.685
 4497W        W 8241   1.759   4.607   9.195
 4498W        W 8242   8.631   4.200  10.009
 4499W        W 8243   5.164   8.010  11.353
 4500W        W 8244  10.213   6.694   2.904
 4501W        W 8245   4.706  10.216   1.203
 4502W        W 8246  10.260   7.273   2.145
 4503W        W 8247   4.606   3.252   0.563
 4504W        W 8248   1.900   4.767   2.845
 4505W        W 8249   0.170   7.483   3.300
 4506W        W 8250   3.937   9.915  11.894
 4507W        W 8251   8.106   8.252   1.676
 4508W        W 8252   9.436   7.149   8.703
 4509W        W 8253   3.168   0.908   9.307
 4510W        W 8254   1.975   3.251   0.544
 4511W        W 8255   5.918   2.099   9.626
 4512W        W 8256   5.229   7.528   8.529
 4513W        W 8257   6.787   8.913  11.464
 4514W        W 8258   9.101   3.230   3.454
 4515W        W 8259  10.083   2.216   1.150
 4516W        W 8260   1.318   7.116   0.887
 4517W        W 8261   8.511   2.170   8.764
 4518W        W 8262   7.309   2.227   1.774
 4519W        W 8263   8.513   0.256   1.250
 4520W        W 8264  10.349   0.884   9.197
 4521W        W 8265   0.813   2.931   3.705
 4522W        W 8266   9.880   6.696   3.321
 4523W        W 8267   3.851   5.679   2.702
 4524W        W 8268   8.480  10.235   1.835
 4525W        W 8269   8.630   4.172  10.932
 4526W        W 8270   4.156   9.863   8.880
 4527W        W 8271   1.166   2.312   2.194
 4528W        W 8272   6.932   7.587   8.937
 4529W        W 8273   1.410   3.141   9.568
 4530W        W 8274   2.805  10.409  11.072
 4531W        W 8275   8.244   5.972  10.420
 4532W        W 8276   6.662   1.547   1.715
 4533W        W 8277   3.809   8.615  10.440
 4534W        W 8278   4.360   0.016   0.809
 4535W        W 8279   2.466   7.643  11.004
 4536W        W 8280   3.169   2.961   2.925
 4537W        W 8281   1.775   0.200   2.092
 4538W        W 8282   8.479   6.347   8.601
 4539W        W 8283   7.509   2.163   0.201
 4540W        W 8284   6.938   7.426  11.705
 4541W        W 8285   3.284   6.535   9.961
 4542W        W 8286   6.051   3.799  11.755
 4543W        W 8287   2.094   4.807  11.153
 4544W        W 8288   2.412   5.094   1.917
 4545W        W 8289   3.278   7.873  10.355
 4546W        W 8290   0.735   7.891   0.525
 4547W        W 8291  10.235   6.996  10.295
 4548W        W 8292   2.027   5.024   9.478
 4549W        W 8293   4.638   5.051   1.104
 4550W        W 8294   2.318   0.702  11.511
 4551W        W 8295   4.064   9.094   2.569
 4552W        W 8296   7.140   9.361   9.765
 4553W        W 8297   9.886   6.192   3.320
 4554W        W 8298   9.711  10.447   9.089
 4555W        W 8299   7.428   7.410   8.948
 4556W        W 8300   5.714   4.173  11.854
 4557W        W 8301   6.580   7.603   3.177
 4558W        W 8302  10.098   5.622  11.306
 4559W        W 8303   8.985   8.879   2.821
 4560W        W 8304   2.372   3.661  10.565
 4561W        W 8305   5.659   0.320   2.238
 4562W        W 8306   0.250  10.433  11.707
 4563W        W 8307  10.294   1.719   3.502
 4564W        W 8308   0.301   0.137   0.708
 4565W        W 8309   3.292   3.801   1.688
 4566W        W 8310   7.131   9.011  10.474
 4567W        W 8311   7.367   7.155   1.167
 4568W        W 8312   4.583   6.204   2.755
 4569W        W 8313   8.669   6.970  11.397
 4570W        W 8314   5.948   8.612  11.006
 4571W        W 8315   1.278   3.219   1.150
 4572W        W 8316   8.208   9.413   2.254
 4573W        W 8317   6.481   4.079   0.334
 4574W        W 8318   3.174   9.830   1.907
 4575W        W 8319   2.644   7.676   9.058
 4576W        W 8320   0.714   4.340  11.718
 4577W        W 8321   4.233   9.078  11.593
 4578W        W 8322   7.943   7.543   9.057
 4579W        W 8323   3.312   1.258  11.967
 4580W        W 8324   8.089   6.707   8.745
 4581W        W 8325   3.555   1.435  11.541
 4582W        W 8326   3.920   9.621  10.289
 4583W        W 8327   1.672   2.759  11.299
 4584W        W 8328   5.366   9.559   2.495
 4585W        W 8329   9.218  10.319   9.241
 4586W        W 8330   7.280   8.480   0.275
 4587W        W 8331   8.034  10.113   0.848
 4588W        W 8332   9.505   2.800  10.397
 4589W        W 8333   5.117   0.360  10.080
 4590W        W 8334   7.357   8.533   2.299
 4591W        W 8335   7.146   5.042   2.507
 4592W        W 8336   3.134  10.441  10.451
 4593W        W 8337   2.435   3.309   9.787
 4594W        W 8338   2.452   5.584   2.716
 4595W        W 8339   7.872   5.521   3.526
 4596W        W 8340  10.392   6.554   3.407
 4597W        W 8341   7.818   8.785  11.444
 4598W        W 8342   7.868   3.152   2.614
 4599W        W 8343   2.314   0.232   0.356
 4600W        W 8344   0.820   3.964   0.701
 4601W        W 8345   3.873   4.075  10.001
 4602W        W 8346   1.350   6.505  11.546
 4603W        W 8347   6.678   2.299   1.231
 4604W        W 8348   1.227   1.540  11.701
 4605W        W 8349   2.200   9.982   3.463
 4606W        W 8350   9.494   7.065   0.483
 4607W        W 8351   1.312   2.334   1.706
 4608W        W 8352  10.304   9.237   0.407
 4609W        W 8353   0.147   1.740   3.059
 4610W        W 8354   4.659   3.611  11.472
 4611W        W 8355   5.087   1.734   9.760
 4612W        W 8356   7.693   3.605   1.609
 4613W        W 8357   1.166   0.580  11.910
 4614W        W 8358   5.444   7.967   9.110
 4615W        W 8359   9.477   2.319   8.869
 4616W        W 8360   2.206   6.698   3.403
 4617W        W 8361   2.747   7.067  11.659
 4618W        W 8362   6.104   6.569   2.398
 4619W        W 8363   4.459   4.365   0.202
 4620W        W 8364   6.923   0.698   2.687
 4621W        W 8365   5.236   3.017   1.622
 4622W        W 8366   1.315   2.377   2.730
 4623W        W 8367   0.162   5.193   0.545
 4624W        W 8368   7.040   2.695   9.524
 4625W        W 8369   3.579   6.386   3.099
 4626W        W 8370   0.065   7.955   9.425
 4627W        W 8371   1.448   8.871   1.363
 4628W        W 8372   1.671   4.050   0.185
 4629W        W 8373   6.694   7.514  10.762
 4630W        W 8374  10.145   2.634   8.951
 4631W        W 8375   9.916  10.120   8.715
 4632W        W 8376   8.954   9.635  10.292
 4633W        W 8377   3.697   3.130   0.962
 4634W        W 8378   0.870   4.082   9.940
 4635W        W 8379   2.286   4.321  11.240
 4636W        W 8380   1.894   6.393   1.115
 4637W        W 8381   9.075   5.017   1.955
 4638W        W 8382   0.733   1.361  11.544
 4639W        W 8383   3.339   9.253   9.035
 4640W        W 8384   5.416   7.581  11.198
 4641W        W 8385   6.965   2.355  11.188
 4642W        W 8386   5.407   8.541   2.420
 4643W        W 8387   9.352  10.274  11.307
 4644W        W 8388   3.799   1.352   2.476
 4645W        W 8389   5.352   3.631   8.149
 4646W        W 8390   6.491   9.528   2.385
 4647W        W 8391   2.856   3.209   2.119
 4648W        W 8392   5.723   8.807   3.558
 4649W        W 8393   8.543   6.092  11.309
 4650W        W 8394   1.021   1.350   0.417
 4651W        W 8395  10.483   9.616   0.117
 4652W        W 8396   0.221   1.104  10.271
 4653W        W 8397   3.960   6.614   1.975
 4654W        W 8398   3.412   5.189   1.939
 4655W        W 8399   2.721   7.198  10.306
 4656W        W 8400   6.256   1.752   1.133
 4657W        W 8401   6.640   9.075   3.234
 4658W        W 8402   4.101   9.162   0.171
 4659W        W 8403   2.356   1.247   9.590
 4660W        W 8404   4.291   0.339  11.702
 4661W        W 8405   7.444   4.986   4.065
 4662W        W 8406   7.822  10.355   9.093
 4663W        W 8407   0.673   6.808   0.326
 4664W        W 8408   8.060   6.120  11.506
 4665W        W 8409   6.241   7.022  11.970
 4666W        W 8410   7.163   1.408  10.281
 4667W        W 8411   0.775   2.610   0.363
 4668W        W 8412   0.939   4.797  10.443
 4669W        W 8413   9.415   8.978  10.665
 4670W        W 8414   6.081   2.861  11.239
 4671W        W 8415   3.179   1.873   2.661
 4672W        W 8416   6.441   5.476  11.299
 4673W        W 8417   3.899   3.160  10.273
 4674W        W 8418   2.863   8.286   0.900
 4675W        W 8419   4.538   3.182   8.427
 4676W        W 8420   4.576   4.087   8.381
 4677W        W 8421   7.982   6.062  10.994
 4678W        W 8422   8.212   7.442  11.911
 4679W        W 8423   8.122   1.156   9.633
 4680W        W 8424   9.379   6.281   2.481
 4681W        W 8425   7.412   3.609   9.403
 4682W        W 8426   1.194   8.887   9.078
 4683W        W 8427   0.702   4.360  11.213
 4684W        W 8428   8.365   8.956   2.010
 4685W        W 8429   7.841   0.900   0.240
 4686W        W 8430  10.454   7.094   2.647
 4687W        W 8431   4.011   1.666   0.813
 4688W        W 8432   4.404   4.007   4.046
 4689W        W 8433   8.695   9.954   0.520
 4690W        W 8434   9.442   3.272   8.924
 4691W        W 8435   0.205   1.442   0.278
 4692W        W 8436   8.413   4.790   1.193
 4693W        W 8437   3.215   9.363   1.644
 4694W        W 8438   2.497   9.123   8.567
 4695W        W 8439   5.152   6.962   2.860
 4696W        W 8440   9.527   1.066   9.500
 4697W        W 8441   4.099   8.707  11.948
 4698W        W 8442   7.642   3.080  11.462
 4699W        W 8443   6.341   6.941   1.014
 4700W        W 8444   5.285   8.038   1.787
 4701W        W 8445   0.063   6.873   2.204
 4702W        W 8446   9.703   5.952   0.937
 4703W        W 8447   3.659   4.311  11.496
 4704W        W 8448   9.880   3.877  11.825
 4705W        W 8449   4.604   2.672   8.305
 4706W        W 8450   7.714   5.392   9.944
 4707W        W 8451   7.608   7.898  11.577
 4708W        W 8452   8.382  10.227  11.299
 4709W        W 8453   0.927   2.107  10.979
 4710W        W 8454   7.563   6.061   1.752
 4711W        W 8455   4.852   8.189   1.400
 4712W        W 8456   4.044   1.590   3.159
 4713W        W 8457   1.622   0.318  11.716
 4714W        W 8458   4.204   5.755   1.837
 4715W        W 8459   7.477   1.770  10.980
 4716W        W 8460   7.717   6.322   9.967
 4717W        W 8461   7.091   3.288   8.417
 4718W        W 8462   3.705   6.029   9.921
 4719W        W 8463   1.385   2.897  10.315
 4720W        W 8464   2.399   8.356   0.051
 4721W        W 8465   8.115   7.632   0.815
 4722W        W 8466   3.599   6.381   2.249
 4723W        W 8467   2.573   6.453   3.151
 4724W        W 8468   5.273   0.426  11.365
 4725W        W 8469   0.362   8.428   2.369
 4726W        W 8470   3.741   2.341  10.858
 4727W        W 8471   5.102   8.470   1.979
 4728W        W 8472   5.225   0.359   2.503
 4729W        W 8473   4.215   5.614   9.759
 4730W        W 8474   3.757   5.464  10.630
 4731W        W 8475   0.482   2.960   2.668
 4732W        W 8476   9.299   4.351   2.911
 4733W        W 8477   2.180   6.164   3.291
 4734W        W 8478   8.993   4.572  11.589
 4735W        W 8479   7.042   5.201  11.039
 4736W        W 8480   7.997   5.508  11.813
 4737W        W 8481   2.628   9.963  11.413
 4738W        W 8482   9.998  10.382   3.677
 4739W        W 8483   8.959   9.837   8.984
 4740W        W 8484   4.653  10.052   2.194
 4741W        W 8485   5.564   9.374  11.240
 4742W        W 8486   3.173   8.662  10.962
 4743W        W 8487   9.584   6.580   0.636
 4744W        W 8488   2.649  10.420  10.558
 4745W        W 8489   2.120   2.575   1.121
 4746W        W 8490   6.974   1.368   2.921
 4747W        W 8491   8.414   9.399   1.764
 4748W        W 8492   4.771   4.490   9.993
 4749W        W 8493   9.384   7.947   1.491
 4750W        W 8494   3.600   7.945   9.959
 4751W        W 8495   5.961   4.184   1.709
 4752W        W 8496   9.862   2.980  11.574
 4753W        W 8497   6.883   3.229  10.781
 4754W        W 8498   9.286   9.738   8.523
 4755W        W 8499  10.399   6.088  10.308
 4756W        W 8500   2.266   0.330   0.917
 4757W        W 8501   0.700   6.008  11.955
 4758W        W 8502   6.014   5.210  11.132
 4759W        W 8503  10.309   3.662   9.867
 4760W        W 8504   5.774   8.937  11.457
 4761W        W 8505   9.876   6.413   9.968
 4762W        W 8506   4.899   1.178  11.741
 4763W        W 8507   9.925   4.397  11.924
 4764W        W 8508   8.854   7.207   9.455
 4765W        W 8509   4.718   0.330   0.545
 4766W        W 8510   7.410   5.302   3.085
 4767W        W 8511   3.912  10.082   9.574
 4768W        W 8512   8.747   0.911  10.982
 4769W        W 8513   1.401   5.524   1.416
 4770W        W 8514   6.654   1.500   0.841
 4771W        W 8515   0.965   7.687   1.362
 4772W        W 8516  10.268   7.511  11.427
 4773W        W 8517   3.622   9.910   2.650
 4774W        W 8518   5.914   2.418   0.904
 4775W        W 8519   2.169   4.047  11.655
 4776W        W 8520   3.178   8.043   1.418
 4777W        W 8521   1.314   2.810   2.431
 4778W        W 8522   7.066   8.428   2.928
 4779W        W 8523   2.222   3.049   0.976
 4780W        W 8524   7.893   9.941   0.303
 4781W        W 8525   7.011   8.573  10.219
 4782W        W 8526   6.145   8.850   0.789
 4783W        W 8527   9.453   3.797   8.737
 4784W        W 8528   3.240   3.601   2.158
 4785W        W 8529   8.521   9.763  11.945
 4786W        W 8530   5.646   8.540  10.473
 4787W        W 8531   9.090   9.315   2.528
 4788W        W 8532   2.563   0.938  11.914
 4789W        W 8533   1.248  10.303   3.208
 4790W        W 8534   5.650   5.979   2.340
 4791W        W 8535   1.473   8.140  10.546
 4792W        W 8536   9.473   4.587   1.489
 4793W        W 8537   5.949   8.440   2.331
 4794W        W 8538   5.871   8.890   0.343
 4795W        W 8539   4.291   1.892   0.454
 4796W        W 8540   6.080   9.836   9.125
 4797W        W 8541   8.863   1.216   0.807
 4798W        W 8542   4.657   4.989   2.138
 4799W        W 8543   6.702   1.165  10.568
 4800W        W 8544   3.374   3.202   9.068
 4801W        W 8545   8.146   9.366   8.739
 4802W        W 8546   3.749   2.320  10.328
 4803W        W 8547   7.405   7.070   2.166
 4804W        W 8548   8.977   3.721   3.335
 4805W        W 8549   5.071   9.442  11.232
 4806W        W 8550   7.836  10.394   8.564
 4807W        W 8551   0.760   3.829   1.191
 4808W        W 8552   5.462   6.875  10.126
 4809W        W 8553   2.938   7.709  11.113
 4810W        W 8554   9.894   0.320   9.458
 4811W        W 8555   6.781   3.708   0.143
 4812W        W 8556   5.009   7.407   1.836
 4813W        W 8557   9.457   6.000   3.490
 4814W        W 8558   7.400   9.773   2.461
 4815W        W 8559  10.128   8.447  11.394
 4816W        W 8560   5.504   2.174   9.308
 4817W        W 8561   3.326   5.489   2.379
 4818W        W 8562   1.472   4.647   3.184
 4819W        W 8563   7.715   5.647   9.502
 4820W        W 8564   0.717   8.310  10.349
 4821W        W 8565  10.295   1.155   0.424
 4822W        W 8566   4.743   9.615   0.123
 4823W        W 8567   8.957   6.518  10.221
 4824W        W 8568   0.241  10.165   0.903
 4825W        W 8569   6.396   2.703   8.995
 4826W        W 8570   4.978   6.618  11.772
 4827W        W 8571   2.604   7.689   9.580
 4828W        W 8572   5.620   0.786   9.521
 4829W        W 8573  10.008   7.380  10.987
 4830W        W 8574   6.809   4.234   8.797
 4831W        W 8575  10.346   9.541  11.627
 4832W        W 8576   3.131   8.081   3.076
 4833W        W 8577   8.431   9.800   8.738
 4834W        W 8578   3.234   5.490  11.518
 4835W        W 8579   0.572   7.635   2.684
 4836W        W 8580   9.364   5.334   2.738
 4837W        W 8581   3.363   9.432  10.432
 4838W        W 8582   7.735   1.947   8.479
 4839W        W 8583   5.478   6.696  11.541
 4840W        W 8584   6.901   6.961   9.483
 4841W        W 8585   0.383   1.605   0.924
 4842W        W 8586  10.208   0.681   1.819
 4843W        W 8587   1.884   8.627   1.308
 4844W        W 8588   3.083   5.199   3.603
 4845W        W 8589   3.809   1.874  10.583
 4846W        W 8590   0.873   9.448  10.871
 4847W        W 8591   0.153   0.448  10.000
 4848W        W 8592   4.293   1.700  11.984
 4849W        W 8593   5.441   7.798   9.972
 4850W        W 8594   0.414   8.746  10.464
 4851W        W 8595   7.137   5.965  11.560
 4852W        W 8596   0.354   9.475  10.840
 4853W        W 8597   3.563   0.822   3.107
 4854W        W 8598   0.114   8.318   1.277
 4855W        W 8599   4.153   5.554  11.045
 4856W        W 8600   9.811   1.817   3.548
 4857W        W 8601   7.611   2.734  10.869
 4858W        W 8602   5.578   3.136   0.709
 4859W        W 8603   3.249   2.992   0.720
 4860W        W 8604   3.589   4.911  11.718
 4861W        W 8605   2.355   9.493   3.286
 4862W        W 8606   5.710   3.398  10.297
 4863W        W 8607   0.805   9.738  11.804
 4864W        W 8608   8.526   2.840  10.989
 4865W        W 8609   4.828   2.548   0.243
 4866W        W 8610   9.944   3.823   3.180
 4867W        W 8611   5.439   1.339   3.385
 4868W        W 8612   4.186   4.992   2.996
 4869W        W 8613   3.608   8.131   2.596
 4870W        W 8614   0.801  10.401   9.068
 4871W        W 8615   7.463   0.943   2.034
 4872W        W 8616   9.349   8.817   3.288
 4873W        W 8617  10.151   9.883  11.308
 4874W        W 8618   0.464   3.933   9.677
 4875W        W 8619   1.272   1.441   2.717
 4876W        W 8620   0.989   7.540   0.892
 4877W        W 8621   5.619   3.835  11.454
 4878W        W 8622   7.085   8.312   0.720
 4879W        W 8623   3.846   0.364  11.996
 4880W        W 8624   6.030   0.182  10.382
 4881W        W 8625   6.305   5.144   1.335
 4882W        W 8626   7.915   2.364  11.043
 4883W        W 8627   8.928   0.954  10.299
 4884W        W 8628   3.612   5.261   0.716
 4885W        W 8629   3.746   7.903  10.953
 4886W        W 8630   4.943   9.360   2.199
 4887W        W 8631   1.100   4.135   9.488
 4888W        W 8632   4.189   9.257   2.095
 4889W        W 8633   6.527   6.490   0.276
 4890W        W 8634   7.016   3.039  10.333
 4891W        W 8635   3.115  10.276   0.362
 4892W        W 8636   4.935   4.225   0.380
 4893W        W 8637   5.169  10.434   9.249
 4894W        W 8638   0.840   2.426   1.291
 4895W        W 8639   0.502   3.480  11.432
 4896W        W 8640   2.419   9.040   3.035
 4897W        W 8641   0.668   2.182   2.260
 4898W        W 8642   5.399   0.304   1.257
 4899W        W 8643   0.124   2.229   9.853
 4900W        W 8644   0.068   3.072   3.432
 4901W        W 8645   6.287   4.748  10.737
 4902W        W 8646   4.366   5.368  11.645
 4903W        W 8647   2.407   0.263   1.422
 4904W        W 8648   3.801   2.169   0.876
 4905W        W 8649   2.881   8.538   0.319
 4906W        W 8650   6.572   3.247   2.317
 4907W        W 8651   2.361   7.910   1.587
 4908W        W 8652   9.707   7.518   3.239
 4909W        W 8653   8.125   5.495  10.247
 4910W        W 8654   2.453   2.181   3.301
 4911W        W 8655   1.894   1.165   3.009
 4912W        W 8656   4.393   0.316  10.305
 4913W        W 8657   9.401   6.233   1.965
 4914W        W 8658   4.808   1.749  11.975
 4915W        W 8659   9.146   9.917   0.756
 4916W        W 8660   6.425   7.240   1.406
 4917W        W 8661   3.796   5.657   0.948
 4918W        W 8662   8.389   5.676  11.026
 4919W        W 8663   6.642   8.775   9.397
 4920W        W 8664   0.503   3.100  11.860
 4921W        W 8665   3.731   6.472   0.941
 4922W        W 8666   0.903   5.810  11.170
 4923W        W 8667   9.568   3.051   3.303
 4924W        W 8668   7.588   4.521   1.804
 4925W        W 8669   9.620   0.619   9.770
 4926W        W 8670   0.304   8.991  10.022
 4927W        W 8671   7.451   8.362  11.015
 4928W        W 8672   1.844   5.438   9.187
 4929W        W 8673   1.736   3.638   2.289
 4930W        W 8674   5.210   0.183  11.823
 4931W        W 8675   1.919   5.638   2.736
 4932W        W 8676   7.628   6.980  11.436
 4933W        W 8677   8.356   1.893   3.407
 4934W        W 8678  10.345   5.139  11.112
 4935W        W 8679   2.291   7.356  10.586
 4936W        W 8680   8.979   1.949   1.735
 4937W        W 8681   5.990   3.305  11.913
 4938W        W 8682   7.152   2.136   1.229
 4939W        W 8683   4.589   2.208   9.034
 4940W        W 8684   6.117  10.391  11.343
 4941W        W 8685   2.625  10.226   2.160
 4942W        W 8686   3.354   7.869  11.336
 4943W        W 8687   4.339   6.260   1.971
 4944W        W 8688   1.544   7.877   3.619
 4945W        W 8689   9.819   0.892   9.104
 4946W        W 8690   4.591   8.857   0.842
 4947W        W 8691   2.775   8.394  11.719
 4948W        W 8692   7.970   0.218   1.980
 4949W        W 8693   3.198   5.754   3.591
 4950W        W 8694   0.243   6.693   2.836
 4951W        W 8695   7.326   2.618   9.109
 4952W        W 8696   5.478   3.908   3.961
 4953W        W 8697   1.910   0.386   1.317
 4954W        W 8698   4.280   6.368  11.472
 4955W        W 8699   9.082   2.685  11.768
 4956W        W 8700   0.486   4.670   9.081
 4957W        W 8701   0.038   7.506   0.613
 4958W        W 8702   7.717   1.618  11.401
 4959W        W 8703   3.531   4.876   9.064
 4960W        W 8704   8.857   1.375   3.022
 4961W        W 8705   1.870   3.375   8.907
 4962W        W 8706   2.694   0.734   9.381
 4963W        W 8707   7.095   9.805   3.096
 4964W        W 8708   4.190  10.347   1.296
 4965W        W 8709   8.357   0.506   2.180
 4966W        W 8710   2.384   7.242   2.158
 4967W        W 8711   9.238   6.516  11.624
 4968W        W 8712  10.413   8.868  11.367
 4969W        W 8713   4.100   0.802  11.857
 4970W        W 8714   2.245   3.804   2.163
 4971W        W 8715   3.138   5.717   8.769
 4972W        W 8716   0.455   5.965   9.455
 4973W        W 8717   0.814   6.641   3.372
 4974W        W 8718   5.641   2.360   1.356
 4975W        W 8719   2.100   0.194   8.983
 4976W        W 8720   9.011   9.946   0.061
 4977W        W 8721   0.928   6.591   9.818
 4978W        W 8722  10.481   6.616   1.036
 4979W        W 8723   9.467   4.635  11.841
 4980W        W 8724   5.944   6.063  11.037
 4981W        W 8725   6.603   5.032   1.735
 4982W        W 8726   8.512   7.910  11.467
 4983W        W 8727   5.670   0.220   2.752
 4984W        W 8728   6.161   1.753   3.234
 4985W        W 8729   0.788   3.079   3.212
 4986W        W 8730   6.602  10.240  10.608
 4987W        W 8731   5.547   3.827   9.944
 4988W        W 8732   9.883   8.208   2.349
 4989W        W 8733   5.994   6.417   2.890
 4990W        W 8734   5.207  10.362   1.062
 4991W        W 8735   5.554   1.758  11.025
 4992W        W 8736   5.243   8.889   8.859
 4993W        W 8737   8.321   0.505  10.905
 4994W        W 8738   5.075   8.839   9.862
 4995W        W 8739   8.845   1.859  11.154
 4996W        W 8740   3.185  10.089   2.373
 4997W        W 8741   9.561   0.990  10.500
 4998W        W 8742   1.652   7.187   1.379
 4999W        W 8743   5.713   7.550   8.364
 5000W        W 8744   4.691   4.114  11.395
 5001W        W 8745   1.229  10.245   1.391
 5002W        W 8746   3.482  10.448   0.722
 5003W        W 8747   6.579   9.097   2.610
 5004W        W 8748   5.878  10.350   3.031
 5005W        W 8749   4.871   8.300   8.527
 5006W        W 8750   2.652   1.584   1.777
 5007W        W 8751   1.887   2.608   0.269
 5008W        W 8752   1.698   8.913   0.893
 5009W        W 8753   2.318   8.473   9.903
 5010W        W 8754   7.574   6.029  11.302
 5011W        W 8755   8.865   3.728  10.079
 5012W        W 8756   0.923   6.540  10.713
 5013W        W 8757   5.162   8.524   3.297
 5014W        W 8758   4.564   3.253   2.273
 5015W        W 8759   7.636   6.462   8.549
 5016W        W 8760   0.265   4.267  10.940
 5017W        W 8761   0.409   3.429   9.593
 5018W        W 8762   5.512   8.529  11.315
 5019W        W 8763   5.305   1.152   2.014
 5020W        W 8764   6.434   6.785   3.610
 5021W        W 8765   4.207   3.847   3.222
 5022W        W 8766   5.244   1.878  11.729
 5023W        W 8767   1.807   8.194   2.809
 5024W        W 8768   6.458   7.804   9.021
 5025W        W 8769   8.860   5.224   2.799
 5026W        W 8770  10.326   8.824  10.519
 5027W        W 8771   0.625   9.836   0.777
 5028W        W 8772   1.197  10.468   2.689
 5029W        W 8773   7.956   2.485  11.533
 5030W        W 8774   5.137   7.711   2.211
 5031W        W 8775   2.753   6.387   9.434
 5032W        W 8776   2.864   0.344   2.497
 5033W        W 8777   7.441   2.152   2.603
 5034W        W 8778   5.124   9.392   9.001
 5035W        W 8779   1.346   4.843   8.883
 5036W        W 8780   9.436   3.830   2.056
 5037W        W 8781   1.372   7.613  10.315
 5038W        W 8782   9.468   8.538  10.872
 5039W        W 8783   5.107   3.022   9.909
 5040W        W 8784   9.821   5.030   9.027
 5041W        W 8785   0.669   4.380   9.506
 5042W        W 8786   7.818   0.823   9.349
 5043W        W 8787   8.916   7.994   0.724
 5044W        W 8788   9.877   1.344  11.696
 5045W        W 8789   0.007   7.826  10.347
 5046W        W 8790   3.063   1.485   2.961
 5047W        W 8791   8.636   8.685  11.022
 5048W        W 8792  10.433   7.660  11.900
 5049W        W 8793   4.246   7.230  11.937
 5050W        W 8794   5.347   2.391   0.147
 5051W        W 8795   0.276   2.556  11.296
 5052W        W 8796   6.191   8.358   0.901
 5053W        W 8797   6.972   6.862   1.951
 5054W        W 8798   4.794   1.308   0.236
 5055W        W 8799   3.244   8.201   0.035
 5056W        W 8800   0.473   4.647   3.048
 5057W        W 8801   4.764   0.248   1.060
 5058W        W 8802   2.152   0.666  11.031
 5059W        W 8803   9.798   3.126   0.560
 5060W        W 8804   0.557   8.865   2.577
 5061W        W 8805   6.128   2.414   0.448
 5062W        W 8806   2.628   9.115  11.513
 5063W        W 8807   5.704   6.361   0.436
 5064W        W 8808   0.188   7.929  10.840
 5065W        W 8809   0.948   9.942  10.887
 5066W        W 8810   6.145   9.375   2.728
 5067W        W 8811   6.987   6.995   3.007
 5068W        W 8812  10.309   6.263  11.746
 5069W        W 8813   3.265   7.367  11.290
 5070W        W 8814   1.724   1.233   2.500
 5071W        W 8815   0.394   2.669   2.216
 5072W        W 8816   7.447   0.440   0.764
 5073W        W 8817  10.069   7.411   2.610
 5074W        W 8818   8.921   3.812   1.231
 5075W        W 8819   6.900   9.558   8.987
 5076W        W 8820   1.217   0.424  10.893
 5077W        W 8821   6.742   4.181   3.596
 5078W        W 8822   9.826   6.697  10.399
 5079W        W 8823   9.758   3.137   2.483
 5080W        W 8824   1.888   9.451   0.828
 5081W        W 8825   9.986   2.720  10.608
 5082W        W 8826   0.933  10.471  10.037
 5083W        W 8827   6.132   0.153   3.489
 5084W        W 8828   9.357   8.060   0.477
 5085W        W 8829   1.814  10.261   9.998
 5086W        W 8830   3.150   4.948  10.366
 5087W        W 8831   2.577   9.408  10.242
 5088W        W 8832   3.640   4.120  10.473
 5089W        W 8833   2.401   8.587   0.940
 5090W        W 8834   6.098   3.907   2.204
 5091W        W 8835   3.172   8.140  10.942
 5092W        W 8836  10.167   9.460   3.486
 5093W        W 8837   3.733   1.376   8.742
 5094W        W 8838   5.993   5.498   2.415
 5095W        W 8839   5.991   3.240   1.434
 5096W        W 8840   4.106   6.087  11.084
 5097W        W 8841   4.742   8.953  11.514
 5098W        W 8842   2.173   4.451   9.454
 5099W        W 8843   7.458   3.744   8.502
 5100W        W 8844   4.769   7.384   2.410
 5101W        W 8845   8.400   5.521   2.648
 5102W        W 8846   5.038   8.850  11.920
 5103W        W 8847   7.103   3.193   9.410
 5104W        W 8848   0.387   7.919   3.213
 5105W        W 8849   4.362   2.777  11.374
 5106W        W 8850   9.880   3.198   1.489
 5107W        W 8851   3.682   3.637   3.396
 5108W        W 8852   2.972   9.802   0.779
 5109W        W 8853   2.519   4.884   9.514
 5110W        W 8854   2.749   1.335   2.235
 5111W        W 8855   6.188   1.358  11.028
 5112W        W 8856   2.617   3.256  10.333
 5113W        W 8857   4.307   7.494   8.922
 5114W        W 8858   6.533   7.345   3.666
 5115W        W 8859   1.341   6.087   2.184
 5116W        W 8860   9.220   5.963  10.251
 5117W        W 8861   5.079   9.444   1.667
 5118W        W 8862   3.855   1.142   3.425
 5119W        W 8863   3.636   9.619   9.481
 5120W        W 8864   9.698   0.452   2.380
 5121W        W 8865   5.171   2.318  11.400
 5122W        W 8866   1.978   1.700   1.006
 5123W        W 8867   7.000   9.378   2.328
 5124W        W 8868   9.340  10.405   8.716
 5125W        W 8869   5.101   5.609   1.656
 5126W        W 8870   1.478   7.121   9.338
 5127W        W 8871   8.827   0.903   0.336
 5128W        W 8872   9.400   7.534   9.673
 5129W        W 8873   9.086   0.893   1.237
 5130W        W 8874   6.569   6.211   1.329
 5131W        W 8875   0.849   4.823  11.823
 5132W        W 8876   6.579   3.563  11.232
 5133W        W 8877   8.833   7.196   1.146
 5134W        W 8878   6.487   8.349  11.359
 5135W        W 8879   4.336   0.422   8.750
 5136W        W 8880   9.388   3.656  11.948
 5137W        W 8881   2.452   0.908   0.479
 5138W        W 8882   1.232   0.030   2.180
 5139W        W 8883   8.275  10.490   9.295
 5140W        W 8884   8.225   1.393   2.695
 5141W        W 8885   4.047   7.410   8.474
 5142W        W 8886   2.415   6.506  10.587
 5143W        W 8887   5.737   6.523   9.886
 5144W        W 8888   3.326   6.451   0.599
 5145W        W 8889   4.704   1.162   9.760
 5146W        W 8890   6.694   6.464  10.765
 5147W        W 8891   2.289   6.960  10.954
 5148W        W 8892   3.615   7.680   0.254
 5149W        W 8893   5.200   4.173  11.773
 5150W        W 8894   0.437   7.042   3.347
 5151W        W 8895   6.545   0.716  11.488
 5152W        W 8896   2.740   5.555   0.263
 5153W        W 8897   3.818   0.569   8.806
 5154W        W 8898   4.603   7.850   1.079
 5155W        W 8899   8.603   2.898  11.826
 5156W        W 8900   9.000   7.122   8.444
 5157W        W 8901   4.582   6.289   9.448
 5158W        W 8902  10.107  10.227   9.932
 5159W        W 8903   1.913   5.258  11.356
 5160W        W 8904  10.081   4.004   0.871
 5161W        W 8905   8.030   5.905   1.915
 5162W        W 8906   2.001   0.015   1.668
 5163W        W 8907   6.158   0.777   1.650
 5164W        W 8908   4.307   7.210   2.454
 5165W        W 8909   2.202   1.105   2.338
 5166W        W 8910   7.659   5.973   8.417
 5167W        W 8911   7.666   4.604   0.266
 5168W        W 8912   2.728   8.135   8.838
 5169W        W 8913   6.941   5.891   1.450
 5170W        W 8914   9.077   9.444   9.305
 5171W        W 8915   7.459   2.594   0.457
 5172W        W 8916   5.592   1.210   2.805
 5173W        W 8917   0.165   6.096  10.776
 5174W        W 8918   4.179   2.408  10.616
 5175W        W 8919   3.157   9.964   3.449
 5176W        W 8920   6.123   7.886   9.404
 5177W        W 8921   1.446   7.569   0.624
 5178W        W 8922   8.132   6.986  11.356
 5179W        W 8923   5.167   2.693  11.763
 5180W        W 8924   0.376   3.609  11.901
 5181W        W 8925   4.592   7.547   3.879
 5182W        W 8926   8.943   2.664   2.337
 5183W        W 8927   2.711   5.468  10.783
 5184W        W 8928   6.931   2.653   3.032
 5185W        W 8929   0.358   7.972  11.761
 5186W        W 8930  10.256   1.676   0.410
 5187W        W 8931   1.388   6.240   1.179
 5188W        W 8932   2.445   3.775   0.009
 5189W        W 8933   2.683   3.216   0.804
 5190W        W 8934   8.530   8.132   2.047
 5191W        W 8935   6.564   0.433   9.257
 5192W        W 8936   3.098   3.122  11.918
 5193W        W 8937   2.380   2.993  11.518
 5194W        W 8938   0.309   2.347   0.202
 5195W        W 8939   4.871   8.842   0.418
 5196W        W 8940   6.685   7.713   2.484
 5197W        W 8941   4.784   0.817  11.320
 5198W        W 8942   1.933   1.381  10.903
 5199W        W 8943   9.570   4.203  10.940
 5200W        W 8944   3.755   1.883  10.054
 5201W        W 8945   0.942  10.281  10.509
 5202W        W 8946   7.447   1.343   1.205
 5203W        W 8947   5.143   8.809  10.526
 5204W        W 8948   5.789   8.424   8.660
 5205W        W 8949   8.160   0.896   0.684
 5206W        W 8950   4.526   4.245   3.196
 5207W        W 8951   8.457  10.000   2.531
 5208W        W 8952  10.441   8.777   0.292
 5209W        W 8953   1.930   9.028   2.306
 5210W        W 8954   5.751   6.906  11.910
 5211W        W 8955   4.641   2.326   1.499
 5212W        W 8956   5.134   4.792   9.779
 5213W        W 8957   3.368   8.869  10.308
 5214W        W 8958   2.922   0.938   9.786
 5215W        W 8959   6.968   3.772  11.522
 5216W        W 8960   1.459   2.479   8.877
 5217W        W 8961   3.770   7.042   1.769
 5218W        W 8962  10.320   9.949   0.664
 5219W        W 8963   2.683  10.359   1.260
 5220W        W 8964   3.648   9.620   2.006
 5221W        W 8965   5.465   4.607  11.871
 5222W        W 8966   1.674   4.122   2.144
 5223W        W 8967  10.441   5.555   1.853
 5224W        W 8968   0.452   7.162   9.783
 5225W        W 8969   2.462   7.410   8.641
 5226W        W 8970   2.627   4.976  10.727
 5227W        W 8971   5.333   0.335   9.591
 5228W        W 8972   0.771   8.785  10.843
 5229W        W 8973   9.501   0.954   2.452
 5230W        W 8974   4.290   0.389   9.260
 5231W        W 8975   9.752   1.823   1.960
 5232W        W 8976   8.093   6.648   1.084
 5233W        W 8977   6.546   6.693  11.750
 5234W        W 8978   0.485   5.599   8.827
 5235W        W 8979   3.273   1.982   0.409
 5236W        W 8980   5.451   8.891  10.978
 5237W        W 8981   0.982   8.891   8.612
 5238W        W 8982   9.338   8.949  11.501
 5239W        W 8983   6.091   0.867   0.657
 5240W        W 8984   6.114   6.607   1.740
 5241W        W 8985   1.177   1.845   9.355
 5242W        W 8986   5.458   8.004   8.592
 5243W        W 8987   4.800   3.149   1.825
 5244W        W 8988  10.481   1.381   8.903
 5245W        W 8989   2.918   5.711   2.602
 5246W        W 8990   9.405   7.046   1.957
 5247W        W 8991   0.083   7.619   2.793
 5248W        W 8992   0.335   0.021   2.692
 5249W        W 8993   2.422   8.905  10.485
 5250W        W 8994   9.605   9.431   9.466
 5251W        W 8995   7.643   8.091   9.423
 5252W        W 8996   6.397   3.913   8.671
 5253W        W 8997   8.959   2.297  10.037
 5254W        W 8998   2.925   3.765   0.191
 5255W        W 8999   3.504   3.022   1.413
 5256W        W 9000   7.563   0.091   3.312
 5257W        W 9001   1.325   3.823   3.228
 5258W        W 9002   8.719   0.832   9.572
 5259W        W 9003   4.639   5.962   2.286
 5260W        W 9004   2.697   5.358   9.459
 5261W        W 9005   6.467   1.791  10.981
 5262W        W 9006   5.678   9.977  10.593
 5263W        W 9007   1.685   9.894   2.128
 5264W        W 9008   4.244   5.272   2.082
 5265W        W 9009   5.515   8.826  10.086
 5266W        W 9010   5.397   7.136   8.230
 5267W        W 9011   5.537   8.905  11.920
 5268W        W 9012   3.081   4.247   1.846
 5269W        W 9013   1.684   6.020   3.043
 5270W        W 9014   3.026   7.452   9.372
 5271W        W 9015   3.563   6.162   3.596
 5272W        W 9016   9.413   8.902   1.413
 5273W        W 9017   0.392  10.265   9.527
 5274W        W 9018   1.504   7.357   2.645
 5275W        W 9019   8.835   2.221   2.665
 5276W        W 9020   6.593   1.038   2.462
 5277W        W 9021   6.185  10.174   9.490
 5278W        W 9022   8.357   9.039  10.760
 5279W        W 9023   0.581   8.215   0.152
 5280W        W 9024   2.318   1.684   1.378
 5281W        W 9025  10.482   6.735   0.078
 5282W        W 9026   4.336   6.074   0.230
 5283W        W 9027   2.897   9.904   9.536
 5284W        W 9028   7.022   5.820   2.136
 5285W        W 9029   9.080   5.078  10.036
 5286W        W 9030  10.272   4.854   0.858
 5287W        W 9031   2.498   9.929   0.964
 5288W        W 9032   4.291   2.102   0.941
 5289W        W 9033   0.800   1.881   8.902
 5290W        W 9034   6.488   3.222   1.499
 5291W        W 9035   5.310   3.317   8.558
 5292W        W 9036   5.397   9.889   3.800
 5293W        W 9037   5.118   9.003   1.437
 5294W        W 9038   5.225   2.869   3.897
 5295W        W 9039   7.910   1.807   0.282
 5296W        W 9040   7.871   6.384   2.009
 5297W        W 9041   1.663   6.038  10.863
 5298W        W 9042   0.302   0.979   8.935
 5299W        W 9043   5.764   2.862   1.102
 5300W        W 9044   8.615   5.664   8.341
 5301W        W 9045   0.551   5.507   0.461
 5302W        W 9046   7.507   4.698   3.613
 5303W        W 9047   7.965   5.712   0.864
 5304W        W 9048   7.901   2.277   0.979
 5305W        W 9049   0.284  10.387  11.178
 5306W        W 9050   8.192   5.916   3.367
 5307W        W 9051   7.004   8.067  10.490
 5308W        W 9052   7.953  10.258   1.741
 5309W        W 9053   6.117  10.378   0.691
 5310W        W 9054   7.319   4.529   9.974
 5311W        W 9055   3.553   2.625   0.968
 5312W        W 9056   4.722   2.277   3.416
 5313W        W 9057   3.906   3.957   2.413
 5314W        W 9058   2.264   7.076  10.068
 5315W        W 9059   7.459  10.036   9.766
 5316W        W 9060   1.328   1.895   2.478
 5317W        W 9061   5.782   4.653   1.901
 5318W        W 9062   9.478   2.660  11.455
 5319W        W 9063   3.176   3.495   0.733
 5320W        W 9064   9.512   3.874   2.914
 5321W        W 9065   5.721   4.644   2.415
 5322W        W 9066   0.499   3.802   2.595
 5323W        W 9067   4.150   7.321  11.460
 5324W        W 9068   8.404   4.302   2.345
 5325W        W 9069   0.025   5.697   0.703
 5326W        W 9070   0.902   0.138   9.548
 5327W        W 9071   8.514   5.744  10.053
 5328W        W 9072  10.491   2.616  10.453
 5329W        W 9073   5.592   1.475   1.720
 5330W        W 9074   8.949   6.597   8.682
 5331W        W 9075   7.927   4.937   1.092
 5332W        W 9076   7.506   4.449   4.047
 5333W        W 9077   3.789   5.403   2.224
 5334W        W 9078  10.298   1.377  11.968
 5335W        W 9079   8.993   8.395   2.061
 5336W        W 9080   5.558   3.931   9.069
 5337W        W 9081   8.074   9.372   1.354
 5338W        W 9082   8.912   4.190   9.557
 5339W        W 9083   9.009   8.600   9.945
 5340W        W 9084   3.764   3.094   8.719
 5341W        W 9085   7.022   6.942   2.479
 5342W        W 9086   5.453  10.015   8.626
 5343W        W 9087   7.648   9.272  11.442
 5344W        W 9088   9.216   7.003   1.473
 5345W        W 9089   0.152   5.045   2.857
 5346W        W 9090   6.748   6.556   9.785
 5347W        W 9091   9.756   9.421   3.147
 5348W        W 9092   9.547   6.935   2.579
 5349W        W 9093   4.204   6.375  10.628
 5350W        W 9094   3.794   0.512   2.012
 5351W        W 9095   5.861   3.249   8.557
 5352W        W 9096   8.543   4.317   0.298
 5353W        W 9097   8.593   5.191  10.931
 5354W        W 9098   0.274   5.116   9.284
 5355W        W 9099   5.548   6.145   9.219
 5356W        W 9100   9.232   0.050   2.461
 5357W        W 9101   7.138   8.963   1.484
 5358W        W 9102   9.396   4.642   3.326
 5359W        W 9103   5.072   6.020  10.569
 5360W        W 9104   1.401   4.622   1.667
 5361W        W 9105   9.208  10.477   1.187
 5362W        W 9106   0.271   3.193   1.441
 5363W        W 9107   7.006   0.703  11.840
 5364W        W 9108   0.284   3.645   1.198
 5365W        W 9109   0.884   6.532  11.919
 5366W        W 9110   0.506   3.580   0.746
 5367W        W 9111   0.560   9.622  11.270
 5368W        W 9112   3.316   1.797   9.266
 5369W        W 9113   1.423  10.475  10.756
 5370W        W 9114   4.957   1.949   1.463
 5371W        W 9115   4.895   8.066   3.185
 5372W        W 9116   3.222   2.296   9.113
 5373W        W 9117   5.419   5.609  10.493
 5374W        W 9118  10.383   3.990   1.310
 5375W        W 9119   7.576   5.302   0.890
 5376W        W 9120   1.985   6.379  10.285
 5377W        W 9121   6.993   4.713  10.883
 5378W        W 9122   0.794  10.004   1.517
 5379W        W 9123   5.642   3.615   9.466
 5380W        W 9124  10.320   0.346  11.404
 5381W        W 9125   6.478   1.138   1.439
 5382W        W 9126   3.722   8.583   9.430
 5383W        W 9127   6.429   0.918  10.974
 5384W        W 9128   0.989   1.850   0.778
 5385W        W 9129   1.315   2.699   9.828
 5386W        W 9130   6.154   6.431   0.697
 5387W        W 9131   2.782   6.520   1.200
 5388W        W 9132   3.168   3.204   3.649
 5389W        W 9133  10.337   1.289  11.452
 5390W        W 9134   9.166   6.208   0.476
 5391W        W 9135  10.059   1.141   3.100
 5392W        W 9136   8.569   5.229  10.055
 5393W        W 9137   3.738   7.390  11.017
 5394W        W 9138   8.018   0.863  11.749
 5395W        W 9139   8.869   4.044   2.154
 5396W        W 9140   7.948  10.238   3.195
 5397W        W 9141   3.593  10.432   9.791
 5398W        W 9142   0.884   7.185  12.000
 5399W        W 9143   7.503   8.558   9.551
 5400W        W 9144   3.681   4.576   9.775
 5401W        W 9145   9.022   1.353  11.198
 5402W        W 9146   7.650   8.642   2.710
 5403W        W 9147   1.894   6.871   0.962
 5404W        W 9148   3.843   0.384  10.309
 5405W        W 9149   9.135   3.985  10.976
 5406W        W 9150   9.801   9.614  10.301
 5407W        W 9151   5.035   6.020   2.940
 5408W        W 9152   3.716   9.201   0.517
 5409W        W 9153   8.469   7.938   0.474
 5410W        W 9154   9.732   4.616   9.368
 5411W        W 9155   7.498   2.448   2.199
 5412W        W 9156   7.818   4.373  11.326
 5413W        W 9157   8.459   4.763   2.137
 5414W        W 9158   8.907   1.798   2.325
 5415W        W 9159   1.596   4.177   9.444
 5416W        W 9160   5.549   5.363   1.774
 5417W        W 9161   5.436   4.147   0.276
 5418W        W 9162   8.980   1.259  10.696
 5419W        W 9163   3.097   6.885  11.276
 5420W        W 9164   9.808   7.813   2.777
 5421W        W 9165   4.175   3.558   1.179
 5422W        W 9166   1.336   4.808  10.123
 5423W        W 9167   2.340   9.191   0.225
 5424W        W 9168   5.670   2.711   0.423
 5425W        W 9169   3.119   5.184   0.941
 5426W        W 9170   8.781   6.309   0.819
 5427W        W 9171   7.653  10.054   2.796
 5428W        W 9172   1.816   5.463   9.691
 5429W        W 9173   8.757   8.355   3.580
 5430W        W 9174   9.230   0.309  11.941
 5431W        W 9175   4.186   1.234   2.803
 5432W        W 9176   0.747   9.998   0.282
 5433W        W 9177   7.922   0.478   0.513
 5434W        W 9178   1.846  10.393  11.015
 5435W        W 9179   0.407   2.460   2.672
 5436W        W 9180   4.310   5.521   0.935
 5437W        W 9181   5.520   8.841   9.581
 5438W        W 9182   5.625   5.430   8.964
 5439W        W 9183   3.417   4.083   2.258
 5440W        W 9184   6.623   7.850  11.270
 5441W        W 9185   7.795   5.205  10.488
 5442W        W 9186   3.248   9.513   1.154
 5443W        W 9187   1.658   0.240   9.986
 5444W        W 9188   4.939   5.768  11.386
 5445W        W 9189   6.459   8.097   3.278
 5446W        W 9190   2.328   4.635   1.661
 5447W        W 9191   9.994   0.965   0.005
 5448W        W 9192   4.967   7.589  11.588
 5449W        W 9193   5.366   1.671   1.308
 5450W        W 9194   2.832   3.400   1.570
 5451W        W 9195   1.394   0.373  10.410
 5452W        W 9196   4.668   8.087  10.530
 5453W        W 9197   1.614   3.025   0.214
 5454W        W 9198   5.539   8.283  10.884
 5455W        W 9199   7.622   7.412   1.697
 5456W        W 9200   2.661   8.454   2.371
 5457W        W 9201   1.827   2.189   0.976
 5458W        W 9202   3.393   3.825   0.377
 5459W        W 9203   8.492   2.294   9.271
 5460W        W 9204   1.625   1.344  11.330
 5461W        W 9205   3.591   1.898   3.021
 5462W        W 9206   1.155   9.538  10.433
 5463W        W 9207   1.770   0.101   8.560
 5464W        W 9208   0.179   9.214  10.460
 5465W        W 9209   3.890  10.413   2.689
 5466W        W 9210   4.412   7.608   2.737
 5467W        W 9211   0.709   3.312   1.165
 5468W        W 9212   3.642   5.696   1.729
 5469W        W 9213   4.087   9.362   9.351
 5470W        W 9214   4.067   7.512  10.627
 5471W        W 9215   1.948   1.421   3.453
 5472W        W 9216   5.004  10.005   3.433
 5473W        W 9217   0.216   7.411   2.327
 5474W        W 9218   1.802   5.471   2.202
 5475W        W 9219   4.699   0.663   9.037
 5476W        W 9220   0.468   3.816   3.099
 5477W        W 9221   4.323   5.134   9.551
 5478W        W 9222   1.886   2.914   8.331
 5479W        W 9223   8.181   5.040  11.795
 5480W        W 9224   8.048   8.638   0.771
 5481W        W 9225   3.231   7.361  10.362
 5482W        W 9226   7.044   0.773   3.202
 5483W        W 9227   0.705   3.088  10.918
 5484W        W 9228  10.471   9.437   1.994
 5485W        W 9229   6.146   9.095   3.416
 5486W        W 9230   1.095   0.443   9.153
 5487W        W 9231   6.176   6.186   2.050
 5488W        W 9232   4.038   9.722   3.373
 5489W        W 9233   7.032   4.587   3.763
 5490W        W 9234   9.232   3.418   9.745
 5491W        W 9235   4.569   4.157  10.895
 5492W        W 9236   5.048   2.384   9.470
 5493W        W 9237   1.213   4.225  11.030
 5494W        W 9238   8.543   7.056   8.696
 5495W        W 9239   9.332   0.867   8.916
 5496W        W 9240   8.834   1.746   8.805
 5497W        W 9241   5.070   6.103   9.547
 5498W        W 9242   6.125   1.959   0.238
 5499W        W 9243   0.826   6.324   2.966
 5500W        W 9244   4.214   3.603  11.728
 5501W        W 9245   3.274   6.169   8.540
 5502W        W 9246   0.661   8.879   9.081
 5503W        W 9247   5.758   1.772   8.360
 5504W        W 9248   4.580   9.267   0.459
 5505W        W 9249   0.966   1.764   0.121
 5506W        W 9250  10.417   4.494   2.602
 5507W        W 9251   8.618   7.557   0.832
 5508W        W 9252   9.358   1.552   9.552
 5509W        W 9253   9.884   1.342  11.194
 5510W        W 9254   4.294   3.112   2.735
 5511W        W 9255   2.882   2.162  10.343
 5512W        W 9256   4.275   5.227   1.420
 5513W        W 9257   7.600   8.803   0.582
 5514W        W 9258   4.748   1.714  10.367
 5515W        W 9259   6.124   7.583   8.051
 5516W        W 9260   9.286   6.239   0.959
 5517W        W 9261   8.482   6.057   2.670
 5518W        W 9262   3.216   7.130   1.164
 5519W        W 9263   2.793   9.753   2.244
 5520W        W 9264   9.459   3.545   2.498
 5521W        W 9265   6.434   2.304  10.975
 5522W        W 9266   6.164   9.675  11.830
 5523W        W 9267   6.465   2.169  11.460
 5524W        W 9268   5.952   4.665  11.733
 5525W        W 9269   7.202   6.645   8.338
 5526W        W 9270   7.132   1.964  11.500
 5527W        W 9271   1.471   7.913   1.925
 5528W        W 9272   9.072   6.998  11.730
 5529W        W 9273   9.193   2.219  10.937
 5530W        W 9274   0.436   6.929  11.888
 5531W        W 9275   7.454   8.013   2.273
 5532W        W 9276   1.208   9.999   0.501
 5533W        W 9277   0.437   7.642   1.881
 5534W        W 9278   3.369   3.652  10.883
 5535W        W 9279   5.748  10.324  10.988
 5536W        W 9280   2.635   8.823  11.955
 5537W        W 9281   1.298   0.944   2.602
 5538W        W 9282   4.613  10.368   3.355
 5539W        W 9283   9.113   8.879  11.056
 5540W        W 9284   2.212   2.504   9.240
 5541W        W 9285   9.415   8.170   3.098
 5542W        W 9286   6.405   5.358  10.425
 5543W        W 9287   6.557   1.737   0.385
 5544W        W 9288   3.271   2.358  10.645
 5545W        W 9289   5.680   8.350   9.966
 5546W        W 9290   7.431   1.481   2.694
 5547W        W 9291   7.898   7.989  10.247
 5548W        W 9292  10.247   2.816   9.421
 5549W        W 9293   1.666   5.049  10.961
 5550W        W 9294   7.220   9.683   3.578
 5551W        W 9295   1.274   4.203   0.929
 5552W        W 9296   9.744   2.804   9.582
 5553W        W 9297   0.858   0.426   1.434
 5554W        W 9298   6.484   0.723   8.829
 5555W        W 9299   4.760  10.087   1.699
 5556W        W 9300   7.518   9.090   3.522
 5557W        W 9301   9.183   1.289   3.391
 5558W        W 9302   8.035   8.017   2.274
 5559W        W 9303   5.616   2.658   2.451
 5560W        W 9304   2.018   9.083   3.345
 5561W        W 9305   7.162   9.740  11.965
 5562W        W 9306   0.691   0.053  11.430
 5563W        W 9307   8.522   3.217   1.394
 5564W        W 9308   9.020   6.044  11.464
 5565W        W 9309   8.321   2.426  10.749
 5566W        W 9310   3.268   7.304   0.212
 5567W        W 9311   8.309   7.132   0.729
 5568W        W 9312   4.210   0.343   1.733
 5569W        W 9313   0.810   4.752   1.497
 5570W        W 9314   0.939  10.195   8.492
 5571W        W 9315   3.416  10.006   0.965
 5572W        W 9316   5.645   4.119   1.220
 5573W        W 9317   7.372   3.154  10.682
 5574W        W 9318   3.657   3.521   2.437
 5575W        W 9319   8.151   9.827   3.446
 5576W        W 9320   9.852   4.705   2.393
 5577W        W 9321   6.531   6.085   0.671
 5578W        W 9322   9.988   4.473  10.981
 5579W        W 9323  10.325   6.126  11.213
 5580W        W 9324   4.215   0.877   8.939
 5581W        W 9325   1.827   7.370   0.908
 5582W        W 9326   4.259   9.497   1.077
 5583W        W 9327   0.871   2.267  11.984
 5584W        W 9328   5.628   7.235   2.816
 5585W        W 9329   4.720   6.465  10.816
 5586W        W 9330   5.554   2.692  11.398
 5587W        W 9331   7.479   8.951   1.055
 5588W        W 9332   2.822   9.065   0.375
 5589W        W 9333   8.100   4.195   3.177
 5590W        W 9334   8.096   5.109   2.600
 5591W        W 9335   6.564   2.663  11.353
 5592W        W 9336   8.085   4.982   1.585
 5593W        W 9337   1.377   1.674   1.190
 5594W        W 9338   9.734   2.241   2.246
 5595W        W 9339   8.354   2.436  10.251
 5596W        W 9340   3.703   0.433   9.824
 5597W        W 9341   8.829   3.162   2.452
 5598W        W 9342   4.007   9.434   8.430
 5599W        W 9343   7.508   1.932   2.146
 5600W        W 9344   8.927   2.646   0.242
 5601W        W 9345   7.052   6.930  11.714
 5602W        W 9346   5.062   2.366  10.480
 5603W        W 9347   6.006   7.917   2.407
 5604W        W 9348   0.025   2.416   0.980
 5605W        W 9349   6.254   4.656   1.577
 5606W        W 9350   2.416   3.394   2.914
 5607W        W 9351   1.979   4.574   3.297
 5608W        W 9352   7.689   6.448   3.395
 5609W        W 9353   7.090  10.186  10.923
 5610W        W 9354   2.203  10.273   9.259
 5611W        W 9355   7.876   0.268   9.517
 5612W        W 9356   2.969   8.519   3.284
 5613W        W 9357   3.122   0.679  10.925
 5614W        W 9358   2.408  10.235   1.687
 5615W        W 9359   8.581   9.426   9.061
 5616W        W 9360   0.727  10.076  11.333
 5617W        W 9361   7.605   2.817  10.370
 5618W        W 9362   8.531   6.436   9.545
 5619W        W 9363   6.948  10.426   1.212
 5620W        W 9364   4.540   0.313  11.029
 5621W        W 9365   0.370   4.508   1.425
 5622W        W 9366   0.720  10.245  11.831
 5623W        W 9367   2.749   8.558   9.188
 5624W        W 9368   3.047   4.238   0.333
 5625W        W 9369   4.593   0.096   1.523
 5626W        W 9370   0.424   9.375   1.769
 5627W        W 9371   0.980   4.656   9.184
 5628W        W 9372  10.185   2.229  10.682
 5629W        W 9373   7.030   9.886   9.999
 5630W        W 9374   4.627   7.208  11.591
 5631W        W 9375   5.543   3.079  10.652
 5632W        W 9376  10.300   1.571   1.334
 5633W        W 9377   4.093   2.602   0.959
 5634W        W 9378   0.938   2.200   3.242
 5635W        W 9379   1.752   0.736  11.402
 5636W        W 9380   3.185   8.697  11.933
 5637W        W 9381   5.822   8.077   4.070
 5638W        W 9382   8.454   8.491   1.254
 5639W        W 9383   8.631   5.290  11.797
 5640W        W 9384   2.282   4.548  11.695
 5641W        W 9385   9.358   4.213  10.478
 5642W        W 9386   2.391   2.892   8.514
 5643W        W 9387   5.578   7.531   9.372
 5644W        W 9388   6.524   3.412   1.027
 5645W        W 9389   8.062   1.632   9.783
 5646W        W 9390   3.252   3.226   1.790
 5647W        W 9391   4.830  10.334   0.715
 5648W        W 9392   1.782   4.700   0.936
 5649W        W 9393   2.611   4.276   2.853
 5650W        W 9394   1.394   1.939   8.890
 5651W        W 9395   4.729   0.430   2.431
 5652W        W 9396   5.773   6.002   3.161
 5653W        W 9397   1.749   4.348  11.777
 5654W        W 9398   4.705   8.020  11.087
 5655W        W 9399   0.861   5.702  10.219
 5656W        W 9400   0.422  10.210  10.400
 5657W        W 9401   2.365   6.979   1.714
 5658W        W 9402   9.774   8.588  10.426
 5659W        W 9403   3.844  10.031   1.671
 5660W        W 9404   5.106   2.558   2.712
 5661W        W 9405   5.203   1.649   8.692
 5662W        W 9406   8.303   0.690   3.174
 5663W        W 9407   6.990   1.191   1.932
 5664W        W 9408   9.110   2.199  11.982
 5665W        W 9409   2.295   9.417   2.235
 5666W        W 9410   3.445   0.952   8.701
 5667W        W 9411   5.299   8.478   1.494
 5668W        W 9412   2.487   6.142   0.476
 5669W        W 9413   3.101   0.793  11.907
 5670W        W 9414   7.452   0.655  11.381
 5671W        W 9415   0.534   6.031   2.204
 5672W        W 9416   7.345   6.122   3.203
 5673W        W 9417   5.633   4.091  10.974
 5674W        W 9418   4.368   8.574   1.314
 5675W        W 9419  10.367   7.032  11.236
 5676W        W 9420   5.892   7.074  10.460
 5677W        W 9421   5.005   7.999   0.813
 5678W        W 9422   6.451   3.649   9.903
 5679W        W 9423   1.697   3.588   9.343
 5680W        W 9424   2.770   1.908   0.427
 5681W        W 9425   2.886   6.952   9.401
 5682W        W 9426   0.892   6.624   8.948
 5683W        W 9427   7.955   2.678   2.352
 5684W        W 9428   4.038   2.653   2.732
 5685W        W 9429   0.925   6.175   2.475
 5686W        W 9430  10.287   7.911   0.409
 5687W        W 9431   8.556   0.248   3.254
 5688W        W 9432   0.156   0.792   3.293
 5689W        W 9433   3.473   0.532   3.508
 5690W        W 9434   4.620   4.103   7.869
 5691W        W 9435   7.356   6.556   0.349
 5692W        W 9436   3.188   9.967   2.912
 5693W        W 9437   6.918   9.817   2.608
 5694W        W 9438   7.654   1.857   2.954
 5695W        W 9439  10.405   8.900   9.690
 5696W        W 9440   3.828   2.766  10.557
 5697W        W 9441   9.374   9.101   0.020
 5698W        W 9442   0.052   2.707   8.638
 5699W        W 9443   8.864   5.810   0.326
 5700W        W 9444   5.005   0.849   2.622
 5701W        W 9445   6.620   6.455   1.810
 5702W        W 9446   8.957   7.438   1.574
 5703W        W 9447   5.366   2.753   3.417
 5704W        W 9448  10.030   0.921   9.590
 5705W        W 9449   2.407   5.690   3.195
 5706W        W 9450   6.473   1.116   1.967
 5707W        W 9451   2.685   8.405   2.889
 5708W        W 9452   7.865   7.440  11.530
 5709W        W 9453   6.177   2.036   2.815
 5710W        W 9454   4.165   7.132   1.476
 5711W        W 9455   8.847   8.881   3.356
 5712W        W 9456   3.382   2.684   2.548
 5713W        W 9457   2.904   1.070   8.314
 5714W        W 9458   9.324   3.036   9.383
 5715W        W 9459   8.824   7.517   3.059
 5716W        W 9460   5.142   5.242   9.051
 5717W        W 9461   9.740   5.603  11.685
 5718W        W 9462  10.137   2.108   3.201
 5719W        W 9463  10.451   2.684   2.608
 5720W        W 9464   6.435   6.051  10.869
 5721W        W 9465   7.394  10.024   8.522
 5722W        W 9466   8.594   4.514   0.789
 5723W        W 9467   4.212   3.120   0.901
 5724W        W 9468   4.366   9.495   2.841
 5725W        W 9469   6.143   8.568   3.363
 5726W        W 9470   7.391  10.437   8.850
 5727W        W 9471   9.388   7.946   0.977
 5728W        W 9472   4.760   4.533   9.064
 5729W        W 9473   2.876   6.685  10.302
 5730W        W 9474   3.553   2.388   0.487
 5731W        W 9475   1.411   8.643   0.128
 5732W        W 9476  10.037   6.480   0.130
 5733W        W 9477   6.216  10.020  10.874
 5734W        W 9478   1.749   8.332   3.615
 5735W        W 9479   4.585   9.073   1.356
 5736W        W 9480   9.035   9.091   0.438
 5737W        W 9481   7.395   3.241   1.361
 5738W        W 9482   5.923   2.615   9.402
 5739W        W 9483   3.651   6.242   8.913
 5740W        W 9484   8.023   2.867   9.736
 5741W        W 9485   0.249   3.038  11.417
 5742W        W 9486   2.092   3.438  10.141
 5743W        W 9487   0.881   2.364  11.447
 5744W        W 9488   1.816   3.380   1.024
 5745W        W 9489   1.741   4.144   1.126
 5746W        W 9490   9.736   4.259   2.136
 5747W        W 9491   1.034   0.436   3.251
 5748W        W 9492   2.683   5.876   8.566
 5749W        W 9493   6.129   1.737   8.780
 5750W        W 9494   9.468   5.470   8.846
 5751W        W 9495   4.073   0.918   2.374
 5752W        W 9496   2.384   4.246   2.387
 5753W        W 9497   8.921   9.932   9.490
 5754W        W 9498   8.719   2.354  11.042
 5755W        W 9499   6.011   3.879   9.260
 5756W        W 9500   1.600   0.774   3.259
 5757W        W 9501   1.443   4.618   2.192
 5758W        W 9502   2.262   2.328  10.649
 5759W        W 9503   6.156   9.373  10.023
 5760W        W 9504   8.986   8.875   2.293
 5761W        W 9505   9.399   7.296  11.495
 5762W        W 9506   1.146   7.931   9.975
 5763W        W 9507   9.281   5.060   0.742
 5764W        W 9508   3.727   3.640   0.917
 5765W        W 9509   9.929   9.544   2.125
 5766W        W 9510   9.557   4.787   3.808
 5767W        W 9511   6.915   6.538   3.767
 5768W        W 9512   9.495   4.804   2.798
 5769W        W 9513   3.350   3.210   9.581
 5770W        W 9514   7.445   2.322   3.086
 5771W        W 9515   4.083   8.230  11.776
 5772W        W 9516   9.039   7.503   8.779
 5773W        W 9517   2.534   0.730  10.080
 5774W        W 9518   9.438   9.111   2.869
 5775W        W 9519   0.212   9.543   2.809
 5776W        W 9520   8.307   6.226   9.980
 5777W        W 9521  10.016   4.540   8.955
 5778W        W 9522   8.398   6.991   1.883
 5779W        W 9523  10.274   4.072   1.869
 5780W        W 9524   1.763   0.764   2.724
 5781W        W 9525   1.040   9.993   1.009
 5782W        W 9526   5.807   0.316   9.719
 5783W        W 9527   3.705   2.256   2.675
 5784W        W 9528   2.362   6.233   1.304
 5785W        W 9529   2.305   2.987   9.387
 5786W        W 9530   9.732   7.655  10.647
 5787W        W 9531   4.621   1.354   1.578
 5788W        W 9532   2.410   9.367  10.747
 5789W        W 9533   9.365   5.844   2.740
 5790W        W 9534   9.463   0.284   1.521
 5791W        W 9535   5.922   6.890   0.753
 5792W        W 9536   7.585   4.617   8.599
 5793W        W 9537   3.119   7.050   9.979
 5794W        W 9538   1.831   9.415   1.972
 5795W        W 9539   5.577   9.931   2.213
 5796W        W 9540   9.103   7.209   0.192
 5797W        W 9541   5.113   5.576   2.667
 5798W        W 9542   6.532   0.280  10.482
 5799W        W 9543   2.271   4.972  10.314
 5800W        W 9544   8.514   8.402   0.716
 5801W        W 9545   9.854   2.658   0.392
 5802W        W 9546   9.585   0.775   1.392
 5803W        W 9547   8.347   0.483  11.786
 5804W        W 9548   7.542   0.582  10.454
 5805W        W 9549   8.118   7.957   9.313
 5806W        W 9550   2.254   0.188  10.903
 5807W        W 9551   2.299   1.578   2.186
 5808W        W 9552   1.851   9.570   3.445
 5809W        W 9553   1.159   9.074  10.680
 5810W        W 9554   6.488   7.793  10.315
 5811W        W 9555   3.620   5.123   0.219
 5812W        W 9556   8.037   6.934  10.858
 5813W        W 9557   6.517   3.231   9.117
 5814W        W 9558   9.072   4.187   8.654
 5815W        W 9559   4.186   5.730   2.330
 5816W        W 9560   0.720   7.490   3.181
 5817W        W 9561   0.690   2.128   0.457
 5818W        W 9562   7.588   1.835   1.146
 5819W        W 9563   3.270   4.196   3.570
 5820W        W 9564   5.931   8.024   8.362
 5821W        W 9565   9.604   5.058  10.054
 5822W        W 9566   8.681   5.828   3.563
 5823W        W 9567   4.888   9.512   9.961
 5824W        W 9568   9.752   3.354  10.210
 5825W        W 9569   4.465   1.839   1.375
 5826W        W 9570   4.287   0.676  11.322
 5827W        W 9571   4.127   7.731  11.833
 5828W        W 9572   2.590   1.699   9.461
 5829W        W 9573   8.118   4.651   9.422
 5830W        W 9574   0.489   5.552   2.416
 5831W        W 9575   6.427   7.436  11.710
 5832W        W 9576   3.275   9.470   3.161
 5833W        W 9577   0.862   8.315   9.054
 5834W        W 9578   8.484   9.896   1.012
 5835W        W 9579   9.070   5.028  11.834
 5836W        W 9580   8.102   4.212   9.103
 5837W        W 9581   3.479   8.436  10.032
 5838W        W 9582   9.453   5.846   9.545
 5839W        W 9583   9.608   9.383   1.449
 5840W        W 9584   6.037   3.005   2.847
 5841W        W 9585   5.759   7.834  11.771
 5842W        W 9586   1.444   3.244  11.341
 5843W        W 9587   9.144   6.631   2.148
 5844W        W 9588   5.222   1.897   0.264
 5845W        W 9589   0.721   4.275   2.750
 5846W        W 9590  10.170   9.072  10.938
 5847W        W 9591   0.403   0.318   9.559
 5848W        W 9592   3.182   7.135   2.649
 5849W        W 9593   7.851   6.928   1.910
 5850W        W 9594   9.119   0.291   3.230
 5851W        W 9595   8.944   3.657   2.482
 5852W        W 9596   4.085   0.942   9.483
 5853W        W 9597   4.476   7.192  10.509
 5854W        W 9598   3.341   3.608  11.895
 5855W        W 9599   2.722   9.859   2.733
 5856W        W 9600   3.606   9.844   3.180
 5857W        W 9601   6.404   9.553   8.847
 5858W        W 9602   3.146   9.770   0.284
 5859W        W 9603   0.206   8.049   1.694
 5860W        W 9604   4.385   5.716   2.796
 5861W        W 9605   6.187   1.404   3.604
 5862W        W 9606   1.839   7.778  10.439
 5863W        W 9607   9.342   2.512   9.370
 5864W        W 9608   7.918   7.742   8.526
 5865W        W 9609   2.679   6.386   4.123
 5866W        W 9610   5.473   5.511   2.267
 5867W        W 9611   5.986  10.165   3.640
 5868W        W 9612   3.184   9.387   2.155
 5869W        W 9613   0.249   5.437  11.817
 5870W        W 9614   0.054   2.584   3.569
 5871W        W 9615   5.424  10.382   2.455
 5872W        W 9616   1.025   0.883   2.190
 5873W        W 9617   0.824   3.579   9.870
 5874W        W 9618   8.301   1.406   2.196
 5875W        W 9619   3.782   4.130   3.250
 5876W        W 9620   8.780  10.353   1.422
 5877W        W 9621   4.076   6.229   2.401
 5878W        W 9622   7.501   3.115   8.680
 5879W        W 9623   4.126   4.131   8.663
 5880W        W 9624   6.932   8.952  10.973
 5881W        W 9625   5.454   2.676   9.646
 5882W        W 9626   3.205   9.325   9.534
 5883W        W 9627   8.909   7.923  11.141
 5884W        W 9628   6.466   5.160   9.853
 5885W        W 9629   1.198  10.030   2.353
 5886W        W 9630   1.178   6.683   9.366
 5887W        W 9631   6.477   7.529   9.527
 5888W        W 9632   8.551   3.040   0.897
 5889W        W 9633   7.397   5.000  10.727
 5890W        W 9634  10.122   2.215   3.708
 5891W        W 9635   3.076   7.133   3.165
 5892W        W 9636   7.138   4.711   2.904
 5893W        W 9637  10.295   6.568   0.557
 5894W        W 9638   0.352   8.469   0.855
 5895W        W 9639   2.050   8.712   3.693
 5896W        W 9640   7.008   7.494   2.879
 5897W        W 9641   6.075  10.085   2.053
 5898W        W 9642   1.658   8.999  11.848
 5899W        W 9643   4.819   6.970  10.830
 5900W        W 9644   0.560   3.140  10.005
 5901W        W 9645   0.255   8.534   1.835
 5902W        W 9646   5.135   3.677  11.659
 5903W        W 9647   5.658   2.832  11.874
 5904W        W 9648   2.263   6.017  11.272
 5905W        W 9649   4.713   5.546  10.722
 5906W        W 9650   4.274   3.358   0.191
 5907W        W 9651   5.457   9.590   9.329
 5908W        W 9652   3.875   5.260   1.732
 5909W        W 9653   4.172   7.497   3.578
 5910W        W 9654   4.142   7.898   9.201
 5911W        W 9655   0.832   1.881  11.637
 5912W        W 9656   5.542   2.909  10.121
 5913W        W 9657   3.481   2.189  11.875
 5914W        W 9658   9.103   7.160   9.897
 5915W        W 9659   3.846   7.118   9.376
 5916W        W 9660   6.731   7.995   1.530
 5917W        W 9661   6.169   9.363   0.829
 5918W        W 9662   0.990   7.455   0.407
 5919W        W 9663   8.607   8.673   0.290
 5920W        W 9664   2.675  10.418   0.095
 5921W        W 9665   8.803   3.287  10.566
 5922W        W 9666   1.267   7.742  11.803
 5923W        W 9667   7.384   5.624   2.625
 5924W        W 9668   8.357  10.234   9.799
 5925W        W 9669   6.722  10.456   3.059
 5926W        W 9670   5.563   9.123   9.170
 5927W        W 9671   3.952   0.630   3.399
 5928W        W 9672   2.077   1.119  11.308
 5929W        W 9673   3.923  10.243   0.818
 5930W        W 9674   6.803   7.911   9.385
 5931W        W 9675   8.823   5.032  11.388
 5932W        W 9676   6.124   0.849   2.292
 5933W        W 9677  10.476   3.714   2.690
 5934W        W 9678  10.008   0.898   2.263
 5935W        W 9679   9.323   1.718   8.656
 5936W        W 9680   2.762   4.078   8.955
 5937W        W 9681   2.803   5.090   0.498
 5938W        W 9682   0.843   3.154  10.433
 5939W        W 9683   8.929   6.426  10.730
 5940W        W 9684   4.760   8.985   3.374
 5941W        W 9685   0.854   2.306  10.519
 5942W        W 9686   0.923   9.745   2.988
 5943W        W 9687   7.546  10.470  10.874
 5944W        W 9688   2.573   0.804   1.009
 5945W        W 9689   0.925   8.895   2.940
 5946W        W 9690   1.855   7.407   3.015
 5947W        W 9691  10.409   0.425   9.411
 5948W        W 9692   2.831   0.344  10.296
 5949W        W 9693   8.933   9.802   2.622
 5950W        W 9694   6.127   8.470   9.041
 5951W        W 9695   5.575   5.368  11.373
 5952W        W 9696   2.271   2.379   8.726
 5953W        W 9697   0.429  10.481   9.967
 5954W        W 9698   2.809   3.162   9.421
 5955W        W 9699   5.052   1.817  11.262
 5956W        W 9700   5.757   5.547  11.818
 5957W        W 9701   2.245   0.233   2.304
 5958W        W 9702   7.486   6.600   2.962
 5959W        W 9703   5.209   9.215  10.218
 5960W        W 9704   5.570   5.590   9.452
 5961W        W 9705   6.985   8.431  11.448
 5962W        W 9706   7.034   1.722   9.070
 5963W        W 9707   5.602   1.241   9.755
 5964W        W 9708   2.347   6.914  11.987
 5965W        W 9709   7.531   9.408  11.926
 5966W        W 9710   0.869   3.609   3.292
 5967W        W 9711   4.030   3.573  10.015
 5968W        W 9712   3.667   5.150  10.235
 5969W        W 9713   8.871   9.448   0.821
 5970W        W 9714   4.984   8.126   9.287
 5971W        W 9715   0.917   5.578  10.714
 5972W        W 9716   1.870   6.527  10.760
 5973W        W 9717   9.787   7.664   1.328
 5974W        W 9718   6.618   7.237   9.133
 5975W        W 9719   2.663   5.145  11.993
 5976W        W 9720   7.511   7.437   8.434
 5977W        W 9721   3.560   0.000   0.218
 5978W        W 9722  10.268   8.662  11.837
 5979W        W 9723   4.245   7.202   0.996
 5980W        W 9724   0.955   3.327  11.278
 5981W        W 9725   2.140   4.938   1.300
 5982W        W 9726   4.295   8.834   8.916
 5983W        W 9727   9.551   2.195  11.293
 5984W        W 9728   1.828   5.992   2.048
 5985W        W 9729   5.618  10.026   9.112
 5986W        W 9730   0.211   8.281  10.408
 5987W        W 9731   0.773   7.391  11.534
 5988W        W 9732   9.224   2.249   2.258
 5989W        W 9733   8.590   1.968  10.151
 5990W        W 9734   7.898   1.418   1.483
 5991W        W 9735   3.378   4.723   2.715
 5992W        W 9736   7.870   7.078  11.889
 5993W        W 9737   8.619   3.880   0.566
 5994W        W 9738   5.556   5.851   1.570
 5995W        W 9739   0.456   6.664   0.841
 5996W        W 9740   6.081   4.788   9.833
 5997W        W 9741   6.406   7.008   9.571
 5998W        W 9742   8.817   3.669   9.561
 5999W        W 9743   7.128   3.632   1.571
 6000W        W 9744   2.479   0.683   2.415
 6001W        W 9745   9.870   8.739   2.516
 6002W        W 9746   8.743   8.381  10.352
 6003W        W 9747   4.085   5.575   0.056
 6004W        W 9748   1.395   0.866   9.013
 6005W        W 9749   8.334   3.281   2.414
 6006W        W 9750   2.865   2.613   2.695
 6007W        W 9751   4.697   8.486   3.550
 6008W        W 9752   4.777   2.119  10.049
 6009W        W 9753   9.947   7.468   0.395
 6010W        W 9754   7.490  10.039   3.296
 6011W        W 9755   0.677  10.426   1.274
 6012W        W 9756   3.947   4.762   9.367
 6013W        W 9757   0.729   5.423   1.306
 6014W        W 9758   0.322   3.853   0.354
 6015W        W 9759   6.612   1.006   0.830
 6016W        W 9760   9.519   9.415  11.546
 6017W        W 9761   7.452   9.093  10.883
 6018W        W 9762   3.339   6.076   0.244
 6019W        W 9763   8.940   1.250   9.784
 6020W        W 9764   3.237   0.175  10.886
 6021W        W 9765   4.692   4.982   1.623
 6022W        W 9766   0.441   5.737   0.993
 6023W        W 9767   4.934   8.893  11.040
 6024W        W 9768   9.977   6.898   9.879
 6025W        W 9769   8.584   7.785  11.981
 6026W        W 9770   5.819   4.338   9.995
 6027W        W 9771   8.110   4.272  10.914
 6028W        W 9772   0.374   8.986   3.494
 6029W        W 9773  10.252   2.236  10.178
 6030W        W 9774   0.921   9.046   0.473
 6031W        W 9775   8.395   8.966   1.489
 6032W        W 9776   3.936   4.519   1.036
 6033W        W 9777   1.159   1.811   3.511
 6034W        W 9778  10.244   3.689   0.493
 6035W        W 9779   6.816   0.800   1.239
 6036W        W 9780   3.019   1.700   0.822
 6037W        W 9781   4.304   8.729   3.318
 6038W        W 9782   3.072   9.218  10.045
 6039W        W 9783   0.055   5.514   8.536
 6040W        W 9784   1.551   3.380  11.841
 6041W        W 9785   7.619   1.242   9.008
 6042W        W 9786   5.219   3.581  10.724
 6043W        W 9787   4.818   3.713  11.012
 6044W        W 9788   1.040   5.859   1.249
 6045W        W 9789   1.837   1.849   3.757
 6046W        W 9790   7.884   5.607   2.654
 6047W        W 9791   1.350   6.006  11.357
 6048W        W 9792   0.596   3.850   3.630
 6049W        W 9793   0.969   3.338   0.717
 6050W        W 9794   5.252   8.425   0.971
 6051W        W 9795   4.408   1.152  11.479
 6052W        W 9796   3.102   3.985   0.777
 6053W        W 9797   2.788   8.945   1.648
 6054W        W 9798   0.325   1.094   0.973
 6055W        W 9799   7.649   6.832   9.993
 6056W        W 9800   6.931   3.785   8.533
 6057W        W 9801   8.342   7.581   3.218
 6058W        W 9802   5.689   9.196   2.624
 6059W        W 9803   1.113   0.036   0.998
 6060W        W 9804   0.046   1.144   1.404
 6061W        W 9805   0.687   5.234  10.386
 6062W        W 9806   6.211   5.601  10.849
 6063W        W 9807   3.166   9.172  10.902
 6064W        W 9808   9.153   6.921  11.232
 6065W        W 9809   9.811  10.440   2.267
 6066W        W 9810   3.176   7.086   8.555
 6067W        W 9811   4.977   6.619   9.439
 6068W        W 9812  10.154   4.099   2.380
 6069W        W 9813   0.084   3.677   1.676
 6070W        W 9814   7.896   7.332   3.238
 6071W        W 9815   1.294   6.408   3.196
 6072W        W 9816   0.877   4.455   0.701
 6073W        W 9817   7.920   2.129   3.317
 6074W        W 9818   7.758   8.021   8.930
 6075W        W 9819   3.642   8.057   1.200
 6076W        W 9820   7.656   5.243   2.355
 6077W        W 9821   6.101   2.290   3.258
 6078W        W 9822   2.447   2.445  10.191
 6079W        W 9823   8.588   7.314   9.946
 6080W        W 9824   4.543   8.047   9.498
 6081W        W 9825   3.638   4.060  11.970
 6082W        W 9826   2.612   2.779  11.121
 6083W        W 9827   3.384   4.142   9.846
 6084W        W 9828   0.399   8.123  11.266
 6085W        W 9829   6.625   4.325   1.449
 6086W        W 9830   3.049   6.781   1.595
 6087W        W 9831   1.199   9.896  10.054
 6088W        W 9832   0.869   1.451   8.565
 6089W        W 9833   1.496  10.231   0.862
 6090W        W 9834   8.924   4.842   1.040
 6091W        W 9835   5.303   4.293   9.861
 6092W        W 9836   4.601   2.265   0.579
 6093W        W 9837   3.346   6.645   3.482
 6094W        W 9838   8.945   2.211   9.532
 6095W        W 9839  10.172   1.728  10.972
 6096W        W 9840   1.300   7.396   3.566
 6097W        W 9841   8.365   4.210  10.471
 6098W        W 9842   0.369   9.986   9.106
 6099W        W 9843   6.199   7.653  10.826
 6100W        W 9844   0.279   7.546   9.083
 6101W        W 9845   6.240   7.821   2.864
 6102W        W 9846   8.845   1.791   0.168
 6103W        W 9847   2.599   5.071   1.001
 6104W        W 9848   8.843   6.249   2.326
 6105W        W 9849   2.720   7.203  11.135
 6106W        W 9850   4.514   0.657   1.431
 6107W        W 9851   1.927   4.650  10.703
 6108W        W 9852   0.774   5.065   3.278
 6109W        W 9853   9.366   4.063   3.374
 6110W        W 9854   0.913   5.655   0.790
 6111W        W 9855   8.603   2.763   2.707
 6112W        W 9856   1.660   6.474   1.950
 6113W        W 9857   3.748   6.594   0.368
 6114W        W 9858   8.876   4.272   3.253
 6115W        W 9859   2.399   3.395   1.311
 6116W        W 9860   7.598   9.609   3.044
 6117W        W 9861   9.711   9.601   3.664
 6118W        W 9862   6.604  10.017   9.750
 6119W        W 9863   3.127   4.098  11.824
 6120W        W 9864   8.884   0.991   1.690
 6121W        W 9865   7.840  10.324   2.275
 6122W        W 9866   6.198   0.252   2.985
 6123W        W 9867   5.962   3.120   3.711
 6124W        W 9868   9.934   0.808   0.489
 6125W        W 9869   3.294   8.844   9.780
 6126W        W 9870   7.593   9.947   2.029
 6127W        W 9871   8.799   2.199   0.975
 6128W        W 9872   0.455   8.504   9.975
 6129W        W 9873   3.247   3.595  11.392
 6130W        W 9874   1.418   4.663  10.637
 6131W        W 9875   3.851   1.834   1.257
 6132W        W 9876   5.903   3.641   3.775
 6133W        W 9877   1.330   5.072   0.232
 6134W        W 9878   1.310   3.320   9.075
 6135W        W 9879   7.586   7.494   0.789
 6136W        W 9880   3.822   4.440   2.241
 6137W        W 9881   6.187   7.697   3.477
 6138W        W 9882   6.580   9.472   0.164
 6139W        W 9883   8.110   0.696  10.217
 6140W        W 9884   4.169   7.662  11.096
 6141W        W 9885   6.673   0.704   1.736
 6142W        W 9886   7.711   8.664   0.099
 6143W        W 9887   7.437   8.426   9.031
 6144W        W 9888   8.447   2.813   3.222
 6145W        W 9889   9.305   5.714  11.145
 6146W        W 9890   3.749   4.357   9.057
 6147W        W 9891   3.343   8.500   2.274
 6148W        W 9892   1.792   8.957   1.746
 6149W        W 9893   9.788   9.010   8.909
 6150W        W 9894   5.611   0.601   0.828
 6151W        W 9895   3.712   8.363   0.771
 6152W        W 9896   8.522   2.375   9.778
 6153W        W 9897   2.327   9.795  11.031
 6154W        W 9898   8.603   1.188  11.407
 6155W        W 9899   4.002   0.756   2.875
 6156W        W 9900   6.916   7.475   0.210
 6157W        W 9901   6.532   8.315  11.868
 6158W        W 9902   4.113   4.157   2.842
 6159W        W 9903   3.312   4.578   2.163
 6160W        W 9904   7.353  10.292   2.420
 6161W        W 9905   6.035   6.681   0.271
 6162W        W 9906   3.385   4.497   9.382
 6163W        W 9907   6.528   1.690   9.160
 6164W        W 9908   5.769   5.955   0.729
 6165W        W 9909   0.315   3.324   3.037
 6166W        W 9910   9.986   1.745   0.956
 6167W        W 9911   8.356   1.414   3.180
 6168W        W 9912   6.732   0.746  10.289
 6169W        W 9913   8.831   9.370   3.524
 6170W        W 9914   4.903   2.694   3.152
 6171W        W 9915   0.525   9.563   0.197
 6172W        W 9916   4.822   2.804   1.437
 6173W        W 9917   7.524   3.743   3.369
 6174W        W 9918   6.085   0.710  11.787
 6175W        W 9919   5.961   9.373   2.217
 6176W        W 9920   8.771   2.299  10.524
 6177W        W 9921   7.617   4.098  10.883
 6178W        W 9922   9.035   8.440  11.335
 6179W        W 9923   7.431   6.153   2.243
 6180W        W 9924   2.559   7.474   1.448
 6181W        W 9925   5.264   6.475   0.673
 6182W        W 9926   1.609   9.879  11.535
 6183W        W 9927   0.871   7.541   9.789
 6184W        W 9928  10.018   5.347   0.034
 6185W        W 9929  10.324   2.321   0.033
 6186W        W 9930   6.855   6.141  10.098
 6187W        W 9931   2.466  10.381   0.746
 6188W        W 9932   3.359   2.817  10.426
 6189W        W 9933   0.351   0.296   1.450
 6190W        W 9934   5.251   6.248  11.524
 6191W        W 9935   1.726   1.620   2.830
 6192W        W 9936   3.287   7.878   9.531
 6193W        W 9937   5.332   6.047   0.355
 6194W        W 9938   1.089   3.155   9.974
 6195W        W 9939   7.349  10.177   0.181
 6196W        W 9940   7.421   0.714   2.490
 6197W        W 9941   3.664  10.424  11.721
 6198W        W 9942   0.425   6.132  10.305
 6199W        W 9943   2.743   0.785  10.548
 6200W        W 9944   4.047   5.063  11.951
 6201W        W 9945   1.147   9.744   3.810
 6202W        W 9946  10.056   8.984   1.395
 6203W        W 9947   5.780   1.568   1.012
 6204W        W 9948   1.504   5.999   0.297
 6205W        W 9949   9.554   8.127  10.265
 6206W        W 9950   4.716   4.120   3.658
 6207W        W 9951   7.298   2.806   9.965
 6208W        W 9952   5.737   7.327  10.872
 6209W        W 9953   1.173   6.130   0.716
 6210W        W 9954   2.732   5.544   3.552
 6211W        W 9955  10.253   4.249   3.389
 6212W        W 9956   2.342   5.229   9.859
 6213W        W 9957   6.757   0.318  10.015
 6214W        W 9958   5.150   3.864  10.274
 6215W        W 9959   3.774   3.741   2.894
 6216W        W 9960   0.340   6.482   2.362
 6217W        W 9961   8.792   1.372   2.026
 6218W        W 9962  10.137   1.648   2.979
 6219W        W 9963   7.000   6.528   2.784
 6220W        W 9964   9.486   1.362   9.065
 6221W        W 9965   3.786   2.679   3.514
 6222W        W 9966   6.480   8.812  11.927
 6223W        W 9967   2.101   1.719   9.586
 6224W        W 9968   3.283   8.590   0.944
 6225W        W 9969  10.384   7.713   1.904
 6226W        W 9970   1.202   2.135   0.363
 6227W        W 9971   6.219   4.205   2.635
 6228W        W 9972   9.593   8.499  11.375
 6229W        W 9973   8.447   2.626  11.439
 6230W        W 9974   9.323   7.343  10.599
 6231W        W 9975   3.701   9.259   3.391
 6232W        W 9976   5.932   8.069   3.216
 6233W        W 9977   3.520   4.852   0.995
 6234W        W 9978   4.308   9.834   9.376
 6235W        W 9979   2.242   3.505   9.339
 6236W        W 9980   7.476   1.917   3.465
 6237W        W 9981   2.371   8.847   8.988
 6238W        W 9982   9.451   1.738  10.023
 6239W        W 9983   5.926   7.366  11.793
 6240W        W 9984   7.890  10.368  11.444
 6241W        W 9985   0.605   8.187   1.993
 6242W        W 9986  10.313   7.819   2.403
 6243W        W 9987   9.022   4.531   0.095
 6244W        W 9988   3.862   6.154   1.791
 6245W        W 9989   0.859   2.599   2.488
 6246W        W 9990  10.343   9.554  10.974
 6247W        W 9991   2.838   1.099   1.786
 6248W        W 9992   9.664   5.964   9.994
 6249W        W 9993   9.455   1.203  11.436
 6250W        W 9994   1.484   5.450   3.479
 6251W        W 9995   1.450   3.222   1.634
 6252W        W 9996   6.019   9.803   2.464
 6253W        W 9997   5.799   8.713   2.726
 6254W        W 9998   7.176   0.839   1.612
 6255W        W 9999   6.958   5.634   9.373
 6256W        W10000   7.602   1.548  10.535
 6257W        W10001   2.102   2.942   3.003
 6258W        W10002   8.865  10.207   2.270
 6259W        W10003   1.013   7.925  10.486
 6260W        W10004   0.410   6.656   9.858
 6261W        W10005   4.086   7.022  10.826
 6262W        W10006  10.006   0.882  11.461
 6263W        W10007   5.176   1.672   9.225
 6264W        W10008   5.054   6.078  10.064
 6265W        W10009   2.825   7.621  10.607
 6266W        W10010   3.456   7.589   8.478
 6267W        W10011   6.468   4.167   3.144
 6268W        W10012   5.920  10.333   2.470
 6269W        W10013  10.245   4.138   9.199
 6270W        W10014   9.780   5.181   2.998
 6271W        W10015   9.898   3.217   2.006
 6272W        W10016   1.784   9.436   9.469
 6273W        W10017   0.403   0.842  11.560
 6274W        W10018  10.244   3.273   2.463
 6275W        W10019   9.364   6.593   3.530
 6276W        W10020  10.477   4.735   9.079
 6277W        W10021   0.834   1.467   9.486
 6278W        W10022   8.078   7.894   1.307
 6279W        W10023   6.258   7.871   1.759
 6280W        W10024   9.248   0.750  10.950
 6281W        W10025   6.504   6.946  10.063
 6282W        W10026   7.100  10.354   3.400
 6283W        W10027   4.303   4.285   2.392
 6284W        W10028   0.906   0.813  10.756
 6285W        W10029   0.902   4.634   3.520
 6286W        W10030   8.475   7.708   2.314
 6287W        W10031   0.411   2.560   0.695
 6288W        W10032   8.573   7.465   1.872
 6289W        W10033   2.201   1.460   2.706
 6290W        W10034   9.568   1.934  10.496
 6291W        W10035   9.087   7.634  11.902
 6292W        W10036   9.381   8.414   1.262
 6293W        W10037   1.337   8.018   1.423
 6294W        W10038   4.416   9.003   2.918
 6295W        W10039   6.737   1.354  11.043
 6296W        W10040   0.412   3.745   2.059
 6297W        W10041   9.372   6.681   8.947
 6298W        W10042  10.440   2.273  11.550
 6299W        W10043   1.611   0.824  11.903
 6300W        W10044   5.215   3.333  10.297
 6301W        W10045   3.766   7.382  11.881
 6302W        W10046  10.473   3.587  10.430
 6303W        W10047   1.922   0.047   0.047
 6304W        W10048   7.429   1.665   0.264
 6305W        W10049   7.422   9.289   0.680
 6306W        W10050  10.490   9.591   9.101
 6307W        W10051   7.827   6.979   2.429
 6308W        W10052   2.632   1.675   3.190
 6309W        W10053   7.043   0.663   2.129
 6310W        W10054  10.209   4.670   9.527
 6311W        W10055   7.949   5.648  11.290
 6312W        W10056   5.720   0.765   1.993
 6313W        W10057  10.040   5.565   8.400
 6314W        W10058   1.731   1.195  10.356
 6315W        W10059   9.437   1.599  11.820
 6316W        W10060   8.163   4.545  11.672
 6317W        W10061   1.608   8.944  10.923
 6318W        W10062   7.361   4.321  10.471
 6319W        W10063  10.474   1.916   0.984
 6320W        W10064   2.362   9.187   9.449
 6321W        W10065   6.791   5.085  10.608
 6322W        W10066   7.425   3.615  10.948
 6323W        W10067   8.916   7.470  11.407
 6324W        W10068   7.886   5.093   9.550
 6325W        W10069   7.421   4.244   2.173
 6326W        W10070   1.929   8.430   0.839
 6327W        W10071   4.549   0.722   9.556
 6328W        W10072   9.963   1.774  11.961
 6329W        W10073   3.681   9.091   9.526
 6330W        W10074   2.202   9.943  10.111
 6331W        W10075   4.830   1.770   2.453
 6332W        W10076   9.053   3.700   0.754
 6333W        W10077   0.426   3.163   1.963
 6334W        W10078  10.462   5.072   0.079
 6335W        W10079   8.872   6.490  11.251
 6336W        W10080   8.876   8.507   8.922
 6337W        W10081   1.481   7.016   2.287
 6338W        W10082   2.630   7.329   8.172
 6339W        W10083   0.285   7.626  11.391
 6340W        W10084   2.223  10.220   0.295
 6341W        W10085   4.069   1.806   1.712
 6342W        W10086   5.651   2.163   2.423
 6343W        W10087   7.568   7.517   9.433
 6344W        W10088   5.100   2.110   8.987
 6345W        W10089   9.035   6.193  11.983
 6346W        W10090   5.316   6.776   3.601
 6347W        W10091   9.329   3.885   9.609
 6348W        W10092   5.360   4.752  10.618
 6349W        W10093   2.184   9.805   1.925
 6350W        W10094   3.461   6.638   1.841
 6351W        W10095   6.641   3.274   9.611
 6352W        W10096   6.040   0.757   9.110
 6353W        W10097   1.656   1.815   3.288
 6354W        W10098   4.321  10.429   8.660
 6355W        W10099   4.596   7.599  11.980
 6356W        W10100   2.263   6.485  11.096
 6357W        W10101   1.009  10.440  11.049
 6358W        W10102   2.195   2.042  11.635
 6359W        W10103   2.385   3.320   1.837
 6360W        W10104   6.523   2.109   3.495
 6361W        W10105   5.117   6.911   1.827
 6362W        W10106   5.438   2.536   0.847
 6363W        W10107   1.865   6.714   8.868
 6364W        W10108   5.573   9.762   0.449
 6365W        W10109   1.835   2.305   1.856
 6366W        W10110   6.495   4.044  11.358
 6367W        W10111   5.060  10.375  10.275
 6368W        W10112   8.013   4.597   3.454
 6369W        W10113   8.558   3.185   8.706
 6370W        W10114   1.316  10.439   8.741
 6371W        W10115  10.405  10.028   9.521
 6372W        W10116   0.803   0.735   2.716
 6373W        W10117   5.959   9.074   1.225
 6374W        W10118   4.313   0.446   0.205
 6375W        W10119   1.062   4.718  10.995
 6376W        W10120   7.565   6.388  10.885
 6377W        W10121   0.439   5.660  10.512
 6378W        W10122   7.679   5.753   3.106
 6379W        W10123   3.998   9.609   2.450
 6380W        W10124   1.800   5.085   0.418
 6381W        W10125   1.677   7.585   9.255
 6382W        W10126   6.174   2.784   1.673
 6383W        W10127   3.185  10.187  10.011
 6384W        W10128   6.645   8.866  10.541
 6385W        W10129   8.874  10.340   3.306
 6386W        W10130   6.274   7.063   2.315
 6387W        W10131   1.429   2.267   3.313
 6388W        W10132   8.782  10.007   9.980
 6389W        W10133   1.575   1.198   0.387
 6390W        W10134   3.637   8.966   0.064
 6391W        W10135   5.938   7.171   8.690
 6392W        W10136   8.318   4.165  11.365
 6393W        W10137   7.550   6.924  10.933
 6394W        W10138   0.016   8.425   9.594
 6395W        W10139   8.264   0.953   2.434
 6396W        W10140   9.771   7.604  11.383
 6397W        W10141  10.281   2.308   9.458
 6398W        W10142   3.952   0.922   8.456
 6399W        W10143   6.563   0.431  11.045
 6400W        W10144   7.567   1.768   9.014
 6401W        W10145   8.448   1.783   9.140
 6402W        W10146   2.686   6.113  11.532
 6403W        W10147   0.843   6.992   3.018
 6404W        W10148  10.231   5.362   2.805
 6405W        W10149   3.572   0.953   9.603
 6406W        W10150   9.892   4.956   1.678
 6407W        W10151   8.144   7.058   9.999
 6408W        W10152   7.322   8.776  11.271
 6409W        W10153   1.893  10.011  11.954
 6410W        W10154   8.106   7.409   8.161
 6411W        W10155   4.610   8.487  10.839
 6412W        W10156   3.045   8.525   1.850
 6413W        W10157   9.780   6.517   2.716
 6414W        W10158   0.813   3.777  10.354
 6415W        W10159   1.367   6.746   1.280
 6416W        W10160   5.221   1.381   0.504
 6417W        W10161  10.415   4.161   0.294
 6418W        W10162   0.718   1.690  11.173
 6419W        W10163   3.666   4.626  10.268
 6420W        W10164   4.401   2.369   9.833
 6421W        W10165   3.935   2.317   3.122
 6422W        W10166   1.156   6.676  10.280
 6423W        W10167   8.817   7.953   8.873
 6424W        W10168   0.669   8.035   9.937
 6425W        W10169   8.483  10.002   9.228
 6426W        W10170   1.319   8.732   0.605
 6427W        W10171   5.536   2.861   8.676
 6428W        W10172   4.329   8.065   1.439
 6429W        W10173   8.276   3.239   2.943
 6430W        W10174  10.352   5.157   1.500
 6431W        W10175   3.554   1.840   1.709
 6432W        W10176   0.972   6.907  11.585
 6433W        W10177   8.345   2.168   0.791
 6434W        W10178   4.606   5.986  10.943
 6435W        W10179   8.313   8.896  11.352
 6436W        W10180   1.833   9.909   2.639
 6437W        W10181   7.184   1.369  10.797
 6438W        W10182   4.618   9.618   1.849
 6439W        W10183   7.635   0.068   2.781
 6440W        W10184   6.958   6.287   0.501
 6441W        W10185   2.975   6.438   0.234
 6442W        W10186   5.107   7.157   3.323
 6443W        W10187   4.254  10.324  10.936
 6444W        W10188   0.748  10.443   2.396
 6445W        W10189   5.333   8.801   2.902
 6446W        W10190   6.076   4.218   8.366
 6447W        W10191   3.351   0.526   9.032
 6448W        W10192   0.845   4.345   1.203
 6449W        W10193   1.685   1.348  11.871
 6450W        W10194   0.559   6.635  11.483
 6451W        W10195   0.473   2.443   9.560
 6452W        W10196   8.136  10.048  11.757
 6453W        W10197   5.131   2.854  10.429
 6454W        W10198  10.462   3.769  10.936
 6455W        W10199   8.050   1.921   1.360
 6456W        W10200   6.727   2.710  10.850
 6457W        W10201   2.307   8.077   0.949
 6458W        W10202   3.192   6.631  10.819
 6459W        W10203   1.873   8.991  11.370
 6460W        W10204   6.703   9.842  10.934
 6461W        W10205   4.243   2.016  11.581
 6462W        W10206   1.647   7.019   0.513
 6463W        W10207   8.970   3.137  11.540
 6464W        W10208   1.336   0.232   1.439
 6465W        W10209   4.671   3.564   3.955
 6466W        W10210   2.339   8.745  11.340
 6467W        W10211   2.799   2.353   1.935
 6468W        W10212   1.403   5.705   0.941
 6469W        W10213   9.129   4.157  10.023
 6470W        W10214   9.809   2.324   9.272
 6471W        W10215   0.564   2.730  10.522
 6472W        W10216   0.863   2.169   2.747
 6473W        W10217   0.951   5.710   2.236
 6474W        W10218   4.868   8.650   1.202
 6475W        W10219   7.558   0.484   1.794
 6476W        W10220   2.160   6.009   0.874
 6477W        W10221   9.293   6.876   9.412
 6478W        W10222   7.042   9.763   9.470
 6479W        W10223   3.253   5.777   1.408
 6480W        W10224   8.425   4.106   1.872
 6481W        W10225   2.283   0.944   9.161
 6482W        W10226   2.416   4.539  10.808
 6483W        W10227   1.794   9.509  11.866
 6484W        W10228   4.363   8.449   8.549
 6485W        W10229   6.031   2.513   2.746
 6486W        W10230   7.263   0.403  10.939
 6487W        W10231   0.173  10.265   1.407
 6488W        W10232   0.298  10.208   2.243
 6489W        W10233   1.318   4.765   0.673
 6490W        W10234   8.072   9.770   1.883
 6491W        W10235   8.866   3.012   1.948
 6492W        W10236   7.434   9.483   1.170
 6493W        W10237   6.271   9.609   9.547
 6494W        W10238   3.593   9.363   9.949
 6495W        W10239   1.665   2.461   1.364
 6496W        W10240   7.383   7.077   9.632
 6497W        W10241   4.245   7.465   9.464
 6498W        W10242   1.928   7.286   2.379
 6499W        W10243   6.483   7.409   0.918
 6500W        W10244   1.383   9.320   8.720
 6501W        W10245   4.610   4.136   1.710
 6502W        W10246   6.653   9.512   9.875
 6503W        W10247   0.506   5.524   3.240
 6504W        W10248   2.274  10.313  11.763
 6505W        W10249   6.049   1.411   1.447
 6506W        W10250   6.203   5.196   0.501
 6507W        W10251   5.292   6.092   8.226
 6508W        W10252   0.895   3.879  11.262
 6509W        W10253   3.059   7.549   1.404
 6510W        W10254   7.526   5.271  11.902
 6511W        W10255   5.726   1.296  11.275
 6512W        W10256   7.811   2.258   1.843
 6513W        W10257   4.506   7.700   3.212
 6514W        W10258   3.805   4.523  10.760
 6515W        W10259   9.531   5.654  10.624
 6516W        W10260   5.995   2.251   1.760
 6517W        W10261   2.128   7.448   9.009
 6518W        W10262   0.194   7.332   1.546
 6519W        W10263   2.006   6.038   0.352
 6520W        W10264   5.658   4.340  10.500
 6521W        W10265   2.262   8.171   3.070
 6522W        W10266   7.447   1.437   2.191
 6523W        W10267   2.371   3.248   8.923
 6524W        W10268   6.438   5.700   1.393
 6525W        W10269   5.081   9.970   0.420
 6526W        W10270   4.638   2.336   2.365
 6527W        W10271  10.054   9.547   0.694
 6528W        W10272   4.165   7.679   2.319
 6529W        W10273   8.949   6.680   9.734
 6530W        W10274   7.884   8.454  10.391
 6531W        W10275   8.130   3.659   1.928
 6532W        W10276   8.349   5.245  11.364
 6533W        W10277   3.296   2.303   1.805
 6534W        W10278   0.353   9.471  11.731
 6535W        W10279   5.970   3.301   0.429
 6536W        W10280   3.821   6.550   1.455
 6537W        W10281   5.593   7.536   2.372
 6538W        W10282   7.465   6.052   0.325
 6539W        W10283   6.568   9.851  10.277
 6540W        W10284   7.389   0.656   0.312
 6541W        W10285   0.833   7.341   1.739
 6542W        W10286   5.079   3.747   3.688
 6543W        W10287   1.009   9.484   0.868
 6544W        W10288   5.048   5.136   2.422
 6545W        W10289   5.144   6.532   3.154
 6546W        W10290   4.753   6.253  11.384
 6547W        W10291   9.197   7.423   3.855
 6548W        W10292  10.317   4.139  11.721
 6549W        W10293   3.566   2.709   8.997
 6550W        W10294   2.100   5.122   0.835
 6551W        W10295   6.881   0.408   3.571
 6552W        W10296   1.771   9.993   3.157
 6553W        W10297   6.698   1.716  11.449
 6554W        W10298   1.196   5.151  10.778
 6555W        W10299   9.870   0.823   2.752
 6556W        W10300   0.668   9.347   3.251
 6557W        W10301   6.107   9.149  10.499
 6558W        W10302   7.414   1.168   0.348
 6559W        W10303   9.899   2.684   1.318
 6560W        W10304   9.742   4.268   2.649
 6561W        W10305   9.071   6.533   1.652
 6562W        W10306   8.839   3.115   2.985
 6563W        W10307   3.719   2.295   9.244
 6564W        W10308   1.299   6.266   9.979
 6565W        W10309   0.292  10.031   2.742
 6566W        W10310   8.946   0.713   8.559
 6567W        W10311   8.507   3.176  11.370
 6568W        W10312  10.376   0.406  10.469
 6569W        W10313   5.082   5.099   2.936
 6570W        W10314   6.491   0.808   9.856
 6571W        W10315   9.388   9.011   9.226
 6572W        W10316   8.950   5.532  10.247
 6573W        W10317  10.486   7.157  11.724
 6574W        W10318   3.858   1.900   2.178
 6575W        W10319   4.415   8.225   3.182
 6576W        W10320   7.960   8.386   1.210
 6577W        W10321   5.564   2.713   2.944
 6578W        W10322   5.177   4.022  11.260
 6579W        W10323   7.975   7.889   0.355
 6580W        W10324   7.182   9.684  11.020
 6581W        W10325   7.610   4.947   2.764
 6582W        W10326   5.686  10.414   9.434
 6583W        W10327   0.054   7.664   1.107
 6584W        W10328   6.196   1.571  11.490
 6585W        W10329   0.486   9.282   9.652
 6586W        W10330   0.462  10.403   1.790
 6587W        W10331   5.632   2.281   3.459
 6588W        W10332   8.367   4.950   3.474
 6589W        W10333   0.821   4.851   1.004
 6590W        W10334   4.594   1.249   3.128
 6591W        W10335   5.571   0.868   8.962
 6592W        W10336   5.101   7.571   4.038
 6593W        W10337   6.124   1.913   2.334
 6594W        W10338   2.221   2.400   2.809
 6595W        W10339   5.245   1.874   3.374
 6596W        W10340   8.669   6.935   0.204
 6597W        W10341   9.425   0.539   2.809
 6598W        W10342   9.398   3.092  11.787
 6599W        W10343   0.873   4.172   8.421
 6600W        W10344   4.794   5.609   0.791
 6601W        W10345   2.405   8.196   9.479
 6602W        W10346   5.001   5.626   2.158
 6603W        W10347  10.023   7.901  11.707
 6604W        W10348  10.286   8.659   8.730
 6605W        W10349   6.690   8.074   1.005
 6606W        W10350   1.292   9.450   9.743
 6607W        W10351   0.658   4.322  10.347
 6608W        W10352   5.643   3.068   4.116
 6609W        W10353   1.482   6.307  10.469
 6610W        W10354   8.204   4.210   8.160
 6611W        W10355   6.917   4.802  11.370
 6612W        W10356   0.058   8.837   1.208
 6613W        W10357   7.660   4.133   8.828
 6614W        W10358   9.023   5.266   1.476
 6615W        W10359   0.909   9.318   8.922
 6616W        W10360   6.956   8.857   2.366
 6617W        W10361   3.097   3.676   8.803
 6618W        W10362   4.128   2.643  10.145
 6619W        W10363   4.347   1.904   2.342
 6620W        W10364   0.303   9.069   2.974
 6621W        W10365   1.833   4.113  11.232
 6622W        W10366   9.297   7.045   0.957
 6623W        W10367   6.124   0.405   1.990
 6624W        W10368   7.473   3.770   1.202
 6625W        W10369   0.779   8.117   1.534
 6626W        W10370   5.590   3.844  10.511
 6627W        W10371  10.286   8.716   9.239
 6628W        W10372   8.088  10.298   2.712
 6629W        W10373   2.310   5.274   9.114
 6630W        W10374   8.550   6.116  11.824
 6631W        W10375   4.796   7.932   1.849
 6632W        W10376   2.392   4.970   8.589
 6633W        W10377   0.316   2.122  10.311
 6634W        W10378   6.424   6.507   9.384
 6635W        W10379   6.111  10.183  10.401
 6636W        W10380   8.924   0.354   9.632
 6637W        W10381   1.898   7.879   3.252
 6638W        W10382   2.618   6.073   2.401
 6639W        W10383   5.216   2.888   1.126
 6640W        W10384   2.807   1.504  11.202
 6641W        W10385   3.489   1.030  10.955
 6642W        W10386   5.526   3.821   3.459
 6643W        W10387  10.072   3.402  11.785
 6644W        W10388   3.081   8.991   1.240
 6645W        W10389   1.686   8.052  10.998
 6646W        W10390   8.761   6.004  10.443
 6647W        W10391   7.939   5.870   9.969
 6648W        W10392   3.526   1.921  11.032
 6649W        W10393   5.283   9.035   3.397
 6650W        W10394   9.334   9.877  11.641
 6651W        W10395   4.974   9.696   9.491
 6652W        W10396   3.387   5.950  11.349
 6653W        W10397   8.494   0.994  10.006
 6654W        W10398   5.255   2.631  10.921
 6655W        W10399   7.971   9.873   1.337
 6656W        W10400   4.877   7.786   2.766
 6657W        W10401   1.426   1.332  10.791
 6658W        W10402   4.218   8.724   2.224
 6659W        W10403   6.514   2.744   0.395
 6660W        W10404   2.234   5.627  10.948
 6661W        W10405   5.988   5.156  10.643
 6662W        W10406   1.461   9.729   0.849
 6663W        W10407   7.368   2.840   3.221
 6664W        W10408   1.905   5.400   1.246
 6665W        W10409   4.601   9.461  11.438
 6666W        W10410  10.089  10.494  10.986
 6667W        W10411   7.418   0.330  11.822
 6668W        W10412   3.681   5.859  10.943
 6669W        W10413   0.773   0.817   1.751
 6670W        W10414   3.965   1.791   2.681
 6671W        W10415  10.066   3.675   9.396
 6672W        W10416   9.445   6.014  11.748
 6673W        W10417   4.006   0.092   0.432
 6674W        W10418   7.957   9.223   1.850
 6675W        W10419   7.481   3.562  11.478
 6676W        W10420   6.193   4.708   2.574
 6677W        W10421  10.234   7.485   1.453
 6678W        W10422   8.029   1.306  10.624
 6679W        W10423   6.708   3.896   2.791
 6680W        W10424   2.578   9.899  10.497
 6681W        W10425   9.449   2.078   9.637
 6682W        W10426   0.220   0.649   1.829
 6683W        W10427   8.926   6.070   1.847
 6684W        W10428   4.607   5.963   9.844
 6685W        W10429   7.045   6.040   2.609
 6686W        W10430   1.426   6.218   9.491
 6687W        W10431   2.828   1.860   2.183
 6688W        W10432   7.336   2.330  10.278
 6689W        W10433   3.336   6.321  10.434
 6690W        W10434   0.802   4.091  10.773
 6691W        W10435   9.657   5.903   9.060
 6692W        W10436   8.567   6.568   2.840
 6693W        W10437   2.134   0.465   1.817
 6694W        W10438   9.414  10.283   1.640
 6695W        W10439   9.808   8.150   1.208
 6696W        W10440   6.349   9.105   9.644
 6697W        W10441   3.215   8.806   8.740
 6698W        W10442   1.746   2.659   2.723
 6699W        W10443   9.333   8.493   0.764
 6700W        W10444   4.249   0.231   3.232
 6701W        W10445   2.208   5.262   2.412
 6702W        W10446   1.780   0.714   9.830
 6703W        W10447   3.059   2.290  11.616
 6704W        W10448   2.519   4.068   8.498
 6705W        W10449   8.018   9.589  11.928
 6706W        W10450   5.058   0.806  10.390
 6707W        W10451   9.301   3.022   2.299
 6708W        W10452   1.496   8.445   9.747
 6709W        W10453   2.695   4.188   1.006
 6710W        W10454  10.425   1.302   9.455
 6711W        W10455   7.161   0.244   2.630
 6712W        W10456   1.381   6.982  11.226
 6713W        W10457   5.900   5.734   1.957
 6714W        W10458   2.717   7.021   1.316
 6715W        W10459   2.187   1.439  10.463
 6716W        W10460   4.940   4.583  11.961
 6717W        W10461   4.253   3.281   9.476
 6718W        W10462   8.066   0.173  10.061
 6719W        W10463   8.976   8.384   1.561
 6720W        W10464   6.669   2.736   1.474
 6721W        W10465   4.379   8.775   0.373
 6722W        W10466   2.402   8.976   2.517
 6723W        W10467   1.261   0.929   1.638
 6724W        W10468   7.140   5.705  11.112
 6725W        W10469   8.399   2.298   3.006
 6726W        W10470  10.188  10.443   9.297
 6727W        W10471   1.186   9.529   2.614
 6728W        W10472   2.630   2.857   9.902
 6729W        W10473   3.339   7.638  10.803
 6730W        W10474   0.988   1.067   9.755
 6731W        W10475   3.876   8.713   0.427
 6732W        W10476   6.082  10.196  11.831
 6733W        W10477   5.231   9.044   2.465
 6734W        W10478   5.166   2.390   2.250
 6735W        W10479   7.074   6.211   1.823
 6736W        W10480   1.502   0.243   3.309
 6737W        W10481   4.978   7.630   3.530
 6738W        W10482   5.215   5.675   9.816
 6739W        W10483   7.600   3.266   3.576
 6740W        W10484  10.160   0.303   2.162
 6741W        W10485   6.521   9.268   1.565
 6742W        W10486   5.087   9.988   9.949
 6743W        W10487   3.774   0.515   1.474
 6744W        W10488   5.729   5.048   0.003
 6745W        W10489   4.192   1.912   9.751
 6746W        W10490   8.049   5.241   0.685
 6747W        W10491   2.185   4.281   8.952
 6748W        W10492   7.049   3.316   9.907
 6749W        W10493   7.089   0.620   9.127
 6750W        W10494   5.665   7.357  10.065
 6751W        W10495   5.917   0.883  10.997
 6752W        W10496   4.969   7.070   8.529
 6753W        W10497   1.894   0.445   3.578
 6754W        W10498   5.521   5.997  11.885
 6755W        W10499   7.426   5.910   9.879
 6756W        W10500   9.276   4.201   9.142
 6757W        W10501   4.795   2.752   3.640
 6758W        W10502   5.156   5.165   3.447
 6759W        W10503   3.419   3.312   0.313
 6760W        W10504   0.881   4.575   9.962
 6761W        W10505   2.833   6.209  10.000
 6762W        W10506   8.304   5.077  10.502
 6763W        W10507   2.335   9.453   1.106
 6764W        W10508   6.170   0.818   3.177
 6765W        W10509   7.942   4.067   1.663
 6766W        W10510   1.817   7.421   3.526
 6767W        W10511   8.887   8.989   9.140
 6768W        W10512   5.146   4.012   1.895
 6769W        W10513  10.268   0.050  11.858
 6770W        W10514   7.928   6.107   0.519
 6771W        W10515   1.857   4.647   1.902
 6772W        W10516   9.914   8.595   2.023
 6773W        W10517   0.606   5.493   9.327
 6774W        W10518   4.045   2.768  10.997
 6775W        W10519   4.720   1.552   9.419
 6776W        W10520   8.759   0.017  10.024
 6777W        W10521   1.405   5.883   9.056
 6778W        W10522   0.419   3.983  11.461
 6779W        W10523   1.304   7.510   1.667
 6780W        W10524   7.997   2.777   9.243
 6781W        W10525   4.940   1.009  10.845
 6782W        W10526   4.095  10.425  10.444
 6783W        W10527   2.683   2.883   1.768
 6784W        W10528   3.225   3.638   9.316
 6785W        W10529   3.681   3.087   2.722
 6786W        W10530   6.564   8.013  10.775
 6787W        W10531   0.325   5.033   2.353
 6788W        W10532   7.026   6.452   2.278
 6789W        W10533   8.315   8.422  10.084
 6790W        W10534   0.413   3.737   9.048
 6791W        W10535   9.700   2.317  10.815
 6792W        W10536   2.235   2.946  10.213
 6793W        W10537   0.726   4.882  11.340
 6794W        W10538   2.217   1.955   2.554
 6795W        W10539   1.005   5.458   2.702
 6796W        W10540   3.598   5.349   1.286
 6797W        W10541   5.630   0.452   8.664
 6798W        W10542   5.617   0.370  10.172
 6799W        W10543   5.552   7.990   0.774
 6800W        W10544   5.251   0.783   1.170
 6801W        W10545   1.268   4.662   1.178
 6802W        W10546   1.467   6.596   0.790
 6803W        W10547   5.617   8.568   9.152
 6804W        W10548   4.288   2.198   2.765
 6805W        W10549   9.586   5.133  11.834
 6806W        W10550   0.701   0.323   0.955
 6807W        W10551   9.452   1.406   0.613
 6808W        W10552   6.440   3.689   9.404
 6809W        W10553   5.033   8.172   2.372
 6810W        W10554   9.368   1.319   2.903
 6811W        W10555   3.291   7.397   0.719
 6812W        W10556   7.974   3.873   8.499
 6813W        W10557   5.736   1.759   3.526
 6814W        W10558   8.464   0.841  10.542
 6815W        W10559   0.195   2.050   9.388
 6816W        W10560   3.809   7.625   8.873
 6817W        W10561   0.979   6.586  11.201
 6818W        W10562   6.367   8.786   1.673
 6819W        W10563   6.983   8.134  11.042
 6820W        W10564   0.344   9.763   9.589
 6821W        W10565   8.379   4.620   9.857
 6822W        W10566   2.123  10.350   2.654
 6823W        W10567   5.550   1.668  10.022
 6824W        W10568   0.392  10.346   3.191
 6825W        W10569   5.068   7.462   0.067
 6826W        W10570   2.654  10.358   9.478
 6827W        W10571   3.745   7.154   0.335
 6828W        W10572   4.048   5.684   1.374
 6829W        W10573   4.061   5.797   0.550
 6830W        W10574   1.388   0.471   8.629
 6831W        W10575   4.733   8.592   3.027
 6832W        W10576   9.056   5.370   2.344
 6833W        W10577   4.731   6.463   9.924
 6834W        W10578   8.482   9.843   1.523
 6835W        W10579   1.422   4.663   2.689
 6836W        W10580   1.681   5.501  10.190
 6837W        W10581   6.361   4.644   0.999
 6838W        W10582   3.013   7.685   8.143
 6839W        W10583   7.362   6.189   1.285
 6840W        W10584   6.889   1.307   9.351
 6841W        W10585   0.874   8.810  11.387
 6842W        W10586   3.068   0.303  11.335
 6843W        W10587   5.108   5.216  10.594
 6844W        W10588   3.492   0.027   2.319
 6845W        W10589   3.685  10.357   1.252
 6846W        W10590   9.000   2.703   9.730
 6847W        W10591   7.058   9.426   0.352
 6848W        W10592   7.669   8.374   1.920
 6849W        W10593   2.839   6.421   0.721
 6850W        W10594   5.747   0.889   3.525
 6851W        W10595   3.139   5.528   9.251
 6852W        W10596   6.198   3.467  10.344
 6853W        W10597   2.152   6.314   2.340
 6854W        W10598   6.480   9.731   0.607
 6855W        W10599   1.809   3.620   3.203
 6856W        W10600   2.665   9.996   0.423
 6857W        W10601   1.781   0.910  10.809
 6858W        W10602   4.176   1.424   1.286
 6859W        W10603   3.473   9.048  11.609
 6860W        W10604   1.071   2.748  10.699
 6861W        W10605   0.726   6.063   8.970
 6862W        W10606   0.525   8.699   0.450
 6863W        W10607   7.723   7.871   1.872
 6864W        W10608   8.958   9.350   3.026
 6865W        W10609   6.300   7.548   2.147
 6866W        W10610   0.401   6.383   1.299
 6867W        W10611   9.806   4.924   0.250
 6868W        W10612  10.263  10.058  10.407
 6869W        W10613   6.482   3.193   0.042
 6870W        W10614   0.707   1.300   2.310
 6871W        W10615   6.944   2.230   2.718
 6872W        W10616   6.730   5.232   2.171
 6873W        W10617   7.948   8.468   8.723
 6874W        W10618   3.227   4.473   0.774
 6875W        W10619   0.758   6.298   0.380
 6876W        W10620   1.505   2.438   0.622
 6877W        W10621   7.089   4.744   8.587
 6878W        W10622   6.822   7.097  10.429
 6879W        W10623   1.392   6.382   9.001
 6880W        W10624   2.333   8.966   2.005
 6881W        W10625   9.819   4.242   1.244
 6882W        W10626   9.562   8.496   9.933
 6883W        W10627   8.832   0.419  11.118
 6884W        W10628   2.099   6.886  10.493
 6885W        W10629   3.856   5.721  11.422
 6886W        W10630   1.984   7.652  10.897
 6887W        W10631   9.858   8.370   0.741
 6888W        W10632   4.497   4.527   1.994
 6889W        W10633   4.918  10.451   2.498
 6890W        W10634   9.739   7.910   9.835
 6891W        W10635   7.702   1.326  11.947
 6892W        W10636   7.589   9.138  10.248
 6893W        W10637  10.368   2.496   1.462
 6894W        W10638   0.492   0.711  10.462
 6895W        W10639   2.116   6.468   0.098
 6896W        W10640   4.156   9.783   1.986
 6897W        W10641   7.999   8.841  10.076
 6898W        W10642   2.253   6.910  11.489
 6899W        W10643   7.077   4.503   2.437
 6900W        W10644   4.649   4.100   2.725
 6901W        W10645   8.920   0.420   2.778
 6902W        W10646   9.024   1.823   1.192
 6903W        W10647   9.427   2.734  10.920
 6904W        W10648   0.369   7.107  11.390
 6905W        W10649   7.002   3.621   1.059
 6906W        W10650   3.075   0.143   8.792
 6907W        W10651   9.855   9.950   2.416
 6908W        W10652   9.595   8.161   9.370
 6909W        W10653   5.031   4.112   1.422
 6910W        W10654   9.710   9.225   0.850
 6911W        W10655   6.519   1.240   0.388
 6912W        W10656   1.428   7.361   0.153
 6913W        W10657  10.107   9.073   2.189
 6914W        W10658  10.419   6.927   1.709
 6915W        W10659   2.539   0.508   8.937
 6916W        W10660   0.423   1.192   1.829
 6917W        W10661   3.322   7.583  11.772
 6918W        W10662   8.782   0.891   2.318
 6919W        W10663   4.088   4.533   3.205
 6920W        W10664   8.938   1.132   3.829
 6921W        W10665   2.806   5.554   1.251
 6922W        W10666   8.460   6.159  10.832
 6923W        W10667   9.426   7.514   1.754
 6924W        W10668   1.674   5.068  10.461
 6925W        W10669   5.562   2.262  11.692
 6926W        W10670   2.710  10.420  10.010
 6927W        W10671   9.052   9.026   9.644
 6928W        W10672   7.242   4.067   3.761
 6929W        W10673   3.884   1.046  11.431
 6930W        W10674   2.629   1.618  10.714
 6931W        W10675   0.667   5.832   2.837
 6932W        W10676   7.614   9.125   1.506
 6933W        W10677   5.973   9.878   8.610
 6934W        W10678   6.830   6.148   3.084
 6935W        W10679   6.356   2.338   9.384
 6936W        W10680   6.329   4.349  10.030
 6937W        W10681   7.154   0.933  10.504
 6938W        W10682   7.895   0.855  11.236
 6939W        W10683   3.115   3.221   1.166
 6940W        W10684   8.370   1.392   1.689
 6941W        W10685   9.113   0.793  11.925
 6942W        W10686   7.907   1.273   0.991
 6943W        W10687   5.321   5.663   0.676
 6944W        W10688   4.561   5.152   0.624
 6945W        W10689   9.685   3.154  10.691
 6946W        W10690   3.868   4.911   1.367
 6947W        W10691   8.823   0.400  11.626
 6948W        W10692   2.591   2.487   1.311
 6949W        W10693   9.445  10.018   1.181
 6950W        W10694   5.264   7.003  11.993
 6951W        W10695   5.835   6.772   3.693
 6952W        W10696   9.406   2.996   9.936
 6953W        W10697   9.041   4.065  11.871
 6954W        W10698   6.933   2.423   0.775
 6955W        W10699   4.859   2.122   1.939
 6956W        W10700   2.511   8.329   8.293
 6957W        W10701   9.997   6.857  10.911
 6958W        W10702   1.746   7.677   1.510
 6959W        W10703   2.833   9.927  10.931
 6960W        W10704   1.113   7.185   1.339
 6961W        W10705   1.927   7.447   0.411
 6962W        W10706  10.197   3.136  10.344
 6963W        W10707   4.587   1.652  11.523
 6964W        W10708   3.566   6.356  11.039
 6965W        W10709   7.190   6.550   8.855
 6966W        W10710   2.369   8.728   0.409
 6967W        W10711   0.270   9.705   2.321
 6968W        W10712   2.330   7.466   0.754
 6969W        W10713   0.186   2.685  11.805
 6970W        W10714   6.042   8.203  11.990
 6971W        W10715   9.317   1.740  11.339
 6972W        W10716   5.001   0.519  10.956
 6973W        W10717   9.737   6.717   8.585
 6974W        W10718   1.694   7.857   0.267
 6975W        W10719   7.948   9.836   2.409
 6976W        W10720   4.757   1.608   8.370
 6977W        W10721  10.020   1.434   1.752
 6978W        W10722   6.441   7.979   9.812
 6979W        W10723  10.438   5.617  10.497
 6980W        W10724   7.080   9.928   1.275
 6981W        W10725   3.061   4.619   9.008
 6982W        W10726   5.318   2.869   2.085
 6983W        W10727   1.222   8.009   0.864
 6984W        W10728   8.987   3.963   2.880
 6985W        W10729   1.263   1.943  11.337
 6986W        W10730   7.104   1.139   2.438
 6987W        W10731   5.988   1.580   2.771
 6988W        W10732   5.737   9.054   3.114
 6989W        W10733   0.475   3.079   0.735
 6990W        W10734   8.612   2.272   1.602
 6991W        W10735   4.384   1.207  11.972
 6992W        W10736   8.979   7.018   8.987
 6993W        W10737   5.221   3.078   3.055
 6994W        W10738   5.806   1.407  11.785
 6995W        W10739   3.254   6.647   1.060
 6996W        W10740   0.411   7.610  10.022
 6997W        W10741   8.944   7.829   1.232
 6998W        W10742   0.665   0.779   3.218
 6999W        W10743   7.102   1.778   2.456
 7000W        W10744   0.174   9.922  11.415
 7001W        W10745   0.779   4.164   0.216
 7002W        W10746  10.455   2.913   2.148
 7003W        W10747   8.067   3.759  10.311
 7004W        W10748   7.051  10.386  10.413
 7005W        W10749   7.960   5.651  10.710
 7006W        W10750   7.676   3.590   0.354
 7007W        W10751   9.825   7.873   0.702
 7008W        W10752   3.276   9.274   0.278
 7009W        W10753   0.023   3.215  11.857
 7010W        W10754   9.502  10.036   0.260
 7011W        W10755   3.162   4.616   8.160
 7012W        W10756   3.399   4.465   3.160
 7013W        W10757   0.983   3.827   2.807
 7014W        W10758   9.174  10.330   9.767
 7015W        W10759   2.623   6.493   1.675
 7016W        W10760   1.405   9.781   1.377
 7017W        W10761   4.262   0.469   2.237
 7018W        W10762   9.997   6.703   1.415
 7019W        W10763   4.932   7.135   3.800
 7020W        W10764   3.848   9.036  11.238
 7021W        W10765   4.601   0.897   2.246
 7022W        W10766   0.664   9.991   9.968
 7023W        W10767   3.178   7.153  10.824
 7024W        W10768   5.789   4.670  10.887
 7025W        W10769   7.327   0.861   1.122
 7026W        W10770   4.691   6.476   0.801
 7027W        W10771   5.427   5.418   0.213
 7028W        W10772  10.327   0.818  10.183
 7029W        W10773   6.938  10.271   9.441
 7030W        W10774   3.792   1.450  10.887
 7031W        W10775   9.891   4.078   0.386
 7032W        W10776   2.817   6.693   9.813
 7033W        W10777   2.359   8.527  10.868
 7034W        W10778   9.794   3.596   0.758
 7035W        W10779   5.189   9.817   2.972
 7036W        W10780   9.214   7.451   3.361
 7037W        W10781   4.716   3.631   2.962
 7038W        W10782   9.847   6.365  10.937
 7039W        W10783   2.672   1.686   2.640
 7040W        W10784   0.361   3.605  10.092
 7041W        W10785   7.551   4.440   2.655
 7042W        W10786   2.191   2.897   2.025
 7043W        W10787   1.570   3.672   1.376
 7044W        W10788   8.980   8.342  10.820
 7045W        W10789   1.784   3.156  10.465
 7046W        W10790   7.223   3.355   3.219
 7047W        W10791   1.887   8.954   9.597
 7048W        W10792   7.365   4.540  11.509
 7049W        W10793   2.220   5.554   1.917
 7050W        W10794   8.088   1.572  11.055
 7051W        W10795   2.654   4.666  10.022
 7052W        W10796   2.921  10.236   1.706
 7053W        W10797   8.969   1.790   9.836
 7054W        W10798   6.090   3.323   9.421
 7055W        W10799  10.083   0.461   8.994
 7056W        W10800   6.217   0.628   3.639
 7057W        W10801  10.324   1.365  10.453
 7058W        W10802   3.583   9.943  11.524
 7059W        W10803   5.012   9.954  11.206
 7060W        W10804   7.570   5.039   1.856
 7061W        W10805   8.656   3.661   8.996
 7062W        W10806   6.255   0.874  10.424
 7063W        W10807   2.522   4.028   9.421
 7064W        W10808   8.510   3.366  11.973
 7065W        W10809   3.747   0.318   3.036
 7066W        W10810   9.734   0.349  10.787
 7067W        W10811   6.943   5.985  10.651
 7068W        W10812   0.896   3.833   1.873
 7069W        W10813   8.142   4.636  10.310
 7070W        W10814   1.254   3.806   2.337
 7071W        W10815   7.090   8.353   9.766
 7072W        W10816  10.053   1.814  10.448
 7073W        W10817  10.266   6.005   1.753
 7074W        W10818   5.852   0.686   2.779
 7075W        W10819   0.959   8.961   3.470
 7076W        W10820   4.071   4.092  10.794
 7077W        W10821   4.707   8.631   1.692
 7078W        W10822  10.470   3.813   3.207
 7079W        W10823   1.645   1.962   1.486
 7080W        W10824   6.622   6.216   4.039
 7081W        W10825   8.589   1.738   0.922
 7082W        W10826   0.166   0.841   0.569
 7083W        W10827   1.005   4.675   0.267
 7084W        W10828   0.166   2.193   2.314
 7085W        W10829   1.807   7.153  10.878
 7086W        W10830   8.948   7.511  10.318
 7087W        W10831   8.554   2.136  11.464
 7088W        W10832   6.552   0.978  11.945
 7089W        W10833   9.687   8.953  11.098
 7090W        W10834   2.790   9.568  11.668
 7091W        W10835   7.803   6.592   0.659
 7092W        W10836   8.484   3.700  11.529
 7093W        W10837   0.373   5.023   1.366
 7094W        W10838   3.614   4.091  11.009
 7095W        W10839   6.159   7.024  10.946
 7096W        W10840   0.794   2.193   1.755
 7097W        W10841   2.382   3.791   1.660
 7098W        W10842   0.426   1.541   3.460
 7099W        W10843   8.390   7.418  11.427
 7100W        W10844   7.575   3.774   2.056
 7101W        W10845   6.599   1.228  11.511
 7102W        W10846   2.767   7.395   2.820
 7103W        W10847   0.617   4.596  10.779
 7104W        W10848   0.778   0.953   8.716
 7105W        W10849   6.257   4.941   0.040
 7106W        W10850   3.965   2.094  11.999
 7107W        W10851   2.929  10.322   3.145
 7108W        W10852   5.792   0.441   3.223
 7109W        W10853   2.196   8.700   8.496
 7110W        W10854   1.440   1.333   3.174
 7111W        W10855   0.170   8.944  10.897
 7112W        W10856   1.140   0.920   3.085
 7113W        W10857   3.284   4.153   8.973
 7114W        W10858   8.637   1.363   0.349
 7115W        W10859   6.599   6.527   0.898
 7116W        W10860   7.397   2.262  10.863
 7117W        W10861   3.404  10.292   1.848
 7118W        W10862   9.342   1.831   0.268
 7119W        W10863   6.263   7.855   0.796
 7120W        W10864   2.701   0.560   0.215
 7121W        W10865   5.760   4.928   0.493
 7122W        W10866   6.414   8.997  10.985
 7123W        W10867   6.259   0.334   9.959
 7124W        W10868   3.122   9.307  11.382
 7125W        W10869   6.517  10.398   9.126
 7126W        W10870   6.846   4.361  10.074
 7127W        W10871  10.013   2.163   8.812
 7128W        W10872   7.577   2.217   9.311
 7129W        W10873   1.300   7.949   9.054
 7130W        W10874   8.582   1.278   8.966
 7131W        W10875   7.856   3.814   9.292
 7132W        W10876   4.290   1.813   9.252
 7133W        W10877  10.397   4.785   3.583
 7134W        W10878   9.956   1.821   2.492
 7135W        W10879   2.571   9.004   1.164
 7136W        W10880   3.701   7.577  10.278
 7137W        W10881   8.392   3.747   9.917
 7138W        W10882   2.856   2.395   9.866
 7139W        W10883  10.399   1.834   8.609
 7140W        W10884   6.571   1.946   2.071
 7141W        W10885   4.088   7.819   0.345
 7142W        W10886   0.812   3.248   8.979
 7143W        W10887   3.584   5.511   9.877
 7144W        W10888   1.765  10.411   9.507
 7145W        W10889   9.901   0.170   0.832
 7146W        W10890   6.013   0.864   8.634
 7147W        W10891   7.262   7.760  11.962
 7148W        W10892   6.741   2.698   2.324
 7149W        W10893   3.692   0.825  10.534
 7150W        W10894   2.236   8.192   3.572
 7151W        W10895   8.330   3.687   9.411
 7152W        W10896   7.909   3.216   2.108
 7153W        W10897   0.940   3.211   1.839
 7154W        W10898   7.450   8.631  10.573
 7155W        W10899   0.820   0.633   9.580
 7156W        W10900   9.090   1.921  10.344
 7157W        W10901   9.096   9.287   1.366
 7158W        W10902   4.335   2.898  10.525
 7159W        W10903   8.546   1.293   1.222
 7160W        W10904   6.803   2.567   3.549
 7161W        W10905   4.132   6.119   9.639
 7162W        W10906   2.306  10.323  11.257
 7163W        W10907   2.939   3.257   9.926
 7164W        W10908   9.031   1.271  11.714
 7165W        W10909   1.862   0.186  10.540
 7166W        W10910   1.108   2.668   3.373
 7167W        W10911   9.556   2.615  11.969
 7168W        W10912   7.126   4.206   2.862
 7169W        W10913   0.685   6.041  10.735
 7170W        W10914   6.545   1.935  11.914
 7171W        W10915   2.635   4.093  10.953
 7172W        W10916   8.288   6.958   2.638
 7173W        W10917   0.950   8.496   0.912
 7174W        W10918   1.406   0.271   9.540
 7175W        W10919   1.536   5.051   9.345
 7176W        W10920   4.082   4.357   0.572
 7177W        W10921   4.148   8.370   3.633
 7178W        W10922   6.456   6.098   9.765
 7179W        W10923   8.128   2.091   9.976
 7180W        W10924   3.220   8.962   2.450
 7181W        W10925   8.051   0.153   3.482
 7182W        W10926   3.097   3.725  10.005
 7183W        W10927   4.019  10.219  11.404
 7184W        W10928   1.169   5.941   2.883
 7185W        W10929   0.947   1.288   1.878
 7186W        W10930   8.793   8.565   9.446
 7187W        W10931   4.301   6.618   2.900
 7188W        W10932   7.538   6.070   8.903
 7189W        W10933   0.690   1.965   9.402
 7190W        W10934   3.779   0.966   1.768
 7191W        W10935   7.007   0.106   2.153
 7192W        W10936   5.833   2.882   2.061
 7193W        W10937   9.834   8.847   0.059
 7194W        W10938   1.811  10.174  10.504
 7195W        W10939   3.100   2.288   2.363
 7196W        W10940   0.671   1.356   0.055
 7197W        W10941   2.154   2.401   0.639
 7198W        W10942   7.465   4.139   9.313
 7199W        W10943   3.367   0.750  11.384
 7200W        W10944   2.669  10.385   2.658
 7201W        W10945   0.010   5.550   9.047
 7202W        W10946   4.958   1.682   2.966
 7203W        W10947   3.939   4.476   0.101
 7204W        W10948   9.333   4.535   2.383
 7205W        W10949   9.236  10.126  10.384
 7206W        W10950   9.365   0.920   0.396
 7207W        W10951   1.218   2.735   9.318
 7208W        W10952   2.584   4.212   1.916
 7209W        W10953   3.098   5.552   9.752
 7210W        W10954   2.835   8.969   9.516
 7211W        W10955   5.539   6.043  10.747
 7212W        W10956   7.714   7.809   9.828
 7213W        W10957   3.059   2.701   8.840
 7214W        W10958   5.057  10.378   8.735
 7215W        W10959   6.509  10.467   0.013
 7216W        W10960   3.830   3.168   9.759
 7217W        W10961   7.822   6.473   0.172
 7218W        W10962   6.054   2.196   8.517
 7219W        W10963   3.220   3.196  11.051
 7220W        W10964   4.751  10.137   9.362
 7221W        W10965   4.117   7.043   9.789
 7222W        W10966  10.287   9.917   2.717
 7223W        W10967   4.087   2.649   1.879
 7224W        W10968   0.515   0.853   2.196
 7225W        W10969   1.350   1.456   0.754
 7226W        W10970   2.009   1.780   1.791
 7227W        W10971   3.730  10.087   2.180
 7228W        W10972   5.633   4.863  11.362
 7229W        W10973   9.848   7.722   2.250
 7230ION    NA+10974   7.800   7.035   9.056
 7231ION    NA+10975   8.854  10.448  11.973
 7232ION    NA+10976   0.375   6.633   3.625
 7233ION    NA+10977   6.648   1.819   3.094
 7234ION    NA+10978  10.486   3.708  11.497
 7235ION    NA+10979   1.371   8.624   2.969
 7236ION    NA+10980   9.975   6.481   0.956
 7237ION    NA+10981   4.880   0.359   9.402
 7238ION    NA+10982   2.963   4.713   0.193
 7239ION    NA+10983   0.112   0.508   8.941
 7240ION    NA+10984   7.401   4.675   8.132
 7241ION    NA+10985   0.179   9.084   9.275
 7242ION    NA+10986   5.266   7.105  11.046
 7243ION    NA+10987   5.211   3.074   9.035
 7244ION    NA+10988   6.382   8.897  10.117
 7245ION    NA+10989   1.431   6.742   9.813
 7246ION    NA+10990   4.066   1.984  11.063
 7247ION    NA+10991   1.579   0.261   0.940
 7248ION    NA+10992   2.747   0.348  10.817
 7249ION    NA+10993   2.322   2.504   1.752
 7250ION    NA+10994   9.417   0.164   2.013
 7251ION    NA+10995   0.474   7.717   1.367
 7252ION    NA+10996   7.714   0.864   3.819
 7253ION    NA+10997   7.895   3.765   9.793
 7254ION    NA+10998   0.213   5.330  10.827
 7255ION    NA+10999   3.817   4.780  11.200
 7256ION    NA+11000   7.051   1.980   0.521
 7257ION    NA+11001   3.620   9.280   2.398
 7258ION    NA+11002   6.616   3.521   1.878
 7259ION    NA+11003   3.244   6.582   9.448
 7260ION    NA+11004   1.624   4.989   1.358
 7261ION    NA+11005  10.426  10.363   2.952
 7262ION    NA+11006   2.678   1.970  11.110
 7263ION    NA+11007   7.049  10.064   9.000
 7264ION    NA+11008   9.369   3.264   0.791
 7265ION    NA+11009   1.693   1.798  11.072
 7266ION    NA+11010   1.670   2.976   9.166
 7267ION    NA+11011   4.528   6.795   9.596
 7268ION    NA+11012   1.781   7.157  11.536
 7269ION    NA+11013   3.847   0.947   0.618
 7270ION    NA+11014   0.297   9.150   0.323
 7271ION    NA+11015   9.400   1.460  10.450
 7272ION    NA+11016   7.582   2.117  11.345
 7273ION    NA+11017   9.603   5.196   3.486
 7274ION    NA+11018   4.530   5.170   0.089
 7275ION    NA+11019   0.923   5.406   0.125
 7276ION    NA+11020  10.096   9.625   9.545
 7277ION    NA+11021   3.318   6.631   2.632
 7278ION    NA+11022   2.719   9.341   1.945
 7279ION    NA+11023   5.917   9.127  10.972
 7280ION    NA+11024   4.941   3.281   8.095
 7281ION    NA+11025   5.378   4.864   1.645
 7282ION    NA+11026   9.640   3.697  11.110
 7283ION    NA+11027   0.238   5.157   1.856
 7284ION    NA+11028   1.153  10.073  11.626
 7285ION    NA+11029   1.712   0.401  10.992
 7286ION    NA+11030   4.120   8.129   0.976
 7287ION    NA+11031   5.113   2.383   1.225
 7288ION    NA+11032   1.083   9.009  11.842
 7289ION    NA+11033   0.364   8.105   2.772
 7290ION    NA+11034   6.296   9.630   1.891
 7291ION    NA+11035   4.972   4.740   0.898
 7292ION    NA+11036   0.674   0.782   0.752
 7293ION    NA+11037   1.344   9.758   3.332
 7294ION    NA+11038   3.800   0.904  10.047
 7295ION    NA+11039   1.876   7.739   9.786
 7296ION    NA+11040   5.256   5.579  11.742
 7297ION    NA+11041   3.923   0.071   9.447
 7298ION    NA+11042   2.810   0.181   0.529
 7299ION    NA+11043   7.869   0.685   2.221
 7300ION    NA+11044   2.015   0.540   0.008
 7301ION    NA+11045   4.749   3.657   1.934
 7302ION    NA+11046   1.015   8.171  11.882
 7303ION    NA+11047   6.761   7.692   0.650
 7304ION    NA+11048   2.751   7.938   2.322
 7305ION    NA+11049   4.376   8.633   9.931
 7306ION    CL-11050   5.126   4.952   1.277
 7307ION    CL-11051   4.864   5.389  11.869
 7308ION    CL-11052   9.008   2.768  10.239
 7309ION    CL-11053   8.553   1.373   9.467
 7310ION    CL-11054  10.375   3.222   1.764
 7311ION    CL-11055   5.467   6.886   1.460
 7312ION    CL-11056   1.675  10.080   8.570
 7313ION    CL-11057   8.510   8.833   9.796
 7314ION    CL-11058   9.249   0.209  10.893
 7315ION    CL-11059   3.236   2.757   3.414
 7316ION    CL-11060   1.932   8.168   9.665
 7317ION    CL-11061   2.800   3.634   1.090
 7318ION    CL-11062   7.416  10.072   9.268
 7319ION    CL-11063   0.621   7.307   1.261
 7320ION    CL-11064   2.681   1.867  11.545
 7321ION    CL-11065   1.165   8.561  11.705
 7322ION    CL-11066   1.337   2.941  11.729
 7323ION    CL-11067   3.716   8.875   2.236
 7324ION    CL-11068   4.668   0.496   1.911
 7325ION    CL-11069   9.217   2.783   8.898
 7326ION    CL-11070   2.864   0.562   2.003
 7327ION    CL-11071   3.940   0.807   1.035
 7328ION    CL-11072   6.800   9.019  10.016
 7329ION    CL-11073   8.534   9.135   0.527
 7330ION    CL-11074   9.403   4.369   9.646
 7331ION    CL-11075   6.744   9.569   1.933
 7332ION    CL-11076   9.319   3.474  10.875
 7333ION    CL-11077   7.888   8.914  10.602
 7334ION    CL-11078   2.889   4.537   3.227
 7335ION    CL-11079   2.675   1.256   1.308
 7336ION    CL-11080   0.644   9.095   0.011
 7337ION    CL-11081   0.160   8.957   0.715
 7338ION    CL-11082   2.092   3.816   0.407
 7339ION    CL-11083   1.576   2.945   8.719
 7340ION    CL-11084   4.433   9.999  11.959
 7341ION    CL-11085   1.272   8.634   2.524
 7342ION    CL-11086   2.451   7.646   2.478
 7343ION    CL-11087   5.123   9.201   9.494
 7344ION    CL-11088   4.748   9.917  10.307
 7345ION    CL-11089   8.332   5.372   8.728
 7346ION    CL-11090   6.600   1.411   3.291
 7347ION    CL-11091  10.058   3.715  11.338
 7348ION    CL-11092   9.890   8.053   1.826
 7349ION    CL-11093   6.856   7.109   0.974
 7350ION    CL-11094   2.257   1.890   0.518
 7351ION    CL-11095   5.061   2.898   9.416
 7352ION    CL-11096  10.471   9.376   9.554
 7353ION    CL-11097   4.182   3.667   3.701
 7354ION    CL-11098   5.848   7.814   1.158
 7355ION    CL-11099   2.518   4.697   0.202
 7356ION    CL-11100   3.147   5.190   8.856
 7357ION    CL-11101   4.855   4.563  10.704
 7358ION    CL-11102   7.173   8.392   1.787
 7359ION    CL-11103   4.020   2.361  11.298
 7360ION    CL-11104   1.194   9.135  10.131
 7361ION    CL-11105   6.879   9.919   8.595
 7362ION    CL-11106   7.991   4.507   1.390
 7363ION    CL-11107   0.258   9.913   0.437
 7364ION    CL-11108   2.595   6.473  11.908
 7365ION    CL-11109   8.006   6.151   9.519
 7366ION    CL-11110   1.373   8.624   3.455
 7367ION    CL-11111   9.271   5.031   8.674
 7368ION    CL-11112   0.627   5.177  10.904
 7369ION    CL-11113   5.171   3.458   4.110
 7370ION    CL-11114   6.957   7.970   0.358
 7371ION    CL-11115   5.850   9.682   1.820
 7372ION    CL-11116   4.025   5.071  10.936
 7373ION    CL-11117   3.487   6.866   2.973
 7374ION    CL-11118   0.561   1.148   0.524
 7375ION    CL-11119   8.470   8.198  10.988
 7376ION    CL-11120   8.922   6.942  10.780
 7377ION    CL-11121   8.459  10.114   3.034
 7378ION    CL-11122   4.202   2.292   9.384
 7379ION    CL-11123   3.065   0.647   8.607
 7380ION    CL-11124   2.244   2.873   1.509
 7381ION    CL-11125   1.317   9.799  11.944
  10.50000  10.50000  12.00000
