generated by VMD, t= 0.000000
325
   14AUC    AUC    1   0.000   0.019   0.001
   15AUC    AUC    2   0.245   0.019  -0.151
   16AUC    AUC    3   0.245   0.019   0.152
   17AUC    AUC    4  -0.246   0.019  -0.151
   18AUC    AUC    5  -0.246   0.019   0.152
   19AUC    AUC    6  -0.152   0.264   0.001
   20AUC    AUC    7   0.151   0.264   0.001
   21AUC    AUC    8  -0.152  -0.227   0.001
   22AUC    AUC    9   0.151  -0.227   0.001
   23AUC    AUC   10   0.000  -0.133   0.246
   24AUC    AUC   11   0.000   0.170   0.246
   25AUC    AUC   12   0.000  -0.133  -0.245
   26AUC    AUC   13   0.000   0.170  -0.245
   27AUC    AUC   14   0.491   0.019  -0.303
   28AUC    AUC   15   0.491   0.019   0.001
   29AUC    AUC   16   0.491   0.019   0.304
   30AUC    AUC   17  -0.491   0.019  -0.303
   31AUC    AUC   18  -0.491   0.019   0.001
   32AUC    AUC   19  -0.491   0.019   0.304
   33AUC    AUC   20  -0.304   0.509   0.001
   34AUC    AUC   21   0.000   0.509   0.001
   35AUC    AUC   22   0.303   0.509   0.001
   36AUC    AUC   23  -0.304  -0.472   0.001
   37AUC    AUC   24   0.000  -0.472   0.001
   38AUC    AUC   25   0.303  -0.472   0.001
   39AUC    AUC   26   0.000  -0.285   0.491
   40AUC    AUC   27   0.000   0.019   0.491
   41AUC    AUC   28   0.000   0.322   0.491
   42AUC    AUC   29   0.000  -0.285  -0.490
   43AUC    AUC   30   0.000   0.019  -0.490
   44AUC    AUC   31   0.000   0.322  -0.490
   45AUC    AUC   32   0.245  -0.133   0.398
   46AUC    AUC   33   0.245   0.170   0.398
   47AUC    AUC   34   0.245  -0.133  -0.397
   48AUC    AUC   35   0.245   0.170  -0.397
   49AUC    AUC   36  -0.246  -0.133   0.398
   50AUC    AUC   37  -0.246   0.170   0.398
   51AUC    AUC   38  -0.246  -0.133  -0.397
   52AUC    AUC   39  -0.246   0.170  -0.397
   53AUC    AUC   40   0.397   0.264  -0.151
   54AUC    AUC   41   0.397   0.264   0.152
   55AUC    AUC   42  -0.397   0.264  -0.151
   56AUC    AUC   43  -0.397   0.264   0.152
   57AUC    AUC   44   0.397  -0.227  -0.151
   58AUC    AUC   45   0.397  -0.227   0.152
   59AUC    AUC   46  -0.397  -0.227  -0.151
   60AUC    AUC   47  -0.397  -0.227   0.152
   61AUC    AUC   48  -0.152   0.416   0.246
   62AUC    AUC   49   0.151   0.416   0.246
   63AUC    AUC   50  -0.152  -0.378   0.246
   64AUC    AUC   51   0.151  -0.378   0.246
   65AUC    AUC   52  -0.152   0.416  -0.245
   66AUC    AUC   53   0.151   0.416  -0.245
   67AUC    AUC   54  -0.152  -0.378  -0.245
   68AUC    AUC   55   0.151  -0.378  -0.245
    1AUSL   AUS   56   0.409   0.019   0.581
    2AUSL   AUS   57   0.265  -0.398   0.511
    3AUL    AUL   58   0.491  -0.285   0.795
    4THSLK  S     59   0.392  -0.586   0.663
    5ETHY   C1    60   0.550  -0.907   0.956
    7ETHY   C1    61   0.798  -1.220   1.345
    9THSLK  S     62   0.514  -0.021   0.833
   10ETHY   C1    63   0.757  -0.088   1.220
   12ETHY   C1    64   1.050  -0.069   1.694
    1AUSL   AUS   65   0.163  -0.133   0.674
    2AUSL   AUS   66  -0.164   0.170   0.674
    3AUL    AUL   67   0.000   0.019   0.982
    4THSLK  S     68   0.250  -0.179   0.926
    5ETHY   C1    69   0.363  -0.320   1.352
    7ETHY   C1    70   0.512  -0.391   1.885
    9THSLK  S     71  -0.252   0.139   0.939
   10ETHY   C1    72  -0.357   0.150   1.389
   12ETHY   C1    73  -0.507   0.258   1.915
    1AUSL   AUS   74   0.163   0.170   0.674
    2AUSL   AUS   75   0.510   0.283   0.417
    3AUL    AUL   76   0.491   0.322   0.795
    4THSLK  S     77   0.251   0.216   0.926
    5ETHY   C1    78   0.357   0.356   1.354
    7ETHY   C1    79   0.507   0.428   1.886
    9THSLK  S     80   0.690   0.399   0.582
   10ETHY   C1    81   1.035   0.534   0.858
   12ETHY   C1    82   1.410   0.788   1.183
    1AUSL   AUS   83   0.409   0.019  -0.579
    2AUSL   AUS   84   0.265   0.435  -0.510
    3AUL    AUL   85   0.491   0.322  -0.794
    4THSLK  S     86   0.515  -0.021  -0.832
    5ETHY   C1    87   0.752  -0.088  -1.222
    7ETHY   C1    88   1.045  -0.069  -1.696
    9THSLK  S     89   0.440   0.563  -0.684
   10ETHY   C1    90   0.671   0.781  -1.020
   12ETHY   C1    91   0.897   1.123  -1.398
    1AUSL   AUS   92   0.163  -0.133  -0.673
    2AUSL   AUS   93   0.510  -0.246  -0.416
    3AUL    AUL   94   0.491  -0.285  -0.794
    4THSLK  S     95   0.656  -0.433  -0.568
    5ETHY   C1    96   0.940  -0.687  -0.830
    7ETHY   C1    97   1.332  -0.907  -1.160
    9THSLK  S     98   0.251  -0.179  -0.925
   10ETHY   C1    99   0.357  -0.319  -1.353
   12ETHY   C1   100   0.507  -0.391  -1.885
    1AUSL   AUS  101   0.163   0.170  -0.673
    2AUSL   AUS  102  -0.164  -0.133  -0.673
    3AUL    AUL  103   0.000   0.019  -0.981
    4THSLK  S    104  -0.264  -0.179  -0.921
    5ETHY   C1   105  -0.398  -0.317  -1.342
    7ETHY   C1   106  -0.541  -0.389  -1.876
    9THSLK  S    107   0.264   0.138  -0.934
   10ETHY   C1   108   0.391   0.147  -1.379
   12ETHY   C1   109   0.535   0.256  -1.906
    1AUSL   AUS  110  -0.409   0.019   0.581
    2AUSL   AUS  111  -0.265   0.435   0.511
    3AUL    AUL  112  -0.491   0.322   0.795
    4THSLK  S    113  -0.515  -0.021   0.833
    5ETHY   C1   114  -0.752  -0.088   1.223
    7ETHY   C1   115  -1.046  -0.069   1.697
    9THSLK  S    116  -0.393   0.577   0.702
   10ETHY   C1   117  -0.546   0.822   1.063
   12ETHY   C1   118  -0.794   1.157   1.433
    1AUSL   AUS  119  -0.164  -0.133   0.674
    2AUSL   AUS  120  -0.510  -0.246   0.417
    3AUL    AUL  121  -0.491  -0.285   0.795
    4THSLK  S    122  -0.691  -0.414   0.543
    5ETHY   C1   123  -1.032  -0.640   0.759
    7ETHY   C1   124  -1.408  -0.868   1.102
    9THSLK  S    125  -0.264  -0.179   0.922
   10ETHY   C1   126  -0.392  -0.318   1.344
   12ETHY   C1   127  -0.536  -0.390   1.878
    1AUSL   AUS  128  -0.409   0.019  -0.579
    2AUSL   AUS  129  -0.265  -0.398  -0.510
    3AUL    AUL  130  -0.491  -0.285  -0.794
    4THSLK  S    131  -0.514  -0.021  -0.832
    5ETHY   C1   132  -0.758  -0.088  -1.219
    7ETHY   C1   133  -1.050  -0.069  -1.693
    9THSLK  S    134  -0.439  -0.572  -0.645
   10ETHY   C1   135  -0.676  -0.865  -0.913
   12ETHY   C1   136  -0.901  -1.186  -1.310
    1AUSL   AUS  137  -0.164   0.170  -0.673
    2AUSL   AUS  138  -0.510   0.283  -0.416
    3AUL    AUL  139  -0.491   0.322  -0.794
    4THSLK  S    140  -0.656   0.418  -0.606
    5ETHY   C1   141  -0.945   0.582  -0.928
    7ETHY   C1   142  -1.336   0.827  -1.241
    9THSLK  S    143  -0.251   0.139  -0.938
   10ETHY   C1   144  -0.364   0.149  -1.386
   12ETHY   C1   145  -0.512   0.257  -1.913
    1AUSL   AUS  146   0.580   0.428   0.001
    2AUSL   AUS  147   0.510   0.283  -0.416
    3AUL    AUL  148   0.794   0.509  -0.303
    4THSLK  S    149   0.690   0.400  -0.580
    5ETHY   C1   150   1.031   0.533  -0.862
    7ETHY   C1   151   1.407   0.787  -1.186
    9THSLK  S    152   0.853   0.499   0.001
   10ETHY   C1   153   1.277   0.683  -0.003
   12ETHY   C1   154   1.741   0.992  -0.002
    1AUSL   AUS  155   0.674   0.182  -0.151
    2AUSL   AUS  156   0.674  -0.145   0.152
    3AUL    AUL  157   0.981   0.019   0.001
    4THSLK  S    158   0.941   0.237  -0.159
    5ETHY   C1   159   1.393   0.293  -0.238
    7ETHY   C1   160   1.918   0.458  -0.328
    9THSLK  S    161   0.920  -0.277   0.159
   10ETHY   C1   162   1.337  -0.462   0.228
   12ETHY   C1   163   1.873  -0.590   0.320
    1AUSL   AUS  164   0.674   0.182   0.152
    2AUSL   AUS  165   0.416   0.529   0.265
    3AUL    AUL  166   0.794   0.509   0.304
    4THSLK  S    167   0.602   0.664   0.425
    5ETHY   C1   168   0.918   0.932   0.628
    7ETHY   C1   169   1.233   1.329   0.862
    9THSLK  S    170   0.941   0.237   0.161
   10ETHY   C1   171   1.393   0.293   0.233
   12ETHY   C1   172   1.919   0.458   0.324
    1AUSL   AUS  173  -0.580   0.428   0.001
    2AUSL   AUS  174  -0.510   0.283   0.417
    3AUL    AUL  175  -0.794   0.509   0.304
    4THSLK  S    176  -0.657   0.418   0.607
    5ETHY   C1   177  -0.941   0.587   0.930
    7ETHY   C1   178  -1.333   0.832   1.243
    9THSLK  S    179  -0.811   0.566   0.001
   10ETHY   C1   180  -1.165   0.864  -0.003
   12ETHY   C1   181  -1.649   1.141  -0.002
    1AUSL   AUS  182  -0.674   0.182  -0.151
    2AUSL   AUS  183  -0.417   0.529  -0.264
    3AUL    AUL  184  -0.794   0.509  -0.303
    4THSLK  S    185  -0.920   0.292  -0.193
    5ETHY   C1   186  -1.338   0.437  -0.327
    7ETHY   C1   187  -1.873   0.577  -0.401
    9THSLK  S    188  -0.548   0.698  -0.444
   10ETHY   C1   189  -0.772   1.020  -0.688
   12ETHY   C1   190  -1.112   1.402  -0.911
    1AUSL   AUS  191  -0.674   0.182   0.152
    2AUSL   AUS  192  -0.674  -0.145  -0.151
    3AUL    AUL  193  -0.982   0.019   0.001
    4THSLK  S    194  -0.941  -0.223  -0.123
    5ETHY   C1   195  -1.394  -0.312  -0.141
    7ETHY   C1   196  -1.919  -0.467  -0.248
    9THSLK  S    197  -0.920   0.292   0.194
   10ETHY   C1   198  -1.337   0.443   0.325
   12ETHY   C1   199  -1.872   0.581   0.400
    1AUSL   AUS  200   0.580  -0.390   0.001
    2AUSL   AUS  201   0.510  -0.246   0.417
    3AUL    AUL  202   0.794  -0.472   0.304
    4THSLK  S    203   0.811  -0.529   0.001
    5ETHY   C1   204   1.165  -0.827  -0.003
    7ETHY   C1   205   1.649  -1.104  -0.002
    9THSLK  S    206   0.656  -0.433   0.570
   10ETHY   C1   207   0.944  -0.688   0.826
   12ETHY   C1   208   1.336  -0.908   1.157
    1AUSL   AUS  209   0.674  -0.145  -0.151
    2AUSL   AUS  210   0.416  -0.492  -0.264
    3AUL    AUL  211   0.794  -0.472  -0.303
    4THSLK  S    212   0.920  -0.277  -0.157
    5ETHY   C1   213   1.336  -0.462  -0.234
    7ETHY   C1   214   1.872  -0.590  -0.324
    9THSLK  S    215   0.548  -0.683  -0.408
   10ETHY   C1   216   0.769  -1.044  -0.593
   12ETHY   C1   217   1.110  -1.414  -0.833
    1AUSL   AUS  218  -0.580  -0.390   0.001
    2AUSL   AUS  219  -0.510  -0.246  -0.416
    3AUL    AUL  220  -0.794  -0.472  -0.303
    4THSLK  S    221  -0.690  -0.414  -0.542
    5ETHY   C1   222  -1.036  -0.634  -0.757
    7ETHY   C1   223  -1.411  -0.864  -1.100
    9THSLK  S    224  -0.853  -0.462   0.001
   10ETHY   C1   225  -1.277  -0.645  -0.003
   12ETHY   C1   226  -1.741  -0.955  -0.002
    1AUSL   AUS  227  -0.674  -0.145   0.152
    2AUSL   AUS  228  -0.417  -0.492   0.265
    3AUL    AUL  229  -0.794  -0.472   0.304
    4THSLK  S    230  -0.603  -0.649   0.389
    5ETHY   C1   231  -0.916  -0.955   0.533
    7ETHY   C1   232  -1.231  -1.342   0.784
    9THSLK  S    233  -0.941  -0.222   0.125
   10ETHY   C1   234  -1.393  -0.318   0.139
   12ETHY   C1   235  -1.918  -0.471   0.246
    1AUSL   AUS  236   0.000   0.599   0.410
    2AUSL   AUS  237  -0.417   0.529   0.265
    3AUL    AUL  238  -0.304   0.813   0.491
    4THSLK  S    239  -0.548   0.697   0.445
    5ETHY   C1   240  -0.769   1.025   0.685
    7ETHY   C1   241  -1.110   1.405   0.909
    9THSLK  S    242   0.034   0.840   0.533
   10ETHY   C1   243   0.092   1.212   0.801
   12ETHY   C1   244   0.076   1.691   1.086
    1AUSL   AUS  245  -0.152   0.692   0.164
    2AUSL   AUS  246   0.151   0.692  -0.163
    3AUL    AUL  247   0.000   1.000   0.001
    4THSLK  S    248  -0.121   0.952   0.270
    5ETHY   C1   249  -0.131   1.393   0.407
    7ETHY   C1   250  -0.240   1.922   0.548
    9THSLK  S    251   0.196   0.941  -0.265
   10ETHY   C1   252   0.334   1.359  -0.403
   12ETHY   C1   253   0.406   1.894  -0.545
    1AUSL   AUS  254   0.151   0.692   0.164
    2AUSL   AUS  255   0.265   0.435   0.511
    3AUL    AUL  256   0.303   0.813   0.491
    4THSLK  S    257   0.439   0.563   0.685
    5ETHY   C1   258   0.675   0.782   1.017
    7ETHY   C1   259   0.901   1.124   1.395
    9THSLK  S    260   0.196   0.940   0.267
   10ETHY   C1   261   0.335   1.361   0.398
   12ETHY   C1   262   0.408   1.895   0.541
    1AUSL   AUS  263   0.000  -0.561   0.410
    2AUSL   AUS  264   0.416  -0.492   0.265
    3AUL    AUL  265   0.303  -0.776   0.491
    4THSLK  S    266  -0.034  -0.825   0.497
    5ETHY   C1   267  -0.089  -1.234   0.705
    7ETHY   C1   268  -0.074  -1.702   1.007
    9THSLK  S    269   0.548  -0.683   0.410
   10ETHY   C1   270   0.771  -1.045   0.589
   12ETHY   C1   271   1.112  -1.415   0.830
    1AUSL   AUS  272  -0.152  -0.655   0.164
    2AUSL   AUS  273  -0.265  -0.398   0.511
    3AUL    AUL  274  -0.304  -0.776   0.491
    4THSLK  S    275  -0.197  -0.908   0.246
    5ETHY   C1   276  -0.334  -1.339   0.343
    7ETHY   C1   277  -0.407  -1.871   0.496
    9THSLK  S    278  -0.440  -0.572   0.646
   10ETHY   C1   279  -0.671  -0.870   0.913
   12ETHY   C1   280  -0.898  -1.190   1.310
    1AUSL   AUS  281   0.151  -0.655   0.164
    2AUSL   AUS  282  -0.152  -0.655  -0.163
    3AUL    AUL  283   0.000  -0.963   0.001
    4THSLK  S    284  -0.197  -0.908  -0.245
    5ETHY   C1   285  -0.336  -1.337  -0.348
    7ETHY   C1   286  -0.408  -1.869  -0.499
    9THSLK  S    287   0.120  -0.920   0.250
   10ETHY   C1   288   0.133  -1.371   0.352
   12ETHY   C1   289   0.241  -1.897   0.503
    1AUSL   AUS  290   0.000   0.599  -0.408
    2AUSL   AUS  291   0.416   0.529  -0.264
    3AUL    AUL  292   0.303   0.813  -0.490
    4THSLK  S    293   0.034   0.840  -0.531
    5ETHY   C1   294   0.089   1.209  -0.804
    7ETHY   C1   295   0.073   1.688  -1.088
    9THSLK  S    296   0.603   0.664  -0.423
   10ETHY   C1   297   0.916   0.931  -0.632
   12ETHY   C1   298   1.231   1.328  -0.866
    1AUSL   AUS  299  -0.152   0.692  -0.163
    2AUSL   AUS  300  -0.265   0.435  -0.510
    3AUL    AUL  301  -0.304   0.813  -0.490
    4THSLK  S    302  -0.121   0.953  -0.268
    5ETHY   C1   303  -0.133   1.391  -0.412
    7ETHY   C1   304  -0.241   1.920  -0.552
    9THSLK  S    305  -0.392   0.578  -0.701
   10ETHY   C1   306  -0.550   0.818  -1.063
   12ETHY   C1   307  -0.798   1.153  -1.433
    1AUSL   AUS  308   0.000  -0.561  -0.408
    2AUSL   AUS  309  -0.417  -0.492  -0.264
    3AUL    AUL  310  -0.304  -0.776  -0.490
    4THSLK  S    311  -0.603  -0.649  -0.387
    5ETHY   C1   312  -0.919  -0.951  -0.536
    7ETHY   C1   313  -1.233  -1.338  -0.786
    9THSLK  S    314  -0.034  -0.825  -0.496
   10ETHY   C1   315  -0.093  -1.230  -0.709
   12ETHY   C1   316  -0.076  -1.700  -1.010
    1AUSL   AUS  317   0.151  -0.655  -0.163
    2AUSL   AUS  318   0.265  -0.398  -0.510
    3AUL    AUL  319   0.303  -0.776  -0.490
    4THSLK  S    320   0.121  -0.921  -0.248
    5ETHY   C1   321   0.131  -1.369  -0.357
    7ETHY   C1   322   0.239  -1.896  -0.507
    9THSLK  S    323   0.393  -0.587  -0.661
   10ETHY   C1   324   0.545  -0.905  -0.959
   12ETHY   C1   325   0.794  -1.219  -1.348
   7.36755   7.36127   7.36315   0.00000   0.00000   0.00000   0.00000   0.00000   0.00000
