Protein in INSANE! Membrane UpperLeaflet>POPC=1.0 LowerLeaflet>POPC=1.0
11530
   14AUC    AUC    1   5.250   5.269   6.001
   15AUC    AUC    2   5.495   5.269   5.849
   16AUC    AUC    3   5.495   5.269   6.152
   17AUC    AUC    4   5.004   5.269   5.849
   18AUC    AUC    5   5.004   5.269   6.152
   19AUC    AUC    6   5.098   5.514   6.001
   20AUC    AUC    7   5.401   5.514   6.001
   21AUC    AUC    8   5.098   5.023   6.001
   22AUC    AUC    9   5.401   5.023   6.001
   23AUC    AUC   10   5.250   5.117   6.246
   24AUC    AUC   11   5.250   5.420   6.246
   25AUC    AUC   12   5.250   5.117   5.755
   26AUC    AUC   13   5.250   5.420   5.755
   27AUC    AUC   14   5.741   5.269   5.697
   28AUC    AUC   15   5.741   5.269   6.001
   29AUC    AUC   16   5.741   5.269   6.304
   30AUC    AUC   17   4.759   5.269   5.697
   31AUC    AUC   18   4.759   5.269   6.001
   32AUC    AUC   19   4.759   5.269   6.304
   33AUC    AUC   20   4.946   5.759   6.001
   34AUC    AUC   21   5.250   5.759   6.001
   35AUC    AUC   22   5.553   5.759   6.001
   36AUC    AUC   23   4.946   4.778   6.001
   37AUC    AUC   24   5.250   4.778   6.001
   38AUC    AUC   25   5.553   4.778   6.001
   39AUC    AUC   26   5.250   4.965   6.491
   40AUC    AUC   27   5.250   5.269   6.491
   41AUC    AUC   28   5.250   5.572   6.491
   42AUC    AUC   29   5.250   4.965   5.510
   43AUC    AUC   30   5.250   5.269   5.510
   44AUC    AUC   31   5.250   5.572   5.510
   45AUC    AUC   32   5.495   5.117   6.398
   46AUC    AUC   33   5.495   5.420   6.398
   47AUC    AUC   34   5.495   5.117   5.603
   48AUC    AUC   35   5.495   5.420   5.603
   49AUC    AUC   36   5.004   5.117   6.398
   50AUC    AUC   37   5.004   5.420   6.398
   51AUC    AUC   38   5.004   5.117   5.603
   52AUC    AUC   39   5.004   5.420   5.603
   53AUC    AUC   40   5.647   5.514   5.849
   54AUC    AUC   41   5.647   5.514   6.152
   55AUC    AUC   42   4.853   5.514   5.849
   56AUC    AUC   43   4.853   5.514   6.152
   57AUC    AUC   44   5.647   5.023   5.849
   58AUC    AUC   45   5.647   5.023   6.152
   59AUC    AUC   46   4.853   5.023   5.849
   60AUC    AUC   47   4.853   5.023   6.152
   61AUC    AUC   48   5.098   5.666   6.246
   62AUC    AUC   49   5.401   5.666   6.246
   63AUC    AUC   50   5.098   4.872   6.246
   64AUC    AUC   51   5.401   4.872   6.246
   65AUC    AUC   52   5.098   5.666   5.755
   66AUC    AUC   53   5.401   5.666   5.755
   67AUC    AUC   54   5.098   4.872   5.755
   68AUC    AUC   55   5.401   4.872   5.755
    1AUSL   AUS   56   5.659   5.269   6.581
    2AUSL   AUS   57   5.515   4.852   6.511
    3AUL    AUL   58   5.741   4.965   6.795
    4THSLK  S     59   5.642   4.664   6.663
    5ETHY   C1    60   5.800   4.343   6.956
    7ETHY   C1    61   6.048   4.030   7.345
    9THSLK  S     62   5.764   5.229   6.833
   10ETHY   C1    63   6.007   5.162   7.220
   12ETHY   C1    64   6.300   5.181   7.694
    1AUSL   AUS   65   5.413   5.117   6.674
    2AUSL   AUS   66   5.086   5.420   6.674
    3AUL    AUL   67   5.250   5.269   6.982
    4THSLK  S     68   5.500   5.071   6.926
    5ETHY   C1    69   5.613   4.930   7.352
    7ETHY   C1    70   5.762   4.859   7.885
    9THSLK  S     71   4.998   5.389   6.939
   10ETHY   C1    72   4.893   5.400   7.389
   12ETHY   C1    73   4.743   5.508   7.915
    1AUSL   AUS   74   5.413   5.420   6.674
    2AUSL   AUS   75   5.760   5.533   6.417
    3AUL    AUL   76   5.741   5.572   6.795
    4THSLK  S     77   5.501   5.466   6.926
    5ETHY   C1    78   5.607   5.606   7.354
    7ETHY   C1    79   5.757   5.678   7.886
    9THSLK  S     80   5.940   5.649   6.582
   10ETHY   C1    81   6.285   5.784   6.858
   12ETHY   C1    82   6.660   6.038   7.183
    1AUSL   AUS   83   5.659   5.269   5.421
    2AUSL   AUS   84   5.515   5.685   5.490
    3AUL    AUL   85   5.741   5.572   5.206
    4THSLK  S     86   5.765   5.229   5.168
    5ETHY   C1    87   6.002   5.162   4.778
    7ETHY   C1    88   6.295   5.181   4.304
    9THSLK  S     89   5.690   5.813   5.316
   10ETHY   C1    90   5.921   6.031   4.980
   12ETHY   C1    91   6.147   6.373   4.602
    1AUSL   AUS   92   5.413   5.117   5.327
    2AUSL   AUS   93   5.760   5.004   5.584
    3AUL    AUL   94   5.741   4.965   5.206
    4THSLK  S     95   5.906   4.817   5.432
    5ETHY   C1    96   6.190   4.563   5.170
    7ETHY   C1    97   6.582   4.343   4.840
    9THSLK  S     98   5.501   5.071   5.075
   10ETHY   C1    99   5.607   4.931   4.647
   12ETHY   C1   100   5.757   4.859   4.115
    1AUSL   AUS  101   5.413   5.420   5.327
    2AUSL   AUS  102   5.086   5.117   5.327
    3AUL    AUL  103   5.250   5.269   5.019
    4THSLK  S    104   4.986   5.071   5.079
    5ETHY   C1   105   4.852   4.933   4.658
    7ETHY   C1   106   4.709   4.861   4.124
    9THSLK  S    107   5.514   5.388   5.066
   10ETHY   C1   108   5.641   5.397   4.621
   12ETHY   C1   109   5.785   5.506   4.094
    1AUSL   AUS  110   4.841   5.269   6.581
    2AUSL   AUS  111   4.985   5.685   6.511
    3AUL    AUL  112   4.759   5.572   6.795
    4THSLK  S    113   4.735   5.229   6.833
    5ETHY   C1   114   4.498   5.162   7.223
    7ETHY   C1   115   4.204   5.181   7.697
    9THSLK  S    116   4.857   5.827   6.702
   10ETHY   C1   117   4.704   6.072   7.063
   12ETHY   C1   118   4.456   6.407   7.433
    1AUSL   AUS  119   5.086   5.117   6.674
    2AUSL   AUS  120   4.740   5.004   6.417
    3AUL    AUL  121   4.759   4.965   6.795
    4THSLK  S    122   4.559   4.836   6.543
    5ETHY   C1   123   4.218   4.610   6.759
    7ETHY   C1   124   3.842   4.382   7.102
    9THSLK  S    125   4.986   5.071   6.922
   10ETHY   C1   126   4.858   4.932   7.344
   12ETHY   C1   127   4.714   4.860   7.878
    1AUSL   AUS  128   4.841   5.269   5.421
    2AUSL   AUS  129   4.985   4.852   5.490
    3AUL    AUL  130   4.759   4.965   5.206
    4THSLK  S    131   4.736   5.229   5.168
    5ETHY   C1   132   4.492   5.162   4.781
    7ETHY   C1   133   4.200   5.181   4.307
    9THSLK  S    134   4.811   4.678   5.355
   10ETHY   C1   135   4.574   4.385   5.087
   12ETHY   C1   136   4.349   4.064   4.690
    1AUSL   AUS  137   5.086   5.420   5.327
    2AUSL   AUS  138   4.740   5.533   5.584
    3AUL    AUL  139   4.759   5.572   5.206
    4THSLK  S    140   4.594   5.668   5.394
    5ETHY   C1   141   4.305   5.832   5.072
    7ETHY   C1   142   3.914   6.077   4.759
    9THSLK  S    143   4.999   5.389   5.062
   10ETHY   C1   144   4.886   5.399   4.614
   12ETHY   C1   145   4.738   5.507   4.087
    1AUSL   AUS  146   5.830   5.678   6.001
    2AUSL   AUS  147   5.760   5.533   5.584
    3AUL    AUL  148   6.044   5.759   5.697
    4THSLK  S    149   5.940   5.650   5.420
    5ETHY   C1   150   6.281   5.783   5.138
    7ETHY   C1   151   6.657   6.037   4.814
    9THSLK  S    152   6.103   5.749   6.001
   10ETHY   C1   153   6.527   5.933   5.997
   12ETHY   C1   154   6.991   6.242   5.998
    1AUSL   AUS  155   5.924   5.432   5.849
    2AUSL   AUS  156   5.924   5.105   6.152
    3AUL    AUL  157   6.231   5.269   6.001
    4THSLK  S    158   6.191   5.487   5.841
    5ETHY   C1   159   6.643   5.543   5.762
    7ETHY   C1   160   7.168   5.708   5.672
    9THSLK  S    161   6.170   4.973   6.159
   10ETHY   C1   162   6.587   4.788   6.228
   12ETHY   C1   163   7.123   4.660   6.320
    1AUSL   AUS  164   5.924   5.432   6.152
    2AUSL   AUS  165   5.666   5.779   6.265
    3AUL    AUL  166   6.044   5.759   6.304
    4THSLK  S    167   5.852   5.914   6.425
    5ETHY   C1   168   6.168   6.182   6.628
    7ETHY   C1   169   6.483   6.579   6.862
    9THSLK  S    170   6.191   5.487   6.161
   10ETHY   C1   171   6.643   5.543   6.233
   12ETHY   C1   172   7.169   5.708   6.324
    1AUSL   AUS  173   4.670   5.678   6.001
    2AUSL   AUS  174   4.740   5.533   6.417
    3AUL    AUL  175   4.456   5.759   6.304
    4THSLK  S    176   4.593   5.668   6.607
    5ETHY   C1   177   4.309   5.837   6.930
    7ETHY   C1   178   3.917   6.082   7.243
    9THSLK  S    179   4.439   5.816   6.001
   10ETHY   C1   180   4.085   6.114   5.997
   12ETHY   C1   181   3.601   6.391   5.998
    1AUSL   AUS  182   4.576   5.432   5.849
    2AUSL   AUS  183   4.833   5.779   5.736
    3AUL    AUL  184   4.456   5.759   5.697
    4THSLK  S    185   4.330   5.542   5.807
    5ETHY   C1   186   3.912   5.687   5.673
    7ETHY   C1   187   3.377   5.827   5.599
    9THSLK  S    188   4.702   5.948   5.556
   10ETHY   C1   189   4.478   6.270   5.312
   12ETHY   C1   190   4.138   6.652   5.089
    1AUSL   AUS  191   4.576   5.432   6.152
    2AUSL   AUS  192   4.576   5.105   5.849
    3AUL    AUL  193   4.268   5.269   6.001
    4THSLK  S    194   4.309   5.027   5.877
    5ETHY   C1   195   3.856   4.938   5.859
    7ETHY   C1   196   3.331   4.783   5.752
    9THSLK  S    197   4.330   5.542   6.194
   10ETHY   C1   198   3.913   5.693   6.325
   12ETHY   C1   199   3.378   5.831   6.400
    1AUSL   AUS  200   5.830   4.860   6.001
    2AUSL   AUS  201   5.760   5.004   6.417
    3AUL    AUL  202   6.044   4.778   6.304
    4THSLK  S    203   6.061   4.721   6.001
    5ETHY   C1   204   6.415   4.423   5.997
    7ETHY   C1   205   6.899   4.146   5.998
    9THSLK  S    206   5.906   4.817   6.570
   10ETHY   C1   207   6.194   4.562   6.826
   12ETHY   C1   208   6.586   4.342   7.157
    1AUSL   AUS  209   5.924   5.105   5.849
    2AUSL   AUS  210   5.666   4.758   5.736
    3AUL    AUL  211   6.044   4.778   5.697
    4THSLK  S    212   6.170   4.973   5.843
    5ETHY   C1   213   6.586   4.788   5.766
    7ETHY   C1   214   7.122   4.660   5.676
    9THSLK  S    215   5.798   4.567   5.592
   10ETHY   C1   216   6.019   4.206   5.407
   12ETHY   C1   217   6.360   3.836   5.167
    1AUSL   AUS  218   4.670   4.860   6.001
    2AUSL   AUS  219   4.740   5.004   5.584
    3AUL    AUL  220   4.456   4.778   5.697
    4THSLK  S    221   4.560   4.836   5.458
    5ETHY   C1   222   4.214   4.616   5.243
    7ETHY   C1   223   3.839   4.386   4.900
    9THSLK  S    224   4.397   4.788   6.001
   10ETHY   C1   225   3.973   4.605   5.997
   12ETHY   C1   226   3.509   4.295   5.998
    1AUSL   AUS  227   4.576   5.105   6.152
    2AUSL   AUS  228   4.833   4.758   6.265
    3AUL    AUL  229   4.456   4.778   6.304
    4THSLK  S    230   4.647   4.601   6.389
    5ETHY   C1   231   4.334   4.295   6.533
    7ETHY   C1   232   4.019   3.908   6.784
    9THSLK  S    233   4.309   5.028   6.125
   10ETHY   C1   234   3.857   4.932   6.139
   12ETHY   C1   235   3.332   4.779   6.246
    1AUSL   AUS  236   5.250   5.849   6.410
    2AUSL   AUS  237   4.833   5.779   6.265
    3AUL    AUL  238   4.946   6.063   6.491
    4THSLK  S    239   4.702   5.947   6.445
    5ETHY   C1   240   4.481   6.275   6.685
    7ETHY   C1   241   4.140   6.655   6.909
    9THSLK  S    242   5.284   6.090   6.533
   10ETHY   C1   243   5.342   6.462   6.801
   12ETHY   C1   244   5.326   6.941   7.086
    1AUSL   AUS  245   5.098   5.942   6.164
    2AUSL   AUS  246   5.401   5.942   5.837
    3AUL    AUL  247   5.250   6.250   6.001
    4THSLK  S    248   5.129   6.202   6.270
    5ETHY   C1   249   5.119   6.643   6.407
    7ETHY   C1   250   5.010   7.172   6.548
    9THSLK  S    251   5.446   6.191   5.735
   10ETHY   C1   252   5.584   6.609   5.597
   12ETHY   C1   253   5.656   7.144   5.455
    1AUSL   AUS  254   5.401   5.942   6.164
    2AUSL   AUS  255   5.515   5.685   6.511
    3AUL    AUL  256   5.553   6.063   6.491
    4THSLK  S    257   5.689   5.813   6.685
    5ETHY   C1   258   5.925   6.032   7.017
    7ETHY   C1   259   6.151   6.374   7.395
    9THSLK  S    260   5.446   6.190   6.267
   10ETHY   C1   261   5.585   6.611   6.398
   12ETHY   C1   262   5.658   7.145   6.541
    1AUSL   AUS  263   5.250   4.689   6.410
    2AUSL   AUS  264   5.666   4.758   6.265
    3AUL    AUL  265   5.553   4.474   6.491
    4THSLK  S    266   5.216   4.425   6.497
    5ETHY   C1   267   5.161   4.016   6.705
    7ETHY   C1   268   5.176   3.548   7.007
    9THSLK  S    269   5.798   4.567   6.410
   10ETHY   C1   270   6.021   4.205   6.589
   12ETHY   C1   271   6.362   3.835   6.830
    1AUSL   AUS  272   5.098   4.595   6.164
    2AUSL   AUS  273   4.985   4.852   6.511
    3AUL    AUL  274   4.946   4.474   6.491
    4THSLK  S    275   5.053   4.342   6.246
    5ETHY   C1   276   4.916   3.911   6.343
    7ETHY   C1   277   4.843   3.379   6.496
    9THSLK  S    278   4.810   4.678   6.646
   10ETHY   C1   279   4.579   4.380   6.913
   12ETHY   C1   280   4.352   4.060   7.310
    1AUSL   AUS  281   5.401   4.595   6.164
    2AUSL   AUS  282   5.098   4.595   5.837
    3AUL    AUL  283   5.250   4.287   6.001
    4THSLK  S    284   5.053   4.342   5.755
    5ETHY   C1   285   4.914   3.913   5.652
    7ETHY   C1   286   4.842   3.381   5.501
    9THSLK  S    287   5.370   4.330   6.250
   10ETHY   C1   288   5.383   3.879   6.352
   12ETHY   C1   289   5.491   3.353   6.503
    1AUSL   AUS  290   5.250   5.849   5.592
    2AUSL   AUS  291   5.666   5.779   5.736
    3AUL    AUL  292   5.553   6.063   5.510
    4THSLK  S    293   5.284   6.090   5.469
    5ETHY   C1   294   5.339   6.459   5.196
    7ETHY   C1   295   5.323   6.938   4.912
    9THSLK  S    296   5.853   5.914   5.577
   10ETHY   C1   297   6.166   6.181   5.368
   12ETHY   C1   298   6.481   6.578   5.134
    1AUSL   AUS  299   5.098   5.942   5.837
    2AUSL   AUS  300   4.985   5.685   5.490
    3AUL    AUL  301   4.946   6.063   5.510
    4THSLK  S    302   5.129   6.203   5.732
    5ETHY   C1   303   5.117   6.641   5.588
    7ETHY   C1   304   5.009   7.170   5.448
    9THSLK  S    305   4.858   5.828   5.299
   10ETHY   C1   306   4.700   6.068   4.937
   12ETHY   C1   307   4.452   6.403   4.567
    1AUSL   AUS  308   5.250   4.689   5.592
    2AUSL   AUS  309   4.833   4.758   5.736
    3AUL    AUL  310   4.946   4.474   5.510
    4THSLK  S    311   4.647   4.601   5.613
    5ETHY   C1   312   4.331   4.299   5.464
    7ETHY   C1   313   4.017   3.912   5.214
    9THSLK  S    314   5.216   4.425   5.504
   10ETHY   C1   315   5.157   4.020   5.291
   12ETHY   C1   316   5.174   3.550   4.990
    1AUSL   AUS  317   5.401   4.595   5.837
    2AUSL   AUS  318   5.515   4.852   5.490
    3AUL    AUL  319   5.553   4.474   5.510
    4THSLK  S    320   5.371   4.329   5.752
    5ETHY   C1   321   5.381   3.881   5.643
    7ETHY   C1   322   5.489   3.354   5.493
    9THSLK  S    323   5.643   4.663   5.339
   10ETHY   C1   324   5.795   4.345   5.041
   12ETHY   C1   325   6.044   4.031   4.652
   13POPC   NC3  326   3.600   8.687   7.950
   13POPC   PO4  327   3.583   8.709   7.650
   13POPC   GL1  328   3.604   8.679   7.350
   13POPC   GL2  329   3.431   8.696   7.350
   13POPC   C1A  330   3.598   8.707   7.050
   13POPC   D2A  331   3.630   8.639   6.750
   13POPC   C3A  332   3.603   8.675   6.450
   13POPC   C4A  333   3.556   8.672   6.150
   13POPC   C1B  334   3.240   8.679   7.050
   13POPC   C2B  335   3.300   8.721   6.750
   13POPC   C3B  336   3.227   8.715   6.450
   13POPC   C4B  337   3.250   8.737   6.150
   14POPC   NC3  338   1.077   4.742   7.950
   14POPC   PO4  339   1.020   4.751   7.650
   14POPC   GL1  340   1.114   4.783   7.350
   14POPC   GL2  341   1.162   4.902   7.350
   14POPC   C1A  342   1.103   4.822   7.050
   14POPC   D2A  343   1.048   4.748   6.750
   14POPC   C3A  344   1.078   4.759   6.450
   14POPC   C4A  345   1.045   4.773   6.150
   14POPC   C1B  346   1.248   5.073   7.050
   14POPC   C2B  347   1.303   5.103   6.750
   14POPC   C3B  348   1.295   5.031   6.450
   14POPC   C4B  349   1.269   5.109   6.150
   15POPC   NC3  350   9.321   2.113   7.950
   15POPC   PO4  351   9.317   2.127   7.650
   15POPC   GL1  352   9.376   2.103   7.350
   15POPC   GL2  353   9.406   1.960   7.350
   15POPC   C1A  354   9.368   2.124   7.050
   15POPC   D2A  355   9.366   2.106   6.750
   15POPC   C3A  356   9.398   2.108   6.450
   15POPC   C4A  357   9.399   2.076   6.150
   15POPC   C1B  358   9.479   1.753   7.050
   15POPC   C2B  359   9.545   1.760   6.750
   15POPC   C3B  360   9.521   1.780   6.450
   15POPC   C4B  361   9.527   1.779   6.150
   16POPC   NC3  362   0.300   7.798   7.950
   16POPC   PO4  363   0.362   7.771   7.650
   16POPC   GL1  364   0.376   7.803   7.350
   16POPC   GL2  365   0.462   7.901   7.350
   16POPC   C1A  366   0.334   7.748   7.050
   16POPC   D2A  367   0.394   7.818   6.750
   16POPC   C3A  368   0.386   7.739   6.450
   16POPC   C4A  369   0.341   7.767   6.150
   16POPC   C1B  370   0.493   8.106   7.050
   16POPC   C2B  371   0.487   8.128   6.750
   16POPC   C3B  372   0.542   8.077   6.450
   16POPC   C4B  373   0.467   8.073   6.150
   17POPC   NC3  374   3.431   1.338   7.950
   17POPC   PO4  375   3.503   1.302   7.650
   17POPC   GL1  376   3.476   1.356   7.350
   17POPC   GL2  377   3.436   1.181   7.350
   17POPC   C1A  378   3.434   1.303   7.050
   17POPC   D2A  379   3.417   1.300   6.750
   17POPC   C3A  380   3.453   1.297   6.450
   17POPC   C4A  381   3.474   1.325   6.150
   17POPC   C1B  382   3.380   0.985   7.050
   17POPC   C2B  383   3.348   1.037   6.750
   17POPC   C3B  384   3.371   0.959   6.450
   17POPC   C4B  385   3.433   1.028   6.150
   18POPC   NC3  386   8.847   9.521   7.950
   18POPC   PO4  387   8.881   9.485   7.650
   18POPC   GL1  388   8.853   9.496   7.350
   18POPC   GL2  389   8.697   9.408   7.350
   18POPC   C1A  390   8.888   9.437   7.050
   18POPC   D2A  391   8.857   9.437   6.750
   18POPC   C3A  392   8.827   9.475   6.450
   18POPC   C4A  393   8.796   9.481   6.150
   18POPC   C1B  394   8.522   9.426   7.050
   18POPC   C2B  395   8.492   9.390   6.750
   18POPC   C3B  396   8.498   9.383   6.450
   18POPC   C4B  397   8.509   9.365   6.150
   19POPC   NC3  398   6.504   0.576   7.950
   19POPC   PO4  399   6.493   0.597   7.650
   19POPC   GL1  400   6.506   0.613   7.350
   19POPC   GL2  401   6.465   0.456   7.350
   19POPC   C1A  402   6.546   0.539   7.050
   19POPC   D2A  403   6.518   0.563   6.750
   19POPC   C3A  404   6.553   0.533   6.450
   19POPC   C4A  405   6.483   0.549   6.150
   19POPC   C1B  406   6.313   0.294   7.050
   19POPC   C2B  407   6.322   0.278   6.750
   19POPC   C3B  408   6.294   0.283   6.450
   19POPC   C4B  409   6.333   0.252   6.150
   20POPC   NC3  410   8.763   5.050   7.950
   20POPC   PO4  411   8.764   5.059   7.650
   20POPC   GL1  412   8.782   4.984   7.350
   20POPC   GL2  413   8.628   4.878   7.350
   20POPC   C1A  414   8.771   5.033   7.050
   20POPC   D2A  415   8.800   5.012   6.750
   20POPC   C3A  416   8.841   5.021   6.450
   20POPC   C4A  417   8.845   4.986   6.150
   20POPC   C1B  418   8.531   4.794   7.050
   20POPC   C2B  419   8.520   4.770   6.750
   20POPC   C3B  420   8.498   4.826   6.450
   20POPC   C4B  421   8.560   4.841   6.150
   21POPC   NC3  422   4.137   9.575   7.950
   21POPC   PO4  423   4.058   9.580   7.650
   21POPC   GL1  424   4.062   9.561   7.350
   21POPC   GL2  425   4.186   9.379   7.350
   21POPC   C1A  426   4.110   9.573   7.050
   21POPC   D2A  427   4.100   9.603   6.750
   21POPC   C3A  428   4.064   9.572   6.450
   21POPC   C4A  429   4.043   9.532   6.150
   21POPC   C1B  430   4.237   9.256   7.050
   21POPC   C2B  431   4.273   9.263   6.750
   21POPC   C3B  432   4.254   9.263   6.450
   21POPC   C4B  433   4.226   9.276   6.150
   22POPC   NC3  434   9.999   5.593   7.950
   22POPC   PO4  435  10.041   5.592   7.650
   22POPC   GL1  436  10.007   5.603   7.350
   22POPC   GL2  437  10.144   5.645   7.350
   22POPC   C1A  438  10.039   5.607   7.050
   22POPC   D2A  439  10.073   5.556   6.750
   22POPC   C3A  440   9.980   5.537   6.450
   22POPC   C4A  441  10.039   5.599   6.150
   22POPC   C1B  442  10.291   5.718   7.050
   22POPC   C2B  443  10.295   5.790   6.750
   22POPC   C3B  444  10.281   5.779   6.450
   22POPC   C4B  445  10.326   5.806   6.150
   23POPC   NC3  446   6.307   1.857   7.950
   23POPC   PO4  447   6.254   1.888   7.650
   23POPC   GL1  448   6.222   1.864   7.350
   23POPC   GL2  449   6.411   1.885   7.350
   23POPC   C1A  450   6.281   1.807   7.050
   23POPC   D2A  451   6.246   1.829   6.750
   23POPC   C3A  452   6.286   1.846   6.450
   23POPC   C4A  453   6.300   1.800   6.150
   23POPC   C1B  454   6.595   1.990   7.050
   23POPC   C2B  455   6.583   2.038   6.750
   23POPC   C3B  456   6.602   1.994   6.450
   23POPC   C4B  457   6.531   1.996   6.150
   24POPC   NC3  458   1.794   1.034   7.950
   24POPC   PO4  459   1.812   1.053   7.650
   24POPC   GL1  460   1.774   1.020   7.350
   24POPC   GL2  461   1.932   1.140   7.350
   24POPC   C1A  462   1.764   1.046   7.050
   24POPC   D2A  463   1.798   1.032   6.750
   24POPC   C3A  464   1.779   1.059   6.450
   24POPC   C4A  465   1.754   1.072   6.150
   24POPC   C1B  466   2.101   1.281   7.050
   24POPC   C2B  467   2.064   1.289   6.750
   24POPC   C3B  468   2.095   1.258   6.450
   24POPC   C4B  469   2.011   1.282   6.150
   25POPC   NC3  470   7.005   1.923   7.950
   25POPC   PO4  471   6.990   1.922   7.650
   25POPC   GL1  472   7.027   1.955   7.350
   25POPC   GL2  473   7.152   1.888   7.350
   25POPC   C1A  474   7.039   1.905   7.050
   25POPC   D2A  475   7.027   1.930   6.750
   25POPC   C3A  476   7.043   1.976   6.450
   25POPC   C4A  477   6.985   1.897   6.150
   25POPC   C1B  478   7.352   1.900   7.050
   25POPC   C2B  479   7.329   1.906   6.750
   25POPC   C3B  480   7.345   1.924   6.450
   25POPC   C4B  481   7.331   1.929   6.150
   26POPC   NC3  482   6.538   9.567   7.950
   26POPC   PO4  483   6.557   9.606   7.650
   26POPC   GL1  484   6.515   9.541   7.350
   26POPC   GL2  485   6.392   9.444   7.350
   26POPC   C1A  486   6.537   9.586   7.050
   26POPC   D2A  487   6.545   9.552   6.750
   26POPC   C3A  488   6.474   9.582   6.450
   26POPC   C4A  489   6.517   9.526   6.150
   26POPC   C1B  490   6.369   9.272   7.050
   26POPC   C2B  491   6.358   9.316   6.750
   26POPC   C3B  492   6.360   9.280   6.450
   26POPC   C4B  493   6.357   9.269   6.150
   27POPC   NC3  494   9.516   3.502   7.950
   27POPC   PO4  495   9.583   3.578   7.650
   27POPC   GL1  496   9.588   3.512   7.350
   27POPC   GL2  497   9.380   3.450   7.350
   27POPC   C1A  498   9.513   3.536   7.050
   27POPC   D2A  499   9.533   3.565   6.750
   27POPC   C3A  500   9.573   3.558   6.450
   27POPC   C4A  501   9.606   3.564   6.150
   27POPC   C1B  502   9.281   3.263   7.050
   27POPC   C2B  503   9.306   3.290   6.750
   27POPC   C3B  504   9.245   3.339   6.450
   27POPC   C4B  505   9.262   3.339   6.150
   28POPC   NC3  506   0.264   5.640   7.950
   28POPC   PO4  507   0.297   5.661   7.650
   28POPC   GL1  508   0.213   5.610   7.350
   28POPC   GL2  509   0.389   5.653   7.350
   28POPC   C1A  510   0.284   5.601   7.050
   28POPC   D2A  511   0.263   5.601   6.750
   28POPC   C3A  512   0.266   5.676   6.450
   28POPC   C4A  513   0.291   5.636   6.150
   28POPC   C1B  514   0.621   5.745   7.050
   28POPC   C2B  515   0.616   5.718   6.750
   28POPC   C3B  516   0.567   5.674   6.450
   28POPC   C4B  517   0.622   5.754   6.150
   29POPC   NC3  518  10.063   0.317   7.950
   29POPC   PO4  519  10.003   0.280   7.650
   29POPC   GL1  520  10.036   0.334   7.350
   29POPC   GL2  521  10.149   0.468   7.350
   29POPC   C1A  522  10.036   0.264   7.050
   29POPC   D2A  523  10.089   0.310   6.750
   29POPC   C3A  524  10.074   0.329   6.450
   29POPC   C4A  525  10.089   0.361   6.150
   29POPC   C1B  526  10.337   0.552   7.050
   29POPC   C2B  527  10.347   0.496   6.750
   29POPC   C3B  528  10.334   0.567   6.450
   29POPC   C4B  529  10.332   0.568   6.150
   30POPC   NC3  530   1.820  10.343   7.950
   30POPC   PO4  531   1.902  10.371   7.650
   30POPC   GL1  532   1.850  10.379   7.350
   30POPC   GL2  533   1.952  10.127   7.350
   30POPC   C1A  534   1.840  10.342   7.050
   30POPC   D2A  535   1.818  10.370   6.750
   30POPC   C3A  536   1.822  10.313   6.450
   30POPC   C4A  537   1.862  10.328   6.150
   30POPC   C1B  538   1.965  10.063   7.050
   30POPC   C2B  539   2.001  10.023   6.750
   30POPC   C3B  540   2.025  10.018   6.450
   30POPC   C4B  541   1.966  10.015   6.150
   31POPC   NC3  542   0.619   6.357   7.950
   31POPC   PO4  543   0.607   6.331   7.650
   31POPC   GL1  544   0.634   6.323   7.350
   31POPC   GL2  545   0.453   6.456   7.350
   31POPC   C1A  546   0.590   6.355   7.050
   31POPC   D2A  547   0.598   6.330   6.750
   31POPC   C3A  548   0.635   6.370   6.450
   31POPC   C4A  549   0.582   6.321   6.150
   31POPC   C1B  550   0.246   6.454   7.050
   31POPC   C2B  551   0.216   6.487   6.750
   31POPC   C3B  552   0.283   6.454   6.450
   31POPC   C4B  553   0.294   6.451   6.150
   32POPC   NC3  554   2.665   1.718   7.950
   32POPC   PO4  555   2.645   1.762   7.650
   32POPC   GL1  556   2.716   1.714   7.350
   32POPC   GL2  557   2.673   1.968   7.350
   32POPC   C1A  558   2.678   1.766   7.050
   32POPC   D2A  559   2.706   1.714   6.750
   32POPC   C3A  560   2.689   1.794   6.450
   32POPC   C4A  561   2.688   1.793   6.150
   32POPC   C1B  562   2.618   2.105   7.050
   32POPC   C2B  563   2.637   2.093   6.750
   32POPC   C3B  564   2.608   2.061   6.450
   32POPC   C4B  565   2.672   2.053   6.150
   33POPC   NC3  566   9.271  10.246   7.950
   33POPC   PO4  567   9.281  10.258   7.650
   33POPC   GL1  568   9.329  10.300   7.350
   33POPC   GL2  569   9.413  10.220   7.350
   33POPC   C1A  570   9.311  10.250   7.050
   33POPC   D2A  571   9.303  10.252   6.750
   33POPC   C3A  572   9.327  10.274   6.450
   33POPC   C4A  573   9.267  10.237   6.150
   33POPC   C1B  574   9.560  10.053   7.050
   33POPC   C2B  575   9.567  10.037   6.750
   33POPC   C3B  576   9.559  10.054   6.450
   33POPC   C4B  577   9.563  10.062   6.150
   34POPC   NC3  578   9.510   8.486   7.950
   34POPC   PO4  579   9.434   8.458   7.650
   34POPC   GL1  580   9.437   8.523   7.350
   34POPC   GL2  581   9.431   8.650   7.350
   34POPC   C1A  582   9.509   8.530   7.050
   34POPC   D2A  583   9.437   8.498   6.750
   34POPC   C3A  584   9.505   8.478   6.450
   34POPC   C4A  585   9.482   8.545   6.150
   34POPC   C1B  586   9.385   8.829   7.050
   34POPC   C2B  587   9.364   8.826   6.750
   34POPC   C3B  588   9.372   8.858   6.450
   34POPC   C4B  589   9.385   8.828   6.150
   35POPC   NC3  590   5.772   2.479   7.950
   35POPC   PO4  591   5.772   2.495   7.650
   35POPC   GL1  592   5.724   2.491   7.350
   35POPC   GL2  593   5.645   2.714   7.350
   35POPC   C1A  594   5.752   2.482   7.050
   35POPC   D2A  595   5.718   2.463   6.750
   35POPC   C3A  596   5.712   2.527   6.450
   35POPC   C4A  597   5.688   2.543   6.150
   35POPC   C1B  598   5.608   2.806   7.050
   35POPC   C2B  599   5.606   2.860   6.750
   35POPC   C3B  600   5.578   2.825   6.450
   35POPC   C4B  601   5.618   2.858   6.150
   36POPC   NC3  602   7.337   4.200   7.950
   36POPC   PO4  603   7.352   4.159   7.650
   36POPC   GL1  604   7.395   4.140   7.350
   36POPC   GL2  605   7.143   4.191   7.350
   36POPC   C1A  606   7.324   4.160   7.050
   36POPC   D2A  607   7.330   4.163   6.750
   36POPC   C3A  608   7.300   4.176   6.450
   36POPC   C4A  609   7.318   4.130   6.150
   36POPC   C1B  610   6.968   4.171   7.050
   36POPC   C2B  611   6.994   4.217   6.750
   36POPC   C3B  612   7.049   4.203   6.450
   36POPC   C4B  613   6.995   4.210   6.150
   37POPC   NC3  614   2.867  10.289   7.950
   37POPC   PO4  615   2.819  10.298   7.650
   37POPC   GL1  616   2.852  10.206   7.350
   37POPC   GL2  617   2.718  10.163   7.350
   37POPC   C1A  618   2.857  10.219   7.050
   37POPC   D2A  619   2.851  10.222   6.750
   37POPC   C3A  620   2.791  10.217   6.450
   37POPC   C4A  621   2.815  10.228   6.150
   37POPC   C1B  622   2.494  10.104   7.050
   37POPC   C2B  623   2.508  10.127   6.750
   37POPC   C3B  624   2.513  10.108   6.450
   37POPC   C4B  625   2.516  10.056   6.150
   38POPC   NC3  626   1.124   0.612   7.950
   38POPC   PO4  627   1.106   0.639   7.650
   38POPC   GL1  628   1.133   0.627   7.350
   38POPC   GL2  629   1.182   0.403   7.350
   38POPC   C1A  630   1.121   0.576   7.050
   38POPC   D2A  631   1.114   0.558   6.750
   38POPC   C3A  632   1.128   0.565   6.450
   38POPC   C4A  633   1.087   0.622   6.150
   38POPC   C1B  634   1.269   0.215   7.050
   38POPC   C2B  635   1.266   0.251   6.750
   38POPC   C3B  636   1.260   0.256   6.450
   38POPC   C4B  637   1.230   0.233   6.150
   39POPC   NC3  638   4.080  10.073   7.950
   39POPC   PO4  639   4.054  10.002   7.650
   39POPC   GL1  640   4.055  10.028   7.350
   39POPC   GL2  641   4.126  10.176   7.350
   39POPC   C1A  642   4.086  10.082   7.050
   39POPC   D2A  643   4.085  10.015   6.750
   39POPC   C3A  644   4.100  10.063   6.450
   39POPC   C4A  645   4.023  10.089   6.150
   39POPC   C1B  646   4.328  10.284   7.050
   39POPC   C2B  647   4.283  10.322   6.750
   39POPC   C3B  648   4.244  10.331   6.450
   39POPC   C4B  649   4.245  10.342   6.150
   40POPC   NC3  650   8.493   1.840   7.950
   40POPC   PO4  651   8.561   1.845   7.650
   40POPC   GL1  652   8.488   1.819   7.350
   40POPC   GL2  653   8.719   1.901   7.350
   40POPC   C1A  654   8.475   1.797   7.050
   40POPC   D2A  655   8.558   1.875   6.750
   40POPC   C3A  656   8.536   1.852   6.450
   40POPC   C4A  657   8.529   1.845   6.150
   40POPC   C1B  658   8.859   1.997   7.050
   40POPC   C2B  659   8.842   1.964   6.750
   40POPC   C3B  660   8.821   1.994   6.450
   40POPC   C4B  661   8.849   1.996   6.150
   41POPC   NC3  662   3.541   4.026   7.950
   41POPC   PO4  663   3.580   4.046   7.650
   41POPC   GL1  664   3.563   4.051   7.350
   41POPC   GL2  665   3.428   4.181   7.350
   41POPC   C1A  666   3.554   4.035   7.050
   41POPC   D2A  667   3.536   4.098   6.750
   41POPC   C3A  668   3.524   4.122   6.450
   41POPC   C4A  669   3.554   4.085   6.150
   41POPC   C1B  670   3.325   4.318   7.050
   41POPC   C2B  671   3.283   4.312   6.750
   41POPC   C3B  672   3.257   4.270   6.450
   41POPC   C4B  673   3.245   4.294   6.150
   42POPC   NC3  674   4.033   1.259   7.950
   42POPC   PO4  675   4.024   1.241   7.650
   42POPC   GL1  676   4.037   1.180   7.350
   42POPC   GL2  677   4.126   1.190   7.350
   42POPC   C1A  678   4.038   1.268   7.050
   42POPC   D2A  679   4.041   1.249   6.750
   42POPC   C3A  680   3.981   1.180   6.450
   42POPC   C4A  681   3.991   1.188   6.150
   42POPC   C1B  682   4.323   1.173   7.050
   42POPC   C2B  683   4.323   1.179   6.750
   42POPC   C3B  684   4.366   1.150   6.450
   42POPC   C4B  685   4.353   1.140   6.150
   43POPC   NC3  686   2.080   8.667   7.950
   43POPC   PO4  687   2.095   8.577   7.650
   43POPC   GL1  688   2.135   8.647   7.350
   43POPC   GL2  689   1.944   8.708   7.350
   43POPC   C1A  690   2.093   8.614   7.050
   43POPC   D2A  691   2.084   8.615   6.750
   43POPC   C3A  692   2.058   8.618   6.450
   43POPC   C4A  693   2.055   8.665   6.150
   43POPC   C1B  694   1.755   8.729   7.050
   43POPC   C2B  695   1.790   8.759   6.750
   43POPC   C3B  696   1.754   8.761   6.450
   43POPC   C4B  697   1.767   8.764   6.150
   44POPC   NC3  698   0.539   5.064   7.950
   44POPC   PO4  699   0.575   5.110   7.650
   44POPC   GL1  700   0.496   5.068   7.350
   44POPC   GL2  701   0.470   4.885   7.350
   44POPC   C1A  702   0.530   5.078   7.050
   44POPC   D2A  703   0.517   5.040   6.750
   44POPC   C3A  704   0.547   5.049   6.450
   44POPC   C4A  705   0.496   5.068   6.150
   44POPC   C1B  706   0.357   4.749   7.050
   44POPC   C2B  707   0.350   4.798   6.750
   44POPC   C3B  708   0.308   4.830   6.450
   44POPC   C4B  709   0.339   4.758   6.150
   45POPC   NC3  710  10.116   4.786   7.950
   45POPC   PO4  711  10.169   4.718   7.650
   45POPC   GL1  712  10.180   4.753   7.350
   45POPC   GL2  713  10.207   4.910   7.350
   45POPC   C1A  714  10.175   4.739   7.050
   45POPC   D2A  715  10.140   4.722   6.750
   45POPC   C3A  716  10.120   4.722   6.450
   45POPC   C4A  717  10.149   4.778   6.150
   45POPC   C1B  718  10.209   5.109   7.050
   45POPC   C2B  719  10.153   5.061   6.750
   45POPC   C3B  720  10.186   5.102   6.450
   45POPC   C4B  721  10.154   5.063   6.150
   46POPC   NC3  722   8.078   0.522   7.950
   46POPC   PO4  723   8.105   0.564   7.650
   46POPC   GL1  724   8.100   0.493   7.350
   46POPC   GL2  725   7.879   0.453   7.350
   46POPC   C1A  726   8.101   0.517   7.050
   46POPC   D2A  727   8.091   0.565   6.750
   46POPC   C3A  728   8.087   0.565   6.450
   46POPC   C4A  729   8.067   0.546   6.150
   46POPC   C1B  730   7.776   0.272   7.050
   46POPC   C2B  731   7.844   0.317   6.750
   46POPC   C3B  732   7.800   0.288   6.450
   46POPC   C4B  733   7.797   0.304   6.150
   47POPC   NC3  734   7.973   5.486   7.950
   47POPC   PO4  735   7.987   5.503   7.650
   47POPC   GL1  736   7.929   5.488   7.350
   47POPC   GL2  737   7.881   5.632   7.350
   47POPC   C1A  738   7.935   5.499   7.050
   47POPC   D2A  739   7.937   5.489   6.750
   47POPC   C3A  740   7.938   5.539   6.450
   47POPC   C4A  741   7.933   5.519   6.150
   47POPC   C1B  742   7.913   5.833   7.050
   47POPC   C2B  743   7.909   5.839   6.750
   47POPC   C3B  744   7.900   5.877   6.450
   47POPC   C4B  745   7.904   5.835   6.150
   48POPC   NC3  746   8.815   0.534   7.950
   48POPC   PO4  747   8.828   0.534   7.650
   48POPC   GL1  748   8.797   0.525   7.350
   48POPC   GL2  749   8.711   0.422   7.350
   48POPC   C1A  750   8.783   0.498   7.050
   48POPC   D2A  751   8.864   0.517   6.750
   48POPC   C3A  752   8.879   0.470   6.450
   48POPC   C4A  753   8.860   0.496   6.150
   48POPC   C1B  754   8.509   0.368   7.050
   48POPC   C2B  755   8.551   0.350   6.750
   48POPC   C3B  756   8.543   0.368   6.450
   48POPC   C4B  757   8.518   0.308   6.150
   49POPC   NC3  758   2.751   7.015   7.950
   49POPC   PO4  759   2.697   7.030   7.650
   49POPC   GL1  760   2.765   7.053   7.350
   49POPC   GL2  761   2.636   7.203   7.350
   49POPC   C1A  762   2.701   7.035   7.050
   49POPC   D2A  763   2.724   6.967   6.750
   49POPC   C3A  764   2.787   6.992   6.450
   49POPC   C4A  765   2.734   6.969   6.150
   49POPC   C1B  766   2.649   7.299   7.050
   49POPC   C2B  767   2.644   7.358   6.750
   49POPC   C3B  768   2.641   7.350   6.450
   49POPC   C4B  769   2.651   7.295   6.150
   50POPC   NC3  770   5.061   8.815   7.950
   50POPC   PO4  771   5.109   8.796   7.650
   50POPC   GL1  772   5.049   8.754   7.350
   50POPC   GL2  773   4.959   8.678   7.350
   50POPC   C1A  774   5.015   8.821   7.050
   50POPC   D2A  775   5.090   8.801   6.750
   50POPC   C3A  776   5.104   8.734   6.450
   50POPC   C4A  777   5.104   8.813   6.150
   50POPC   C1B  778   4.774   8.530   7.050
   50POPC   C2B  779   4.809   8.536   6.750
   50POPC   C3B  780   4.834   8.550   6.450
   50POPC   C4B  781   4.763   8.583   6.150
   51POPC   NC3  782   5.525   1.871   7.950
   51POPC   PO4  783   5.519   1.937   7.650
   51POPC   GL1  784   5.507   1.934   7.350
   51POPC   GL2  785   5.685   1.899   7.350
   51POPC   C1A  786   5.462   1.910   7.050
   51POPC   D2A  787   5.511   1.864   6.750
   51POPC   C3A  788   5.491   1.929   6.450
   51POPC   C4A  789   5.492   1.882   6.150
   51POPC   C1B  790   5.882   1.940   7.050
   51POPC   C2B  791   5.835   1.918   6.750
   51POPC   C3B  792   5.834   1.969   6.450
   51POPC   C4B  793   5.801   1.951   6.150
   52POPC   NC3  794   0.546   1.838   7.950
   52POPC   PO4  795   0.553   1.796   7.650
   52POPC   GL1  796   0.532   1.777   7.350
   52POPC   GL2  797   0.415   1.965   7.350
   52POPC   C1A  798   0.595   1.761   7.050
   52POPC   D2A  799   0.549   1.750   6.750
   52POPC   C3A  800   0.567   1.762   6.450
   52POPC   C4A  801   0.522   1.793   6.150
   52POPC   C1B  802   0.310   2.043   7.050
   52POPC   C2B  803   0.279   2.040   6.750
   52POPC   C3B  804   0.264   2.099   6.450
   52POPC   C4B  805   0.286   2.012   6.150
   53POPC   NC3  806   6.403   0.995   7.950
   53POPC   PO4  807   6.444   0.995   7.650
   53POPC   GL1  808   6.379   0.997   7.350
   53POPC   GL2  809   6.466   1.201   7.350
   53POPC   C1A  810   6.433   1.037   7.050
   53POPC   D2A  811   6.425   0.956   6.750
   53POPC   C3A  812   6.406   0.961   6.450
   53POPC   C4A  813   6.414   1.049   6.150
   53POPC   C1B  814   6.472   1.329   7.050
   53POPC   C2B  815   6.481   1.333   6.750
   53POPC   C3B  816   6.405   1.300   6.450
   53POPC   C4B  817   6.440   1.367   6.150
   54POPC   NC3  818   1.354   2.047   7.950
   54POPC   PO4  819   1.303   2.042   7.650
   54POPC   GL1  820   1.357   2.041   7.350
   54POPC   GL2  821   1.159   1.968   7.350
   54POPC   C1A  822   1.338   2.023   7.050
   54POPC   D2A  823   1.307   2.000   6.750
   54POPC   C3A  824   1.314   1.980   6.450
   54POPC   C4A  825   1.312   2.013   6.150
   54POPC   C1B  826   1.056   1.828   7.050
   54POPC   C2B  827   0.992   1.804   6.750
   54POPC   C3B  828   1.033   1.857   6.450
   54POPC   C4B  829   1.023   1.790   6.150
   55POPC   NC3  830   2.846   4.119   7.950
   55POPC   PO4  831   2.842   4.054   7.650
   55POPC   GL1  832   2.812   4.071   7.350
   55POPC   GL2  833   2.717   4.211   7.350
   55POPC   C1A  834   2.830   4.091   7.050
   55POPC   D2A  835   2.831   4.129   6.750
   55POPC   C3A  836   2.867   4.113   6.450
   55POPC   C4A  837   2.805   4.057   6.150
   55POPC   C1B  838   2.550   4.310   7.050
   55POPC   C2B  839   2.476   4.310   6.750
   55POPC   C3B  840   2.539   4.263   6.450
   55POPC   C4B  841   2.501   4.238   6.150
   56POPC   NC3  842   8.801   7.918   7.950
   56POPC   PO4  843   8.812   7.912   7.650
   56POPC   GL1  844   8.797   7.883   7.350
   56POPC   GL2  845   8.685   7.886   7.350
   56POPC   C1A  846   8.803   7.824   7.050
   56POPC   D2A  847   8.823   7.863   6.750
   56POPC   C3A  848   8.864   7.845   6.450
   56POPC   C4A  849   8.846   7.878   6.150
   56POPC   C1B  850   8.482   7.942   7.050
   56POPC   C2B  851   8.477   7.943   6.750
   56POPC   C3B  852   8.526   7.943   6.450
   56POPC   C4B  853   8.543   7.932   6.150
   57POPC   NC3  854  10.161  10.379   7.950
   57POPC   PO4  855  10.194  10.359   7.650
   57POPC   GL1  856  10.223  10.379   7.350
   57POPC   GL2  857  10.204  10.146   7.350
   57POPC   C1A  858  10.237  10.298   7.050
   57POPC   D2A  859  10.245  10.378   6.750
   57POPC   C3A  860  10.174  10.393   6.450
   57POPC   C4A  861  10.225  10.330   6.150
   57POPC   C1B  862  10.105   9.997   7.050
   57POPC   C2B  863  10.182  10.012   6.750
   57POPC   C3B  864  10.153  10.042   6.450
   57POPC   C4B  865  10.130  10.034   6.150
   58POPC   NC3  866   1.230   4.329   7.950
   58POPC   PO4  867   1.255   4.320   7.650
   58POPC   GL1  868   1.258   4.324   7.350
   58POPC   GL2  869   1.196   4.210   7.350
   58POPC   C1A  870   1.249   4.335   7.050
   58POPC   D2A  871   1.232   4.361   6.750
   58POPC   C3A  872   1.212   4.331   6.450
   58POPC   C4A  873   1.300   4.327   6.150
   58POPC   C1B  874   1.133   3.981   7.050
   58POPC   C2B  875   1.129   4.058   6.750
   58POPC   C3B  876   1.080   3.998   6.450
   58POPC   C4B  877   1.121   4.048   6.150
   59POPC   NC3  878   1.975   0.287   7.950
   59POPC   PO4  879   1.959   0.277   7.650
   59POPC   GL1  880   1.978   0.275   7.350
   59POPC   GL2  881   1.876   0.377   7.350
   59POPC   C1A  882   1.950   0.301   7.050
   59POPC   D2A  883   1.953   0.290   6.750
   59POPC   C3A  884   2.019   0.278   6.450
   59POPC   C4A  885   1.942   0.228   6.150
   59POPC   C1B  886   1.870   0.569   7.050
   59POPC   C2B  887   1.868   0.579   6.750
   59POPC   C3B  888   1.853   0.546   6.450
   59POPC   C4B  889   1.900   0.538   6.150
   60POPC   NC3  890   7.216   0.551   7.950
   60POPC   PO4  891   7.235   0.616   7.650
   60POPC   GL1  892   7.212   0.540   7.350
   60POPC   GL2  893   7.222   0.462   7.350
   60POPC   C1A  894   7.276   0.585   7.050
   60POPC   D2A  895   7.227   0.600   6.750
   60POPC   C3A  896   7.206   0.561   6.450
   60POPC   C4A  897   7.270   0.591   6.150
   60POPC   C1B  898   7.141   0.235   7.050
   60POPC   C2B  899   7.055   0.307   6.750
   60POPC   C3B  900   7.104   0.283   6.450
   60POPC   C4B  901   7.143   0.304   6.150
   61POPC   NC3  902   7.040   2.831   7.950
   61POPC   PO4  903   7.104   2.777   7.650
   61POPC   GL1  904   7.101   2.807   7.350
   61POPC   GL2  905   7.148   2.697   7.350
   61POPC   C1A  906   7.098   2.791   7.050
   61POPC   D2A  907   7.045   2.801   6.750
   61POPC   C3A  908   7.089   2.805   6.450
   61POPC   C4A  909   7.026   2.838   6.150
   61POPC   C1B  910   7.248   2.490   7.050
   61POPC   C2B  911   7.293   2.549   6.750
   61POPC   C3B  912   7.257   2.588   6.450
   61POPC   C4B  913   7.292   2.494   6.150
   62POPC   NC3  914   7.174  10.023   7.950
   62POPC   PO4  915   7.174   9.955   7.650
   62POPC   GL1  916   7.181  10.052   7.350
   62POPC   GL2  917   7.206  10.216   7.350
   62POPC   C1A  918   7.116   9.996   7.050
   62POPC   D2A  919   7.151  10.012   6.750
   62POPC   C3A  920   7.133   9.957   6.450
   62POPC   C4A  921   7.168  10.054   6.150
   62POPC   C1B  922   7.253  10.312   7.050
   62POPC   C2B  923   7.182  10.394   6.750
   62POPC   C3B  924   7.253  10.379   6.450
   62POPC   C4B  925   7.214  10.375   6.150
   63POPC   NC3  926  10.075   1.064   7.950
   63POPC   PO4  927  10.076   1.014   7.650
   63POPC   GL1  928  10.022   1.032   7.350
   63POPC   GL2  929  10.174   1.209   7.350
   63POPC   C1A  930   9.994   1.029   7.050
   63POPC   D2A  931  10.068   1.023   6.750
   63POPC   C3A  932   9.999   1.054   6.450
   63POPC   C4A  933  10.008   1.021   6.150
   63POPC   C1B  934  10.321   1.320   7.050
   63POPC   C2B  935  10.284   1.326   6.750
   63POPC   C3B  936  10.281   1.322   6.450
   63POPC   C4B  937  10.286   1.295   6.150
   64POPC   NC3  938   8.615   7.299   7.950
   64POPC   PO4  939   8.672   7.303   7.650
   64POPC   GL1  940   8.633   7.356   7.350
   64POPC   GL2  941   8.631   7.131   7.350
   64POPC   C1A  942   8.627   7.302   7.050
   64POPC   D2A  943   8.705   7.318   6.750
   64POPC   C3A  944   8.667   7.366   6.450
   64POPC   C4A  945   8.612   7.373   6.150
   64POPC   C1B  946   8.639   7.002   7.050
   64POPC   C2B  947   8.646   7.018   6.750
   64POPC   C3B  948   8.735   6.979   6.450
   64POPC   C4B  949   8.680   6.954   6.150
   65POPC   NC3  950   8.588   4.003   7.950
   65POPC   PO4  951   8.562   4.029   7.650
   65POPC   GL1  952   8.571   3.995   7.350
   65POPC   GL2  953   8.690   4.135   7.350
   65POPC   C1A  954   8.602   4.070   7.050
   65POPC   D2A  955   8.625   3.980   6.750
   65POPC   C3A  956   8.628   4.070   6.450
   65POPC   C4A  957   8.599   3.998   6.150
   65POPC   C1B  958   8.752   4.310   7.050
   65POPC   C2B  959   8.784   4.312   6.750
   65POPC   C3B  960   8.724   4.361   6.450
   65POPC   C4B  961   8.741   4.357   6.150
   66POPC   NC3  962   9.250   7.247   7.950
   66POPC   PO4  963   9.300   7.176   7.650
   66POPC   GL1  964   9.280   7.173   7.350
   66POPC   GL2  965   9.397   7.149   7.350
   66POPC   C1A  966   9.236   7.257   7.050
   66POPC   D2A  967   9.286   7.257   6.750
   66POPC   C3A  968   9.276   7.199   6.450
   66POPC   C4A  969   9.299   7.186   6.150
   66POPC   C1B  970   9.548   7.159   7.050
   66POPC   C2B  971   9.567   7.084   6.750
   66POPC   C3B  972   9.590   7.168   6.450
   66POPC   C4B  973   9.604   7.115   6.150
   67POPC   NC3  974  10.312   7.826   7.950
   67POPC   PO4  975  10.339   7.878   7.650
   67POPC   GL1  976  10.319   7.853   7.350
   67POPC   GL2  977  10.162   7.970   7.350
   67POPC   C1A  978  10.336   7.824   7.050
   67POPC   D2A  979  10.277   7.801   6.750
   67POPC   C3A  980  10.333   7.787   6.450
   67POPC   C4A  981  10.338   7.823   6.150
   67POPC   C1B  982  10.011   8.062   7.050
   67POPC   C2B  983   9.985   8.035   6.750
   67POPC   C3B  984   9.986   8.019   6.450
   67POPC   C4B  985  10.026   8.016   6.150
   68POPC   NC3  986   1.126   3.265   7.950
   68POPC   PO4  987   1.109   3.216   7.650
   68POPC   GL1  988   1.165   3.248   7.350
   68POPC   GL2  989   1.198   3.437   7.350
   68POPC   C1A  990   1.120   3.299   7.050
   68POPC   D2A  991   1.195   3.233   6.750
   68POPC   C3A  992   1.162   3.298   6.450
   68POPC   C4A  993   1.164   3.297   6.150
   68POPC   C1B  994   1.207   3.583   7.050
   68POPC   C2B  995   1.223   3.593   6.750
   68POPC   C3B  996   1.200   3.580   6.450
   68POPC   C4B  997   1.241   3.596   6.150
   69POPC   NC3  998  10.109   3.279   7.950
   69POPC   PO4  999  10.070   3.274   7.650
   69POPC   GL1 1000  10.119   3.284   7.350
   69POPC   GL2 1001  10.214   3.387   7.350
   69POPC   C1A 1002  10.087   3.224   7.050
   69POPC   D2A 1003  10.088   3.258   6.750
   69POPC   C3A 1004  10.117   3.249   6.450
   69POPC   C4A 1005  10.061   3.291   6.150
   69POPC   C1B 1006  10.298   3.558   7.050
   69POPC   C2B 1007  10.233   3.570   6.750
   69POPC   C3B 1008  10.219   3.560   6.450
   69POPC   C4B 1009  10.264   3.607   6.150
   70POPC   NC3 1010   7.243   7.750   7.950
   70POPC   PO4 1011   7.241   7.788   7.650
   70POPC   GL1 1012   7.211   7.769   7.350
   70POPC   GL2 1013   7.169   7.967   7.350
   70POPC   C1A 1014   7.218   7.792   7.050
   70POPC   D2A 1015   7.269   7.721   6.750
   70POPC   C3A 1016   7.263   7.774   6.450
   70POPC   C4A 1017   7.212   7.734   6.150
   70POPC   C1B 1018   7.065   8.055   7.050
   70POPC   C2B 1019   7.154   8.054   6.750
   70POPC   C3B 1020   7.088   8.114   6.450
   70POPC   C4B 1021   7.087   8.071   6.150
   71POPC   NC3 1022   2.811   6.379   7.950
   71POPC   PO4 1023   2.810   6.339   7.650
   71POPC   GL1 1024   2.787   6.342   7.350
   71POPC   GL2 1025   2.707   6.462   7.350
   71POPC   C1A 1026   2.820   6.377   7.050
   71POPC   D2A 1027   2.800   6.364   6.750
   71POPC   C3A 1028   2.826   6.382   6.450
   71POPC   C4A 1029   2.852   6.341   6.150
   71POPC   C1B 1030   2.498   6.466   7.050
   71POPC   C2B 1031   2.538   6.530   6.750
   71POPC   C3B 1032   2.515   6.552   6.450
   71POPC   C4B 1033   2.559   6.484   6.150
   72POPC   NC3 1034   8.022   3.980   7.950
   72POPC   PO4 1035   7.961   3.965   7.650
   72POPC   GL1 1036   7.947   4.051   7.350
   72POPC   GL2 1037   7.912   4.137   7.350
   72POPC   C1A 1038   8.002   3.994   7.050
   72POPC   D2A 1039   7.935   4.009   6.750
   72POPC   C3A 1040   8.004   4.051   6.450
   72POPC   C4A 1041   7.959   4.009   6.150
   72POPC   C1B 1042   7.823   4.336   7.050
   72POPC   C2B 1043   7.913   4.315   6.750
   72POPC   C3B 1044   7.828   4.373   6.450
   72POPC   C4B 1045   7.822   4.296   6.150
   73POPC   NC3 1046   0.400   0.203   7.950
   73POPC   PO4 1047   0.454   0.269   7.650
   73POPC   GL1 1048   0.473   0.235   7.350
   73POPC   GL2 1049   0.433   0.417   7.350
   73POPC   C1A 1050   0.434   0.279   7.050
   73POPC   D2A 1051   0.424   0.292   6.750
   73POPC   C3A 1052   0.420   0.253   6.450
   73POPC   C4A 1053   0.425   0.205   6.150
   73POPC   C1B 1054   0.384   0.582   7.050
   73POPC   C2B 1055   0.472   0.579   6.750
   73POPC   C3B 1056   0.441   0.632   6.450
   73POPC   C4B 1057   0.404   0.578   6.150
   74POPC   NC3 1058   0.318   4.027   7.950
   74POPC   PO4 1059   0.290   3.976   7.650
   74POPC   GL1 1060   0.315   4.007   7.350
   74POPC   GL2 1061   0.394   4.137   7.350
   74POPC   C1A 1062   0.354   4.053   7.050
   74POPC   D2A 1063   0.349   4.031   6.750
   74POPC   C3A 1064   0.347   4.033   6.450
   74POPC   C4A 1065   0.329   3.995   6.150
   74POPC   C1B 1066   0.524   4.345   7.050
   74POPC   C2B 1067   0.462   4.288   6.750
   74POPC   C3B 1068   0.489   4.354   6.450
   74POPC   C4B 1069   0.505   4.317   6.150
   75POPC   NC3 1070   3.957   0.383   7.950
   75POPC   PO4 1071   3.986   0.391   7.650
   75POPC   GL1 1072   4.015   0.408   7.350
   75POPC   GL2 1073   4.157   0.430   7.350
   75POPC   C1A 1074   4.030   0.393   7.050
   75POPC   D2A 1075   3.964   0.434   6.750
   75POPC   C3A 1076   4.043   0.409   6.450
   75POPC   C4A 1077   4.045   0.428   6.150
   75POPC   C1B 1078   4.326   0.400   7.050
   75POPC   C2B 1079   4.350   0.404   6.750
   75POPC   C3B 1080   4.304   0.423   6.450
   75POPC   C4B 1081   4.327   0.414   6.150
   76POPC   NC3 1082   5.014   9.262   7.950
   76POPC   PO4 1083   4.976   9.251   7.650
   76POPC   GL1 1084   4.967   9.273   7.350
   76POPC   GL2 1085   4.923   9.405   7.350
   76POPC   C1A 1086   5.021   9.239   7.050
   76POPC   D2A 1087   4.961   9.297   6.750
   76POPC   C3A 1088   5.052   9.253   6.450
   76POPC   C4A 1089   5.057   9.277   6.150
   76POPC   C1B 1090   4.878   9.611   7.050
   76POPC   C2B 1091   4.820   9.609   6.750
   76POPC   C3B 1092   4.816   9.592   6.450
   76POPC   C4B 1093   4.850   9.541   6.150
   77POPC   NC3 1094   2.800   5.059   7.950
   77POPC   PO4 1095   2.787   5.033   7.650
   77POPC   GL1 1096   2.841   5.051   7.350
   77POPC   GL2 1097   2.702   4.922   7.350
   77POPC   C1A 1098   2.796   5.014   7.050
   77POPC   D2A 1099   2.863   5.048   6.750
   77POPC   C3A 1100   2.790   4.982   6.450
   77POPC   C4A 1101   2.822   4.995   6.150
   77POPC   C1B 1102   2.501   4.819   7.050
   77POPC   C2B 1103   2.486   4.849   6.750
   77POPC   C3B 1104   2.538   4.860   6.450
   77POPC   C4B 1105   2.527   4.855   6.150
   78POPC   NC3 1106   8.841   8.664   7.950
   78POPC   PO4 1107   8.853   8.655   7.650
   78POPC   GL1 1108   8.826   8.601   7.350
   78POPC   GL2 1109   8.636   8.661   7.350
   78POPC   C1A 1110   8.825   8.668   7.050
   78POPC   D2A 1111   8.874   8.625   6.750
   78POPC   C3A 1112   8.872   8.663   6.450
   78POPC   C4A 1113   8.827   8.618   6.150
   78POPC   C1B 1114   8.471   8.687   7.050
   78POPC   C2B 1115   8.460   8.707   6.750
   78POPC   C3B 1116   8.517   8.702   6.450
   78POPC   C4B 1117   8.486   8.703   6.150
   79POPC   NC3 1118   5.093   0.362   7.950
   79POPC   PO4 1119   5.019   0.359   7.650
   79POPC   GL1 1120   5.022   0.322   7.350
   79POPC   GL2 1121   4.923   0.474   7.350
   79POPC   C1A 1122   5.082   0.339   7.050
   79POPC   D2A 1123   5.092   0.286   6.750
   79POPC   C3A 1124   5.059   0.339   6.450
   79POPC   C4A 1125   5.103   0.288   6.150
   79POPC   C1B 1126   4.816   0.529   7.050
   79POPC   C2B 1127   4.750   0.545   6.750
   79POPC   C3B 1128   4.772   0.498   6.450
   79POPC   C4B 1129   4.739   0.573   6.150
   80POPC   NC3 1130   9.533   5.795   7.950
   80POPC   PO4 1131   9.504   5.822   7.650
   80POPC   GL1 1132   9.514   5.758   7.350
   80POPC   GL2 1133   9.397   5.720   7.350
   80POPC   C1A 1134   9.585   5.750   7.050
   80POPC   D2A 1135   9.522   5.792   6.750
   80POPC   C3A 1136   9.575   5.796   6.450
   80POPC   C4A 1137   9.501   5.828   6.150
   80POPC   C1B 1138   9.288   5.561   7.050
   80POPC   C2B 1139   9.305   5.502   6.750
   80POPC   C3B 1140   9.276   5.566   6.450
   80POPC   C4B 1141   9.352   5.504   6.150
   81POPC   NC3 1142   4.362   2.656   7.950
   81POPC   PO4 1143   4.317   2.611   7.650
   81POPC   GL1 1144   4.324   2.666   7.350
   81POPC   GL2 1145   4.126   2.722   7.350
   81POPC   C1A 1146   4.291   2.600   7.050
   81POPC   D2A 1147   4.386   2.599   6.750
   81POPC   C3A 1148   4.294   2.654   6.450
   81POPC   C4A 1149   4.310   2.624   6.150
   81POPC   C1B 1150   4.052   2.687   7.050
   81POPC   C2B 1151   3.985   2.747   6.750
   81POPC   C3B 1152   3.970   2.736   6.450
   81POPC   C4B 1153   3.962   2.728   6.150
   82POPC   NC3 1154   7.213   6.633   7.950
   82POPC   PO4 1155   7.202   6.636   7.650
   82POPC   GL1 1156   7.195   6.567   7.350
   82POPC   GL2 1157   7.158   6.390   7.350
   82POPC   C1A 1158   7.215   6.590   7.050
   82POPC   D2A 1159   7.195   6.618   6.750
   82POPC   C3A 1160   7.225   6.581   6.450
   82POPC   C4A 1161   7.177   6.642   6.150
   82POPC   C1B 1162   7.190   6.232   7.050
   82POPC   C2B 1163   7.165   6.226   6.750
   82POPC   C3B 1164   7.112   6.248   6.450
   82POPC   C4B 1165   7.179   6.270   6.150
   83POPC   NC3 1166   1.168   5.857   7.950
   83POPC   PO4 1167   1.261   5.888   7.650
   83POPC   GL1 1168   1.243   5.853   7.350
   83POPC   GL2 1169   1.204   5.705   7.350
   83POPC   C1A 1170   1.220   5.819   7.050
   83POPC   D2A 1171   1.186   5.891   6.750
   83POPC   C3A 1172   1.232   5.874   6.450
   83POPC   C4A 1173   1.252   5.812   6.150
   83POPC   C1B 1174   1.158   5.475   7.050
   83POPC   C2B 1175   1.137   5.520   6.750
   83POPC   C3B 1176   1.100   5.528   6.450
   83POPC   C4B 1177   1.137   5.480   6.150
   84POPC   NC3 1178   3.353  10.044   7.950
   84POPC   PO4 1179   3.313  10.016   7.650
   84POPC   GL1 1180   3.357  10.006   7.350
   84POPC   GL2 1181   3.460  10.190   7.350
   84POPC   C1A 1182   3.396  10.014   7.050
   84POPC   D2A 1183   3.406  10.045   6.750
   84POPC   C3A 1184   3.313  10.036   6.450
   84POPC   C4A 1185   3.315  10.061   6.150
   84POPC   C1B 1186   3.447  10.342   7.050
   84POPC   C2B 1187   3.462  10.300   6.750
   84POPC   C3B 1188   3.533  10.351   6.450
   84POPC   C4B 1189   3.495  10.315   6.150
   85POPC   NC3 1190   0.548   8.556   7.950
   85POPC   PO4 1191   0.610   8.600   7.650
   85POPC   GL1 1192   0.566   8.536   7.350
   85POPC   GL2 1193   0.445   8.631   7.350
   85POPC   C1A 1194   0.595   8.574   7.050
   85POPC   D2A 1195   0.552   8.580   6.750
   85POPC   C3A 1196   0.573   8.621   6.450
   85POPC   C4A 1197   0.605   8.607   6.150
   85POPC   C1B 1198   0.327   8.729   7.050
   85POPC   C2B 1199   0.321   8.798   6.750
   85POPC   C3B 1200   0.233   8.762   6.450
   85POPC   C4B 1201   0.244   8.742   6.150
   86POPC   NC3 1202   1.283   6.568   7.950
   86POPC   PO4 1203   1.275   6.594   7.650
   86POPC   GL1 1204   1.275   6.585   7.350
   86POPC   GL2 1205   1.171   6.440   7.350
   86POPC   C1A 1206   1.292   6.606   7.050
   86POPC   D2A 1207   1.242   6.537   6.750
   86POPC   C3A 1208   1.301   6.549   6.450
   86POPC   C4A 1209   1.267   6.574   6.150
   86POPC   C1B 1210   1.053   6.243   7.050
   86POPC   C2B 1211   1.064   6.282   6.750
   86POPC   C3B 1212   1.059   6.284   6.450
   86POPC   C4B 1213   1.121   6.289   6.150
   87POPC   NC3 1214  10.145   4.378   7.950
   87POPC   PO4 1215  10.133   4.368   7.650
   87POPC   GL1 1216  10.062   4.340   7.350
   87POPC   GL2 1217  10.188   4.192   7.350
   87POPC   C1A 1218  10.062   4.300   7.050
   87POPC   D2A 1219  10.129   4.353   6.750
   87POPC   C3A 1220  10.060   4.346   6.450
   87POPC   C4A 1221  10.109   4.355   6.150
   87POPC   C1B 1222  10.295   4.011   7.050
   87POPC   C2B 1223  10.206   4.058   6.750
   87POPC   C3B 1224  10.212   4.015   6.450
   87POPC   C4B 1225  10.286   3.982   6.150
   88POPC   NC3 1226   1.803   5.521   7.950
   88POPC   PO4 1227   1.847   5.518   7.650
   88POPC   GL1 1228   1.883   5.550   7.350
   88POPC   GL2 1229   1.933   5.692   7.350
   88POPC   C1A 1230   1.830   5.531   7.050
   88POPC   D2A 1231   1.876   5.505   6.750
   88POPC   C3A 1232   1.853   5.557   6.450
   88POPC   C4A 1233   1.876   5.524   6.150
   88POPC   C1B 1234   1.956   5.878   7.050
   88POPC   C2B 1235   1.962   5.847   6.750
   88POPC   C3B 1236   1.956   5.791   6.450
   88POPC   C4B 1237   1.998   5.796   6.150
   89POPC   NC3 1238   8.588   3.295   7.950
   89POPC   PO4 1239   8.554   3.297   7.650
   89POPC   GL1 1240   8.549   3.291   7.350
   89POPC   GL2 1241   8.657   3.430   7.350
   89POPC   C1A 1242   8.566   3.318   7.050
   89POPC   D2A 1243   8.582   3.327   6.750
   89POPC   C3A 1244   8.555   3.317   6.450
   89POPC   C4A 1245   8.545   3.329   6.150
   89POPC   C1B 1246   8.788   3.574   7.050
   89POPC   C2B 1247   8.798   3.502   6.750
   89POPC   C3B 1248   8.780   3.546   6.450
   89POPC   C4B 1249   8.782   3.506   6.150
   90POPC   NC3 1250   9.323   4.289   7.950
   90POPC   PO4 1251   9.281   4.244   7.650
   90POPC   GL1 1252   9.234   4.277   7.350
   90POPC   GL2 1253   9.425   4.133   7.350
   90POPC   C1A 1254   9.254   4.297   7.050
   90POPC   D2A 1255   9.259   4.243   6.750
   90POPC   C3A 1256   9.300   4.281   6.450
   90POPC   C4A 1257   9.230   4.238   6.150
   90POPC   C1B 1258   9.545   4.095   7.050
   90POPC   C2B 1259   9.549   4.088   6.750
   90POPC   C3B 1260   9.615   4.080   6.450
   90POPC   C4B 1261   9.533   4.128   6.150
   91POPC   NC3 1262   6.421   6.979   7.950
   91POPC   PO4 1263   6.517   7.046   7.650
   91POPC   GL1 1264   6.493   6.997   7.350
   91POPC   GL2 1265   6.419   7.195   7.350
   91POPC   C1A 1266   6.482   7.036   7.050
   91POPC   D2A 1267   6.483   7.045   6.750
   91POPC   C3A 1268   6.492   7.056   6.450
   91POPC   C4A 1269   6.424   7.037   6.150
   91POPC   C1B 1270   6.391   7.332   7.050
   91POPC   C2B 1271   6.348   7.345   6.750
   91POPC   C3B 1272   6.373   7.319   6.450
   91POPC   C4B 1273   6.335   7.331   6.150
   92POPC   NC3 1274   0.403   0.981   7.950
   92POPC   PO4 1275   0.395   1.045   7.650
   92POPC   GL1 1276   0.399   1.039   7.350
   92POPC   GL2 1277   0.399   1.179   7.350
   92POPC   C1A 1278   0.333   1.026   7.050
   92POPC   D2A 1279   0.396   0.998   6.750
   92POPC   C3A 1280   0.416   0.996   6.450
   92POPC   C4A 1281   0.360   1.036   6.150
   92POPC   C1B 1282   0.516   1.342   7.050
   92POPC   C2B 1283   0.443   1.390   6.750
   92POPC   C3B 1284   0.460   1.319   6.450
   92POPC   C4B 1285   0.465   1.351   6.150
   93POPC   NC3 1286   9.267   6.364   7.950
   93POPC   PO4 1287   9.235   6.424   7.650
   93POPC   GL1 1288   9.222   6.378   7.350
   93POPC   GL2 1289   9.407   6.399   7.350
   93POPC   C1A 1290   9.285   6.427   7.050
   93POPC   D2A 1291   9.286   6.447   6.750
   93POPC   C3A 1292   9.205   6.443   6.450
   93POPC   C4A 1293   9.265   6.433   6.150
   93POPC   C1B 1294   9.550   6.466   7.050
   93POPC   C2B 1295   9.613   6.439   6.750
   93POPC   C3B 1296   9.587   6.417   6.450
   93POPC   C4B 1297   9.593   6.457   6.150
   94POPC   NC3 1298   9.228   0.454   7.950
   94POPC   PO4 1299   9.228   0.429   7.650
   94POPC   GL1 1300   9.237   0.407   7.350
   94POPC   GL2 1301   9.384   0.448   7.350
   94POPC   C1A 1302   9.238   0.447   7.050
   94POPC   D2A 1303   9.212   0.468   6.750
   94POPC   C3A 1304   9.202   0.416   6.450
   94POPC   C4A 1305   9.297   0.470   6.150
   94POPC   C1B 1306   9.592   0.448   7.050
   94POPC   C2B 1307   9.634   0.449   6.750
   94POPC   C3B 1308   9.609   0.403   6.450
   94POPC   C4B 1309   9.595   0.386   6.150
   95POPC   NC3 1310   7.373   7.189   7.950
   95POPC   PO4 1311   7.316   7.244   7.650
   95POPC   GL1 1312   7.319   7.279   7.350
   95POPC   GL2 1313   7.184   7.215   7.350
   95POPC   C1A 1314   7.307   7.217   7.050
   95POPC   D2A 1315   7.369   7.270   6.750
   95POPC   C3A 1316   7.384   7.238   6.450
   95POPC   C4A 1317   7.316   7.271   6.150
   95POPC   C1B 1318   7.059   7.083   7.050
   95POPC   C2B 1319   7.046   7.123   6.750
   95POPC   C3B 1320   7.018   7.151   6.450
   95POPC   C4B 1321   7.043   7.080   6.150
   96POPC   NC3 1322   8.008   1.774   7.950
   96POPC   PO4 1323   7.996   1.799   7.650
   96POPC   GL1 1324   7.993   1.734   7.350
   96POPC   GL2 1325   7.906   1.888   7.350
   96POPC   C1A 1326   8.011   1.831   7.050
   96POPC   D2A 1327   8.038   1.801   6.750
   96POPC   C3A 1328   8.006   1.830   6.450
   96POPC   C4A 1329   8.076   1.791   6.150
   96POPC   C1B 1330   7.790   2.075   7.050
   96POPC   C2B 1331   7.843   2.035   6.750
   96POPC   C3B 1332   7.843   2.030   6.450
   96POPC   C4B 1333   7.870   2.021   6.150
   97POPC   NC3 1334   7.276   9.297   7.950
   97POPC   PO4 1335   7.365   9.377   7.650
   97POPC   GL1 1336   7.335   9.325   7.350
   97POPC   GL2 1337   7.172   9.399   7.350
   97POPC   C1A 1338   7.364   9.378   7.050
   97POPC   D2A 1339   7.351   9.294   6.750
   97POPC   C3A 1340   7.332   9.304   6.450
   97POPC   C4A 1341   7.367   9.282   6.150
   97POPC   C1B 1342   7.068   9.502   7.050
   97POPC   C2B 1343   6.993   9.515   6.750
   97POPC   C3B 1344   6.992   9.564   6.450
   97POPC   C4B 1345   7.001   9.559   6.150
   98POPC   NC3 1346   7.213   1.311   7.950
   98POPC   PO4 1347   7.297   1.346   7.650
   98POPC   GL1 1348   7.260   1.286   7.350
   98POPC   GL2 1349   7.188   1.185   7.350
   98POPC   C1A 1350   7.263   1.295   7.050
   98POPC   D2A 1351   7.251   1.291   6.750
   98POPC   C3A 1352   7.283   1.367   6.450
   98POPC   C4A 1353   7.281   1.311   6.150
   98POPC   C1B 1354   7.123   1.059   7.050
   98POPC   C2B 1355   7.083   0.994   6.750
   98POPC   C3B 1356   7.124   1.034   6.450
   98POPC   C4B 1357   7.076   1.041   6.150
   99POPC   NC3 1358   2.831   1.126   7.950
   99POPC   PO4 1359   2.799   1.063   7.650
   99POPC   GL1 1360   2.811   1.102   7.350
   99POPC   GL2 1361   2.627   1.182   7.350
   99POPC   C1A 1362   2.805   1.140   7.050
   99POPC   D2A 1363   2.821   1.053   6.750
   99POPC   C3A 1364   2.800   1.112   6.450
   99POPC   C4A 1365   2.809   1.074   6.150
   99POPC   C1B 1366   2.527   1.230   7.050
   99POPC   C2B 1367   2.545   1.295   6.750
   99POPC   C3B 1368   2.565   1.231   6.450
   99POPC   C4B 1369   2.545   1.225   6.150
  100POPC   NC3 1370   0.504   9.261   7.950
  100POPC   PO4 1371   0.518   9.293   7.650
  100POPC   GL1 1372   0.491   9.297   7.350
  100POPC   GL2 1373   0.440   9.398   7.350
  100POPC   C1A 1374   0.465   9.285   7.050
  100POPC   D2A 1375   0.427   9.227   6.750
  100POPC   C3A 1376   0.466   9.298   6.450
  100POPC   C4A 1377   0.478   9.304   6.150
  100POPC   C1B 1378   0.410   9.544   7.050
  100POPC   C2B 1379   0.396   9.623   6.750
  100POPC   C3B 1380   0.401   9.587   6.450
  100POPC   C4B 1381   0.381   9.591   6.150
  101POPC   NC3 1382   5.520   9.268   7.950
  101POPC   PO4 1383   5.546   9.341   7.650
  101POPC   GL1 1384   5.538   9.359   7.350
  101POPC   GL2 1385   5.714   9.461   7.350
  101POPC   C1A 1386   5.504   9.333   7.050
  101POPC   D2A 1387   5.552   9.306   6.750
  101POPC   C3A 1388   5.556   9.301   6.450
  101POPC   C4A 1389   5.583   9.330   6.150
  101POPC   C1B 1390   5.806   9.537   7.050
  101POPC   C2B 1391   5.802   9.529   6.750
  101POPC   C3B 1392   5.799   9.519   6.450
  101POPC   C4B 1393   5.800   9.547   6.150
  102POPC   NC3 1394   3.359   2.844   7.950
  102POPC   PO4 1395   3.347   2.819   7.650
  102POPC   GL1 1396   3.313   2.767   7.350
  102POPC   GL2 1397   3.394   2.635   7.350
  102POPC   C1A 1398   3.290   2.794   7.050
  102POPC   D2A 1399   3.271   2.770   6.750
  102POPC   C3A 1400   3.280   2.783   6.450
  102POPC   C4A 1401   3.363   2.819   6.150
  102POPC   C1B 1402   3.516   2.505   7.050
  102POPC   C2B 1403   3.568   2.537   6.750
  102POPC   C3B 1404   3.576   2.489   6.450
  102POPC   C4B 1405   3.513   2.547   6.150
  103POPC   NC3 1406   1.728   7.895   7.950
  103POPC   PO4 1407   1.760   7.905   7.650
  103POPC   GL1 1408   1.733   7.876   7.350
  103POPC   GL2 1409   1.954   7.973   7.350
  103POPC   C1A 1410   1.750   7.885   7.050
  103POPC   D2A 1411   1.771   7.953   6.750
  103POPC   C3A 1412   1.748   7.872   6.450
  103POPC   C4A 1413   1.702   7.928   6.150
  103POPC   C1B 1414   2.125   7.991   7.050
  103POPC   C2B 1415   2.093   7.930   6.750
  103POPC   C3B 1416   2.142   7.982   6.450
  103POPC   C4B 1417   2.142   7.915   6.150
  104POPC   NC3 1418   8.066   7.929   7.950
  104POPC   PO4 1419   8.113   7.983   7.650
  104POPC   GL1 1420   8.087   7.974   7.350
  104POPC   GL2 1421   7.894   7.965   7.350
  104POPC   C1A 1422   8.062   7.928   7.050
  104POPC   D2A 1423   8.069   7.962   6.750
  104POPC   C3A 1424   8.063   7.998   6.450
  104POPC   C4A 1425   8.055   7.935   6.150
  104POPC   C1B 1426   7.754   7.862   7.050
  104POPC   C2B 1427   7.795   7.919   6.750
  104POPC   C3B 1428   7.719   7.869   6.450
  104POPC   C4B 1429   7.797   7.909   6.150
  105POPC   NC3 1430   0.528   7.050   7.950
  105POPC   PO4 1431   0.502   7.006   7.650
  105POPC   GL1 1432   0.479   7.046   7.350
  105POPC   GL2 1433   0.431   7.208   7.350
  105POPC   C1A 1434   0.551   7.000   7.050
  105POPC   D2A 1435   0.476   7.038   6.750
  105POPC   C3A 1436   0.508   7.070   6.450
  105POPC   C4A 1437   0.492   7.070   6.150
  105POPC   C1B 1438   0.297   7.312   7.050
  105POPC   C2B 1439   0.321   7.286   6.750
  105POPC   C3B 1440   0.377   7.289   6.450
  105POPC   C4B 1441   0.315   7.347   6.150
  106POPC   NC3 1442   1.864   7.043   7.950
  106POPC   PO4 1443   1.767   7.059   7.650
  106POPC   GL1 1444   1.857   7.013   7.350
  106POPC   GL2 1445   1.903   7.202   7.350
  106POPC   C1A 1446   1.821   7.021   7.050
  106POPC   D2A 1447   1.861   7.063   6.750
  106POPC   C3A 1448   1.798   7.017   6.450
  106POPC   C4A 1449   1.789   7.005   6.150
  106POPC   C1B 1450   2.049   7.307   7.050
  106POPC   C2B 1451   2.035   7.265   6.750
  106POPC   C3B 1452   2.039   7.318   6.450
  106POPC   C4B 1453   2.040   7.339   6.150
  107POPC   NC3 1454   4.309   3.623   7.950
  107POPC   PO4 1455   4.240   3.612   7.650
  107POPC   GL1 1456   4.293   3.621   7.350
  107POPC   GL2 1457   4.173   3.469   7.350
  107POPC   C1A 1458   4.287   3.583   7.050
  107POPC   D2A 1459   4.236   3.538   6.750
  107POPC   C3A 1460   4.299   3.540   6.450
  107POPC   C4A 1461   4.253   3.626   6.150
  107POPC   C1B 1462   4.094   3.232   7.050
  107POPC   C2B 1463   4.060   3.228   6.750
  107POPC   C3B 1464   4.067   3.317   6.450
  107POPC   C4B 1465   4.074   3.250   6.150
  108POPC   NC3 1466   4.703   2.730   7.950
  108POPC   PO4 1467   4.783   2.694   7.650
  108POPC   GL1 1468   4.784   2.652   7.350
  108POPC   GL2 1469   4.974   2.672   7.350
  108POPC   C1A 1470   4.732   2.722   7.050
  108POPC   D2A 1471   4.710   2.697   6.750
  108POPC   C3A 1472   4.757   2.690   6.450
  108POPC   C4A 1473   4.751   2.722   6.150
  108POPC   C1B 1474   5.116   2.668   7.050
  108POPC   C2B 1475   5.110   2.610   6.750
  108POPC   C3B 1476   5.144   2.605   6.450
  108POPC   C4B 1477   5.049   2.687   6.150
  109POPC   NC3 1478   1.728   6.369   7.950
  109POPC   PO4 1479   1.741   6.331   7.650
  109POPC   GL1 1480   1.725   6.324   7.350
  109POPC   GL2 1481   1.915   6.459   7.350
  109POPC   C1A 1482   1.722   6.394   7.050
  109POPC   D2A 1483   1.755   6.390   6.750
  109POPC   C3A 1484   1.808   6.318   6.450
  109POPC   C4A 1485   1.778   6.361   6.150
  109POPC   C1B 1486   2.047   6.513   7.050
  109POPC   C2B 1487   2.086   6.534   6.750
  109POPC   C3B 1488   2.074   6.513   6.450
  109POPC   C4B 1489   2.098   6.469   6.150
  110POPC   NC3 1490   1.129   2.523   7.950
  110POPC   PO4 1491   1.115   2.553   7.650
  110POPC   GL1 1492   1.143   2.486   7.350
  110POPC   GL2 1493   1.154   2.712   7.350
  110POPC   C1A 1494   1.161   2.542   7.050
  110POPC   D2A 1495   1.161   2.462   6.750
  110POPC   C3A 1496   1.147   2.477   6.450
  110POPC   C4A 1497   1.188   2.550   6.150
  110POPC   C1B 1498   1.256   2.805   7.050
  110POPC   C2B 1499   1.170   2.873   6.750
  110POPC   C3B 1500   1.196   2.895   6.450
  110POPC   C4B 1501   1.164   2.797   6.150
  111POPC   NC3 1502   8.138  10.196   7.950
  111POPC   PO4 1503   8.123  10.153   7.650
  111POPC   GL1 1504   8.062  10.173   7.350
  111POPC   GL2 1505   7.888  10.168   7.350
  111POPC   C1A 1506   8.130  10.190   7.050
  111POPC   D2A 1507   8.080  10.160   6.750
  111POPC   C3A 1508   8.054  10.200   6.450
  111POPC   C4A 1509   8.116  10.225   6.150
  111POPC   C1B 1510   7.725  10.159   7.050
  111POPC   C2B 1511   7.788  10.175   6.750
  111POPC   C3B 1512   7.766  10.168   6.450
  111POPC   C4B 1513   7.707  10.133   6.150
  112POPC   NC3 1514   1.963   1.711   7.950
  112POPC   PO4 1515   1.950   1.762   7.650
  112POPC   GL1 1516   1.958   1.738   7.350
  112POPC   GL2 1517   1.966   1.948   7.350
  112POPC   C1A 1518   1.954   1.728   7.050
  112POPC   D2A 1519   1.964   1.755   6.750
  112POPC   C3A 1520   2.004   1.792   6.450
  112POPC   C4A 1521   1.970   1.731   6.150
  112POPC   C1B 1522   1.904   2.056   7.050
  112POPC   C2B 1523   1.928   2.067   6.750
  112POPC   C3B 1524   1.896   2.104   6.450
  112POPC   C4B 1525   1.876   2.044   6.150
  113POPC   NC3 1526   0.259   3.496   7.950
  113POPC   PO4 1527   0.214   3.454   7.650
  113POPC   GL1 1528   0.244   3.461   7.350
  113POPC   GL2 1529   0.450   3.474   7.350
  113POPC   C1A 1530   0.267   3.483   7.050
  113POPC   D2A 1531   0.267   3.458   6.750
  113POPC   C3A 1532   0.277   3.449   6.450
  113POPC   C4A 1533   0.303   3.491   6.150
  113POPC   C1B 1534   0.601   3.419   7.050
  113POPC   C2B 1535   0.559   3.408   6.750
  113POPC   C3B 1536   0.609   3.363   6.450
  113POPC   C4B 1537   0.581   3.369   6.150
  114POPC   NC3 1538   0.577  10.235   7.950
  114POPC   PO4 1539   0.609  10.239   7.650
  114POPC   GL1 1540   0.570  10.185   7.350
  114POPC   GL2 1541   0.467  10.179   7.350
  114POPC   C1A 1542   0.544  10.180   7.050
  114POPC   D2A 1543   0.596  10.213   6.750
  114POPC   C3A 1544   0.630  10.277   6.450
  114POPC   C4A 1545   0.579  10.209   6.150
  114POPC   C1B 1546   0.298  10.112   7.050
  114POPC   C2B 1547   0.279  10.163   6.750
  114POPC   C3B 1548   0.293  10.123   6.450
  114POPC   C4B 1549   0.225  10.118   6.150
  115POPC   NC3 1550   8.046   1.006   7.950
  115POPC   PO4 1551   8.082   1.055   7.650
  115POPC   GL1 1552   8.045   1.017   7.350
  115POPC   GL2 1553   7.959   1.223   7.350
  115POPC   C1A 1554   8.074   1.098   7.050
  115POPC   D2A 1555   8.076   1.015   6.750
  115POPC   C3A 1556   8.054   1.088   6.450
  115POPC   C4A 1557   8.082   1.070   6.150
  115POPC   C1B 1558   7.854   1.322   7.050
  115POPC   C2B 1559   7.847   1.281   6.750
  115POPC   C3B 1560   7.769   1.273   6.450
  115POPC   C4B 1561   7.800   1.293   6.150
  116POPC   NC3 1562   6.296  10.045   7.950
  116POPC   PO4 1563   6.264  10.039   7.650
  116POPC   GL1 1564   6.362  10.025   7.350
  116POPC   GL2 1565   6.381  10.159   7.350
  116POPC   C1A 1566   6.339  10.016   7.050
  116POPC   D2A 1567   6.328  10.016   6.750
  116POPC   C3A 1568   6.347  10.067   6.450
  116POPC   C4A 1569   6.287  10.069   6.150
  116POPC   C1B 1570   6.568  10.324   7.050
  116POPC   C2B 1571   6.552  10.304   6.750
  116POPC   C3B 1572   6.551  10.264   6.450
  116POPC   C4B 1573   6.544  10.278   6.150
  117POPC   NC3 1574   4.748   2.019   7.950
  117POPC   PO4 1575   4.821   2.047   7.650
  117POPC   GL1 1576   4.773   2.068   7.350
  117POPC   GL2 1577   4.921   1.962   7.350
  117POPC   C1A 1578   4.757   2.045   7.050
  117POPC   D2A 1579   4.780   1.996   6.750
  117POPC   C3A 1580   4.786   2.047   6.450
  117POPC   C4A 1581   4.833   2.030   6.150
  117POPC   C1B 1582   5.060   1.849   7.050
  117POPC   C2B 1583   5.076   1.816   6.750
  117POPC   C3B 1584   5.080   1.765   6.450
  117POPC   C4B 1585   5.027   1.807   6.150
  118POPC   NC3 1586  10.102   8.809   7.950
  118POPC   PO4 1587  10.095   8.871   7.650
  118POPC   GL1 1588  10.109   8.874   7.350
  118POPC   GL2 1589  10.126   8.645   7.350
  118POPC   C1A 1590  10.143   8.869   7.050
  118POPC   D2A 1591  10.148   8.823   6.750
  118POPC   C3A 1592  10.148   8.870   6.450
  118POPC   C4A 1593  10.090   8.787   6.150
  118POPC   C1B 1594  10.242   8.516   7.050
  118POPC   C2B 1595  10.222   8.465   6.750
  118POPC   C3B 1596  10.230   8.505   6.450
  118POPC   C4B 1597  10.218   8.509   6.150
  119POPC   NC3 1598   1.816   9.551   7.950
  119POPC   PO4 1599   1.777   9.483   7.650
  119POPC   GL1 1600   1.744   9.561   7.350
  119POPC   GL2 1601   1.933   9.419   7.350
  119POPC   C1A 1602   1.834   9.527   7.050
  119POPC   D2A 1603   1.774   9.530   6.750
  119POPC   C3A 1604   1.815   9.510   6.450
  119POPC   C4A 1605   1.807   9.524   6.150
  119POPC   C1B 1606   2.097   9.314   7.050
  119POPC   C2B 1607   2.022   9.352   6.750
  119POPC   C3B 1608   2.037   9.287   6.450
  119POPC   C4B 1609   2.054   9.313   6.150
  120POPC   NC3 1610   1.256   9.997   7.950
  120POPC   PO4 1611   1.278  10.037   7.650
  120POPC   GL1 1612   1.264  10.059   7.350
  120POPC   GL2 1613   1.151  10.125   7.350
  120POPC   C1A 1614   1.227  10.020   7.050
  120POPC   D2A 1615   1.245  10.018   6.750
  120POPC   C3A 1616   1.197  10.020   6.450
  120POPC   C4A 1617   1.192  10.018   6.150
  120POPC   C1B 1618   1.093  10.316   7.050
  120POPC   C2B 1619   1.095  10.333   6.750
  120POPC   C3B 1620   1.127  10.315   6.450
  120POPC   C4B 1621   1.133  10.348   6.150
  121POPC   NC3 1622   7.788   9.406   7.950
  121POPC   PO4 1623   7.761   9.393   7.650
  121POPC   GL1 1624   7.754   9.354   7.350
  121POPC   GL2 1625   7.881   9.426   7.350
  121POPC   C1A 1626   7.781   9.406   7.050
  121POPC   D2A 1627   7.788   9.390   6.750
  121POPC   C3A 1628   7.781   9.349   6.450
  121POPC   C4A 1629   7.737   9.381   6.150
  121POPC   C1B 1630   8.134   9.462   7.050
  121POPC   C2B 1631   8.102   9.465   6.750
  121POPC   C3B 1632   8.065   9.486   6.450
  121POPC   C4B 1633   8.078   9.536   6.150
  122POPC   NC3 1634   9.552   8.035   7.950
  122POPC   PO4 1635   9.518   8.092   7.650
  122POPC   GL1 1636   9.481   8.069   7.350
  122POPC   GL2 1637   9.453   7.912   7.350
  122POPC   C1A 1638   9.469   8.122   7.050
  122POPC   D2A 1639   9.490   8.048   6.750
  122POPC   C3A 1640   9.484   8.129   6.450
  122POPC   C4A 1641   9.495   8.051   6.150
  122POPC   C1B 1642   9.363   7.749   7.050
  122POPC   C2B 1643   9.371   7.774   6.750
  122POPC   C3B 1644   9.345   7.743   6.450
  122POPC   C4B 1645   9.374   7.722   6.150
  123POPC   NC3 1646   8.640   1.327   7.950
  123POPC   PO4 1647   8.571   1.343   7.650
  123POPC   GL1 1648   8.587   1.336   7.350
  123POPC   GL2 1649   8.703   1.190   7.350
  123POPC   C1A 1650   8.592   1.357   7.050
  123POPC   D2A 1651   8.630   1.286   6.750
  123POPC   C3A 1652   8.585   1.324   6.450
  123POPC   C4A 1653   8.634   1.367   6.150
  123POPC   C1B 1654   8.712   1.043   7.050
  123POPC   C2B 1655   8.759   1.022   6.750
  123POPC   C3B 1656   8.716   0.972   6.450
  123POPC   C4B 1657   8.716   0.976   6.150
  124POPC   NC3 1658   5.495   0.525   7.950
  124POPC   PO4 1659   5.517   0.507   7.650
  124POPC   GL1 1660   5.551   0.456   7.350
  124POPC   GL2 1661   5.659   0.448   7.350
  124POPC   C1A 1662   5.539   0.514   7.050
  124POPC   D2A 1663   5.520   0.525   6.750
  124POPC   C3A 1664   5.563   0.490   6.450
  124POPC   C4A 1665   5.545   0.462   6.150
  124POPC   C1B 1666   5.851   0.388   7.050
  124POPC   C2B 1667   5.876   0.349   6.750
  124POPC   C3B 1668   5.870   0.370   6.450
  124POPC   C4B 1669   5.845   0.386   6.150
  125POPC   NC3 1670   2.079   3.356   7.950
  125POPC   PO4 1671   2.138   3.347   7.650
  125POPC   GL1 1672   2.103   3.364   7.350
  125POPC   GL2 1673   1.973   3.463   7.350
  125POPC   C1A 1674   2.144   3.361   7.050
  125POPC   D2A 1675   2.125   3.382   6.750
  125POPC   C3A 1676   2.073   3.406   6.450
  125POPC   C4A 1677   2.115   3.373   6.150
  125POPC   C1B 1678   1.709   3.450   7.050
  125POPC   C2B 1679   1.749   3.506   6.750
  125POPC   C3B 1680   1.804   3.504   6.450
  125POPC   C4B 1681   1.715   3.440   6.150
  126POPC   NC3 1682   7.856   2.475   7.950
  126POPC   PO4 1683   7.894   2.496   7.650
  126POPC   GL1 1684   7.814   2.542   7.350
  126POPC   GL2 1685   7.967   2.691   7.350
  126POPC   C1A 1686   7.906   2.528   7.050
  126POPC   D2A 1687   7.824   2.486   6.750
  126POPC   C3A 1688   7.882   2.481   6.450
  126POPC   C4A 1689   7.854   2.553   6.150
  126POPC   C1B 1690   8.005   2.813   7.050
  126POPC   C2B 1691   8.016   2.836   6.750
  126POPC   C3B 1692   7.998   2.821   6.450
  126POPC   C4B 1693   8.028   2.873   6.150
  127POPC   NC3 1694   2.476   9.324   7.950
  127POPC   PO4 1695   2.516   9.349   7.650
  127POPC   GL1 1696   2.504   9.354   7.350
  127POPC   GL2 1697   2.647   9.446   7.350
  127POPC   C1A 1698   2.547   9.374   7.050
  127POPC   D2A 1699   2.518   9.381   6.750
  127POPC   C3A 1700   2.507   9.362   6.450
  127POPC   C4A 1701   2.473   9.346   6.150
  127POPC   C1B 1702   2.834   9.543   7.050
  127POPC   C2B 1703   2.845   9.510   6.750
  127POPC   C3B 1704   2.834   9.479   6.450
  127POPC   C4B 1705   2.829   9.549   6.150
  128POPC   NC3 1706   9.419   2.504   7.950
  128POPC   PO4 1707   9.450   2.463   7.650
  128POPC   GL1 1708   9.409   2.540   7.350
  128POPC   GL2 1709   9.378   2.679   7.350
  128POPC   C1A 1710   9.446   2.504   7.050
  128POPC   D2A 1711   9.425   2.486   6.750
  128POPC   C3A 1712   9.481   2.514   6.450
  128POPC   C4A 1713   9.445   2.454   6.150
  128POPC   C1B 1714   9.447   2.860   7.050
  128POPC   C2B 1715   9.373   2.860   6.750
  128POPC   C3B 1716   9.362   2.812   6.450
  128POPC   C4B 1717   9.412   2.848   6.150
  129POPC   NC3 1718   5.794   8.699   7.950
  129POPC   PO4 1719   5.840   8.767   7.650
  129POPC   GL1 1720   5.887   8.701   7.350
  129POPC   GL2 1721   5.660   8.628   7.350
  129POPC   C1A 1722   5.814   8.709   7.050
  129POPC   D2A 1723   5.800   8.760   6.750
  129POPC   C3A 1724   5.853   8.689   6.450
  129POPC   C4A 1725   5.875   8.767   6.150
  129POPC   C1B 1726   5.559   8.608   7.050
  129POPC   C2B 1727   5.471   8.602   6.750
  129POPC   C3B 1728   5.492   8.582   6.450
  129POPC   C4B 1729   5.518   8.594   6.150
  130POPC   NC3 1730   1.273   8.565   7.950
  130POPC   PO4 1731   1.307   8.502   7.650
  130POPC   GL1 1732   1.313   8.482   7.350
  130POPC   GL2 1733   1.138   8.670   7.350
  130POPC   C1A 1734   1.310   8.530   7.050
  130POPC   D2A 1735   1.300   8.530   6.750
  130POPC   C3A 1736   1.252   8.497   6.450
  130POPC   C4A 1737   1.292   8.499   6.150
  130POPC   C1B 1738   1.061   8.845   7.050
  130POPC   C2B 1739   1.109   8.806   6.750
  130POPC   C3B 1740   1.090   8.873   6.450
  130POPC   C4B 1741   1.057   8.786   6.150
  131POPC   NC3 1742   2.624   0.215   7.950
  131POPC   PO4 1743   2.625   0.279   7.650
  131POPC   GL1 1744   2.690   0.272   7.350
  131POPC   GL2 1745   2.658   0.465   7.350
  131POPC   C1A 1746   2.681   0.208   7.050
  131POPC   D2A 1747   2.671   0.205   6.750
  131POPC   C3A 1748   2.690   0.299   6.450
  131POPC   C4A 1749   2.624   0.229   6.150
  131POPC   C1B 1750   2.652   0.623   7.050
  131POPC   C2B 1751   2.643   0.625   6.750
  131POPC   C3B 1752   2.732   0.625   6.450
  131POPC   C4B 1753   2.719   0.588   6.150
  132POPC   NC3 1754   4.283   7.262   7.950
  132POPC   PO4 1755   4.368   7.274   7.650
  132POPC   GL1 1756   4.283   7.301   7.350
  132POPC   GL2 1757   4.158   7.194   7.350
  132POPC   C1A 1758   4.286   7.243   7.050
  132POPC   D2A 1759   4.320   7.271   6.750
  132POPC   C3A 1760   4.317   7.282   6.450
  132POPC   C4A 1761   4.314   7.253   6.150
  132POPC   C1B 1762   3.978   7.052   7.050
  132POPC   C2B 1763   3.978   7.128   6.750
  132POPC   C3B 1764   4.041   7.043   6.450
  132POPC   C4B 1765   4.024   7.130   6.150
  133POPC   NC3 1766   8.073   3.454   7.950
  133POPC   PO4 1767   8.137   3.489   7.650
  133POPC   GL1 1768   8.130   3.480   7.350
  133POPC   GL2 1769   7.954   3.441   7.350
  133POPC   C1A 1770   8.080   3.453   7.050
  133POPC   D2A 1771   8.056   3.442   6.750
  133POPC   C3A 1772   8.106   3.417   6.450
  133POPC   C4A 1773   8.076   3.449   6.150
  133POPC   C1B 1774   7.722   3.367   7.050
  133POPC   C2B 1775   7.780   3.442   6.750
  133POPC   C3B 1776   7.788   3.382   6.450
  133POPC   C4B 1777   7.803   3.354   6.150
  134POPC   NC3 1778   2.591   8.019   7.950
  134POPC   PO4 1779   2.562   8.035   7.650
  134POPC   GL1 1780   2.559   8.015   7.350
  134POPC   GL2 1781   2.685   7.956   7.350
  134POPC   C1A 1782   2.554   8.009   7.050
  134POPC   D2A 1783   2.602   8.033   6.750
  134POPC   C3A 1784   2.581   8.065   6.450
  134POPC   C4A 1785   2.520   8.007   6.150
  134POPC   C1B 1786   2.839   7.798   7.050
  134POPC   C2B 1787   2.837   7.828   6.750
  134POPC   C3B 1788   2.745   7.770   6.450
  134POPC   C4B 1789   2.823   7.833   6.150
  135POPC   NC3 1790   2.595   8.475   7.950
  135POPC   PO4 1791   2.663   8.536   7.650
  135POPC   GL1 1792   2.595   8.466   7.350
  135POPC   GL2 1793   2.692   8.652   7.350
  135POPC   C1A 1794   2.615   8.468   7.050
  135POPC   D2A 1795   2.680   8.488   6.750
  135POPC   C3A 1796   2.596   8.555   6.450
  135POPC   C4A 1797   2.668   8.551   6.150
  135POPC   C1B 1798   2.747   8.798   7.050
  135POPC   C2B 1799   2.714   8.879   6.750
  135POPC   C3B 1800   2.731   8.868   6.450
  135POPC   C4B 1801   2.734   8.873   6.150
  136POPC   NC3 1802   8.036   6.576   7.950
  136POPC   PO4 1803   8.029   6.523   7.650
  136POPC   GL1 1804   8.026   6.603   7.350
  136POPC   GL2 1805   7.902   6.392   7.350
  136POPC   C1A 1806   8.057   6.566   7.050
  136POPC   D2A 1807   8.010   6.561   6.750
  136POPC   C3A 1808   8.007   6.587   6.450
  136POPC   C4A 1809   8.060   6.591   6.150
  136POPC   C1B 1810   7.842   6.279   7.050
  136POPC   C2B 1811   7.788   6.326   6.750
  136POPC   C3B 1812   7.852   6.290   6.450
  136POPC   C4B 1813   7.838   6.287   6.150
  137POPC   NC3 1814   2.626   5.547   7.950
  137POPC   PO4 1815   2.603   5.495   7.650
  137POPC   GL1 1816   2.545   5.552   7.350
  137POPC   GL2 1817   2.657   5.662   7.350
  137POPC   C1A 1818   2.551   5.546   7.050
  137POPC   D2A 1819   2.542   5.532   6.750
  137POPC   C3A 1820   2.620   5.569   6.450
  137POPC   C4A 1821   2.566   5.501   6.150
  137POPC   C1B 1822   2.794   5.865   7.050
  137POPC   C2B 1823   2.747   5.846   6.750
  137POPC   C3B 1824   2.724   5.828   6.450
  137POPC   C4B 1825   2.776   5.815   6.150
  138POPC   NC3 1826   9.562   9.536   7.950
  138POPC   PO4 1827   9.600   9.484   7.650
  138POPC   GL1 1828   9.593   9.504   7.350
  138POPC   GL2 1829   9.401   9.436   7.350
  138POPC   C1A 1830   9.593   9.523   7.050
  138POPC   D2A 1831   9.544   9.545   6.750
  138POPC   C3A 1832   9.619   9.492   6.450
  138POPC   C4A 1833   9.546   9.523   6.150
  138POPC   C1B 1834   9.230   9.343   7.050
  138POPC   C2B 1835   9.317   9.332   6.750
  138POPC   C3B 1836   9.314   9.307   6.450
  138POPC   C4B 1837   9.231   9.367   6.150
  139POPC   NC3 1838   4.924   0.975   7.950
  139POPC   PO4 1839   4.889   0.980   7.650
  139POPC   GL1 1840   4.947   1.030   7.350
  139POPC   GL2 1841   4.880   1.134   7.350
  139POPC   C1A 1842   4.945   1.025   7.050
  139POPC   D2A 1843   4.926   1.030   6.750
  139POPC   C3A 1844   4.948   0.985   6.450
  139POPC   C4A 1845   4.931   1.030   6.150
  139POPC   C1B 1846   4.909   1.375   7.050
  139POPC   C2B 1847   4.955   1.319   6.750
  139POPC   C3B 1848   4.957   1.347   6.450
  139POPC   C4B 1849   4.936   1.360   6.150
  140POPC   NC3 1850   8.851  10.143   7.950
  140POPC   PO4 1851   8.819  10.184   7.650
  140POPC   GL1 1852   8.847  10.170   7.350
  140POPC   GL2 1853   8.634  10.176   7.350
  140POPC   C1A 1854   8.893  10.156   7.050
  140POPC   D2A 1855   8.854  10.204   6.750
  140POPC   C3A 1856   8.826  10.114   6.450
  140POPC   C4A 1857   8.877  10.147   6.150
  140POPC   C1B 1858   8.550  10.197   7.050
  140POPC   C2B 1859   8.494  10.233   6.750
  140POPC   C3B 1860   8.490  10.209   6.450
  140POPC   C4B 1861   8.514  10.224   6.150
  141POPC   NC3 1862   3.582   3.367   7.950
  141POPC   PO4 1863   3.638   3.375   7.650
  141POPC   GL1 1864   3.594   3.400   7.350
  141POPC   GL2 1865   3.428   3.461   7.350
  141POPC   C1A 1866   3.625   3.410   7.050
  141POPC   D2A 1867   3.591   3.379   6.750
  141POPC   C3A 1868   3.579   3.362   6.450
  141POPC   C4A 1869   3.543   3.411   6.150
  141POPC   C1B 1870   3.303   3.442   7.050
  141POPC   C2B 1871   3.270   3.507   6.750
  141POPC   C3B 1872   3.229   3.493   6.450
  141POPC   C4B 1873   3.268   3.496   6.150
  142POPC   NC3 1874   4.872   9.991   7.950
  142POPC   PO4 1875   4.850   9.995   7.650
  142POPC   GL1 1876   4.876  10.022   7.350
  142POPC   GL2 1877   4.956  10.208   7.350
  142POPC   C1A 1878   4.858   9.974   7.050
  142POPC   D2A 1879   4.915   9.975   6.750
  142POPC   C3A 1880   4.871   9.969   6.450
  142POPC   C4A 1881   4.911  10.033   6.150
  142POPC   C1B 1882   4.995  10.350   7.050
  142POPC   C2B 1883   5.018  10.340   6.750
  142POPC   C3B 1884   4.948  10.322   6.450
  142POPC   C4B 1885   4.940  10.337   6.150
  143POPC   NC3 1886   6.522   8.034   7.950
  143POPC   PO4 1887   6.496   8.057   7.650
  143POPC   GL1 1888   6.539   8.087   7.350
  143POPC   GL2 1889   6.457   7.926   7.350
  143POPC   C1A 1890   6.523   8.037   7.050
  143POPC   D2A 1891   6.547   8.129   6.750
  143POPC   C3A 1892   6.514   8.091   6.450
  143POPC   C4A 1893   6.462   8.104   6.150
  143POPC   C1B 1894   6.397   7.755   7.050
  143POPC   C2B 1895   6.394   7.771   6.750
  143POPC   C3B 1896   6.375   7.781   6.450
  143POPC   C4B 1897   6.318   7.785   6.150
  144POPC   NC3 1898   5.799   1.254   7.950
  144POPC   PO4 1899   5.837   1.333   7.650
  144POPC   GL1 1900   5.774   1.291   7.350
  144POPC   GL2 1901   5.667   1.216   7.350
  144POPC   C1A 1902   5.754   1.248   7.050
  144POPC   D2A 1903   5.816   1.290   6.750
  144POPC   C3A 1904   5.849   1.333   6.450
  144POPC   C4A 1905   5.753   1.307   6.150
  144POPC   C1B 1906   5.570   1.037   7.050
  144POPC   C2B 1907   5.503   1.021   6.750
  144POPC   C3B 1908   5.576   1.013   6.450
  144POPC   C4B 1909   5.519   1.026   6.150
  145POPC   NC3 1910   5.022   7.810   7.950
  145POPC   PO4 1911   5.088   7.797   7.650
  145POPC   GL1 1912   5.117   7.838   7.350
  145POPC   GL2 1913   4.929   7.880   7.350
  145POPC   C1A 1914   5.117   7.832   7.050
  145POPC   D2A 1915   5.088   7.855   6.750
  145POPC   C3A 1916   5.076   7.798   6.450
  145POPC   C4A 1917   5.040   7.823   6.150
  145POPC   C1B 1918   4.802   8.034   7.050
  145POPC   C2B 1919   4.774   8.009   6.750
  145POPC   C3B 1920   4.805   8.024   6.450
  145POPC   C4B 1921   4.792   7.999   6.150
  146POPC   NC3 1922   0.974   8.009   7.950
  146POPC   PO4 1923   1.010   7.975   7.650
  146POPC   GL1 1924   1.025   7.945   7.350
  146POPC   GL2 1925   1.178   7.890   7.350
  146POPC   C1A 1926   0.969   7.994   7.050
  146POPC   D2A 1927   1.009   7.966   6.750
  146POPC   C3A 1928   0.989   8.017   6.450
  146POPC   C4A 1929   1.046   7.982   6.150
  146POPC   C1B 1930   1.321   7.917   7.050
  146POPC   C2B 1931   1.334   7.853   6.750
  146POPC   C3B 1932   1.361   7.916   6.450
  146POPC   C4B 1933   1.367   7.924   6.150
  147POPC   NC3 1934   8.476   6.348   7.950
  147POPC   PO4 1935   8.482   6.332   7.650
  147POPC   GL1 1936   8.490   6.355   7.350
  147POPC   GL2 1937   8.675   6.424   7.350
  147POPC   C1A 1938   8.570   6.378   7.050
  147POPC   D2A 1939   8.553   6.373   6.750
  147POPC   C3A 1940   8.568   6.365   6.450
  147POPC   C4A 1941   8.547   6.332   6.150
  147POPC   C1B 1942   8.841   6.481   7.050
  147POPC   C2B 1943   8.805   6.493   6.750
  147POPC   C3B 1944   8.876   6.502   6.450
  147POPC   C4B 1945   8.815   6.472   6.150
  148POPC   NC3 1946   5.777   7.788   7.950
  148POPC   PO4 1947   5.814   7.775   7.650
  148POPC   GL1 1948   5.777   7.784   7.350
  148POPC   GL2 1949   5.632   7.965   7.350
  148POPC   C1A 1950   5.836   7.803   7.050
  148POPC   D2A 1951   5.790   7.804   6.750
  148POPC   C3A 1952   5.801   7.840   6.450
  148POPC   C4A 1953   5.765   7.752   6.150
  148POPC   C1B 1954   5.597   8.081   7.050
  148POPC   C2B 1955   5.541   8.049   6.750
  148POPC   C3B 1956   5.573   8.070   6.450
  148POPC   C4B 1957   5.557   8.017   6.150
  149POPC   NC3 1958   8.732   5.786   7.950
  149POPC   PO4 1959   8.772   5.796   7.650
  149POPC   GL1 1960   8.825   5.800   7.350
  149POPC   GL2 1961   8.666   5.713   7.350
  149POPC   C1A 1962   8.767   5.801   7.050
  149POPC   D2A 1963   8.805   5.802   6.750
  149POPC   C3A 1964   8.730   5.783   6.450
  149POPC   C4A 1965   8.819   5.828   6.150
  149POPC   C1B 1966   8.553   5.488   7.050
  149POPC   C2B 1967   8.544   5.515   6.750
  149POPC   C3B 1968   8.610   5.493   6.450
  149POPC   C4B 1969   8.539   5.564   6.150
  150POPC   NC3 1970   4.349   7.874   7.950
  150POPC   PO4 1971   4.295   7.816   7.650
  150POPC   GL1 1972   4.386   7.873   7.350
  150POPC   GL2 1973   4.143   7.882   7.350
  150POPC   C1A 1974   4.348   7.821   7.050
  150POPC   D2A 1975   4.288   7.906   6.750
  150POPC   C3A 1976   4.369   7.840   6.450
  150POPC   C4A 1977   4.287   7.844   6.150
  150POPC   C1B 1978   4.000   7.972   7.050
  150POPC   C2B 1979   3.988   7.956   6.750
  150POPC   C3B 1980   4.008   7.964   6.450
  150POPC   C4B 1981   4.061   7.959   6.150
  151POPC   NC3 1982   3.325   8.085   7.950
  151POPC   PO4 1983   3.410   8.137   7.650
  151POPC   GL1 1984   3.393   8.135   7.350
  151POPC   GL2 1985   3.375   7.934   7.350
  151POPC   C1A 1986   3.357   8.049   7.050
  151POPC   D2A 1987   3.346   8.069   6.750
  151POPC   C3A 1988   3.326   8.121   6.450
  151POPC   C4A 1989   3.362   8.105   6.150
  151POPC   C1B 1990   3.511   7.720   7.050
  151POPC   C2B 1991   3.507   7.779   6.750
  151POPC   C3B 1992   3.491   7.773   6.450
  151POPC   C4B 1993   3.472   7.733   6.150
  152POPC   NC3 1994   3.322   9.517   7.950
  152POPC   PO4 1995   3.268   9.543   7.650
  152POPC   GL1 1996   3.295   9.555   7.350
  152POPC   GL2 1997   3.407   9.447   7.350
  152POPC   C1A 1998   3.290   9.580   7.050
  152POPC   D2A 1999   3.264   9.517   6.750
  152POPC   C3A 2000   3.314   9.542   6.450
  152POPC   C4A 2001   3.331   9.510   6.150
  152POPC   C1B 2002   3.498   9.324   7.050
  152POPC   C2B 2003   3.570   9.260   6.750
  152POPC   C3B 2004   3.492   9.278   6.450
  152POPC   C4B 2005   3.495   9.267   6.150
  153POPC   NC3 2006   3.266   6.498   7.950
  153POPC   PO4 2007   3.292   6.551   7.650
  153POPC   GL1 2008   3.270   6.500   7.350
  153POPC   GL2 2009   3.387   6.431   7.350
  153POPC   C1A 2010   3.310   6.519   7.050
  153POPC   D2A 2011   3.282   6.581   6.750
  153POPC   C3A 2012   3.272   6.560   6.450
  153POPC   C4A 2013   3.246   6.541   6.150
  153POPC   C1B 2014   3.593   6.306   7.050
  153POPC   C2B 2015   3.569   6.293   6.750
  153POPC   C3B 2016   3.556   6.307   6.450
  153POPC   C4B 2017   3.574   6.304   6.150
  154POPC   NC3 2018   1.774   2.558   7.950
  154POPC   PO4 2019   1.764   2.654   7.650
  154POPC   GL1 2020   1.801   2.626   7.350
  154POPC   GL2 2021   1.932   2.673   7.350
  154POPC   C1A 2022   1.714   2.606   7.050
  154POPC   D2A 2023   1.748   2.578   6.750
  154POPC   C3A 2024   1.763   2.568   6.450
  154POPC   C4A 2025   1.794   2.624   6.150
  154POPC   C1B 2026   2.108   2.770   7.050
  154POPC   C2B 2027   2.101   2.737   6.750
  154POPC   C3B 2028   2.040   2.715   6.450
  154POPC   C4B 2029   2.068   2.768   6.150
  155POPC   NC3 2030   2.500   3.481   7.950
  155POPC   PO4 2031   2.476   3.497   7.650
  155POPC   GL1 2032   2.456   3.447   7.350
  155POPC   GL2 2033   2.636   3.416   7.350
  155POPC   C1A 2034   2.465   3.435   7.050
  155POPC   D2A 2035   2.523   3.422   6.750
  155POPC   C3A 2036   2.514   3.417   6.450
  155POPC   C4A 2037   2.527   3.450   6.150
  155POPC   C1B 2038   2.870   3.415   7.050
  155POPC   C2B 2039   2.869   3.415   6.750
  155POPC   C3B 2040   2.826   3.344   6.450
  155POPC   C4B 2041   2.855   3.367   6.150
  156POPC   NC3 2042   0.428   2.877   7.950
  156POPC   PO4 2043   0.385   2.870   7.650
  156POPC   GL1 2044   0.463   2.830   7.350
  156POPC   GL2 2045   0.411   2.718   7.350
  156POPC   C1A 2046   0.377   2.815   7.050
  156POPC   D2A 2047   0.436   2.809   6.750
  156POPC   C3A 2048   0.426   2.825   6.450
  156POPC   C4A 2049   0.399   2.841   6.150
  156POPC   C1B 2050   0.453   2.505   7.050
  156POPC   C2B 2051   0.459   2.492   6.750
  156POPC   C3B 2052   0.438   2.543   6.450
  156POPC   C4B 2053   0.457   2.529   6.150
  157POPC   NC3 2054   8.115   8.672   7.950
  157POPC   PO4 2055   8.149   8.677   7.650
  157POPC   GL1 2056   8.097   8.642   7.350
  157POPC   GL2 2057   7.972   8.671   7.350
  157POPC   C1A 2058   8.136   8.647   7.050
  157POPC   D2A 2059   8.086   8.680   6.750
  157POPC   C3A 2060   8.105   8.637   6.450
  157POPC   C4A 2061   8.119   8.701   6.150
  157POPC   C1B 2062   7.779   8.689   7.050
  157POPC   C2B 2063   7.774   8.730   6.750
  157POPC   C3B 2064   7.739   8.650   6.450
  157POPC   C4B 2065   7.760   8.686   6.150
  158POPC   NC3 2066   1.353   9.495   7.950
  158POPC   PO4 2067   1.329   9.482   7.650
  158POPC   GL1 2068   1.308   9.491   7.350
  158POPC   GL2 2069   1.209   9.434   7.350
  158POPC   C1A 2070   1.371   9.548   7.050
  158POPC   D2A 2071   1.372   9.512   6.750
  158POPC   C3A 2072   1.308   9.494   6.450
  158POPC   C4A 2073   1.347   9.544   6.150
  158POPC   C1B 2074   1.057   9.315   7.050
  158POPC   C2B 2075   0.983   9.367   6.750
  158POPC   C3B 2076   1.026   9.344   6.450
  158POPC   C4B 2077   1.001   9.390   6.150
  159POPC   NC3 2078   9.591   4.810   7.950
  159POPC   PO4 2079   9.580   4.839   7.650
  159POPC   GL1 2080   9.508   4.777   7.350
  159POPC   GL2 2081   9.443   4.882   7.350
  159POPC   C1A 2082   9.573   4.757   7.050
  159POPC   D2A 2083   9.528   4.809   6.750
  159POPC   C3A 2084   9.595   4.851   6.450
  159POPC   C4A 2085   9.546   4.845   6.150
  159POPC   C1B 2086   9.312   5.019   7.050
  159POPC   C2B 2087   9.272   5.020   6.750
  159POPC   C3B 2088   9.277   5.003   6.450
  159POPC   C4B 2089   9.331   5.032   6.150
  160POPC   NC3 2090   1.311   1.122   7.950
  160POPC   PO4 2091   1.329   1.080   7.650
  160POPC   GL1 2092   1.327   1.084   7.350
  160POPC   GL2 2093   1.174   1.133   7.350
  160POPC   C1A 2094   1.307   1.059   7.050
  160POPC   D2A 2095   1.363   1.100   6.750
  160POPC   C3A 2096   1.321   1.065   6.450
  160POPC   C4A 2097   1.380   1.133   6.150
  160POPC   C1B 2098   1.038   1.278   7.050
  160POPC   C2B 2099   0.991   1.234   6.750
  160POPC   C3B 2100   1.063   1.239   6.450
  160POPC   C4B 2101   1.016   1.257   6.150
  161POPC   NC3 2102   7.853   7.363   7.950
  161POPC   PO4 2103   7.880   7.318   7.650
  161POPC   GL1 2104   7.902   7.344   7.350
  161POPC   GL2 2105   7.923   7.181   7.350
  161POPC   C1A 2106   7.944   7.319   7.050
  161POPC   D2A 2107   7.899   7.394   6.750
  161POPC   C3A 2108   7.913   7.321   6.450
  161POPC   C4A 2109   7.855   7.373   6.150
  161POPC   C1B 2110   7.957   7.000   7.050
  161POPC   C2B 2111   7.964   6.982   6.750
  161POPC   C3B 2112   7.991   7.004   6.450
  161POPC   C4B 2113   7.941   7.039   6.150
  162POPC   NC3 2114   5.598  10.282   7.950
  162POPC   PO4 2115   5.612  10.312   7.650
  162POPC   GL1 2116   5.596  10.293   7.350
  162POPC   GL2 2117   5.707  10.140   7.350
  162POPC   C1A 2118   5.644  10.297   7.050
  162POPC   D2A 2119   5.610  10.359   6.750
  162POPC   C3A 2120   5.569  10.376   6.450
  162POPC   C4A 2121   5.648  10.286   6.150
  162POPC   C1B 2122   5.749  10.007   7.050
  162POPC   C2B 2123   5.764  10.006   6.750
  162POPC   C3B 2124   5.786  10.022   6.450
  162POPC   C4B 2125   5.701  10.004   6.150
  163POPC   NC3 2126   6.583   2.612   7.950
  163POPC   PO4 2127   6.607   2.629   7.650
  163POPC   GL1 2128   6.607   2.657   7.350
  163POPC   GL2 2129   6.434   2.650   7.350
  163POPC   C1A 2130   6.639   2.601   7.050
  163POPC   D2A 2131   6.569   2.647   6.750
  163POPC   C3A 2132   6.608   2.588   6.450
  163POPC   C4A 2133   6.629   2.641   6.150
  163POPC   C1B 2134   6.239   2.716   7.050
  163POPC   C2B 2135   6.226   2.762   6.750
  163POPC   C3B 2136   6.282   2.729   6.450
  163POPC   C4B 2137   6.225   2.693   6.150
  164POPC   NC3 2138  10.315   6.362   7.950
  164POPC   PO4 2139  10.375   6.399   7.650
  164POPC   GL1 2140  10.318   6.365   7.350
  164POPC   GL2 2141  10.161   6.465   7.350
  164POPC   C1A 2142  10.328   6.405   7.050
  164POPC   D2A 2143  10.306   6.393   6.750
  164POPC   C3A 2144  10.327   6.403   6.450
  164POPC   C4A 2145  10.308   6.366   6.150
  164POPC   C1B 2146  10.017   6.462   7.050
  164POPC   C2B 2147   9.965   6.457   6.750
  164POPC   C3B 2148  10.004   6.494   6.450
  164POPC   C4B 2149  10.041   6.465   6.150
  165POPC   NC3 2150   7.873   4.815   7.950
  165POPC   PO4 2151   7.833   4.770   7.650
  165POPC   GL1 2152   7.833   4.814   7.350
  165POPC   GL2 2153   7.900   4.891   7.350
  165POPC   C1A 2154   7.816   4.746   7.050
  165POPC   D2A 2155   7.813   4.818   6.750
  165POPC   C3A 2156   7.834   4.746   6.450
  165POPC   C4A 2157   7.796   4.736   6.150
  165POPC   C1B 2158   7.975   5.058   7.050
  165POPC   C2B 2159   8.047   5.081   6.750
  165POPC   C3B 2160   8.056   5.048   6.450
  165POPC   C4B 2161   7.970   5.076   6.150
  166POPC   NC3 2162   6.358   8.831   7.950
  166POPC   PO4 2163   6.329   8.821   7.650
  166POPC   GL1 2164   6.364   8.796   7.350
  166POPC   GL2 2165   6.393   8.680   7.350
  166POPC   C1A 2166   6.401   8.857   7.050
  166POPC   D2A 2167   6.356   8.803   6.750
  166POPC   C3A 2168   6.339   8.871   6.450
  166POPC   C4A 2169   6.358   8.820   6.150
  166POPC   C1B 2170   6.463   8.466   7.050
  166POPC   C2B 2171   6.450   8.523   6.750
  166POPC   C3B 2172   6.430   8.466   6.450
  166POPC   C4B 2173   6.492   8.462   6.150
  167POPC   NC3 2174   9.258   1.057   7.950
  167POPC   PO4 2175   9.302   1.077   7.650
  167POPC   GL1 2176   9.280   1.057   7.350
  167POPC   GL2 2177   9.409   1.138   7.350
  167POPC   C1A 2178   9.253   1.141   7.050
  167POPC   D2A 2179   9.302   1.060   6.750
  167POPC   C3A 2180   9.241   1.135   6.450
  167POPC   C4A 2181   9.299   1.115   6.150
  167POPC   C1B 2182   9.629   1.227   7.050
  167POPC   C2B 2183   9.573   1.269   6.750
  167POPC   C3B 2184   9.603   1.258   6.450
  167POPC   C4B 2185   9.588   1.221   6.150
  168POPC   NC3 2186   1.960   3.984   7.950
  168POPC   PO4 2187   2.015   4.035   7.650
  168POPC   GL1 2188   1.950   4.013   7.350
  168POPC   GL2 2189   1.937   4.181   7.350
  168POPC   C1A 2190   1.954   4.056   7.050
  168POPC   D2A 2191   2.018   4.040   6.750
  168POPC   C3A 2192   1.933   3.995   6.450
  168POPC   C4A 2193   2.010   4.043   6.150
  168POPC   C1B 2194   1.831   4.385   7.050
  168POPC   C2B 2195   1.906   4.348   6.750
  168POPC   C3B 2196   1.851   4.345   6.450
  168POPC   C4B 2197   1.883   4.335   6.150
  169POPC   NC3 2198   4.340   2.000   7.950
  169POPC   PO4 2199   4.372   2.032   7.650
  169POPC   GL1 2200   4.365   1.973   7.350
  169POPC   GL2 2201   4.136   1.974   7.350
  169POPC   C1A 2202   4.350   1.960   7.050
  169POPC   D2A 2203   4.304   2.020   6.750
  169POPC   C3A 2204   4.379   2.046   6.450
  169POPC   C4A 2205   4.377   1.991   6.150
  169POPC   C1B 2206   3.987   1.844   7.050
  169POPC   C2B 2207   4.055   1.804   6.750
  169POPC   C3B 2208   4.016   1.889   6.450
  169POPC   C4B 2209   4.012   1.841   6.150
  170POPC   NC3 2210   2.650   2.838   7.950
  170POPC   PO4 2211   2.587   2.839   7.650
  170POPC   GL1 2212   2.610   2.865   7.350
  170POPC   GL2 2213   2.681   2.677   7.350
  170POPC   C1A 2214   2.664   2.875   7.050
  170POPC   D2A 2215   2.599   2.795   6.750
  170POPC   C3A 2216   2.676   2.801   6.450
  170POPC   C4A 2217   2.596   2.839   6.150
  170POPC   C1B 2218   2.679   2.482   7.050
  170POPC   C2B 2219   2.718   2.526   6.750
  170POPC   C3B 2220   2.762   2.546   6.450
  170POPC   C4B 2221   2.752   2.488   6.150
  171POPC   NC3 2222   7.108   3.639   7.950
  171POPC   PO4 2223   7.094   3.551   7.650
  171POPC   GL1 2224   7.184   3.600   7.350
  171POPC   GL2 2225   7.207   3.459   7.350
  171POPC   C1A 2226   7.156   3.553   7.050
  171POPC   D2A 2227   7.151   3.628   6.750
  171POPC   C3A 2228   7.087   3.618   6.450
  171POPC   C4A 2229   7.141   3.582   6.150
  171POPC   C1B 2230   7.182   3.265   7.050
  171POPC   C2B 2231   7.182   3.303   6.750
  171POPC   C3B 2232   7.185   3.278   6.450
  171POPC   C4B 2233   7.203   3.223   6.150
  172POPC   NC3 2234   6.548   3.394   7.950
  172POPC   PO4 2235   6.548   3.351   7.650
  172POPC   GL1 2236   6.559   3.420   7.350
  172POPC   GL2 2237   6.375   3.449   7.350
  172POPC   C1A 2238   6.624   3.349   7.050
  172POPC   D2A 2239   6.562   3.412   6.750
  172POPC   C3A 2240   6.561   3.394   6.450
  172POPC   C4A 2241   6.633   3.405   6.150
  172POPC   C1B 2242   6.244   3.477   7.050
  172POPC   C2B 2243   6.234   3.457   6.750
  172POPC   C3B 2244   6.298   3.467   6.450
  172POPC   C4B 2245   6.273   3.512   6.150
  173POPC   NC3 2246   3.322   1.785   7.950
  173POPC   PO4 2247   3.303   1.840   7.650
  173POPC   GL1 2248   3.308   1.846   7.350
  173POPC   GL2 2249   3.467   1.974   7.350
  173POPC   C1A 2250   3.279   1.836   7.050
  173POPC   D2A 2251   3.346   1.815   6.750
  173POPC   C3A 2252   3.265   1.797   6.450
  173POPC   C4A 2253   3.293   1.806   6.150
  173POPC   C1B 2254   3.518   1.994   7.050
  173POPC   C2B 2255   3.530   2.080   6.750
  173POPC   C3B 2256   3.593   2.060   6.450
  173POPC   C4B 2257   3.591   2.084   6.150
  174POPC   NC3 2258   3.600   7.277   7.950
  174POPC   PO4 2259   3.571   7.278   7.650
  174POPC   GL1 2260   3.535   7.264   7.350
  174POPC   GL2 2261   3.459   7.148   7.350
  174POPC   C1A 2262   3.607   7.301   7.050
  174POPC   D2A 2263   3.551   7.321   6.750
  174POPC   C3A 2264   3.531   7.254   6.450
  174POPC   C4A 2265   3.570   7.290   6.150
  174POPC   C1B 2266   3.250   7.100   7.050
  174POPC   C2B 2267   3.265   7.105   6.750
  174POPC   C3B 2268   3.319   7.035   6.450
  174POPC   C4B 2269   3.294   7.050   6.150
  175POPC   NC3 2270   1.790   4.937   7.950
  175POPC   PO4 2271   1.770   4.945   7.650
  175POPC   GL1 2272   1.728   4.911   7.350
  175POPC   GL2 2273   1.945   4.960   7.350
  175POPC   C1A 2274   1.783   4.896   7.050
  175POPC   D2A 2275   1.737   4.903   6.750
  175POPC   C3A 2276   1.707   4.881   6.450
  175POPC   C4A 2277   1.722   4.878   6.150
  175POPC   C1B 2278   2.128   4.917   7.050
  175POPC   C2B 2279   2.133   4.975   6.750
  175POPC   C3B 2280   2.114   4.940   6.450
  175POPC   C4B 2281   2.069   4.918   6.150
  176POPC   NC3 2282   7.013   8.789   7.950
  176POPC   PO4 2283   7.104   8.770   7.650
  176POPC   GL1 2284   7.014   8.829   7.350
  176POPC   GL2 2285   7.171   8.706   7.350
  176POPC   C1A 2286   7.016   8.795   7.050
  176POPC   D2A 2287   7.084   8.799   6.750
  176POPC   C3A 2288   7.020   8.762   6.450
  176POPC   C4A 2289   7.083   8.832   6.150
  176POPC   C1B 2290   7.259   8.562   7.050
  176POPC   C2B 2291   7.260   8.524   6.750
  176POPC   C3B 2292   7.286   8.518   6.450
  176POPC   C4B 2293   7.338   8.528   6.150
  177POPC   NC3 2294   3.384   0.593   7.950
  177POPC   PO4 2295   3.447   0.597   7.650
  177POPC   GL1 2296   3.368   0.588   7.350
  177POPC   GL2 2297   3.432   0.429   7.350
  177POPC   C1A 2298   3.427   0.560   7.050
  177POPC   D2A 2299   3.389   0.583   6.750
  177POPC   C3A 2300   3.390   0.591   6.450
  177POPC   C4A 2301   3.377   0.604   6.150
  177POPC   C1B 2302   3.404   0.300   7.050
  177POPC   C2B 2303   3.419   0.298   6.750
  177POPC   C3B 2304   3.418   0.300   6.450
  177POPC   C4B 2305   3.430   0.250   6.150
  178POPC   NC3 2306   4.089   8.847   7.950
  178POPC   PO4 2307   4.009   8.847   7.650
  178POPC   GL1 2308   4.080   8.849   7.350
  178POPC   GL2 2309   4.135   8.634   7.350
  178POPC   C1A 2310   4.061   8.794   7.050
  178POPC   D2A 2311   4.062   8.815   6.750
  178POPC   C3A 2312   4.053   8.800   6.450
  178POPC   C4A 2313   4.077   8.825   6.150
  178POPC   C1B 2314   4.326   8.518   7.050
  178POPC   C2B 2315   4.275   8.536   6.750
  178POPC   C3B 2316   4.328   8.520   6.450
  178POPC   C4B 2317   4.279   8.581   6.150
  179POPC   NC3 2318  10.375   1.908   7.950
  179POPC   PO4 2319  10.298   1.918   7.650
  179POPC   GL1 2320  10.381   1.836   7.350
  179POPC   GL2 2321  10.217   1.925   7.350
  179POPC   C1A 2322  10.379   1.836   7.050
  179POPC   D2A 2323  10.296   1.895   6.750
  179POPC   C3A 2324  10.380   1.853   6.450
  179POPC   C4A 2325  10.344   1.839   6.150
  179POPC   C1B 2326   9.963   1.951   7.050
  179POPC   C2B 2327   9.963   2.003   6.750
  179POPC   C3B 2328  10.057   1.939   6.450
  179POPC   C4B 2329  10.050   1.990   6.150
  180POPC   NC3 2330   1.183   7.302   7.950
  180POPC   PO4 2331   1.207   7.339   7.650
  180POPC   GL1 2332   1.141   7.326   7.350
  180POPC   GL2 2333   1.165   7.159   7.350
  180POPC   C1A 2334   1.146   7.312   7.050
  180POPC   D2A 2335   1.152   7.360   6.750
  180POPC   C3A 2336   1.144   7.343   6.450
  180POPC   C4A 2337   1.189   7.336   6.150
  180POPC   C1B 2338   1.162   6.994   7.050
  180POPC   C2B 2339   1.166   6.975   6.750
  180POPC   C3B 2340   1.119   6.965   6.450
  180POPC   C4B 2341   1.141   7.036   6.150
  181POPC   NC3 2342   9.992   2.597   7.950
  181POPC   PO4 2343   9.960   2.597   7.650
  181POPC   GL1 2344   9.988   2.585   7.350
  181POPC   GL2 2345  10.219   2.680   7.350
  181POPC   C1A 2346   9.963   2.647   7.050
  181POPC   D2A 2347   9.994   2.674   6.750
  181POPC   C3A 2348   9.959   2.636   6.450
  181POPC   C4A 2349   9.966   2.642   6.150
  181POPC   C1B 2350  10.384   2.678   7.050
  181POPC   C2B 2351  10.383   2.716   6.750
  181POPC   C3B 2352  10.366   2.700   6.450
  181POPC   C4B 2353  10.385   2.761   6.150
  182POPC   NC3 2354  10.160   9.227   7.950
  182POPC   PO4 2355  10.181   9.281   7.650
  182POPC   GL1 2356  10.133   9.252   7.350
  182POPC   GL2 2357  10.190   9.416   7.350
  182POPC   C1A 2358  10.107   9.285   7.050
  182POPC   D2A 2359  10.178   9.260   6.750
  182POPC   C3A 2360  10.147   9.272   6.450
  182POPC   C4A 2361  10.185   9.241   6.150
  182POPC   C1B 2362  10.243   9.553   7.050
  182POPC   C2B 2363  10.173   9.564   6.750
  182POPC   C3B 2364  10.172   9.621   6.450
  182POPC   C4B 2365  10.222   9.573   6.150
  183POPC   NC3 2366  10.215   6.987   7.950
  183POPC   PO4 2367  10.148   7.049   7.650
  183POPC   GL1 2368  10.204   6.963   7.350
  183POPC   GL2 2369  10.188   7.152   7.350
  183POPC   C1A 2370  10.199   6.994   7.050
  183POPC   D2A 2371  10.141   6.984   6.750
  183POPC   C3A 2372  10.177   7.009   6.450
  183POPC   C4A 2373  10.208   6.986   6.150
  183POPC   C1B 2374  10.167   7.348   7.050
  183POPC   C2B 2375  10.177   7.334   6.750
  183POPC   C3B 2376  10.169   7.337   6.450
  183POPC   C4B 2377  10.198   7.376   6.150
  184POPC   NC3 2378   8.606   2.857   7.950
  184POPC   PO4 2379   8.593   2.814   7.650
  184POPC   GL1 2380   8.596   2.814   7.350
  184POPC   GL2 2381   8.633   2.677   7.350
  184POPC   C1A 2382   8.613   2.870   7.050
  184POPC   D2A 2383   8.594   2.870   6.750
  184POPC   C3A 2384   8.608   2.796   6.450
  184POPC   C4A 2385   8.669   2.846   6.150
  184POPC   C1B 2386   8.719   2.499   7.050
  184POPC   C2B 2387   8.699   2.524   6.750
  184POPC   C3B 2388   8.704   2.552   6.450
  184POPC   C4B 2389   8.743   2.476   6.150
  185POPC   NC3 2390   6.575   0.382   4.050
  185POPC   PO4 2391   6.624   0.395   4.350
  185POPC   GL1 2392   6.643   0.418   4.650
  185POPC   GL2 2393   6.383   0.459   4.650
  185POPC   C1A 2394   6.600   0.402   4.950
  185POPC   D2A 2395   6.554   0.379   5.250
  185POPC   C3A 2396   6.621   0.416   5.550
  185POPC   C4A 2397   6.634   0.359   5.850
  185POPC   C1B 2398   6.212   0.493   4.950
  185POPC   C2B 2399   6.241   0.447   5.250
  185POPC   C3B 2400   6.259   0.455   5.550
  185POPC   C4B 2401   6.210   0.434   5.850
  186POPC   NC3 2402   5.805   1.923   4.050
  186POPC   PO4 2403   5.844   1.883   4.350
  186POPC   GL1 2404   5.830   1.899   4.650
  186POPC   GL2 2405   5.672   1.897   4.650
  186POPC   C1A 2406   5.819   1.878   4.950
  186POPC   D2A 2407   5.820   1.924   5.250
  186POPC   C3A 2408   5.800   1.944   5.550
  186POPC   C4A 2409   5.812   1.919   5.850
  186POPC   C1B 2410   5.547   1.937   4.950
  186POPC   C2B 2411   5.538   1.978   5.250
  186POPC   C3B 2412   5.507   1.987   5.550
  186POPC   C4B 2413   5.465   1.981   5.850
  187POPC   NC3 2414   0.481   9.602   4.050
  187POPC   PO4 2415   0.559   9.610   4.350
  187POPC   GL1 2416   0.501   9.589   4.650
  187POPC   GL2 2417   0.444   9.400   4.650
  187POPC   C1A 2418   0.477   9.586   4.950
  187POPC   D2A 2419   0.558   9.607   5.250
  187POPC   C3A 2420   0.527   9.595   5.550
  187POPC   C4A 2421   0.541   9.565   5.850
  187POPC   C1B 2422   0.361   9.234   4.950
  187POPC   C2B 2423   0.294   9.250   5.250
  187POPC   C3B 2424   0.309   9.265   5.550
  187POPC   C4B 2425   0.342   9.271   5.850
  188POPC   NC3 2426   3.461   0.641   4.050
  188POPC   PO4 2427   3.427   0.573   4.350
  188POPC   GL1 2428   3.433   0.587   4.650
  188POPC   GL2 2429   3.470   0.433   4.650
  188POPC   C1A 2430   3.406   0.620   4.950
  188POPC   D2A 2431   3.470   0.591   5.250
  188POPC   C3A 2432   3.411   0.608   5.550
  188POPC   C4A 2433   3.443   0.642   5.850
  188POPC   C1B 2434   3.433   0.214   4.950
  188POPC   C2B 2435   3.348   0.220   5.250
  188POPC   C3B 2436   3.426   0.249   5.550
  188POPC   C4B 2437   3.349   0.235   5.850
  189POPC   NC3 2438   2.532   4.226   4.050
  189POPC   PO4 2439   2.484   4.164   4.350
  189POPC   GL1 2440   2.514   4.134   4.650
  189POPC   GL2 2441   2.653   4.128   4.650
  189POPC   C1A 2442   2.542   4.221   4.950
  189POPC   D2A 2443   2.489   4.197   5.250
  189POPC   C3A 2444   2.503   4.203   5.550
  189POPC   C4A 2445   2.487   4.214   5.850
  189POPC   C1B 2446   2.878   4.191   4.950
  189POPC   C2B 2447   2.835   4.168   5.250
  189POPC   C3B 2448   2.881   4.167   5.550
  189POPC   C4B 2449   2.871   4.180   5.850
  190POPC   NC3 2450   9.297   8.013   4.050
  190POPC   PO4 2451   9.249   7.997   4.350
  190POPC   GL1 2452   9.251   8.001   4.650
  190POPC   GL2 2453   9.446   7.887   4.650
  190POPC   C1A 2454   9.316   7.990   4.950
  190POPC   D2A 2455   9.263   8.038   5.250
  190POPC   C3A 2456   9.304   7.995   5.550
  190POPC   C4A 2457   9.321   7.994   5.850
  190POPC   C1B 2458   9.560   7.832   4.950
  190POPC   C2B 2459   9.564   7.792   5.250
  190POPC   C3B 2460   9.558   7.831   5.550
  190POPC   C4B 2461   9.621   7.858   5.850
  191POPC   NC3 2462   9.560   6.581   4.050
  191POPC   PO4 2463   9.494   6.523   4.350
  191POPC   GL1 2464   9.488   6.542   4.650
  191POPC   GL2 2465   9.438   6.381   4.650
  191POPC   C1A 2466   9.488   6.526   4.950
  191POPC   D2A 2467   9.567   6.597   5.250
  191POPC   C3A 2468   9.533   6.605   5.550
  191POPC   C4A 2469   9.490   6.547   5.850
  191POPC   C1B 2470   9.357   6.269   4.950
  191POPC   C2B 2471   9.308   6.266   5.250
  191POPC   C3B 2472   9.327   6.328   5.550
  191POPC   C4B 2473   9.330   6.326   5.850
  192POPC   NC3 2474   3.591   7.201   4.050
  192POPC   PO4 2475   3.623   7.221   4.350
  192POPC   GL1 2476   3.621   7.203   4.650
  192POPC   GL2 2477   3.437   7.195   4.650
  192POPC   C1A 2478   3.592   7.205   4.950
  192POPC   D2A 2479   3.602   7.195   5.250
  192POPC   C3A 2480   3.596   7.198   5.550
  192POPC   C4A 2481   3.583   7.225   5.850
  192POPC   C1B 2482   3.273   7.097   4.950
  192POPC   C2B 2483   3.286   7.120   5.250
  192POPC   C3B 2484   3.290   7.145   5.550
  192POPC   C4B 2485   3.248   7.131   5.850
  193POPC   NC3 2486   9.383   9.969   4.050
  193POPC   PO4 2487   9.399  10.027   4.350
  193POPC   GL1 2488   9.392  10.055   4.650
  193POPC   GL2 2489   9.464  10.213   4.650
  193POPC   C1A 2490   9.337   9.967   4.950
  193POPC   D2A 2491   9.412   9.980   5.250
  193POPC   C3A 2492   9.416  10.054   5.550
  193POPC   C4A 2493   9.348   9.970   5.850
  193POPC   C1B 2494   9.453  10.365   4.950
  193POPC   C2B 2495   9.480  10.312   5.250
  193POPC   C3B 2496   9.467  10.383   5.550
  193POPC   C4B 2497   9.456  10.341   5.850
  194POPC   NC3 2498   9.590   2.566   4.050
  194POPC   PO4 2499   9.574   2.604   4.350
  194POPC   GL1 2500   9.562   2.550   4.650
  194POPC   GL2 2501   9.407   2.715   4.650
  194POPC   C1A 2502   9.600   2.591   4.950
  194POPC   D2A 2503   9.594   2.548   5.250
  194POPC   C3A 2504   9.568   2.613   5.550
  194POPC   C4A 2505   9.554   2.561   5.850
  194POPC   C1B 2506   9.301   2.747   4.950
  194POPC   C2B 2507   9.287   2.762   5.250
  194POPC   C3B 2508   9.318   2.799   5.550
  194POPC   C4B 2509   9.266   2.766   5.850
  195POPC   NC3 2510   8.809   8.049   4.050
  195POPC   PO4 2511   8.727   8.057   4.350
  195POPC   GL1 2512   8.758   8.076   4.650
  195POPC   GL2 2513   8.637   7.918   4.650
  195POPC   C1A 2514   8.723   8.120   4.950
  195POPC   D2A 2515   8.741   8.039   5.250
  195POPC   C3A 2516   8.744   8.070   5.550
  195POPC   C4A 2517   8.780   8.050   5.850
  195POPC   C1B 2518   8.633   7.780   4.950
  195POPC   C2B 2519   8.624   7.751   5.250
  195POPC   C3B 2520   8.583   7.811   5.550
  195POPC   C4B 2521   8.575   7.771   5.850
  196POPC   NC3 2522   5.031   0.534   4.050
  196POPC   PO4 2523   5.030   0.478   4.350
  196POPC   GL1 2524   5.042   0.538   4.650
  196POPC   GL2 2525   4.884   0.436   4.650
  196POPC   C1A 2526   5.083   0.534   4.950
  196POPC   D2A 2527   5.094   0.530   5.250
  196POPC   C3A 2528   5.064   0.556   5.550
  196POPC   C4A 2529   5.025   0.476   5.850
  196POPC   C1B 2530   4.816   0.376   4.950
  196POPC   C2B 2531   4.759   0.335   5.250
  196POPC   C3B 2532   4.787   0.295   5.550
  196POPC   C4B 2533   4.794   0.309   5.850
  197POPC   NC3 2534   5.487  10.186   4.050
  197POPC   PO4 2535   5.495  10.127   4.350
  197POPC   GL1 2536   5.521  10.195   4.650
  197POPC   GL2 2537   5.691  10.169   4.650
  197POPC   C1A 2538   5.461  10.155   4.950
  197POPC   D2A 2539   5.529  10.157   5.250
  197POPC   C3A 2540   5.496  10.182   5.550
  197POPC   C4A 2541   5.494  10.174   5.850
  197POPC   C1B 2542   5.840  10.154   4.950
  197POPC   C2B 2543   5.850  10.203   5.250
  197POPC   C3B 2544   5.863  10.203   5.550
  197POPC   C4B 2545   5.800  10.160   5.850
  198POPC   NC3 2546  10.039   8.009   4.050
  198POPC   PO4 2547  10.002   8.012   4.350
  198POPC   GL1 2548  10.060   7.994   4.650
  198POPC   GL2 2549  10.176   7.876   4.650
  198POPC   C1A 2550  10.036   8.007   4.950
  198POPC   D2A 2551  10.088   8.025   5.250
  198POPC   C3A 2552  10.088   8.078   5.550
  198POPC   C4A 2553  10.089   8.043   5.850
  198POPC   C1B 2554  10.331   7.795   4.950
  198POPC   C2B 2555  10.310   7.823   5.250
  198POPC   C3B 2556  10.332   7.855   5.550
  198POPC   C4B 2557  10.324   7.820   5.850
  199POPC   NC3 2558   2.511   1.143   4.050
  199POPC   PO4 2559   2.509   1.121   4.350
  199POPC   GL1 2560   2.455   1.176   4.650
  199POPC   GL2 2561   2.715   1.140   4.650
  199POPC   C1A 2562   2.499   1.180   4.950
  199POPC   D2A 2563   2.498   1.098   5.250
  199POPC   C3A 2564   2.488   1.106   5.550
  199POPC   C4A 2565   2.502   1.110   5.850
  199POPC   C1B 2566   2.812   1.204   4.950
  199POPC   C2B 2567   2.829   1.240   5.250
  199POPC   C3B 2568   2.820   1.161   5.550
  199POPC   C4B 2569   2.801   1.206   5.850
  200POPC   NC3 2570   5.651   8.535   4.050
  200POPC   PO4 2571   5.659   8.459   4.350
  200POPC   GL1 2572   5.662   8.498   4.650
  200POPC   GL2 2573   5.653   8.629   4.650
  200POPC   C1A 2574   5.636   8.497   4.950
  200POPC   D2A 2575   5.629   8.458   5.250
  200POPC   C3A 2576   5.649   8.536   5.550
  200POPC   C4A 2577   5.618   8.539   5.850
  200POPC   C1B 2578   5.678   8.850   4.950
  200POPC   C2B 2579   5.676   8.848   5.250
  200POPC   C3B 2580   5.673   8.890   5.550
  200POPC   C4B 2581   5.700   8.852   5.850
  201POPC   NC3 2582   7.145   1.031   4.050
  201POPC   PO4 2583   7.166   1.036   4.350
  201POPC   GL1 2584   7.193   1.042   4.650
  201POPC   GL2 2585   7.187   1.151   4.650
  201POPC   C1A 2586   7.180   0.986   4.950
  201POPC   D2A 2587   7.187   0.963   5.250
  201POPC   C3A 2588   7.149   1.020   5.550
  201POPC   C4A 2589   7.212   1.008   5.850
  201POPC   C1B 2590   7.212   1.334   4.950
  201POPC   C2B 2591   7.132   1.324   5.250
  201POPC   C3B 2592   7.222   1.354   5.550
  201POPC   C4B 2593   7.225   1.324   5.850
  202POPC   NC3 2594   5.535   8.004   4.050
  202POPC   PO4 2595   5.471   7.998   4.350
  202POPC   GL1 2596   5.492   7.931   4.650
  202POPC   GL2 2597   5.669   7.900   4.650
  202POPC   C1A 2598   5.474   7.971   4.950
  202POPC   D2A 2599   5.500   7.986   5.250
  202POPC   C3A 2600   5.501   7.951   5.550
  202POPC   C4A 2601   5.534   7.929   5.850
  202POPC   C1B 2602   5.841   7.895   4.950
  202POPC   C2B 2603   5.799   7.856   5.250
  202POPC   C3B 2604   5.829   7.844   5.550
  202POPC   C4B 2605   5.855   7.881   5.850
  203POPC   NC3 2606   8.006   4.328   4.050
  203POPC   PO4 2607   7.981   4.356   4.350
  203POPC   GL1 2608   7.982   4.312   4.650
  203POPC   GL2 2609   7.927   4.136   4.650
  203POPC   C1A 2610   7.985   4.331   4.950
  203POPC   D2A 2611   8.048   4.293   5.250
  203POPC   C3A 2612   7.981   4.341   5.550
  203POPC   C4A 2613   8.054   4.334   5.850
  203POPC   C1B 2614   7.882   4.048   4.950
  203POPC   C2B 2615   7.809   4.070   5.250
  203POPC   C3B 2616   7.873   3.989   5.550
  203POPC   C4B 2617   7.813   4.012   5.850
  204POPC   NC3 2618  10.347   0.323   4.050
  204POPC   PO4 2619  10.310   0.379   4.350
  204POPC   GL1 2620  10.333   0.308   4.650
  204POPC   GL2 2621  10.197   0.443   4.650
  204POPC   C1A 2622  10.320   0.368   4.950
  204POPC   D2A 2623  10.299   0.331   5.250
  204POPC   C3A 2624  10.330   0.378   5.550
  204POPC   C4A 2625  10.354   0.365   5.850
  204POPC   C1B 2626  10.062   0.508   4.950
  204POPC   C2B 2627  10.003   0.480   5.250
  204POPC   C3B 2628   9.969   0.501   5.550
  204POPC   C4B 2629   9.972   0.534   5.850
  205POPC   NC3 2630   6.959   8.664   4.050
  205POPC   PO4 2631   6.979   8.660   4.350
  205POPC   GL1 2632   7.044   8.672   4.650
  205POPC   GL2 2633   7.157   8.664   4.650
  205POPC   C1A 2634   6.995   8.655   4.950
  205POPC   D2A 2635   7.048   8.667   5.250
  205POPC   C3A 2636   7.005   8.663   5.550
  205POPC   C4A 2637   6.987   8.729   5.850
  205POPC   C1B 2638   7.325   8.621   4.950
  205POPC   C2B 2639   7.392   8.646   5.250
  205POPC   C3B 2640   7.346   8.630   5.550
  205POPC   C4B 2641   7.338   8.602   5.850
  206POPC   NC3 2642   4.310   9.383   4.050
  206POPC   PO4 2643   4.357   9.393   4.350
  206POPC   GL1 2644   4.391   9.416   4.650
  206POPC   GL2 2645   4.207   9.386   4.650
  206POPC   C1A 2646   4.387   9.428   4.950
  206POPC   D2A 2647   4.333   9.442   5.250
  206POPC   C3A 2648   4.387   9.425   5.550
  206POPC   C4A 2649   4.394   9.403   5.850
  206POPC   C1B 2650   4.045   9.487   4.950
  206POPC   C2B 2651   3.968   9.475   5.250
  206POPC   C3B 2652   3.982   9.482   5.550
  206POPC   C4B 2653   4.025   9.403   5.850
  207POPC   NC3 2654   8.751   0.525   4.050
  207POPC   PO4 2655   8.774   0.532   4.350
  207POPC   GL1 2656   8.802   0.540   4.650
  207POPC   GL2 2657   8.714   0.389   4.650
  207POPC   C1A 2658   8.767   0.537   4.950
  207POPC   D2A 2659   8.775   0.618   5.250
  207POPC   C3A 2660   8.813   0.539   5.550
  207POPC   C4A 2661   8.735   0.558   5.850
  207POPC   C1B 2662   8.544   0.236   4.950
  207POPC   C2B 2663   8.579   0.278   5.250
  207POPC   C3B 2664   8.586   0.296   5.550
  207POPC   C4B 2665   8.568   0.290   5.850
  208POPC   NC3 2666  10.033   2.651   4.050
  208POPC   PO4 2667   9.967   2.614   4.350
  208POPC   GL1 2668  10.029   2.597   4.650
  208POPC   GL2 2669  10.213   2.636   4.650
  208POPC   C1A 2670   9.976   2.603   4.950
  208POPC   D2A 2671  10.041   2.664   5.250
  208POPC   C3A 2672   9.973   2.579   5.550
  208POPC   C4A 2673  10.023   2.673   5.850
  208POPC   C1B 2674  10.385   2.711   4.950
  208POPC   C2B 2675  10.337   2.754   5.250
  208POPC   C3B 2676  10.387   2.711   5.550
  208POPC   C4B 2677  10.370   2.723   5.850
  209POPC   NC3 2678   8.673   3.303   4.050
  209POPC   PO4 2679   8.689   3.258   4.350
  209POPC   GL1 2680   8.698   3.269   4.650
  209POPC   GL2 2681   8.703   3.451   4.650
  209POPC   C1A 2682   8.738   3.264   4.950
  209POPC   D2A 2683   8.717   3.246   5.250
  209POPC   C3A 2684   8.700   3.257   5.550
  209POPC   C4A 2685   8.733   3.292   5.850
  209POPC   C1B 2686   8.675   3.546   4.950
  209POPC   C2B 2687   8.606   3.589   5.250
  209POPC   C3B 2688   8.654   3.598   5.550
  209POPC   C4B 2689   8.661   3.645   5.850
  210POPC   NC3 2690   8.092   7.133   4.050
  210POPC   PO4 2691   8.121   7.162   4.350
  210POPC   GL1 2692   8.049   7.175   4.650
  210POPC   GL2 2693   7.908   7.203   4.650
  210POPC   C1A 2694   8.073   7.175   4.950
  210POPC   D2A 2695   8.109   7.114   5.250
  210POPC   C3A 2696   8.070   7.159   5.550
  210POPC   C4A 2697   8.067   7.173   5.850
  210POPC   C1B 2698   7.765   7.182   4.950
  210POPC   C2B 2699   7.737   7.177   5.250
  210POPC   C3B 2700   7.776   7.244   5.550
  210POPC   C4B 2701   7.711   7.179   5.850
  211POPC   NC3 2702   0.322   8.115   4.050
  211POPC   PO4 2703   0.343   8.099   4.350
  211POPC   GL1 2704   0.345   8.047   4.650
  211POPC   GL2 2705   0.380   7.914   4.650
  211POPC   C1A 2706   0.371   8.107   4.950
  211POPC   D2A 2707   0.392   8.129   5.250
  211POPC   C3A 2708   0.405   8.064   5.550
  211POPC   C4A 2709   0.353   8.067   5.850
  211POPC   C1B 2710   0.524   7.793   4.950
  211POPC   C2B 2711   0.481   7.805   5.250
  211POPC   C3B 2712   0.475   7.718   5.550
  211POPC   C4B 2713   0.444   7.792   5.850
  212POPC   NC3 2714   7.212   6.992   4.050
  212POPC   PO4 2715   7.221   6.970   4.350
  212POPC   GL1 2716   7.302   7.063   4.650
  212POPC   GL2 2717   7.196   7.157   4.650
  212POPC   C1A 2718   7.247   7.021   4.950
  212POPC   D2A 2719   7.252   7.034   5.250
  212POPC   C3A 2720   7.293   7.008   5.550
  212POPC   C4A 2721   7.228   7.065   5.850
  212POPC   C1B 2722   7.057   7.293   4.950
  212POPC   C2B 2723   7.108   7.296   5.250
  212POPC   C3B 2724   7.089   7.284   5.550
  212POPC   C4B 2725   7.097   7.367   5.850
  213POPC   NC3 2726   8.530  10.086   4.050
  213POPC   PO4 2727   8.514  10.059   4.350
  213POPC   GL1 2728   8.583  10.068   4.650
  213POPC   GL2 2729   8.627  10.165   4.650
  213POPC   C1A 2730   8.557  10.076   4.950
  213POPC   D2A 2731   8.528  10.086   5.250
  213POPC   C3A 2732   8.543  10.091   5.550
  213POPC   C4A 2733   8.514  10.000   5.850
  213POPC   C1B 2734   8.785  10.274   4.950
  213POPC   C2B 2735   8.765  10.288   5.250
  213POPC   C3B 2736   8.812  10.327   5.550
  213POPC   C4B 2737   8.807  10.277   5.850
  214POPC   NC3 2738   9.495   5.797   4.050
  214POPC   PO4 2739   9.489   5.782   4.350
  214POPC   GL1 2740   9.510   5.809   4.650
  214POPC   GL2 2741   9.414   5.637   4.650
  214POPC   C1A 2742   9.579   5.762   4.950
  214POPC   D2A 2743   9.585   5.782   5.250
  214POPC   C3A 2744   9.511   5.764   5.550
  214POPC   C4A 2745   9.534   5.789   5.850
  214POPC   C1B 2746   9.299   5.537   4.950
  214POPC   C2B 2747   9.308   5.513   5.250
  214POPC   C3B 2748   9.282   5.566   5.550
  214POPC   C4B 2749   9.329   5.569   5.850
  215POPC   NC3 2750   6.300   1.981   4.050
  215POPC   PO4 2751   6.225   1.973   4.350
  215POPC   GL1 2752   6.216   1.981   4.650
  215POPC   GL2 2753   6.384   1.925   4.650
  215POPC   C1A 2754   6.284   2.000   4.950
  215POPC   D2A 2755   6.243   1.949   5.250
  215POPC   C3A 2756   6.265   1.969   5.550
  215POPC   C4A 2757   6.261   2.003   5.850
  215POPC   C1B 2758   6.575   1.840   4.950
  215POPC   C2B 2759   6.535   1.828   5.250
  215POPC   C3B 2760   6.595   1.900   5.550
  215POPC   C4B 2761   6.564   1.853   5.850
  216POPC   NC3 2762   1.895   3.236   4.050
  216POPC   PO4 2763   1.890   3.219   4.350
  216POPC   GL1 2764   1.868   3.293   4.650
  216POPC   GL2 2765   1.891   3.427   4.650
  216POPC   C1A 2766   1.851   3.250   4.950
  216POPC   D2A 2767   1.853   3.230   5.250
  216POPC   C3A 2768   1.839   3.305   5.550
  216POPC   C4A 2769   1.867   3.250   5.850
  216POPC   C1B 2770   2.025   3.542   4.950
  216POPC   C2B 2771   2.036   3.538   5.250
  216POPC   C3B 2772   2.030   3.554   5.550
  216POPC   C4B 2773   2.018   3.592   5.850
  217POPC   NC3 2774   6.573   3.585   4.050
  217POPC   PO4 2775   6.570   3.596   4.350
  217POPC   GL1 2776   6.547   3.532   4.650
  217POPC   GL2 2777   6.431   3.442   4.650
  217POPC   C1A 2778   6.516   3.572   4.950
  217POPC   D2A 2779   6.565   3.546   5.250
  217POPC   C3A 2780   6.519   3.571   5.550
  217POPC   C4A 2781   6.518   3.549   5.850
  217POPC   C1B 2782   6.304   3.305   4.950
  217POPC   C2B 2783   6.318   3.254   5.250
  217POPC   C3B 2784   6.319   3.272   5.550
  217POPC   C4B 2785   6.312   3.295   5.850
  218POPC   NC3 2786  10.298   7.236   4.050
  218POPC   PO4 2787  10.307   7.228   4.350
  218POPC   GL1 2788  10.387   7.180   4.650
  218POPC   GL2 2789  10.206   7.182   4.650
  218POPC   C1A 2790  10.332   7.254   4.950
  218POPC   D2A 2791  10.355   7.216   5.250
  218POPC   C3A 2792  10.316   7.262   5.550
  218POPC   C4A 2793  10.331   7.247   5.850
  218POPC   C1B 2794   9.972   7.147   4.950
  218POPC   C2B 2795  10.034   7.093   5.250
  218POPC   C3B 2796  10.021   7.108   5.550
  218POPC   C4B 2797  10.016   7.111   5.850
  219POPC   NC3 2798   0.320  10.346   4.050
  219POPC   PO4 2799   0.316  10.381   4.350
  219POPC   GL1 2800   0.319  10.344   4.650
  219POPC   GL2 2801   0.475  10.162   4.650
  219POPC   C1A 2802   0.361  10.327   4.950
  219POPC   D2A 2803   0.345  10.379   5.250
  219POPC   C3A 2804   0.325  10.339   5.550
  219POPC   C4A 2805   0.389  10.318   5.850
  219POPC   C1B 2806   0.503  10.056   4.950
  219POPC   C2B 2807   0.513   9.971   5.250
  219POPC   C3B 2808   0.446  10.032   5.550
  219POPC   C4B 2809   0.517   9.974   5.850
  220POPC   NC3 2810   4.292   0.507   4.050
  220POPC   PO4 2811   4.309   0.547   4.350
  220POPC   GL1 2812   4.321   0.558   4.650
  220POPC   GL2 2813   4.214   0.473   4.650
  220POPC   C1A 2814   4.253   0.532   4.950
  220POPC   D2A 2815   4.298   0.521   5.250
  220POPC   C3A 2816   4.283   0.502   5.550
  220POPC   C4A 2817   4.318   0.571   5.850
  220POPC   C1B 2818   4.042   0.304   4.950
  220POPC   C2B 2819   4.097   0.316   5.250
  220POPC   C3B 2820   4.072   0.262   5.550
  220POPC   C4B 2821   4.036   0.281   5.850
  221POPC   NC3 2822   2.045   7.817   4.050
  221POPC   PO4 2823   2.078   7.812   4.350
  221POPC   GL1 2824   2.118   7.874   4.650
  221POPC   GL2 2825   1.968   7.926   4.650
  221POPC   C1A 2826   2.044   7.789   4.950
  221POPC   D2A 2827   2.096   7.803   5.250
  221POPC   C3A 2828   2.058   7.797   5.550
  221POPC   C4A 2829   2.035   7.799   5.850
  221POPC   C1B 2830   1.756   8.055   4.950
  221POPC   C2B 2831   1.786   8.033   5.250
  221POPC   C3B 2832   1.805   7.985   5.550
  221POPC   C4B 2833   1.758   7.985   5.850
  222POPC   NC3 2834   2.108  10.111   4.050
  222POPC   PO4 2835   2.145  10.196   4.350
  222POPC   GL1 2836   2.081  10.159   4.650
  222POPC   GL2 2837   1.933  10.133   4.650
  222POPC   C1A 2838   2.091  10.130   4.950
  222POPC   D2A 2839   2.099  10.195   5.250
  222POPC   C3A 2840   2.080  10.151   5.550
  222POPC   C4A 2841   2.073  10.149   5.850
  222POPC   C1B 2842   1.771  10.192   4.950
  222POPC   C2B 2843   1.730  10.166   5.250
  222POPC   C3B 2844   1.721  10.193   5.550
  222POPC   C4B 2845   1.718  10.155   5.850
  223POPC   NC3 2846   2.133   5.647   4.050
  223POPC   PO4 2847   2.035   5.628   4.350
  223POPC   GL1 2848   2.038   5.644   4.650
  223POPC   GL2 2849   1.917   5.630   4.650
  223POPC   C1A 2850   2.088   5.556   4.950
  223POPC   D2A 2851   2.099   5.561   5.250
  223POPC   C3A 2852   2.092   5.580   5.550
  223POPC   C4A 2853   2.052   5.568   5.850
  223POPC   C1B 2854   1.771   5.786   4.950
  223POPC   C2B 2855   1.799   5.761   5.250
  223POPC   C3B 2856   1.807   5.742   5.550
  223POPC   C4B 2857   1.757   5.764   5.850
  224POPC   NC3 2858   3.519   9.324   4.050
  224POPC   PO4 2859   3.552   9.243   4.350
  224POPC   GL1 2860   3.539   9.298   4.650
  224POPC   GL2 2861   3.457   9.468   4.650
  224POPC   C1A 2862   3.514   9.256   4.950
  224POPC   D2A 2863   3.523   9.303   5.250
  224POPC   C3A 2864   3.479   9.258   5.550
  224POPC   C4A 2865   3.513   9.297   5.850
  224POPC   C1B 2866   3.354   9.592   4.950
  224POPC   C2B 2867   3.356   9.606   5.250
  224POPC   C3B 2868   3.281   9.550   5.550
  224POPC   C4B 2869   3.302   9.556   5.850
  225POPC   NC3 2870   2.081   7.041   4.050
  225POPC   PO4 2871   2.057   7.072   4.350
  225POPC   GL1 2872   2.080   7.032   4.650
  225POPC   GL2 2873   1.950   7.152   4.650
  225POPC   C1A 2874   2.088   7.047   4.950
  225POPC   D2A 2875   2.066   7.110   5.250
  225POPC   C3A 2876   2.044   7.068   5.550
  225POPC   C4A 2877   2.015   7.059   5.850
  225POPC   C1B 2878   1.832   7.237   4.950
  225POPC   C2B 2879   1.817   7.244   5.250
  225POPC   C3B 2880   1.764   7.242   5.550
  225POPC   C4B 2881   1.762   7.322   5.850
  226POPC   NC3 2882   1.864   6.284   4.050
  226POPC   PO4 2883   1.843   6.275   4.350
  226POPC   GL1 2884   1.789   6.319   4.650
  226POPC   GL2 2885   1.938   6.405   4.650
  226POPC   C1A 2886   1.862   6.281   4.950
  226POPC   D2A 2887   1.858   6.243   5.250
  226POPC   C3A 2888   1.856   6.265   5.550
  226POPC   C4A 2889   1.781   6.290   5.850
  226POPC   C1B 2890   1.973   6.560   4.950
  226POPC   C2B 2891   2.056   6.578   5.250
  226POPC   C3B 2892   2.038   6.535   5.550
  226POPC   C4B 2893   1.996   6.604   5.850
  227POPC   NC3 2894   4.997   1.750   4.050
  227POPC   PO4 2895   5.026   1.772   4.350
  227POPC   GL1 2896   5.028   1.789   4.650
  227POPC   GL2 2897   4.955   1.955   4.650
  227POPC   C1A 2898   5.003   1.792   4.950
  227POPC   D2A 2899   5.000   1.801   5.250
  227POPC   C3A 2900   5.020   1.735   5.550
  227POPC   C4A 2901   5.054   1.787   5.850
  227POPC   C1B 2902   4.887   2.054   4.950
  227POPC   C2B 2903   4.822   2.101   5.250
  227POPC   C3B 2904   4.871   2.098   5.550
  227POPC   C4B 2905   4.837   2.098   5.850
  228POPC   NC3 2906   7.854  10.325   4.050
  228POPC   PO4 2907   7.771  10.351   4.350
  228POPC   GL1 2908   7.809  10.329   4.650
  228POPC   GL2 2909   7.958  10.214   4.650
  228POPC   C1A 2910   7.846  10.347   4.950
  228POPC   D2A 2911   7.815  10.328   5.250
  228POPC   C3A 2912   7.807  10.343   5.550
  228POPC   C4A 2913   7.800  10.345   5.850
  228POPC   C1B 2914   8.077  10.075   4.950
  228POPC   C2B 2915   8.074  10.046   5.250
  228POPC   C3B 2916   8.036  10.030   5.550
  228POPC   C4B 2917   8.040   9.991   5.850
  229POPC   NC3 2918   4.880   7.704   4.050
  229POPC   PO4 2919   4.894   7.782   4.350
  229POPC   GL1 2920   4.938   7.736   4.650
  229POPC   GL2 2921   4.923   7.961   4.650
  229POPC   C1A 2922   4.918   7.755   4.950
  229POPC   D2A 2923   4.893   7.715   5.250
  229POPC   C3A 2924   4.895   7.709   5.550
  229POPC   C4A 2925   4.861   7.746   5.850
  229POPC   C1B 2926   4.910   8.058   4.950
  229POPC   C2B 2927   4.935   8.138   5.250
  229POPC   C3B 2928   4.954   8.074   5.550
  229POPC   C4B 2929   4.963   8.135   5.850
  230POPC   NC3 2930   2.854   8.799   4.050
  230POPC   PO4 2931   2.847   8.775   4.350
  230POPC   GL1 2932   2.781   8.782   4.650
  230POPC   GL2 2933   2.641   8.637   4.650
  230POPC   C1A 2934   2.849   8.740   4.950
  230POPC   D2A 2935   2.848   8.803   5.250
  230POPC   C3A 2936   2.798   8.827   5.550
  230POPC   C4A 2937   2.779   8.796   5.850
  230POPC   C1B 2938   2.541   8.559   4.950
  230POPC   C2B 2939   2.514   8.564   5.250
  230POPC   C3B 2940   2.576   8.549   5.550
  230POPC   C4B 2941   2.573   8.572   5.850
  231POPC   NC3 2942   6.531   7.303   4.050
  231POPC   PO4 2943   6.520   7.331   4.350
  231POPC   GL1 2944   6.563   7.246   4.650
  231POPC   GL2 2945   6.432   7.190   4.650
  231POPC   C1A 2946   6.537   7.269   4.950
  231POPC   D2A 2947   6.568   7.334   5.250
  231POPC   C3A 2948   6.546   7.279   5.550
  231POPC   C4A 2949   6.599   7.281   5.850
  231POPC   C1B 2950   6.256   7.105   4.950
  231POPC   C2B 2951   6.276   7.012   5.250
  231POPC   C3B 2952   6.333   7.041   5.550
  231POPC   C4B 2953   6.302   7.081   5.850
  232POPC   NC3 2954   1.298   5.116   4.050
  232POPC   PO4 2955   1.237   5.079   4.350
  232POPC   GL1 2956   1.282   5.089   4.650
  232POPC   GL2 2957   1.200   4.938   4.650
  232POPC   C1A 2958   1.286   5.032   4.950
  232POPC   D2A 2959   1.252   5.126   5.250
  232POPC   C3A 2960   1.282   5.066   5.550
  232POPC   C4A 2961   1.232   5.040   5.850
  232POPC   C1B 2962   1.080   4.754   4.950
  232POPC   C2B 2963   1.111   4.796   5.250
  232POPC   C3B 2964   1.114   4.740   5.550
  232POPC   C4B 2965   1.081   4.793   5.850
  233POPC   NC3 2966   2.507   0.341   4.050
  233POPC   PO4 2967   2.478   0.346   4.350
  233POPC   GL1 2968   2.506   0.350   4.650
  233POPC   GL2 2969   2.673   0.403   4.650
  233POPC   C1A 2970   2.552   0.381   4.950
  233POPC   D2A 2971   2.486   0.382   5.250
  233POPC   C3A 2972   2.491   0.361   5.550
  233POPC   C4A 2973   2.507   0.329   5.850
  233POPC   C1B 2974   2.870   0.491   4.950
  233POPC   C2B 2975   2.860   0.474   5.250
  233POPC   C3B 2976   2.799   0.536   5.550
  233POPC   C4B 2977   2.859   0.486   5.850
  234POPC   NC3 2978   8.625   5.481   4.050
  234POPC   PO4 2979   8.706   5.538   4.350
  234POPC   GL1 2980   8.703   5.514   4.650
  234POPC   GL2 2981   8.647   5.671   4.650
  234POPC   C1A 2982   8.622   5.465   4.950
  234POPC   D2A 2983   8.699   5.517   5.250
  234POPC   C3A 2984   8.636   5.549   5.550
  234POPC   C4A 2985   8.650   5.534   5.850
  234POPC   C1B 2986   8.712   5.807   4.950
  234POPC   C2B 2987   8.711   5.869   5.250
  234POPC   C3B 2988   8.724   5.884   5.550
  234POPC   C4B 2989   8.715   5.832   5.850
  235POPC   NC3 2990   3.340  10.062   4.050
  235POPC   PO4 2991   3.337  10.084   4.350
  235POPC   GL1 2992   3.274  10.066   4.650
  235POPC   GL2 2993   3.456  10.198   4.650
  235POPC   C1A 2994   3.287  10.093   4.950
  235POPC   D2A 2995   3.269  10.060   5.250
  235POPC   C3A 2996   3.296  10.031   5.550
  235POPC   C4A 2997   3.306  10.036   5.850
  235POPC   C1B 2998   3.537  10.351   4.950
  235POPC   C2B 2999   3.570  10.344   5.250
  235POPC   C3B 3000   3.516  10.296   5.550
  235POPC   C4B 3001   3.577  10.323   5.850
  236POPC   NC3 3002   6.242  10.193   4.050
  236POPC   PO4 3003   6.223  10.164   4.350
  236POPC   GL1 3004   6.245  10.182   4.650
  236POPC   GL2 3005   6.469  10.203   4.650
  236POPC   C1A 3006   6.276  10.155   4.950
  236POPC   D2A 3007   6.217  10.138   5.250
  236POPC   C3A 3008   6.263  10.206   5.550
  236POPC   C4A 3009   6.240  10.190   5.850
  236POPC   C1B 3010   6.649  10.182   4.950
  236POPC   C2B 3011   6.614  10.214   5.250
  236POPC   C3B 3012   6.566  10.144   5.550
  236POPC   C4B 3013   6.613  10.227   5.850
  237POPC   NC3 3014   6.570   8.626   4.050
  237POPC   PO4 3015   6.639   8.588   4.350
  237POPC   GL1 3016   6.584   8.638   4.650
  237POPC   GL2 3017   6.460   8.629   4.650
  237POPC   C1A 3018   6.557   8.631   4.950
  237POPC   D2A 3019   6.557   8.587   5.250
  237POPC   C3A 3020   6.615   8.639   5.550
  237POPC   C4A 3021   6.642   8.640   5.850
  237POPC   C1B 3022   6.303   8.680   4.950
  237POPC   C2B 3023   6.236   8.680   5.250
  237POPC   C3B 3024   6.211   8.761   5.550
  237POPC   C4B 3025   6.230   8.693   5.850
  238POPC   NC3 3026   7.061   2.066   4.050
  238POPC   PO4 3027   7.086   2.087   4.350
  238POPC   GL1 3028   7.040   2.083   4.650
  238POPC   GL2 3029   7.224   1.917   4.650
  238POPC   C1A 3030   7.058   2.085   4.950
  238POPC   D2A 3031   7.066   2.050   5.250
  238POPC   C3A 3032   7.101   2.074   5.550
  238POPC   C4A 3033   7.107   2.078   5.850
  238POPC   C1B 3034   7.256   1.776   4.950
  238POPC   C2B 3035   7.274   1.746   5.250
  238POPC   C3B 3036   7.248   1.768   5.550
  238POPC   C4B 3037   7.270   1.793   5.850
  239POPC   NC3 3038   9.567   1.262   4.050
  239POPC   PO4 3039   9.586   1.258   4.350
  239POPC   GL1 3040   9.543   1.323   4.650
  239POPC   GL2 3041   9.456   1.157   4.650
  239POPC   C1A 3042   9.541   1.239   4.950
  239POPC   D2A 3043   9.549   1.243   5.250
  239POPC   C3A 3044   9.562   1.240   5.550
  239POPC   C4A 3045   9.570   1.321   5.850
  239POPC   C1B 3046   9.244   1.030   4.950
  239POPC   C2B 3047   9.276   1.097   5.250
  239POPC   C3B 3048   9.285   1.099   5.550
  239POPC   C4B 3049   9.313   1.092   5.850
  240POPC   NC3 3050   9.635   4.895   4.050
  240POPC   PO4 3051   9.640   4.885   4.350
  240POPC   GL1 3052   9.568   4.943   4.650
  240POPC   GL2 3053   9.381   4.922   4.650
  240POPC   C1A 3054   9.631   4.863   4.950
  240POPC   D2A 3055   9.567   4.862   5.250
  240POPC   C3A 3056   9.553   4.891   5.550
  240POPC   C4A 3057   9.601   4.932   5.850
  240POPC   C1B 3058   9.229   4.915   4.950
  240POPC   C2B 3059   9.289   4.906   5.250
  240POPC   C3B 3060   9.223   4.935   5.550
  240POPC   C4B 3061   9.251   4.968   5.850
  241POPC   NC3 3062   7.316   0.563   4.050
  241POPC   PO4 3063   7.342   0.562   4.350
  241POPC   GL1 3064   7.325   0.529   4.650
  241POPC   GL2 3065   7.149   0.418   4.650
  241POPC   C1A 3066   7.295   0.525   4.950
  241POPC   D2A 3067   7.360   0.565   5.250
  241POPC   C3A 3068   7.361   0.527   5.550
  241POPC   C4A 3069   7.311   0.530   5.850
  241POPC   C1B 3070   7.050   0.336   4.950
  241POPC   C2B 3071   7.058   0.289   5.250
  241POPC   C3B 3072   7.021   0.286   5.550
  241POPC   C4B 3073   7.013   0.353   5.850
  242POPC   NC3 3074   2.077   4.195   4.050
  242POPC   PO4 3075   2.108   4.169   4.350
  242POPC   GL1 3076   2.056   4.178   4.650
  242POPC   GL2 3077   1.965   4.153   4.650
  242POPC   C1A 3078   2.144   4.211   4.950
  242POPC   D2A 3079   2.077   4.217   5.250
  242POPC   C3A 3080   2.122   4.181   5.550
  242POPC   C4A 3081   2.139   4.154   5.850
  242POPC   C1B 3082   1.717   4.192   4.950
  242POPC   C2B 3083   1.796   4.150   5.250
  242POPC   C3B 3084   1.737   4.211   5.550
  242POPC   C4B 3085   1.784   4.152   5.850
  243POPC   NC3 3086   2.639   7.398   4.050
  243POPC   PO4 3087   2.660   7.372   4.350
  243POPC   GL1 3088   2.693   7.335   4.650
  243POPC   GL2 3089   2.661   7.153   4.650
  243POPC   C1A 3090   2.648   7.368   4.950
  243POPC   D2A 3091   2.732   7.352   5.250
  243POPC   C3A 3092   2.700   7.388   5.550
  243POPC   C4A 3093   2.676   7.352   5.850
  243POPC   C1B 3094   2.621   6.960   4.950
  243POPC   C2B 3095   2.666   7.045   5.250
  243POPC   C3B 3096   2.635   7.050   5.550
  243POPC   C4B 3097   2.684   6.951   5.850
  244POPC   NC3 3098   3.588   1.224   4.050
  244POPC   PO4 3099   3.598   1.229   4.350
  244POPC   GL1 3100   3.589   1.206   4.650
  244POPC   GL2 3101   3.413   1.176   4.650
  244POPC   C1A 3102   3.579   1.265   4.950
  244POPC   D2A 3103   3.601   1.214   5.250
  244POPC   C3A 3104   3.540   1.270   5.550
  244POPC   C4A 3105   3.549   1.264   5.850
  244POPC   C1B 3106   3.255   1.077   4.950
  244POPC   C2B 3107   3.305   1.075   5.250
  244POPC   C3B 3108   3.262   1.123   5.550
  244POPC   C4B 3109   3.301   1.083   5.850
  245POPC   NC3 3110   1.895   8.880   4.050
  245POPC   PO4 3111   1.946   8.889   4.350
  245POPC   GL1 3112   1.882   8.813   4.650
  245POPC   GL2 3113   1.896   8.705   4.650
  245POPC   C1A 3114   1.934   8.846   4.950
  245POPC   D2A 3115   1.881   8.877   5.250
  245POPC   C3A 3116   1.926   8.834   5.550
  245POPC   C4A 3117   1.936   8.888   5.850
  245POPC   C1B 3118   1.922   8.464   4.950
  245POPC   C2B 3119   1.958   8.498   5.250
  245POPC   C3B 3120   1.957   8.529   5.550
  245POPC   C4B 3121   1.978   8.481   5.850
  246POPC   NC3 3122   7.176   2.830   4.050
  246POPC   PO4 3123   7.216   2.852   4.350
  246POPC   GL1 3124   7.162   2.847   4.650
  246POPC   GL2 3125   7.211   2.646   4.650
  246POPC   C1A 3126   7.210   2.858   4.950
  246POPC   D2A 3127   7.236   2.888   5.250
  246POPC   C3A 3128   7.144   2.820   5.550
  246POPC   C4A 3129   7.229   2.874   5.850
  246POPC   C1B 3130   7.194   2.488   4.950
  246POPC   C2B 3131   7.129   2.457   5.250
  246POPC   C3B 3132   7.121   2.452   5.550
  246POPC   C4B 3133   7.146   2.481   5.850
  247POPC   NC3 3134   7.299   3.450   4.050
  247POPC   PO4 3135   7.289   3.481   4.350
  247POPC   GL1 3136   7.325   3.511   4.650
  247POPC   GL2 3137   7.224   3.400   4.650
  247POPC   C1A 3138   7.332   3.489   4.950
  247POPC   D2A 3139   7.386   3.456   5.250
  247POPC   C3A 3140   7.370   3.487   5.550
  247POPC   C4A 3141   7.365   3.487   5.850
  247POPC   C1B 3142   6.976   3.326   4.950
  247POPC   C2B 3143   7.032   3.405   5.250
  247POPC   C3B 3144   7.015   3.326   5.550
  247POPC   C4B 3145   6.964   3.376   5.850
  248POPC   NC3 3146   2.746   3.631   4.050
  248POPC   PO4 3147   2.725   3.611   4.350
  248POPC   GL1 3148   2.683   3.548   4.650
  248POPC   GL2 3149   2.635   3.470   4.650
  248POPC   C1A 3150   2.748   3.555   4.950
  248POPC   D2A 3151   2.681   3.587   5.250
  248POPC   C3A 3152   2.765   3.560   5.550
  248POPC   C4A 3153   2.735   3.643   5.850
  248POPC   C1B 3154   2.644   3.304   4.950
  248POPC   C2B 3155   2.597   3.211   5.250
  248POPC   C3B 3156   2.606   3.215   5.550
  248POPC   C4B 3157   2.589   3.248   5.850
  249POPC   NC3 3158   9.451   0.216   4.050
  249POPC   PO4 3159   9.389   0.299   4.350
  249POPC   GL1 3160   9.419   0.214   4.650
  249POPC   GL2 3161   9.466   0.461   4.650
  249POPC   C1A 3162   9.468   0.223   4.950
  249POPC   D2A 3163   9.385   0.218   5.250
  249POPC   C3A 3164   9.403   0.265   5.550
  249POPC   C4A 3165   9.432   0.297   5.850
  249POPC   C1B 3166   9.455   0.601   4.950
  249POPC   C2B 3167   9.425   0.636   5.250
  249POPC   C3B 3168   9.416   0.626   5.550
  249POPC   C4B 3169   9.405   0.588   5.850
  250POPC   NC3 3170   8.859   8.576   4.050
  250POPC   PO4 3171   8.881   8.653   4.350
  250POPC   GL1 3172   8.817   8.570   4.650
  250POPC   GL2 3173   8.679   8.688   4.650
  250POPC   C1A 3174   8.812   8.616   4.950
  250POPC   D2A 3175   8.827   8.605   5.250
  250POPC   C3A 3176   8.866   8.563   5.550
  250POPC   C4A 3177   8.846   8.595   5.850
  250POPC   C1B 3178   8.477   8.755   4.950
  250POPC   C2B 3179   8.506   8.710   5.250
  250POPC   C3B 3180   8.528   8.709   5.550
  250POPC   C4B 3181   8.545   8.788   5.850
  251POPC   NC3 3182   2.030   0.520   4.050
  251POPC   PO4 3183   2.059   0.490   4.350
  251POPC   GL1 3184   2.056   0.523   4.650
  251POPC   GL2 3185   1.937   0.437   4.650
  251POPC   C1A 3186   2.029   0.526   4.950
  251POPC   D2A 3187   2.064   0.514   5.250
  251POPC   C3A 3188   2.041   0.486   5.550
  251POPC   C4A 3189   2.039   0.463   5.850
  251POPC   C1B 3190   1.760   0.365   4.950
  251POPC   C2B 3191   1.726   0.304   5.250
  251POPC   C3B 3192   1.752   0.332   5.550
  251POPC   C4B 3193   1.747   0.313   5.850
  252POPC   NC3 3194   4.234   3.569   4.050
  252POPC   PO4 3195   4.253   3.553   4.350
  252POPC   GL1 3196   4.250   3.589   4.650
  252POPC   GL2 3197   4.157   3.423   4.650
  252POPC   C1A 3198   4.228   3.534   4.950
  252POPC   D2A 3199   4.263   3.568   5.250
  252POPC   C3A 3200   4.282   3.538   5.550
  252POPC   C4A 3201   4.251   3.611   5.850
  252POPC   C1B 3202   4.077   3.292   4.950
  252POPC   C2B 3203   4.099   3.266   5.250
  252POPC   C3B 3204   4.093   3.268   5.550
  252POPC   C4B 3205   4.126   3.312   5.850
  253POPC   NC3 3206   0.518   8.537   4.050
  253POPC   PO4 3207   0.590   8.545   4.350
  253POPC   GL1 3208   0.594   8.553   4.650
  253POPC   GL2 3209   0.462   8.638   4.650
  253POPC   C1A 3210   0.592   8.596   4.950
  253POPC   D2A 3211   0.543   8.570   5.250
  253POPC   C3A 3212   0.559   8.547   5.550
  253POPC   C4A 3213   0.523   8.575   5.850
  253POPC   C1B 3214   0.287   8.791   4.950
  253POPC   C2B 3215   0.288   8.809   5.250
  253POPC   C3B 3216   0.256   8.751   5.550
  253POPC   C4B 3217   0.279   8.829   5.850
  254POPC   NC3 3218   1.164   3.213   4.050
  254POPC   PO4 3219   1.118   3.269   4.350
  254POPC   GL1 3220   1.204   3.256   4.650
  254POPC   GL2 3221   1.156   3.416   4.650
  254POPC   C1A 3222   1.184   3.257   4.950
  254POPC   D2A 3223   1.131   3.237   5.250
  254POPC   C3A 3224   1.127   3.261   5.550
  254POPC   C4A 3225   1.122   3.274   5.850
  254POPC   C1B 3226   1.146   3.617   4.950
  254POPC   C2B 3227   1.156   3.631   5.250
  254POPC   C3B 3228   1.143   3.557   5.550
  254POPC   C4B 3229   1.180   3.597   5.850
  255POPC   NC3 3230   5.622   2.841   4.050
  255POPC   PO4 3231   5.603   2.838   4.350
  255POPC   GL1 3232   5.583   2.864   4.650
  255POPC   GL2 3233   5.650   2.686   4.650
  255POPC   C1A 3234   5.552   2.827   4.950
  255POPC   D2A 3235   5.567   2.802   5.250
  255POPC   C3A 3236   5.582   2.854   5.550
  255POPC   C4A 3237   5.563   2.857   5.850
  255POPC   C1B 3238   5.803   2.547   4.950
  255POPC   C2B 3239   5.804   2.571   5.250
  255POPC   C3B 3240   5.729   2.574   5.550
  255POPC   C4B 3241   5.756   2.551   5.850
  256POPC   NC3 3242   0.643   4.915   4.050
  256POPC   PO4 3243   0.636   4.962   4.350
  256POPC   GL1 3244   0.582   4.974   4.650
  256POPC   GL2 3245   0.416   4.954   4.650
  256POPC   C1A 3246   0.646   4.915   4.950
  256POPC   D2A 3247   0.604   4.881   5.250
  256POPC   C3A 3248   0.551   4.917   5.550
  256POPC   C4A 3249   0.579   4.895   5.850
  256POPC   C1B 3250   0.254   4.901   4.950
  256POPC   C2B 3251   0.263   4.880   5.250
  256POPC   C3B 3252   0.212   4.894   5.550
  256POPC   C4B 3253   0.235   4.933   5.850
  257POPC   NC3 3254   3.966  10.157   4.050
  257POPC   PO4 3255   4.048  10.121   4.350
  257POPC   GL1 3256   4.043  10.137   4.650
  257POPC   GL2 3257   4.170  10.175   4.650
  257POPC   C1A 3258   4.043  10.088   4.950
  257POPC   D2A 3259   4.002  10.107   5.250
  257POPC   C3A 3260   4.023  10.173   5.550
  257POPC   C4A 3261   4.009  10.090   5.850
  257POPC   C1B 3262   4.333  10.243   4.950
  257POPC   C2B 3263   4.389  10.184   5.250
  257POPC   C3B 3264   4.392  10.184   5.550
  257POPC   C4B 3265   4.298  10.238   5.850
  258POPC   NC3 3266   6.324   9.611   4.050
  258POPC   PO4 3267   6.378   9.607   4.350
  258POPC   GL1 3268   6.305   9.551   4.650
  258POPC   GL2 3269   6.404   9.452   4.650
  258POPC   C1A 3270   6.365   9.545   4.950
  258POPC   D2A 3271   6.329   9.563   5.250
  258POPC   C3A 3272   6.311   9.591   5.550
  258POPC   C4A 3273   6.343   9.618   5.850
  258POPC   C1B 3274   6.563   9.280   4.950
  258POPC   C2B 3275   6.546   9.283   5.250
  258POPC   C3B 3276   6.537   9.285   5.550
  258POPC   C4B 3277   6.560   9.275   5.850
  259POPC   NC3 3278   1.021   7.114   4.050
  259POPC   PO4 3279   1.081   7.059   4.350
  259POPC   GL1 3280   1.053   7.059   4.650
  259POPC   GL2 3281   1.216   7.222   4.650
  259POPC   C1A 3282   1.035   7.094   4.950
  259POPC   D2A 3283   0.996   7.070   5.250
  259POPC   C3A 3284   1.009   7.084   5.550
  259POPC   C4A 3285   1.081   7.077   5.850
  259POPC   C1B 3286   1.323   7.287   4.950
  259POPC   C2B 3287   1.323   7.311   5.250
  259POPC   C3B 3288   1.269   7.318   5.550
  259POPC   C4B 3289   1.360   7.232   5.850
  260POPC   NC3 3290   4.231   7.330   4.050
  260POPC   PO4 3291   4.262   7.313   4.350
  260POPC   GL1 3292   4.303   7.287   4.650
  260POPC   GL2 3293   4.185   7.177   4.650
  260POPC   C1A 3294   4.269   7.378   4.950
  260POPC   D2A 3295   4.266   7.312   5.250
  260POPC   C3A 3296   4.260   7.371   5.550
  260POPC   C4A 3297   4.286   7.319   5.850
  260POPC   C1B 3298   4.102   7.048   4.950
  260POPC   C2B 3299   4.068   7.038   5.250
  260POPC   C3B 3300   4.065   6.998   5.550
  260POPC   C4B 3301   4.107   7.006   5.850
  261POPC   NC3 3302   4.767   8.722   4.050
  261POPC   PO4 3303   4.741   8.699   4.350
  261POPC   GL1 3304   4.727   8.751   4.650
  261POPC   GL2 3305   4.936   8.667   4.650
  261POPC   C1A 3306   4.714   8.717   4.950
  261POPC   D2A 3307   4.749   8.717   5.250
  261POPC   C3A 3308   4.708   8.722   5.550
  261POPC   C4A 3309   4.752   8.755   5.850
  261POPC   C1B 3310   5.092   8.626   4.950
  261POPC   C2B 3311   5.127   8.594   5.250
  261POPC   C3B 3312   5.068   8.591   5.550
  261POPC   C4B 3313   5.130   8.622   5.850
  262POPC   NC3 3314   7.838   5.043   4.050
  262POPC   PO4 3315   7.894   5.114   4.350
  262POPC   GL1 3316   7.831   5.040   4.650
  262POPC   GL2 3317   7.943   4.916   4.650
  262POPC   C1A 3318   7.897   5.120   4.950
  262POPC   D2A 3319   7.865   5.135   5.250
  262POPC   C3A 3320   7.871   5.108   5.550
  262POPC   C4A 3321   7.911   5.133   5.850
  262POPC   C1B 3322   7.976   4.770   4.950
  262POPC   C2B 3323   8.003   4.748   5.250
  262POPC   C3B 3324   7.968   4.759   5.550
  262POPC   C4B 3325   8.007   4.790   5.850
  263POPC   NC3 3326   7.746   8.714   4.050
  263POPC   PO4 3327   7.729   8.689   4.350
  263POPC   GL1 3328   7.787   8.726   4.650
  263POPC   GL2 3329   7.964   8.666   4.650
  263POPC   C1A 3330   7.730   8.724   4.950
  263POPC   D2A 3331   7.763   8.765   5.250
  263POPC   C3A 3332   7.750   8.742   5.550
  263POPC   C4A 3333   7.761   8.733   5.850
  263POPC   C1B 3334   8.099   8.620   4.950
  263POPC   C2B 3335   8.064   8.605   5.250
  263POPC   C3B 3336   8.124   8.609   5.550
  263POPC   C4B 3337   8.051   8.662   5.850
  264POPC   NC3 3338   8.543   1.229   4.050
  264POPC   PO4 3339   8.496   1.177   4.350
  264POPC   GL1 3340   8.471   1.230   4.650
  264POPC   GL2 3341   8.722   1.202   4.650
  264POPC   C1A 3342   8.541   1.155   4.950
  264POPC   D2A 3343   8.467   1.227   5.250
  264POPC   C3A 3344   8.543   1.159   5.550
  264POPC   C4A 3345   8.493   1.171   5.850
  264POPC   C1B 3346   8.848   1.154   4.950
  264POPC   C2B 3347   8.806   1.150   5.250
  264POPC   C3B 3348   8.893   1.158   5.550
  264POPC   C4B 3349   8.889   1.127   5.850
  265POPC   NC3 3350   1.135   5.828   4.050
  265POPC   PO4 3351   1.046   5.861   4.350
  265POPC   GL1 3352   1.083   5.818   4.650
  265POPC   GL2 3353   1.134   5.690   4.650
  265POPC   C1A 3354   1.059   5.781   4.950
  265POPC   D2A 3355   1.087   5.843   5.250
  265POPC   C3A 3356   1.042   5.803   5.550
  265POPC   C4A 3357   1.123   5.809   5.850
  265POPC   C1B 3358   1.250   5.504   4.950
  265POPC   C2B 3359   1.238   5.569   5.250
  265POPC   C3B 3360   1.280   5.569   5.550
  265POPC   C4B 3361   1.261   5.556   5.850
  266POPC   NC3 3362   7.287   9.227   4.050
  266POPC   PO4 3363   7.275   9.234   4.350
  266POPC   GL1 3364   7.264   9.242   4.650
  266POPC   GL2 3365   7.134   9.427   4.650
  266POPC   C1A 3366   7.273   9.258   4.950
  266POPC   D2A 3367   7.243   9.249   5.250
  266POPC   C3A 3368   7.213   9.224   5.550
  266POPC   C4A 3369   7.216   9.289   5.850
  266POPC   C1B 3370   7.040   9.611   4.950
  266POPC   C2B 3371   7.080   9.605   5.250
  266POPC   C3B 3372   7.130   9.599   5.550
  266POPC   C4B 3373   7.040   9.543   5.850
  267POPC   NC3 3374   0.286   3.342   4.050
  267POPC   PO4 3375   0.308   3.347   4.350
  267POPC   GL1 3376   0.241   3.341   4.650
  267POPC   GL2 3377   0.458   3.437   4.650
  267POPC   C1A 3378   0.246   3.337   4.950
  267POPC   D2A 3379   0.295   3.319   5.250
  267POPC   C3A 3380   0.265   3.337   5.550
  267POPC   C4A 3381   0.330   3.348   5.850
  267POPC   C1B 3382   0.603   3.512   4.950
  267POPC   C2B 3383   0.516   3.558   5.250
  267POPC   C3B 3384   0.604   3.571   5.550
  267POPC   C4B 3385   0.593   3.497   5.850
  268POPC   NC3 3386   7.373  10.128   4.050
  268POPC   PO4 3387   7.317  10.042   4.350
  268POPC   GL1 3388   7.316  10.103   4.650
  268POPC   GL2 3389   7.160  10.166   4.650
  268POPC   C1A 3390   7.282  10.037   4.950
  268POPC   D2A 3391   7.285  10.112   5.250
  268POPC   C3A 3392   7.308  10.069   5.550
  268POPC   C4A 3393   7.323  10.068   5.850
  268POPC   C1B 3394   6.998  10.280   4.950
  268POPC   C2B 3395   7.014  10.215   5.250
  268POPC   C3B 3396   7.010  10.305   5.550
  268POPC   C4B 3397   6.995  10.307   5.850
  269POPC   NC3 3398   0.279   4.051   4.050
  269POPC   PO4 3399   0.264   4.093   4.350
  269POPC   GL1 3400   0.303   4.086   4.650
  269POPC   GL2 3401   0.429   4.219   4.650
  269POPC   C1A 3402   0.331   4.062   4.950
  269POPC   D2A 3403   0.248   4.072   5.250
  269POPC   C3A 3404   0.256   4.107   5.550
  269POPC   C4A 3405   0.331   4.063   5.850
  269POPC   C1B 3406   0.563   4.323   4.950
  269POPC   C2B 3407   0.612   4.310   5.250
  269POPC   C3B 3408   0.571   4.235   5.550
  269POPC   C4B 3409   0.543   4.234   5.850
  270POPC   NC3 3410   9.262   7.331   4.050
  270POPC   PO4 3411   9.332   7.265   4.350
  270POPC   GL1 3412   9.276   7.274   4.650
  270POPC   GL2 3413   9.393   7.199   4.650
  270POPC   C1A 3414   9.350   7.296   4.950
  270POPC   D2A 3415   9.254   7.319   5.250
  270POPC   C3A 3416   9.266   7.334   5.550
  270POPC   C4A 3417   9.333   7.341   5.850
  270POPC   C1B 3418   9.529   7.076   4.950
  270POPC   C2B 3419   9.507   7.086   5.250
  270POPC   C3B 3420   9.509   7.066   5.550
  270POPC   C4B 3421   9.558   7.068   5.850
  271POPC   NC3 3422   2.586   2.787   4.050
  271POPC   PO4 3423   2.558   2.769   4.350
  271POPC   GL1 3424   2.581   2.796   4.650
  271POPC   GL2 3425   2.635   2.701   4.650
  271POPC   C1A 3426   2.567   2.763   4.950
  271POPC   D2A 3427   2.594   2.857   5.250
  271POPC   C3A 3428   2.584   2.827   5.550
  271POPC   C4A 3429   2.525   2.806   5.850
  271POPC   C1B 3430   2.781   2.534   4.950
  271POPC   C2B 3431   2.741   2.565   5.250
  271POPC   C3B 3432   2.750   2.530   5.550
  271POPC   C4B 3433   2.757   2.589   5.850
  272POPC   NC3 3434   9.350   3.983   4.050
  272POPC   PO4 3435   9.420   4.030   4.350
  272POPC   GL1 3436   9.415   3.997   4.650
  272POPC   GL2 3437   9.390   4.145   4.650
  272POPC   C1A 3438   9.409   4.024   4.950
  272POPC   D2A 3439   9.410   3.967   5.250
  272POPC   C3A 3440   9.400   3.989   5.550
  272POPC   C4A 3441   9.422   4.053   5.850
  272POPC   C1B 3442   9.492   4.324   4.950
  272POPC   C2B 3443   9.436   4.342   5.250
  272POPC   C3B 3444   9.428   4.367   5.550
  272POPC   C4B 3445   9.439   4.352   5.850
  273POPC   NC3 3446   4.897   2.874   4.050
  273POPC   PO4 3447   4.930   2.806   4.350
  273POPC   GL1 3448   4.867   2.816   4.650
  273POPC   GL2 3449   4.931   2.700   4.650
  273POPC   C1A 3450   4.920   2.833   4.950
  273POPC   D2A 3451   4.924   2.862   5.250
  273POPC   C3A 3452   4.906   2.876   5.550
  273POPC   C4A 3453   4.859   2.855   5.850
  273POPC   C1B 3454   4.980   2.518   4.950
  273POPC   C2B 3455   4.945   2.547   5.250
  273POPC   C3B 3456   4.982   2.529   5.550
  273POPC   C4B 3457   4.960   2.462   5.850
  274POPC   NC3 3458   0.568   6.340   4.050
  274POPC   PO4 3459   0.614   6.386   4.350
  274POPC   GL1 3460   0.598   6.338   4.650
  274POPC   GL2 3461   0.384   6.384   4.650
  274POPC   C1A 3462   0.537   6.353   4.950
  274POPC   D2A 3463   0.542   6.387   5.250
  274POPC   C3A 3464   0.542   6.373   5.550
  274POPC   C4A 3465   0.581   6.319   5.850
  274POPC   C1B 3466   0.282   6.464   4.950
  274POPC   C2B 3467   0.218   6.492   5.250
  274POPC   C3B 3468   0.317   6.520   5.550
  274POPC   C4B 3469   0.299   6.492   5.850
  275POPC   NC3 3470   0.641   1.153   4.050
  275POPC   PO4 3471   0.637   1.119   4.350
  275POPC   GL1 3472   0.595   1.189   4.650
  275POPC   GL2 3473   0.443   1.166   4.650
  275POPC   C1A 3474   0.599   1.136   4.950
  275POPC   D2A 3475   0.641   1.145   5.250
  275POPC   C3A 3476   0.558   1.181   5.550
  275POPC   C4A 3477   0.598   1.124   5.850
  275POPC   C1B 3478   0.265   1.214   4.950
  275POPC   C2B 3479   0.230   1.187   5.250
  275POPC   C3B 3480   0.269   1.242   5.550
  275POPC   C4B 3481   0.248   1.237   5.850
  276POPC   NC3 3482   6.325   7.834   4.050
  276POPC   PO4 3483   6.323   7.839   4.350
  276POPC   GL1 3484   6.352   7.836   4.650
  276POPC   GL2 3485   6.436   7.908   4.650
  276POPC   C1A 3486   6.348   7.752   4.950
  276POPC   D2A 3487   6.354   7.757   5.250
  276POPC   C3A 3488   6.293   7.824   5.550
  276POPC   C4A 3489   6.297   7.781   5.850
  276POPC   C1B 3490   6.512   8.072   4.950
  276POPC   C2B 3491   6.512   8.084   5.250
  276POPC   C3B 3492   6.529   8.054   5.550
  276POPC   C4B 3493   6.565   8.042   5.850
  277POPC   NC3 3494   8.136   1.188   4.050
  277POPC   PO4 3495   8.075   1.180   4.350
  277POPC   GL1 3496   8.068   1.134   4.650
  277POPC   GL2 3497   7.915   1.164   4.650
  277POPC   C1A 3498   8.075   1.103   4.950
  277POPC   D2A 3499   8.142   1.177   5.250
  277POPC   C3A 3500   8.064   1.107   5.550
  277POPC   C4A 3501   8.104   1.184   5.850
  277POPC   C1B 3502   7.739   1.188   4.950
  277POPC   C2B 3503   7.775   1.181   5.250
  277POPC   C3B 3504   7.751   1.177   5.550
  277POPC   C4B 3505   7.707   1.158   5.850
  278POPC   NC3 3506   0.349   5.529   4.050
  278POPC   PO4 3507   0.295   5.502   4.350
  278POPC   GL1 3508   0.346   5.569   4.650
  278POPC   GL2 3509   0.435   5.720   4.650
  278POPC   C1A 3510   0.360   5.570   4.950
  278POPC   D2A 3511   0.312   5.492   5.250
  278POPC   C3A 3512   0.333   5.538   5.550
  278POPC   C4A 3513   0.337   5.493   5.850
  278POPC   C1B 3514   0.547   5.792   4.950
  278POPC   C2B 3515   0.519   5.806   5.250
  278POPC   C3B 3516   0.529   5.802   5.550
  278POPC   C4B 3517   0.502   5.806   5.850
  279POPC   NC3 3518   8.527   6.241   4.050
  279POPC   PO4 3519   8.549   6.338   4.350
  279POPC   GL1 3520   8.574   6.321   4.650
  279POPC   GL2 3521   8.685   6.473   4.650
  279POPC   C1A 3522   8.612   6.269   4.950
  279POPC   D2A 3523   8.555   6.297   5.250
  279POPC   C3A 3524   8.582   6.337   5.550
  279POPC   C4A 3525   8.525   6.260   5.850
  279POPC   C1B 3526   8.782   6.562   4.950
  279POPC   C2B 3527   8.763   6.553   5.250
  279POPC   C3B 3528   8.803   6.563   5.550
  279POPC   C4B 3529   8.787   6.597   5.850
  280POPC   NC3 3530   5.755   9.616   4.050
  280POPC   PO4 3531   5.766   9.542   4.350
  280POPC   GL1 3532   5.748   9.626   4.650
  280POPC   GL2 3533   5.643   9.472   4.650
  280POPC   C1A 3534   5.795   9.543   4.950
  280POPC   D2A 3535   5.803   9.568   5.250
  280POPC   C3A 3536   5.739   9.586   5.550
  280POPC   C4A 3537   5.803   9.589   5.850
  280POPC   C1B 3538   5.632   9.269   4.950
  280POPC   C2B 3539   5.627   9.260   5.250
  280POPC   C3B 3540   5.636   9.301   5.550
  280POPC   C4B 3541   5.621   9.261   5.850
  281POPC   NC3 3542   4.128   2.533   4.050
  281POPC   PO4 3543   4.140   2.499   4.350
  281POPC   GL1 3544   4.183   2.453   4.650
  281POPC   GL2 3545   4.215   2.713   4.650
  281POPC   C1A 3546   4.126   2.514   4.950
  281POPC   D2A 3547   4.162   2.508   5.250
  281POPC   C3A 3548   4.111   2.522   5.550
  281POPC   C4A 3549   4.164   2.527   5.850
  281POPC   C1B 3550   4.193   2.836   4.950
  281POPC   C2B 3551   4.196   2.870   5.250
  281POPC   C3B 3552   4.166   2.818   5.550
  281POPC   C4B 3553   4.194   2.883   5.850
  282POPC   NC3 3554   3.574   1.920   4.050
  282POPC   PO4 3555   3.598   1.868   4.350
  282POPC   GL1 3556   3.571   1.876   4.650
  282POPC   GL2 3557   3.446   1.914   4.650
  282POPC   C1A 3558   3.541   1.894   4.950
  282POPC   D2A 3559   3.628   1.866   5.250
  282POPC   C3A 3560   3.542   1.889   5.550
  282POPC   C4A 3561   3.557   1.836   5.850
  282POPC   C1B 3562   3.281   2.023   4.950
  282POPC   C2B 3563   3.264   1.994   5.250
  282POPC   C3B 3564   3.261   1.968   5.550
  282POPC   C4B 3565   3.295   1.959   5.850
  283POPC   NC3 3566   8.039   3.510   4.050
  283POPC   PO4 3567   8.066   3.504   4.350
  283POPC   GL1 3568   8.028   3.543   4.650
  283POPC   GL2 3569   7.958   3.470   4.650
  283POPC   C1A 3570   8.055   3.529   4.950
  283POPC   D2A 3571   8.031   3.554   5.250
  283POPC   C3A 3572   8.007   3.548   5.550
  283POPC   C4A 3573   8.073   3.534   5.850
  283POPC   C1B 3574   7.775   3.280   4.950
  283POPC   C2B 3575   7.763   3.322   5.250
  283POPC   C3B 3576   7.839   3.310   5.550
  283POPC   C4B 3577   7.772   3.296   5.850
  284POPC   NC3 3578   2.062   1.200   4.050
  284POPC   PO4 3579   2.093   1.208   4.350
  284POPC   GL1 3580   2.110   1.183   4.650
  284POPC   GL2 3581   1.934   1.156   4.650
  284POPC   C1A 3582   2.141   1.185   4.950
  284POPC   D2A 3583   2.080   1.206   5.250
  284POPC   C3A 3584   2.117   1.198   5.550
  284POPC   C4A 3585   2.133   1.244   5.850
  284POPC   C1B 3586   1.750   1.116   4.950
  284POPC   C2B 3587   1.782   1.119   5.250
  284POPC   C3B 3588   1.756   1.102   5.550
  284POPC   C4B 3589   1.747   1.125   5.850
  285POPC   NC3 3590   7.185   8.064   4.050
  285POPC   PO4 3591   7.159   8.147   4.350
  285POPC   GL1 3592   7.188   8.058   4.650
  285POPC   GL2 3593   7.200   7.922   4.650
  285POPC   C1A 3594   7.141   8.050   4.950
  285POPC   D2A 3595   7.199   8.101   5.250
  285POPC   C3A 3596   7.203   8.070   5.550
  285POPC   C4A 3597   7.177   8.051   5.850
  285POPC   C1B 3598   7.206   7.772   4.950
  285POPC   C2B 3599   7.115   7.746   5.250
  285POPC   C3B 3600   7.145   7.761   5.550
  285POPC   C4B 3601   7.138   7.778   5.850
  286POPC   NC3 3602   4.359   2.035   4.050
  286POPC   PO4 3603   4.353   2.004   4.350
  286POPC   GL1 3604   4.323   1.957   4.650
  286POPC   GL2 3605   4.160   1.951   4.650
  286POPC   C1A 3606   4.309   2.017   4.950
  286POPC   D2A 3607   4.350   1.954   5.250
  286POPC   C3A 3608   4.353   2.009   5.550
  286POPC   C4A 3609   4.304   1.973   5.850
  286POPC   C1B 3610   4.060   1.911   4.950
  286POPC   C2B 3611   4.021   1.831   5.250
  286POPC   C3B 3612   4.031   1.883   5.550
  286POPC   C4B 3613   4.043   1.842   5.850
  287POPC   NC3 3614   2.127   9.480   4.050
  287POPC   PO4 3615   2.046   9.507   4.350
  287POPC   GL1 3616   2.074   9.472   4.650
  287POPC   GL2 3617   1.974   9.450   4.650
  287POPC   C1A 3618   2.056   9.443   4.950
  287POPC   D2A 3619   2.082   9.426   5.250
  287POPC   C3A 3620   2.098   9.495   5.550
  287POPC   C4A 3621   2.065   9.468   5.850
  287POPC   C1B 3622   1.804   9.356   4.950
  287POPC   C2B 3623   1.800   9.412   5.250
  287POPC   C3B 3624   1.731   9.415   5.550
  287POPC   C4B 3625   1.745   9.420   5.850
  288POPC   NC3 3626   4.968   1.035   4.050
  288POPC   PO4 3627   4.967   1.037   4.350
  288POPC   GL1 3628   4.915   0.956   4.650
  288POPC   GL2 3629   4.942   1.206   4.650
  288POPC   C1A 3630   4.943   1.047   4.950
  288POPC   D2A 3631   4.872   0.964   5.250
  288POPC   C3A 3632   4.935   1.018   5.550
  288POPC   C4A 3633   4.878   1.043   5.850
  288POPC   C1B 3634   4.969   1.356   4.950
  288POPC   C2B 3635   4.901   1.337   5.250
  288POPC   C3B 3636   4.929   1.394   5.550
  288POPC   C4B 3637   4.944   1.354   5.850
  289POPC   NC3 3638   0.633   0.434   4.050
  289POPC   PO4 3639   0.575   0.491   4.350
  289POPC   GL1 3640   0.560   0.435   4.650
  289POPC   GL2 3641   0.387   0.471   4.650
  289POPC   C1A 3642   0.573   0.425   4.950
  289POPC   D2A 3643   0.599   0.447   5.250
  289POPC   C3A 3644   0.558   0.489   5.550
  289POPC   C4A 3645   0.630   0.512   5.850
  289POPC   C1B 3646   0.208   0.344   4.950
  289POPC   C2B 3647   0.293   0.360   5.250
  289POPC   C3B 3648   0.269   0.345   5.550
  289POPC   C4B 3649   0.299   0.384   5.850
  290POPC   NC3 3650   0.454   1.746   4.050
  290POPC   PO4 3651   0.504   1.785   4.350
  290POPC   GL1 3652   0.435   1.770   4.650
  290POPC   GL2 3653   0.429   1.959   4.650
  290POPC   C1A 3654   0.501   1.761   4.950
  290POPC   D2A 3655   0.440   1.793   5.250
  290POPC   C3A 3656   0.461   1.758   5.550
  290POPC   C4A 3657   0.426   1.775   5.850
  290POPC   C1B 3658   0.406   2.100   4.950
  290POPC   C2B 3659   0.386   2.092   5.250
  290POPC   C3B 3660   0.393   2.056   5.550
  290POPC   C4B 3661   0.362   2.141   5.850
  291POPC   NC3 3662  10.304   4.248   4.050
  291POPC   PO4 3663  10.360   4.265   4.350
  291POPC   GL1 3664  10.374   4.259   4.650
  291POPC   GL2 3665  10.197   4.139   4.650
  291POPC   C1A 3666  10.298   4.267   4.950
  291POPC   D2A 3667  10.366   4.293   5.250
  291POPC   C3A 3668  10.296   4.275   5.550
  291POPC   C4A 3669  10.355   4.235   5.850
  291POPC   C1B 3670  10.006   4.081   4.950
  291POPC   C2B 3671  10.056   4.079   5.250
  291POPC   C3B 3672   9.975   4.095   5.550
  291POPC   C4B 3673  10.059   4.068   5.850
  292POPC   NC3 3674   2.720   6.589   4.050
  292POPC   PO4 3675   2.749   6.581   4.350
  292POPC   GL1 3676   2.781   6.539   4.650
  292POPC   GL2 3677   2.648   6.419   4.650
  292POPC   C1A 3678   2.747   6.559   4.950
  292POPC   D2A 3679   2.696   6.556   5.250
  292POPC   C3A 3680   2.710   6.600   5.550
  292POPC   C4A 3681   2.763   6.556   5.850
  292POPC   C1B 3682   2.634   6.271   4.950
  292POPC   C2B 3683   2.579   6.251   5.250
  292POPC   C3B 3684   2.580   6.288   5.550
  292POPC   C4B 3685   2.595   6.305   5.850
  293POPC   NC3 3686   2.509  10.099   4.050
  293POPC   PO4 3687   2.495  10.103   4.350
  293POPC   GL1 3688   2.539  10.118   4.650
  293POPC   GL2 3689   2.696  10.175   4.650
  293POPC   C1A 3690   2.512  10.075   4.950
  293POPC   D2A 3691   2.533  10.104   5.250
  293POPC   C3A 3692   2.480  10.112   5.550
  293POPC   C4A 3693   2.550  10.093   5.850
  293POPC   C1B 3694   2.798  10.218   4.950
  293POPC   C2B 3695   2.849  10.271   5.250
  293POPC   C3B 3696   2.802  10.191   5.550
  293POPC   C4B 3697   2.852  10.242   5.850
  294POPC   NC3 3698   5.852   0.461   4.050
  294POPC   PO4 3699   5.798   0.517   4.350
  294POPC   GL1 3700   5.807   0.523   4.650
  294POPC   GL2 3701   5.711   0.403   4.650
  294POPC   C1A 3702   5.886   0.443   4.950
  294POPC   D2A 3703   5.861   0.498   5.250
  294POPC   C3A 3704   5.874   0.499   5.550
  294POPC   C4A 3705   5.867   0.448   5.850
  294POPC   C1B 3706   5.464   0.331   4.950
  294POPC   C2B 3707   5.494   0.364   5.250
  294POPC   C3B 3708   5.464   0.388   5.550
  294POPC   C4B 3709   5.519   0.384   5.850
  295POPC   NC3 3710   4.066   1.108   4.050
  295POPC   PO4 3711   3.985   1.131   4.350
  295POPC   GL1 3712   4.011   1.115   4.650
  295POPC   GL2 3713   4.153   1.196   4.650
  295POPC   C1A 3714   4.051   1.097   4.950
  295POPC   D2A 3715   4.052   1.130   5.250
  295POPC   C3A 3716   4.028   1.047   5.550
  295POPC   C4A 3717   4.027   1.124   5.850
  295POPC   C1B 3718   4.363   1.226   4.950
  295POPC   C2B 3719   4.357   1.299   5.250
  295POPC   C3B 3720   4.295   1.307   5.550
  295POPC   C4B 3721   4.311   1.249   5.850
  296POPC   NC3 3722   2.613   5.481   4.050
  296POPC   PO4 3723   2.680   5.486   4.350
  296POPC   GL1 3724   2.589   5.480   4.650
  296POPC   GL2 3725   2.715   5.721   4.650
  296POPC   C1A 3726   2.604   5.534   4.950
  296POPC   D2A 3727   2.594   5.516   5.250
  296POPC   C3A 3728   2.671   5.539   5.550
  296POPC   C4A 3729   2.591   5.493   5.850
  296POPC   C1B 3730   2.680   5.832   4.950
  296POPC   C2B 3731   2.721   5.816   5.250
  296POPC   C3B 3732   2.697   5.853   5.550
  296POPC   C4B 3733   2.757   5.818   5.850
  297POPC   NC3 3734   4.786   9.560   4.050
  297POPC   PO4 3735   4.779   9.583   4.350
  297POPC   GL1 3736   4.780   9.607   4.650
  297POPC   GL2 3737   4.927   9.402   4.650
  297POPC   C1A 3738   4.859   9.598   4.950
  297POPC   D2A 3739   4.772   9.565   5.250
  297POPC   C3A 3740   4.847   9.535   5.550
  297POPC   C4A 3741   4.809   9.564   5.850
  297POPC   C1B 3742   5.048   9.327   4.950
  297POPC   C2B 3743   4.979   9.261   5.250
  297POPC   C3B 3744   5.025   9.323   5.550
  297POPC   C4B 3745   4.989   9.268   5.850
  298POPC   NC3 3746   7.800   5.595   4.050
  298POPC   PO4 3747   7.797   5.629   4.350
  298POPC   GL1 3748   7.742   5.593   4.650
  298POPC   GL2 3749   7.895   5.706   4.650
  298POPC   C1A 3750   7.758   5.568   4.950
  298POPC   D2A 3751   7.783   5.589   5.250
  298POPC   C3A 3752   7.739   5.592   5.550
  298POPC   C4A 3753   7.810   5.607   5.850
  298POPC   C1B 3754   8.103   5.740   4.950
  298POPC   C2B 3755   8.037   5.778   5.250
  298POPC   C3B 3756   8.095   5.726   5.550
  298POPC   C4B 3757   8.066   5.751   5.850
  299POPC   NC3 3758  10.135   9.285   4.050
  299POPC   PO4 3759  10.156   9.254   4.350
  299POPC   GL1 3760  10.157   9.221   4.650
  299POPC   GL2 3761  10.133   9.465   4.650
  299POPC   C1A 3762  10.160   9.268   4.950
  299POPC   D2A 3763  10.070   9.243   5.250
  299POPC   C3A 3764  10.086   9.265   5.550
  299POPC   C4A 3765  10.119   9.309   5.850
  299POPC   C1B 3766  10.212   9.560   4.950
  299POPC   C2B 3767  10.208   9.575   5.250
  299POPC   C3B 3768  10.252   9.561   5.550
  299POPC   C4B 3769  10.208   9.593   5.850
  300POPC   NC3 3770   9.542   9.273   4.050
  300POPC   PO4 3771   9.519   9.323   4.350
  300POPC   GL1 3772   9.538   9.317   4.650
  300POPC   GL2 3773   9.450   9.406   4.650
  300POPC   C1A 3774   9.576   9.360   4.950
  300POPC   D2A 3775   9.576   9.345   5.250
  300POPC   C3A 3776   9.567   9.328   5.550
  300POPC   C4A 3777   9.607   9.318   5.850
  300POPC   C1B 3778   9.317   9.544   4.950
  300POPC   C2B 3779   9.258   9.514   5.250
  300POPC   C3B 3780   9.248   9.565   5.550
  300POPC   C4B 3781   9.313   9.516   5.850
  301POPC   NC3 3782   8.796   9.560   4.050
  301POPC   PO4 3783   8.767   9.505   4.350
  301POPC   GL1 3784   8.781   9.518   4.650
  301POPC   GL2 3785   8.637   9.417   4.650
  301POPC   C1A 3786   8.786   9.497   4.950
  301POPC   D2A 3787   8.786   9.552   5.250
  301POPC   C3A 3788   8.843   9.571   5.550
  301POPC   C4A 3789   8.835   9.523   5.850
  301POPC   C1B 3790   8.513   9.326   4.950
  301POPC   C2B 3791   8.587   9.288   5.250
  301POPC   C3B 3792   8.559   9.365   5.550
  301POPC   C4B 3793   8.555   9.357   5.850
  302POPC   NC3 3794   2.803   5.012   4.050
  302POPC   PO4 3795   2.845   5.061   4.350
  302POPC   GL1 3796   2.830   5.020   4.650
  302POPC   GL2 3797   2.703   4.949   4.650
  302POPC   C1A 3798   2.840   5.046   4.950
  302POPC   D2A 3799   2.851   5.047   5.250
  302POPC   C3A 3800   2.842   5.057   5.550
  302POPC   C4A 3801   2.869   5.027   5.850
  302POPC   C1B 3802   2.542   4.798   4.950
  302POPC   C2B 3803   2.543   4.829   5.250
  302POPC   C3B 3804   2.522   4.826   5.550
  302POPC   C4B 3805   2.492   4.860   5.850
  303POPC   NC3 3806  10.007   8.757   4.050
  303POPC   PO4 3807  10.042   8.742   4.350
  303POPC   GL1 3808  10.030   8.805   4.650
  303POPC   GL2 3809  10.203   8.672   4.650
  303POPC   C1A 3810  10.011   8.798   4.950
  303POPC   D2A 3811  10.078   8.809   5.250
  303POPC   C3A 3812  10.020   8.769   5.550
  303POPC   C4A 3813  10.064   8.819   5.850
  303POPC   C1B 3814  10.308   8.620   4.950
  303POPC   C2B 3815  10.341   8.607   5.250
  303POPC   C3B 3816  10.300   8.547   5.550
  303POPC   C4B 3817  10.282   8.570   5.850
  304POPC   NC3 3818   7.780   9.366   4.050
  304POPC   PO4 3819   7.708   9.411   4.350
  304POPC   GL1 3820   7.737   9.371   4.650
  304POPC   GL2 3821   7.967   9.438   4.650
  304POPC   C1A 3822   7.794   9.377   4.950
  304POPC   D2A 3823   7.711   9.390   5.250
  304POPC   C3A 3824   7.728   9.386   5.550
  304POPC   C4A 3825   7.778   9.401   5.850
  304POPC   C1B 3826   8.063   9.479   4.950
  304POPC   C2B 3827   8.094   9.506   5.250
  304POPC   C3B 3828   8.079   9.415   5.550
  304POPC   C4B 3829   8.121   9.508   5.850
  305POPC   NC3 3830   1.087   8.482   4.050
  305POPC   PO4 3831   1.059   8.503   4.350
  305POPC   GL1 3832   1.092   8.563   4.650
  305POPC   GL2 3833   1.216   8.687   4.650
  305POPC   C1A 3834   1.119   8.500   4.950
  305POPC   D2A 3835   1.092   8.577   5.250
  305POPC   C3A 3836   1.053   8.490   5.550
  305POPC   C4A 3837   1.064   8.544   5.850
  305POPC   C1B 3838   1.240   8.830   4.950
  305POPC   C2B 3839   1.284   8.803   5.250
  305POPC   C3B 3840   1.252   8.827   5.550
  305POPC   C4B 3841   1.288   8.862   5.850
  306POPC   NC3 3842   1.095   1.332   4.050
  306POPC   PO4 3843   1.094   1.328   4.350
  306POPC   GL1 3844   1.176   1.374   4.650
  306POPC   GL2 3845   1.176   1.219   4.650
  306POPC   C1A 3846   1.189   1.337   4.950
  306POPC   D2A 3847   1.103   1.385   5.250
  306POPC   C3A 3848   1.128   1.393   5.550
  306POPC   C4A 3849   1.152   1.312   5.850
  306POPC   C1B 3850   1.159   0.999   4.950
  306POPC   C2B 3851   1.256   0.959   5.250
  306POPC   C3B 3852   1.236   1.029   5.550
  306POPC   C4B 3853   1.236   0.966   5.850
  307POPC   NC3 3854   7.890   1.750   4.050
  307POPC   PO4 3855   7.801   1.799   4.350
  307POPC   GL1 3856   7.817   1.801   4.650
  307POPC   GL2 3857   7.876   1.912   4.650
  307POPC   C1A 3858   7.849   1.766   4.950
  307POPC   D2A 3859   7.822   1.784   5.250
  307POPC   C3A 3860   7.880   1.765   5.550
  307POPC   C4A 3861   7.860   1.817   5.850
  307POPC   C1B 3862   7.994   2.033   4.950
  307POPC   C2B 3863   7.966   2.031   5.250
  307POPC   C3B 3864   7.994   2.127   5.550
  307POPC   C4B 3865   7.992   2.106   5.850
  308POPC   NC3 3866   2.588   2.113   4.050
  308POPC   PO4 3867   2.671   2.050   4.350
  308POPC   GL1 3868   2.649   2.068   4.650
  308POPC   GL2 3869   2.676   1.960   4.650
  308POPC   C1A 3870   2.640   2.103   4.950
  308POPC   D2A 3871   2.658   2.124   5.250
  308POPC   C3A 3872   2.643   2.065   5.550
  308POPC   C4A 3873   2.609   2.133   5.850
  308POPC   C1B 3874   2.715   1.763   4.950
  308POPC   C2B 3875   2.748   1.729   5.250
  308POPC   C3B 3876   2.708   1.726   5.550
  308POPC   C4B 3877   2.768   1.753   5.850
  309POPC   NC3 3878  10.367  10.160   4.050
  309POPC   PO4 3879  10.305  10.152   4.350
  309POPC   GL1 3880  10.366  10.204   4.650
  309POPC   GL2 3881  10.136  10.179   4.650
  309POPC   C1A 3882  10.301  10.182   4.950
  309POPC   D2A 3883  10.346  10.202   5.250
  309POPC   C3A 3884  10.373  10.231   5.550
  309POPC   C4A 3885  10.347  10.193   5.850
  309POPC   C1B 3886  10.020  10.113   4.950
  309POPC   C2B 3887  10.006  10.136   5.250
  309POPC   C3B 3888  10.010  10.181   5.550
  309POPC   C4B 3889  10.051  10.199   5.850
  310POPC   NC3 3890   1.111   9.242   4.050
  310POPC   PO4 3891   1.114   9.241   4.350
  310POPC   GL1 3892   1.110   9.308   4.650
  310POPC   GL2 3893   1.129   9.416   4.650
  310POPC   C1A 3894   1.159   9.294   4.950
  310POPC   D2A 3895   1.152   9.226   5.250
  310POPC   C3A 3896   1.111   9.278   5.550
  310POPC   C4A 3897   1.099   9.292   5.850
  310POPC   C1B 3898   1.273   9.588   4.950
  310POPC   C2B 3899   1.272   9.599   5.250
  310POPC   C3B 3900   1.235   9.588   5.550
  310POPC   C4B 3901   1.216   9.547   5.850
  311POPC   NC3 3902   8.103   0.341   4.050
  311POPC   PO4 3903   8.041   0.363   4.350
  311POPC   GL1 3904   8.045   0.375   4.650
  311POPC   GL2 3905   7.920   0.456   4.650
  311POPC   C1A 3906   8.057   0.351   4.950
  311POPC   D2A 3907   8.127   0.404   5.250
  311POPC   C3A 3908   8.099   0.315   5.550
  311POPC   C4A 3909   8.072   0.386   5.850
  311POPC   C1B 3910   7.801   0.494   4.950
  311POPC   C2B 3911   7.802   0.483   5.250
  311POPC   C3B 3912   7.718   0.514   5.550
  311POPC   C4B 3913   7.764   0.456   5.850
  312POPC   NC3 3914   4.394   8.621   4.050
  312POPC   PO4 3915   4.310   8.613   4.350
  312POPC   GL1 3916   4.318   8.689   4.650
  312POPC   GL2 3917   4.165   8.657   4.650
  312POPC   C1A 3918   4.318   8.700   4.950
  312POPC   D2A 3919   4.338   8.667   5.250
  312POPC   C3A 3920   4.334   8.640   5.550
  312POPC   C4A 3921   4.337   8.694   5.850
  312POPC   C1B 3922   3.986   8.725   4.950
  312POPC   C2B 3923   4.042   8.670   5.250
  312POPC   C3B 3924   4.000   8.707   5.550
  312POPC   C4B 3925   3.978   8.681   5.850
  313POPC   NC3 3926  10.308   3.411   4.050
  313POPC   PO4 3927  10.380   3.363   4.350
  313POPC   GL1 3928  10.344   3.377   4.650
  313POPC   GL2 3929  10.148   3.417   4.650
  313POPC   C1A 3930  10.359   3.394   4.950
  313POPC   D2A 3931  10.394   3.393   5.250
  313POPC   C3A 3932  10.344   3.429   5.550
  313POPC   C4A 3933  10.343   3.405   5.850
  313POPC   C1B 3934  10.050   3.438   4.950
  313POPC   C2B 3935   9.993   3.492   5.250
  313POPC   C3B 3936   9.993   3.433   5.550
  313POPC   C4B 3937  10.002   3.487   5.850
  314POPC   NC3 3938   1.266   6.272   4.050
  314POPC   PO4 3939   1.316   6.342   4.350
  314POPC   GL1 3940   1.341   6.327   4.650
  314POPC   GL2 3941   1.179   6.455   4.650
  314POPC   C1A 3942   1.344   6.310   4.950
  314POPC   D2A 3943   1.281   6.295   5.250
  314POPC   C3A 3944   1.309   6.346   5.550
  314POPC   C4A 3945   1.339   6.320   5.850
  314POPC   C1B 3946   1.019   6.509   4.950
  314POPC   C2B 3947   1.054   6.498   5.250
  314POPC   C3B 3948   1.033   6.541   5.550
  314POPC   C4B 3949   1.044   6.520   5.850
  315POPC   NC3 3950  10.379   5.753   4.050
  315POPC   PO4 3951  10.358   5.676   4.350
  315POPC   GL1 3952  10.394   5.736   4.650
  315POPC   GL2 3953  10.180   5.664   4.650
  315POPC   C1A 3954  10.384   5.764   4.950
  315POPC   D2A 3955  10.375   5.747   5.250
  315POPC   C3A 3956  10.297   5.748   5.550
  315POPC   C4A 3957  10.338   5.708   5.850
  315POPC   C1B 3958   9.956   5.589   4.950
  315POPC   C2B 3959   9.961   5.635   5.250
  315POPC   C3B 3960   9.978   5.678   5.550
  315POPC   C4B 3961  10.040   5.653   5.850
  316POPC   NC3 3962   8.768   4.765   4.050
  316POPC   PO4 3963   8.793   4.806   4.350
  316POPC   GL1 3964   8.768   4.847   4.650
  316POPC   GL2 3965   8.714   4.917   4.650
  316POPC   C1A 3966   8.850   4.827   4.950
  316POPC   D2A 3967   8.822   4.797   5.250
  316POPC   C3A 3968   8.761   4.856   5.550
  316POPC   C4A 3969   8.832   4.813   5.850
  316POPC   C1B 3970   8.539   5.078   4.950
  316POPC   C2B 3971   8.523   5.087   5.250
  316POPC   C3B 3972   8.541   5.079   5.550
  316POPC   C4B 3973   8.588   5.030   5.850
  317POPC   NC3 3974   1.022   2.575   4.050
  317POPC   PO4 3975   1.069   2.595   4.350
  317POPC   GL1 3976   1.018   2.603   4.650
  317POPC   GL2 3977   1.222   2.707   4.650
  317POPC   C1A 3978   1.027   2.544   4.950
  317POPC   D2A 3979   1.087   2.598   5.250
  317POPC   C3A 3980   1.082   2.545   5.550
  317POPC   C4A 3981   1.040   2.536   5.850
  317POPC   C1B 3982   1.324   2.759   4.950
  317POPC   C2B 3983   1.308   2.778   5.250
  317POPC   C3B 3984   1.315   2.830   5.550
  317POPC   C4B 3985   1.335   2.770   5.850
  318POPC   NC3 3986   8.003   7.762   4.050
  318POPC   PO4 3987   8.019   7.754   4.350
  318POPC   GL1 3988   8.074   7.766   4.650
  318POPC   GL2 3989   7.943   7.902   4.650
  318POPC   C1A 3990   8.061   7.791   4.950
  318POPC   D2A 3991   8.033   7.773   5.250
  318POPC   C3A 3992   8.015   7.790   5.550
  318POPC   C4A 3993   8.084   7.767   5.850
  318POPC   C1B 3994   7.810   8.090   4.950
  318POPC   C2B 3995   7.765   8.018   5.250
  318POPC   C3B 3996   7.783   8.019   5.550
  318POPC   C4B 3997   7.824   8.043   5.850
  319POPC   NC3 3998   4.069   8.072   4.050
  319POPC   PO4 3999   4.086   8.098   4.350
  319POPC   GL1 4000   4.156   8.066   4.650
  319POPC   GL2 4001   4.169   7.887   4.650
  319POPC   C1A 4002   4.103   8.090   4.950
  319POPC   D2A 4003   4.116   8.065   5.250
  319POPC   C3A 4004   4.137   8.047   5.550
  319POPC   C4A 4005   4.142   8.108   5.850
  319POPC   C1B 4006   4.253   7.780   4.950
  319POPC   C2B 4007   4.217   7.762   5.250
  319POPC   C3B 4008   4.239   7.786   5.550
  319POPC   C4B 4009   4.215   7.798   5.850
  320POPC   NC3 4010   1.066  10.007   4.050
  320POPC   PO4 4011   1.099  10.040   4.350
  320POPC   GL1 4012   1.018  10.008   4.650
  320POPC   GL2 4013   1.225  10.200   4.650
  320POPC   C1A 4014   1.099  10.040   4.950
  320POPC   D2A 4015   1.111  10.079   5.250
  320POPC   C3A 4016   1.104  10.011   5.550
  320POPC   C4A 4017   1.076  10.049   5.850
  320POPC   C1B 4018   1.296  10.356   4.950
  320POPC   C2B 4019   1.281  10.330   5.250
  320POPC   C3B 4020   1.284  10.299   5.550
  320POPC   C4B 4021   1.334  10.302   5.850
  321POPC   NC3 4022   3.392   8.496   4.050
  321POPC   PO4 4023   3.443   8.547   4.350
  321POPC   GL1 4024   3.370   8.493   4.650
  321POPC   GL2 4025   3.375   8.707   4.650
  321POPC   C1A 4026   3.377   8.482   4.950
  321POPC   D2A 4027   3.350   8.460   5.250
  321POPC   C3A 4028   3.393   8.540   5.550
  321POPC   C4A 4029   3.449   8.456   5.850
  321POPC   C1B 4030   3.476   8.799   4.950
  321POPC   C2B 4031   3.480   8.862   5.250
  321POPC   C3B 4032   3.446   8.851   5.550
  321POPC   C4B 4033   3.486   8.877   5.850
  322POPC   NC3 4034   8.780   2.545   4.050
  322POPC   PO4 4035   8.833   2.622   4.350
  322POPC   GL1 4036   8.793   2.576   4.650
  322POPC   GL2 4037   8.660   2.683   4.650
  322POPC   C1A 4038   8.843   2.618   4.950
  322POPC   D2A 4039   8.856   2.603   5.250
  322POPC   C3A 4040   8.874   2.563   5.550
  322POPC   C4A 4041   8.785   2.548   5.850
  322POPC   C1B 4042   8.526   2.780   4.950
  322POPC   C2B 4043   8.539   2.778   5.250
  322POPC   C3B 4044   8.495   2.801   5.550
  322POPC   C4B 4045   8.522   2.725   5.850
  323POPC   NC3 4046   8.482   2.028   4.050
  323POPC   PO4 4047   8.493   1.956   4.350
  323POPC   GL1 4048   8.478   2.020   4.650
  323POPC   GL2 4049   8.688   1.966   4.650
  323POPC   C1A 4050   8.509   1.953   4.950
  323POPC   D2A 4051   8.535   1.968   5.250
  323POPC   C3A 4052   8.499   1.964   5.550
  323POPC   C4A 4053   8.465   1.958   5.850
  323POPC   C1B 4054   8.825   1.865   4.950
  323POPC   C2B 4055   8.799   1.844   5.250
  323POPC   C3B 4056   8.863   1.903   5.550
  323POPC   C4B 4057   8.870   1.890   5.850
  324POPC   NC3 4058   8.569   4.312   4.050
  324POPC   PO4 4059   8.621   4.308   4.350
  324POPC   GL1 4060   8.566   4.302   4.650
  324POPC   GL2 4061   8.647   4.185   4.650
  324POPC   C1A 4062   8.538   4.310   4.950
  324POPC   D2A 4063   8.565   4.303   5.250
  324POPC   C3A 4064   8.600   4.357   5.550
  324POPC   C4A 4065   8.553   4.282   5.850
  324POPC   C1B 4066   8.780   4.032   4.950
  324POPC   C2B 4067   8.735   4.021   5.250
  324POPC   C3B 4068   8.801   3.989   5.550
  324POPC   C4B 4069   8.789   4.062   5.850
  325POPC   NC3 4070   3.213   8.011   4.050
  325POPC   PO4 4071   3.265   7.970   4.350
  325POPC   GL1 4072   3.295   8.000   4.650
  325POPC   GL2 4073   3.382   7.931   4.650
  325POPC   C1A 4074   3.216   7.982   4.950
  325POPC   D2A 4075   3.212   7.980   5.250
  325POPC   C3A 4076   3.260   8.024   5.550
  325POPC   C4A 4077   3.223   8.003   5.850
  325POPC   C1B 4078   3.609   7.845   4.950
  325POPC   C2B 4079   3.596   7.915   5.250
  325POPC   C3B 4080   3.573   7.880   5.550
  325POPC   C4B 4081   3.558   7.847   5.850
  326POPC   NC3 4082   2.573   8.065   4.050
  326POPC   PO4 4083   2.533   8.088   4.350
  326POPC   GL1 4084   2.549   8.111   4.650
  326POPC   GL2 4085   2.690   7.880   4.650
  326POPC   C1A 4086   2.552   8.108   4.950
  326POPC   D2A 4087   2.583   8.060   5.250
  326POPC   C3A 4088   2.604   8.112   5.550
  326POPC   C4A 4089   2.575   8.055   5.850
  326POPC   C1B 4090   2.760   7.782   4.950
  326POPC   C2B 4091   2.798   7.768   5.250
  326POPC   C3B 4092   2.764   7.758   5.550
  326POPC   C4B 4093   2.741   7.809   5.850
  327POPC   NC3 4094   0.417   2.867   4.050
  327POPC   PO4 4095   0.439   2.844   4.350
  327POPC   GL1 4096   0.487   2.855   4.650
  327POPC   GL2 4097   0.428   2.662   4.650
  327POPC   C1A 4098   0.448   2.877   4.950
  327POPC   D2A 4099   0.438   2.859   5.250
  327POPC   C3A 4100   0.476   2.887   5.550
  327POPC   C4A 4101   0.419   2.886   5.850
  327POPC   C1B 4102   0.354   2.537   4.950
  327POPC   C2B 4103   0.417   2.502   5.250
  327POPC   C3B 4104   0.400   2.506   5.550
  327POPC   C4B 4105   0.353   2.522   5.850
  328POPC   NC3 4106   1.755   2.734   4.050
  328POPC   PO4 4107   1.713   2.687   4.350
  328POPC   GL1 4108   1.746   2.683   4.650
  328POPC   GL2 4109   1.971   2.633   4.650
  328POPC   C1A 4110   1.757   2.683   4.950
  328POPC   D2A 4111   1.724   2.684   5.250
  328POPC   C3A 4112   1.716   2.704   5.550
  328POPC   C4A 4113   1.756   2.694   5.850
  328POPC   C1B 4114   2.135   2.642   4.950
  328POPC   C2B 4115   2.145   2.648   5.250
  328POPC   C3B 4116   2.082   2.693   5.550
  328POPC   C4B 4117   2.148   2.647   5.850
  329POPC   NC3 4118  10.381   1.890   4.050
  329POPC   PO4 4119  10.376   1.941   4.350
  329POPC   GL1 4120  10.303   1.901   4.650
  329POPC   GL2 4121  10.191   1.891   4.650
  329POPC   C1A 4122  10.356   1.971   4.950
  329POPC   D2A 4123  10.354   1.926   5.250
  329POPC   C3A 4124  10.348   1.926   5.550
  329POPC   C4A 4125  10.329   1.943   5.850
  329POPC   C1B 4126  10.026   1.919   4.950
  329POPC   C2B 4127  10.040   1.958   5.250
  329POPC   C3B 4128   9.996   1.919   5.550
  329POPC   C4B 4129  10.010   1.869   5.850
  330POPC   NC3 4130   7.853   6.612   4.050
  330POPC   PO4 4131   7.830   6.595   4.350
  330POPC   GL1 4132   7.895   6.583   4.650
  330POPC   GL2 4133   7.964   6.449   4.650
  330POPC   C1A 4134   7.867   6.549   4.950
  330POPC   D2A 4135   7.866   6.602   5.250
  330POPC   C3A 4136   7.902   6.628   5.550
  330POPC   C4A 4137   7.864   6.576   5.850
  330POPC   C1B 4138   8.029   6.288   4.950
  330POPC   C2B 4139   7.978   6.219   5.250
  330POPC   C3B 4140   7.991   6.259   5.550
  330POPC   C4B 4141   8.024   6.311   5.850
  331POPC   NC3 4142   4.784  10.205   4.050
  331POPC   PO4 4143   4.807  10.238   4.350
  331POPC   GL1 4144   4.765  10.273   4.650
  331POPC   GL2 4145   4.951  10.220   4.650
  331POPC   C1A 4146   4.760  10.206   4.950
  331POPC   D2A 4147   4.776  10.259   5.250
  331POPC   C3A 4148   4.747  10.227   5.550
  331POPC   C4A 4149   4.793  10.284   5.850
  331POPC   C1B 4150   5.096  10.099   4.950
  331POPC   C2B 4151   5.074  10.125   5.250
  331POPC   C3B 4152   5.097  10.101   5.550
  331POPC   C4B 4153   5.126  10.127   5.850
  332POPC   NC3 4154   8.051   2.719   4.050
  332POPC   PO4 4155   8.136   2.742   4.350
  332POPC   GL1 4156   8.114   2.744   4.650
  332POPC   GL2 4157   7.924   2.655   4.650
  332POPC   C1A 4158   8.081   2.718   4.950
  332POPC   D2A 4159   8.047   2.726   5.250
  332POPC   C3A 4160   8.083   2.725   5.550
  332POPC   C4A 4161   8.131   2.706   5.850
  332POPC   C1B 4162   7.788   2.653   4.950
  332POPC   C2B 4163   7.782   2.610   5.250
  332POPC   C3B 4164   7.711   2.653   5.550
  332POPC   C4B 4165   7.723   2.599   5.850
  333POPC   NC3 4166   3.422   2.487   4.050
  333POPC   PO4 4167   3.444   2.469   4.350
  333POPC   GL1 4168   3.402   2.482   4.650
  333POPC   GL2 4169   3.470   2.703   4.650
  333POPC   C1A 4170   3.459   2.486   4.950
  333POPC   D2A 4171   3.482   2.465   5.250
  333POPC   C3A 4172   3.472   2.552   5.550
  333POPC   C4A 4173   3.454   2.533   5.850
  333POPC   C1B 4174   3.382   2.853   4.950
  333POPC   C2B 4175   3.383   2.888   5.250
  333POPC   C3B 4176   3.367   2.812   5.550
  333POPC   C4B 4177   3.367   2.848   5.850
  334POPC   NC3 4178   1.151   4.305   4.050
  334POPC   PO4 4179   1.185   4.388   4.350
  334POPC   GL1 4180   1.177   4.313   4.650
  334POPC   GL2 4181   1.149   4.196   4.650
  334POPC   C1A 4182   1.228   4.386   4.950
  334POPC   D2A 4183   1.146   4.378   5.250
  334POPC   C3A 4184   1.174   4.314   5.550
  334POPC   C4A 4185   1.140   4.300   5.850
  334POPC   C1B 4186   1.118   4.043   4.950
  334POPC   C2B 4187   1.171   4.010   5.250
  334POPC   C3B 4188   1.201   3.952   5.550
  334POPC   C4B 4189   1.155   3.970   5.850
  335POPC   NC3 4190   9.404   8.853   4.050
  335POPC   PO4 4191   9.401   8.825   4.350
  335POPC   GL1 4192   9.450   8.890   4.650
  335POPC   GL2 4193   9.458   8.629   4.650
  335POPC   C1A 4194   9.430   8.885   4.950
  335POPC   D2A 4195   9.419   8.884   5.250
  335POPC   C3A 4196   9.372   8.839   5.550
  335POPC   C4A 4197   9.439   8.867   5.850
  335POPC   C1B 4198   9.440   8.541   4.950
  335POPC   C2B 4199   9.468   8.484   5.250
  335POPC   C3B 4200   9.405   8.462   5.550
  335POPC   C4B 4201   9.400   8.500   5.850
  336POPC   NC3 4202   5.826   1.071   4.050
  336POPC   PO4 4203   5.743   1.079   4.350
  336POPC   GL1 4204   5.750   1.045   4.650
  336POPC   GL2 4205   5.676   1.155   4.650
  336POPC   C1A 4206   5.805   0.991   4.950
  336POPC   D2A 4207   5.819   0.994   5.250
  336POPC   C3A 4208   5.765   1.034   5.550
  336POPC   C4A 4209   5.824   0.992   5.850
  336POPC   C1B 4210   5.565   1.354   4.950
  336POPC   C2B 4211   5.592   1.295   5.250
  336POPC   C3B 4212   5.564   1.285   5.550
  336POPC   C4B 4213   5.543   1.363   5.850
  337POPC   NC3 4214  10.302   1.315   4.050
  337POPC   PO4 4215  10.254   1.314   4.350
  337POPC   GL1 4216  10.292   1.297   4.650
  337POPC   GL2 4217  10.147   1.159   4.650
  337POPC   C1A 4218  10.271   1.322   4.950
  337POPC   D2A 4219  10.304   1.368   5.250
  337POPC   C3A 4220  10.238   1.326   5.550
  337POPC   C4A 4221  10.290   1.321   5.850
  337POPC   C1B 4222  10.063   1.067   4.950
  337POPC   C2B 4223  10.044   0.996   5.250
  337POPC   C3B 4224  10.040   1.057   5.550
  337POPC   C4B 4225  10.031   1.023   5.850
  338POPC   NC3 4226   1.308   1.854   4.050
  338POPC   PO4 4227   1.332   1.811   4.350
  338POPC   GL1 4228   1.280   1.801   4.650
  338POPC   GL2 4229   1.130   1.909   4.650
  338POPC   C1A 4230   1.311   1.775   4.950
  338POPC   D2A 4231   1.273   1.811   5.250
  338POPC   C3A 4232   1.347   1.829   5.550
  338POPC   C4A 4233   1.334   1.795   5.850
  338POPC   C1B 4234   1.040   2.028   4.950
  338POPC   C2B 4235   1.027   2.028   5.250
  338POPC   C3B 4236   1.060   2.000   5.550
  338POPC   C4B 4237   1.059   2.012   5.850
  339POPC   NC3 4238   9.625   3.365   4.050
  339POPC   PO4 4239   9.595   3.371   4.350
  339POPC   GL1 4240   9.543   3.367   4.650
  339POPC   GL2 4241   9.431   3.436   4.650
  339POPC   C1A 4242   9.564   3.312   4.950
  339POPC   D2A 4243   9.580   3.302   5.250
  339POPC   C3A 4244   9.592   3.338   5.550
  339POPC   C4A 4245   9.630   3.322   5.850
  339POPC   C1B 4246   9.250   3.491   4.950
  339POPC   C2B 4247   9.249   3.499   5.250
  339POPC   C3B 4248   9.286   3.528   5.550
  339POPC   C4B 4249   9.312   3.497   5.850
  340POPC   NC3 4250   9.310   1.986   4.050
  340POPC   PO4 4251   9.293   2.050   4.350
  340POPC   GL1 4252   9.314   2.040   4.650
  340POPC   GL2 4253   9.469   1.921   4.650
  340POPC   C1A 4254   9.314   2.046   4.950
  340POPC   D2A 4255   9.321   2.037   5.250
  340POPC   C3A 4256   9.304   2.049   5.550
  340POPC   C4A 4257   9.300   2.020   5.850
  340POPC   C1B 4258   9.554   1.832   4.950
  340POPC   C2B 4259   9.537   1.844   5.250
  340POPC   C3B 4260   9.562   1.843   5.550
  340POPC   C4B 4261   9.574   1.816   5.850
  341POPC   NC3 4262   0.233   7.063   4.050
  341POPC   PO4 4263   0.236   7.107   4.350
  341POPC   GL1 4264   0.307   7.074   4.650
  341POPC   GL2 4265   0.386   7.222   4.650
  341POPC   C1A 4266   0.237   7.064   4.950
  341POPC   D2A 4267   0.288   7.113   5.250
  341POPC   C3A 4268   0.215   7.078   5.550
  341POPC   C4A 4269   0.228   7.128   5.850
  341POPC   C1B 4270   0.553   7.278   4.950
  341POPC   C2B 4271   0.602   7.253   5.250
  341POPC   C3B 4272   0.567   7.267   5.550
  341POPC   C4B 4273   0.580   7.202   5.850
  342POPC   NC3 4274   2.063   4.992   4.050
  342POPC   PO4 4275   2.085   5.004   4.350
  342POPC   GL1 4276   2.111   5.048   4.650
  342POPC   GL2 4277   1.926   4.922   4.650
  342POPC   C1A 4278   2.069   4.981   4.950
  342POPC   D2A 4279   2.088   5.053   5.250
  342POPC   C3A 4280   2.101   4.998   5.550
  342POPC   C4A 4281   2.102   5.035   5.850
  342POPC   C1B 4282   1.737   4.825   4.950
  342POPC   C2B 4283   1.746   4.857   5.250
  342POPC   C3B 4284   1.763   4.891   5.550
  342POPC   C4B 4285   1.729   4.860   5.850
  343POPC   NC3 4286   1.070   7.842   4.050
  343POPC   PO4 4287   1.045   7.837   4.350
  343POPC   GL1 4288   0.993   7.838   4.650
  343POPC   GL2 4289   1.157   7.932   4.650
  343POPC   C1A 4290   1.040   7.817   4.950
  343POPC   D2A 4291   1.018   7.836   5.250
  343POPC   C3A 4292   1.045   7.790   5.550
  343POPC   C4A 4293   1.077   7.801   5.850
  343POPC   C1B 4294   1.319   8.063   4.950
  343POPC   C2B 4295   1.304   8.023   5.250
  343POPC   C3B 4296   1.295   8.016   5.550
  343POPC   C4B 4297   1.278   7.977   5.850
  344POPC   NC3 4298  10.288   6.295   4.050
  344POPC   PO4 4299  10.269   6.283   4.350
  344POPC   GL1 4300  10.247   6.304   4.650
  344POPC   GL2 4301  10.178   6.442   4.650
  344POPC   C1A 4302  10.282   6.283   4.950
  344POPC   D2A 4303  10.233   6.292   5.250
  344POPC   C3A 4304  10.274   6.225   5.550
  344POPC   C4A 4305  10.280   6.276   5.850
  344POPC   C1B 4306  10.100   6.557   4.950
  344POPC   C2B 4307  10.084   6.575   5.250
  344POPC   C3B 4308  10.147   6.539   5.550
  344POPC   C4B 4309  10.109   6.589   5.850
  345POPC   NC3 4310   3.586   3.314   4.050
  345POPC   PO4 4311   3.609   3.279   4.350
  345POPC   GL1 4312   3.605   3.297   4.650
  345POPC   GL2 4313   3.430   3.461   4.650
  345POPC   C1A 4314   3.579   3.352   4.950
  345POPC   D2A 4315   3.550   3.355   5.250
  345POPC   C3A 4316   3.591   3.296   5.550
  345POPC   C4A 4317   3.532   3.313   5.850
  345POPC   C1B 4318   3.250   3.526   4.950
  345POPC   C2B 4319   3.291   3.571   5.250
  345POPC   C3B 4320   3.256   3.503   5.550
  345POPC   C4B 4321   3.266   3.514   5.850
  346POPC   NC3 4322  10.078   4.759   4.050
  346POPC   PO4 4323  10.138   4.773   4.350
  346POPC   GL1 4324  10.174   4.792   4.650
  346POPC   GL2 4325  10.222   4.934   4.650
  346POPC   C1A 4326  10.144   4.764   4.950
  346POPC   D2A 4327  10.123   4.708   5.250
  346POPC   C3A 4328  10.164   4.745   5.550
  346POPC   C4A 4329  10.136   4.737   5.850
  346POPC   C1B 4330  10.226   5.065   4.950
  346POPC   C2B 4331  10.228   5.095   5.250
  346POPC   C3B 4332  10.242   5.091   5.550
  346POPC   C4B 4333  10.189   5.141   5.850
  347POPC   NC3 4334   6.571   1.331   4.050
  347POPC   PO4 4335   6.561   1.258   4.350
  347POPC   GL1 4336   6.518   1.299   4.650
  347POPC   GL2 4337   6.467   1.128   4.650
  347POPC   C1A 4338   6.554   1.306   4.950
  347POPC   D2A 4339   6.521   1.314   5.250
  347POPC   C3A 4340   6.513   1.355   5.550
  347POPC   C4A 4341   6.555   1.351   5.850
  347POPC   C1B 4342   6.289   1.036   4.950
  347POPC   C2B 4343   6.310   1.078   5.250
  347POPC   C3B 4344   6.355   1.062   5.550
  347POPC   C4B 4345   6.295   1.063   5.850
  348POPC   NC3 4346   2.599   9.604   4.050
  348POPC   PO4 4347   2.626   9.562   4.350
  348POPC   GL1 4348   2.590   9.621   4.650
  348POPC   GL2 4349   2.636   9.380   4.650
  348POPC   C1A 4350   2.617   9.569   4.950
  348POPC   D2A 4351   2.676   9.628   5.250
  348POPC   C3A 4352   2.646   9.602   5.550
  348POPC   C4A 4353   2.605   9.605   5.850
  348POPC   C1B 4354   2.665   9.268   4.950
  348POPC   C2B 4355   2.756   9.237   5.250
  348POPC   C3B 4356   2.735   9.210   5.550
  348POPC   C4B 4357   2.712   9.252   5.850
  349POPC   NC3 4358   6.275   2.759   4.050
  349POPC   PO4 4359   6.268   2.749   4.350
  349POPC   GL1 4360   6.286   2.776   4.650
  349POPC   GL2 4361   6.401   2.652   4.650
  349POPC   C1A 4362   6.303   2.813   4.950
  349POPC   D2A 4363   6.247   2.835   5.250
  349POPC   C3A 4364   6.245   2.826   5.550
  349POPC   C4A 4365   6.256   2.787   5.850
  349POPC   C1B 4366   6.588   2.522   4.950
  349POPC   C2B 4367   6.567   2.570   5.250
  349POPC   C3B 4368   6.511   2.571   5.550
  349POPC   C4B 4369   6.564   2.536   5.850
  350POPC   NC3 4370   1.037   0.516   4.050
  350POPC   PO4 4371   1.030   0.540   4.350
  350POPC   GL1 4372   1.071   0.572   4.650
  350POPC   GL2 4373   1.205   0.464   4.650
  350POPC   C1A 4374   1.005   0.574   4.950
  350POPC   D2A 4375   0.998   0.543   5.250
  350POPC   C3A 4376   1.032   0.499   5.550
  350POPC   C4A 4377   1.064   0.485   5.850
  350POPC   C1B 4378   1.347   0.354   4.950
  350POPC   C2B 4379   1.359   0.311   5.250
  350POPC   C3B 4380   1.297   0.336   5.550
  350POPC   C4B 4381   1.270   0.316   5.850
  351POPC   NC3 4382   2.058   1.887   4.050
  351POPC   PO4 4383   2.136   1.924   4.350
  351POPC   GL1 4384   2.134   1.863   4.650
  351POPC   GL2 4385   1.944   1.895   4.650
  351POPC   C1A 4386   2.081   1.874   4.950
  351POPC   D2A 4387   2.075   1.921   5.250
  351POPC   C3A 4388   2.078   1.931   5.550
  351POPC   C4A 4389   2.128   1.873   5.850
  351POPC   C1B 4390   1.773   1.971   4.950
  351POPC   C2B 4391   1.722   2.001   5.250
  351POPC   C3B 4392   1.803   1.912   5.550
  351POPC   C4B 4393   1.765   1.970   5.850
  352POPC   NC3 4394   8.487   7.091   4.050
  352POPC   PO4 4395   8.557   7.145   4.350
  352POPC   GL1 4396   8.532   7.155   4.650
  352POPC   GL2 4397   8.696   7.181   4.650
  352POPC   C1A 4398   8.507   7.090   4.950
  352POPC   D2A 4399   8.494   7.081   5.250
  352POPC   C3A 4400   8.532   7.117   5.550
  352POPC   C4A 4401   8.521   7.105   5.850
  352POPC   C1B 4402   8.794   7.238   4.950
  352POPC   C2B 4403   8.815   7.263   5.250
  352POPC   C3B 4404   8.878   7.268   5.550
  352POPC   C4B 4405   8.871   7.187   5.850
  353W        W 4406   1.319   4.631  10.486
  354W        W 4407   6.465   2.768   1.292
  355W        W 4408   6.543   8.405   8.991
  356W        W 4409   2.726   8.884  11.400
  357W        W 4410   6.121   6.058   1.363
  358W        W 4411   8.459   1.794   1.334
  359W        W 4412   3.764   7.545  11.435
  360W        W 4413   3.788   1.824   1.729
  361W        W 4414   6.934   3.272  11.880
  362W        W 4415   3.772   7.546   2.362
  363W        W 4416   7.414   7.618   3.130
  364W        W 4417   7.028   2.788  10.814
  365W        W 4418   6.589   6.037   2.693
  366W        W 4419  10.441   4.059   2.377
  367W        W 4420   0.795   2.763  11.377
  368W        W 4421   2.228   0.887  11.368
  369W        W 4422   0.721   2.638   8.900
  370W        W 4423   3.799   2.263  10.534
  371W        W 4424   7.614   0.769  11.840
  372W        W 4425   8.022   5.999  10.517
  373W        W 4426   9.472   5.013   1.705
  374W        W 4427   2.829   7.933   2.339
  375W        W 4428   3.814   6.498  10.338
  376W        W 4429   3.673   8.851   2.202
  377W        W 4430   5.557   9.865   1.245
  378W        W 4431   2.704   8.848   8.948
  379W        W 4432   5.031   4.555   1.773
  380W        W 4433   6.198   7.944   0.926
  381W        W 4434   8.974   3.268   9.373
  382W        W 4435  10.470   4.670   1.739
  383W        W 4436   8.484   9.346   3.189
  384W        W 4437   9.918   1.775  10.390
  385W        W 4438   4.680   4.259  10.813
  386W        W 4439   2.751   9.358   0.827
  387W        W 4440   4.196   8.588  11.317
  388W        W 4441  10.452   0.272   9.894
  389W        W 4442   8.424   8.446  10.500
  390W        W 4443   2.296   4.240   3.203
  391W        W 4444   3.196   9.457   0.929
  392W        W 4445   1.305   4.631   1.720
  393W        W 4446   6.202   8.492  10.999
  394W        W 4447   1.866   6.076   3.301
  395W        W 4448   1.418   9.455   0.328
  396W        W 4449   0.345   1.281   3.165
  397W        W 4450   2.236   8.054  10.955
  398W        W 4451   6.948   9.041  10.558
  399W        W 4452   3.322   7.584  11.899
  400W        W 4453   6.196   7.978  10.332
  401W        W 4454   2.813   5.166   2.737
  402W        W 4455   6.508   8.501  11.011
  403W        W 4456   9.049   9.458   2.838
  404W        W 4457   4.746  10.379  11.912
  405W        W 4458   7.517   6.047   3.777
  406W        W 4459   3.623   4.253   2.734
  407W        W 4460   1.713   9.918   3.743
  408W        W 4461  10.310   9.316   0.385
  409W        W 4462   3.729   7.626   9.909
  410W        W 4463   7.439  10.389   1.233
  411W        W 4464   5.200   4.738   8.528
  412W        W 4465   0.330   9.468   9.873
  413W        W 4466   9.930   9.483   2.283
  414W        W 4467   6.160   4.095   1.241
  415W        W 4468   7.008   1.394  10.507
  416W        W 4469   8.489   7.544   0.784
  417W        W 4470   3.607   0.287  10.023
  418W        W 4471   9.419   4.613   2.856
  419W        W 4472   2.240   3.318   9.363
  420W        W 4473   8.049   4.544  11.027
  421W        W 4474   8.047   7.498   3.298
  422W        W 4475   5.620   7.118   0.325
  423W        W 4476   8.889   8.995   2.239
  424W        W 4477   5.625   7.540   1.796
  425W        W 4478   8.449   6.166   8.991
  426W        W 4479   1.256   9.478   9.966
  427W        W 4480   7.987   9.932  10.378
  428W        W 4481   1.896  10.335   3.254
  429W        W 4482   8.089   0.891   2.184
  430W        W 4483   6.987   4.740  11.928
  431W        W 4484   8.940   3.596   2.202
  432W        W 4485   1.687   1.878   2.236
  433W        W 4486   9.784   8.380   0.928
  434W        W 4487   5.546   7.458   9.974
  435W        W 4488   1.351   7.475  10.891
  436W        W 4489   6.026   4.699  11.383
  437W        W 4490   0.839   9.522   0.431
  438W        W 4491   1.283   9.928   2.190
  439W        W 4492   4.202   4.705   0.313
  440W        W 4493   4.155   9.455   9.980
  441W        W 4494   4.632   3.264  10.397
  442W        W 4495   5.072   7.903   9.081
  443W        W 4496   6.090   9.984   2.699
  444W        W 4497   8.981   4.763  11.948
  445W        W 4498   0.764   7.560   3.147
  446W        W 4499   0.798   5.104   2.700
  447W        W 4500   4.227  10.382   9.939
  448W        W 4501   3.598   0.242  11.502
  449W        W 4502  10.345   7.032  11.516
  450W        W 4503   8.364   3.105   9.070
  451W        W 4504   3.777   6.459   3.615
  452W        W 4505   4.203   8.505   0.848
  453W        W 4506   4.085   9.018  10.839
  454W        W 4507   1.900   5.643   3.320
  455W        W 4508   7.483   8.410   1.235
  456W        W 4509   5.192   6.939   4.266
  457W        W 4510   6.586   9.827  11.511
  458W        W 4511   7.021   0.923   9.074
  459W        W 4512   4.721  10.464  10.495
  460W        W 4513   8.915   5.650   3.164
  461W        W 4514   1.714   6.539   9.478
  462W        W 4515   8.432   4.078   2.210
  463W        W 4516   8.948   6.664   1.240
  464W        W 4517   7.422   7.548   2.744
  465W        W 4518   6.998   6.041   3.243
  466W        W 4519   1.762   6.638  10.936
  467W        W 4520   8.904   3.216  11.948
  468W        W 4521   7.157   0.789   0.917
  469W        W 4522   1.769   5.188   9.098
  470W        W 4523   8.910   5.694   9.936
  471W        W 4524  10.337   5.099   0.731
  472W        W 4525   2.674   4.552   3.281
  473W        W 4526   0.912   7.048   1.262
  474W        W 4527   0.949   4.556  10.336
  475W        W 4528   7.151   5.063   0.858
  476W        W 4529   6.587   2.175   9.554
  477W        W 4530   7.571   0.349  11.355
  478W        W 4531   5.678   8.434  11.006
  479W        W 4532   3.744   7.076   9.094
  480W        W 4533  10.309   7.559  10.361
  481W        W 4534   9.440   1.897  10.458
  482W        W 4535   1.677   1.878   1.910
  483W        W 4536   7.016   3.202   2.792
  484W        W 4537   4.081   0.250   8.881
  485W        W 4538   4.695   5.036   8.459
  486W        W 4539   5.098   2.799   0.253
  487W        W 4540   6.625   6.532  11.930
  488W        W 4541   7.625   0.273   2.295
  489W        W 4542   4.722   9.521   8.550
  490W        W 4543   8.571   0.872   2.242
  491W        W 4544   5.502   8.913  11.889
  492W        W 4545   4.639   6.512  10.826
  493W        W 4546   6.553   3.255   0.843
  494W        W 4547   0.790   2.214   0.905
  495W        W 4548   8.387   7.459   3.252
  496W        W 4549   1.401  10.420   3.286
  497W        W 4550   6.593   6.998   3.315
  498W        W 4551   3.789   8.523   0.859
  499W        W 4552   5.537   8.422   2.664
  500W        W 4553   2.666   6.070   8.540
  501W        W 4554   3.596   8.936   3.309
  502W        W 4555   2.150   8.520   1.809
  503W        W 4556   7.067   6.624  10.801
  504W        W 4557   1.276   5.626   9.097
  505W        W 4558   7.402   6.511   9.512
  506W        W 4559   4.706   7.008  10.810
  507W        W 4560   5.699   3.815   7.940
  508W        W 4561   3.275   4.231   9.995
  509W        W 4562   9.023   1.426   9.976
  510W        W 4563   0.344   3.199   2.663
  511W        W 4564   6.025   4.710   2.328
  512W        W 4565   7.954   9.045  11.340
  513W        W 4566   4.223   2.846   9.444
  514W        W 4567   9.970   0.264  10.429
  515W        W 4568   7.418  10.422   3.267
  516W        W 4569   0.735   2.376  10.927
  517W        W 4570   3.256   6.662   2.388
  518W        W 4571   1.255   2.243   9.988
  519W        W 4572   4.202   6.005   1.745
  520W        W 4573   3.637   5.020  10.548
  521W        W 4574   9.428   2.688  11.342
  522W        W 4575   5.715   4.656   3.773
  523W        W 4576   8.424   9.959   1.761
  524W        W 4577   2.177   9.067   1.434
  525W        W 4578   4.237   4.747   9.927
  526W        W 4579   6.651   7.445   1.333
  527W        W 4580   4.610   9.357  11.519
  528W        W 4581   5.058   3.690   3.189
  529W        W 4582   9.014   5.971   0.819
  530W        W 4583   2.640   3.744   3.140
  531W        W 4584   6.925   4.596   3.774
  532W        W 4585   4.712   9.843  10.495
  533W        W 4586  10.463   6.023   9.062
  534W        W 4587   5.197   4.227   0.384
  535W        W 4588   9.407   4.217   0.847
  536W        W 4589   5.200   4.285  10.396
  537W        W 4590  10.492   4.290   9.954
  538W        W 4591   4.125   9.997   2.707
  539W        W 4592   2.633   1.424   3.126
  540W        W 4593   6.072   3.642   3.257
  541W        W 4594   6.979   0.469   1.839
  542W        W 4595   2.814   1.305   0.895
  543W        W 4596   6.055   3.205   8.903
  544W        W 4597   3.209   2.198   9.564
  545W        W 4598   9.065   4.136   9.506
  546W        W 4599   8.462   2.159   0.368
  547W        W 4600   5.714   5.489   9.464
  548W        W 4601   2.819   1.734   8.976
  549W        W 4602   9.006   4.242  10.376
  550W        W 4603   2.170   9.939   9.051
  551W        W 4604   5.701   7.123  11.944
  552W        W 4605   8.577   3.777   2.671
  553W        W 4606  10.333   9.519   2.390
  554W        W 4607   9.343   5.225  10.977
  555W        W 4608   7.986   6.486   2.201
  556W        W 4609   6.996   4.668   9.957
  557W        W 4610   1.212   5.102   2.392
  558W        W 4611   9.450   0.417  10.361
  559W        W 4612   9.940   0.450   1.343
  560W        W 4613   4.715   1.795   1.914
  561W        W 4614   5.146   7.448   0.313
  562W        W 4615   0.318   4.245  11.425
  563W        W 4616   7.957   5.714   3.354
  564W        W 4617   4.223   8.029  11.393
  565W        W 4618   4.592   9.940   2.784
  566W        W 4619   1.229   9.802   1.311
  567W        W 4620  10.303   1.347   1.383
  568W        W 4621   7.938   5.537   9.367
  569W        W 4622   3.634   0.808   9.861
  570W        W 4623   0.354   0.726   2.656
  571W        W 4624   3.633   9.397   0.808
  572W        W 4625   1.804   1.784  10.992
  573W        W 4626   5.678   2.640   9.462
  574W        W 4627   3.283   3.334   0.326
  575W        W 4628   4.129   8.112  10.369
  576W        W 4629   8.838   1.213   8.919
  577W        W 4630   7.954   6.164  11.815
  578W        W 4631   8.105   4.689  10.454
  579W        W 4632   3.132   0.893   8.968
  580W        W 4633   2.352   7.904   1.235
  581W        W 4634   0.734   6.052   3.137
  582W        W 4635   3.597   6.577   3.168
  583W        W 4636   8.494   3.265   0.312
  584W        W 4637   3.210  10.366   0.810
  585W        W 4638   2.640  10.456   8.904
  586W        W 4639   3.634   1.409   1.280
  587W        W 4640   2.189   5.042   9.881
  588W        W 4641   4.086   0.272  11.858
  589W        W 4642   9.991   5.166  10.044
  590W        W 4643   5.604   1.371   9.970
  591W        W 4644   9.842   8.480   9.364
  592W        W 4645   0.797   4.201  10.058
  593W        W 4646   9.441   0.433   9.555
  594W        W 4647   4.132   5.975   3.198
  595W        W 4648  10.302   7.420   8.421
  596W        W 4649   5.126   8.373   1.207
  597W        W 4650   6.936   1.429  10.826
  598W        W 4651  10.496   1.721   2.767
  599W        W 4652   2.204   2.678   0.884
  600W        W 4653  10.291   9.393   9.047
  601W        W 4654   1.784   3.243  11.444
  602W        W 4655   7.940   9.396   1.781
  603W        W 4656   9.896   3.755   1.233
  604W        W 4657   1.304  10.476  10.328
  605W        W 4658   1.249   9.022   9.575
  606W        W 4659   8.039   8.588  10.910
  607W        W 4660   9.981   4.215   3.235
  608W        W 4661   5.567   5.137  11.392
  609W        W 4662   1.686   2.796   2.842
  610W        W 4663  10.472   4.265   3.354
  611W        W 4664   8.494   0.467  11.506
  612W        W 4665  10.297  10.332   1.276
  613W        W 4666   0.818   4.764   3.150
  614W        W 4667   4.622   6.058   8.569
  615W        W 4668  10.311   3.128   3.341
  616W        W 4669  10.433   5.117  10.044
  617W        W 4670   9.047   5.226   2.224
  618W        W 4671   9.404   5.994   3.209
  619W        W 4672  10.487   0.784  10.066
  620W        W 4673   4.148   3.725   2.664
  621W        W 4674  10.289  10.011  10.968
  622W        W 4675   7.028   3.199  10.557
  623W        W 4676   5.158   2.305   9.595
  624W        W 4677   6.157   3.631   8.556
  625W        W 4678  10.302   3.611   1.327
  626W        W 4679   9.345   6.097   2.339
  627W        W 4680   5.117   2.726   9.469
  628W        W 4681   1.902  10.409  11.839
  629W        W 4682   3.630   1.268  10.341
  630W        W 4683   8.383   9.822  10.846
  631W        W 4684   2.767   1.333   0.403
  632W        W 4685   2.336   8.389   9.087
  633W        W 4686  10.470  10.373   1.758
  634W        W 4687   9.987   2.817   0.319
  635W        W 4688   0.420   1.269   1.820
  636W        W 4689   2.227   5.602   9.386
  637W        W 4690   7.893   6.947   1.229
  638W        W 4691   0.272   9.447   9.561
  639W        W 4692   5.018   5.091   1.424
  640W        W 4693   5.229   0.299   1.309
  641W        W 4694   9.509   7.998  10.039
  642W        W 4695   9.905   7.983  11.790
  643W        W 4696   3.757   2.232   3.194
  644W        W 4697   9.885   3.760   9.456
  645W        W 4698   6.597   7.501   9.886
  646W        W 4699   7.636   3.169   9.394
  647W        W 4700   3.340   0.363   3.815
  648W        W 4701   0.931   4.085   9.041
  649W        W 4702   8.579   0.389  11.796
  650W        W 4703   0.805   0.847   8.907
  651W        W 4704   7.119   4.065   2.781
  652W        W 4705   9.449  10.303   8.894
  653W        W 4706   5.020   7.435   1.772
  654W        W 4707   6.035   2.288   2.226
  655W        W 4708   9.511   7.155  11.362
  656W        W 4709   5.122   7.486   2.707
  657W        W 4710   7.450   7.536   9.054
  658W        W 4711   3.686   5.211   1.335
  659W        W 4712   7.967   4.143  11.017
  660W        W 4713   6.110   6.039   2.790
  661W        W 4714   6.093   1.785   9.116
  662W        W 4715   8.113   4.224   0.348
  663W        W 4716   5.713   8.466   9.975
  664W        W 4717   7.094   6.090  11.863
  665W        W 4718   0.820   1.340  10.078
  666W        W 4719  10.009   5.972   0.830
  667W        W 4720   8.002   5.630   0.723
  668W        W 4721   2.778   5.185   9.365
  669W        W 4722   0.386   1.242  11.811
  670W        W 4723   8.093   5.705   1.215
  671W        W 4724   4.576   9.840   2.218
  672W        W 4725   2.781   1.891  11.890
  673W        W 4726   1.772   4.622   8.508
  674W        W 4727   6.204   3.185   0.749
  675W        W 4728   0.453   9.401   2.290
  676W        W 4729   6.576   1.254   1.295
  677W        W 4730   7.100   0.439   9.540
  678W        W 4731   2.313   6.522   9.000
  679W        W 4732   7.067   3.233   0.476
  680W        W 4733   2.299   9.473   0.281
  681W        W 4734   4.179   3.311   9.965
  682W        W 4735   5.045   3.657   2.849
  683W        W 4736   8.971   8.425  11.987
  684W        W 4737   4.685   0.425  10.396
  685W        W 4738   4.229   0.915   9.865
  686W        W 4739   5.201   0.766   9.018
  687W        W 4740  10.005   0.329   0.371
  688W        W 4741   6.123   9.386  11.925
  689W        W 4742   6.661   4.570  11.892
  690W        W 4743   2.304   1.269   8.640
  691W        W 4744   1.905   4.569  10.511
  692W        W 4745   4.067   7.927   1.703
  693W        W 4746   4.549   0.436   0.927
  694W        W 4747   7.564   0.343  10.854
  695W        W 4748  10.282   5.138  11.330
  696W        W 4749   4.166   2.673  10.409
  697W        W 4750   8.071   6.955   0.787
  698W        W 4751   7.976   8.852   1.366
  699W        W 4752   5.676   4.556  10.365
  700W        W 4753   2.283   8.549  11.355
  701W        W 4754   5.717   7.473   2.292
  702W        W 4755   7.625   1.757  11.335
  703W        W 4756   0.256   6.930  10.929
  704W        W 4757   2.808   4.589   1.376
  705W        W 4758   9.786   1.196  10.824
  706W        W 4759   6.041   0.746   1.408
  707W        W 4760   0.812   0.883  10.534
  708W        W 4761   9.523   2.720   9.874
  709W        W 4762   3.649   8.988   1.699
  710W        W 4763   1.413   5.518   2.285
  711W        W 4764   5.030   6.681   8.943
  712W        W 4765   6.663   0.722   9.572
  713W        W 4766   2.353   3.126  10.997
  714W        W 4767   4.549   6.075   2.679
  715W        W 4768   5.071   2.167  11.817
  716W        W 4769   3.764   9.957   2.767
  717W        W 4770   3.292   7.896  10.010
  718W        W 4771   3.777   8.062   1.864
  719W        W 4772   2.297   0.819   2.324
  720W        W 4773   2.727   1.418  11.296
  721W        W 4774   0.336   2.382   9.091
  722W        W 4775   8.378   7.043   1.746
  723W        W 4776   2.246   1.430   1.684
  724W        W 4777   4.229   1.737   0.399
  725W        W 4778   5.492   7.981   2.755
  726W        W 4779   2.785   7.049  11.517
  727W        W 4780   6.942   1.802   2.324
  728W        W 4781   7.033   8.555  11.282
  729W        W 4782   1.392   3.168   9.052
  730W        W 4783   0.835   3.683  11.357
  731W        W 4784   1.853   4.287   1.402
  732W        W 4785   8.000   8.403   9.851
  733W        W 4786   2.366   7.605  10.041
  734W        W 4787   6.051   3.267   2.288
  735W        W 4788   1.215   9.876  11.790
  736W        W 4789   6.480   7.050  10.512
  737W        W 4790   5.644   6.654   8.486
  738W        W 4791   0.902   2.712   0.411
  739W        W 4792   9.930   6.198  11.806
  740W        W 4793   9.517   8.567  11.329
  741W        W 4794   9.322   5.194  10.473
  742W        W 4795   8.831   2.863   2.827
  743W        W 4796   0.267   9.415   3.198
  744W        W 4797   1.392   6.464   1.362
  745W        W 4798   6.541   7.880  11.288
  746W        W 4799   6.175   8.566   9.055
  747W        W 4800   0.892  10.481   2.251
  748W        W 4801   2.776   2.168   1.225
  749W        W 4802   5.200   3.657  11.945
  750W        W 4803   7.558   4.772   3.696
  751W        W 4804   6.011   0.444  10.403
  752W        W 4805   0.824   0.250   2.246
  753W        W 4806  10.353  10.460   9.981
  754W        W 4807   3.724   8.893  11.877
  755W        W 4808   2.845   5.108   1.906
  756W        W 4809   1.252   0.925   2.665
  757W        W 4810   6.578   6.632   2.269
  758W        W 4811   2.795   7.130   9.859
  759W        W 4812   4.590   7.539   2.359
  760W        W 4813  10.464   3.675  11.950
  761W        W 4814   3.164   8.980   1.235
  762W        W 4815   4.757  10.389   3.337
  763W        W 4816   8.925   9.013   1.895
  764W        W 4817   6.160  10.427   2.751
  765W        W 4818   6.483   3.275   2.847
  766W        W 4819   4.611   3.318   8.906
  767W        W 4820   4.767   0.936   3.187
  768W        W 4821   2.197   8.006   2.280
  769W        W 4822   8.420   1.683   1.884
  770W        W 4823   9.526   7.102   8.989
  771W        W 4824   7.554   2.305   8.924
  772W        W 4825   2.847   1.688   0.310
  773W        W 4826   7.463   8.555   8.880
  774W        W 4827   3.163   4.617   1.817
  775W        W 4828   9.787   8.939   0.910
  776W        W 4829   0.265   9.917  10.441
  777W        W 4830   9.520   5.192  10.045
  778W        W 4831   8.082   4.582   1.280
  779W        W 4832   3.166   9.500   1.292
  780W        W 4833   0.784   5.683   9.569
  781W        W 4834   4.218   6.604   8.914
  782W        W 4835   6.034   1.869   1.745
  783W        W 4836   7.068   9.891   9.502
  784W        W 4837   6.550   4.755   8.881
  785W        W 4838   2.217   8.392  10.528
  786W        W 4839   4.676   8.487   8.445
  787W        W 4840   5.577   8.876   9.530
  788W        W 4841   8.515   9.436  11.951
  789W        W 4842   7.403   7.904  10.881
  790W        W 4843   6.664   9.828   1.811
  791W        W 4844   7.404   2.682  10.868
  792W        W 4845   7.102   7.018   0.906
  793W        W 4846   0.323  10.499  10.454
  794W        W 4847   1.240   7.904   9.040
  795W        W 4848   1.815   8.521   0.398
  796W        W 4849   1.764   3.675   0.403
  797W        W 4850   8.444   9.059   9.436
  798W        W 4851   2.348   5.645  11.960
  799W        W 4852   6.584   4.093   9.926
  800W        W 4853   9.912   2.766   1.212
  801W        W 4854   3.271   7.456   0.426
  802W        W 4855   1.909   5.710   0.390
  803W        W 4856   6.019   5.533   2.874
  804W        W 4857  10.010   9.827   0.322
  805W        W 4858   4.609  10.371   9.444
  806W        W 4859  10.431   7.964   1.726
  807W        W 4860   3.629   6.950  11.919
  808W        W 4861   8.475   1.194   8.887
  809W        W 4862   8.932   7.908   0.366
  810W        W 4863   1.383   5.493   0.328
  811W        W 4864   2.178   9.854   2.213
  812W        W 4865   3.778   8.477  11.833
  813W        W 4866   0.862   0.288  10.384
  814W        W 4867   9.533   8.950   0.473
  815W        W 4868   4.628   1.432   3.692
  816W        W 4869   3.298  10.359  10.495
  817W        W 4870   3.328   8.389  10.366
  818W        W 4871   5.043   4.257  11.317
  819W        W 4872   6.173   1.319   0.376
  820W        W 4873   8.945   5.624  10.864
  821W        W 4874   0.258   5.972   8.945
  822W        W 4875   6.968   2.785   1.728
  823W        W 4876   2.766   3.275   1.909
  824W        W 4877   1.822   7.894   1.437
  825W        W 4878   1.681  10.420   2.876
  826W        W 4879   8.475   4.679  10.461
  827W        W 4880   9.972   8.584   3.277
  828W        W 4881   3.791   3.656   0.824
  829W        W 4882   5.200   4.576   3.671
  830W        W 4883   3.735   8.076   9.452
  831W        W 4884   5.162   8.404   9.107
  832W        W 4885   4.583   6.995   3.183
  833W        W 4886   7.010   7.885   2.271
  834W        W 4887  10.434   3.744   8.992
  835W        W 4888   8.440   9.796   2.271
  836W        W 4889   0.352   9.822   1.892
  837W        W 4890   7.098  10.485   9.859
  838W        W 4891   6.511   6.529   9.905
  839W        W 4892  10.388   6.156   3.209
  840W        W 4893   7.618   9.043   1.918
  841W        W 4894   9.008   7.597  11.782
  842W        W 4895   9.829   3.126  10.862
  843W        W 4896   6.157  10.342   0.819
  844W        W 4897   1.366   3.665  10.026
  845W        W 4898   9.946   2.202   8.470
  846W        W 4899   0.419   2.628   1.316
  847W        W 4900   9.338   8.544   1.907
  848W        W 4901   2.776   7.592   3.264
  849W        W 4902  10.428   6.598   0.740
  850W        W 4903   8.423   9.459   8.564
  851W        W 4904   2.728   1.763  10.347
  852W        W 4905   2.248   7.046   8.922
  853W        W 4906   3.266   8.572  10.811
  854W        W 4907   4.178   6.105   8.555
  855W        W 4908   5.694   3.806   3.838
  856W        W 4909   1.852   7.971   9.436
  857W        W 4910   7.555   8.383   1.825
  858W        W 4911  10.454   4.250   1.201
  859W        W 4912   7.632   6.536  10.864
  860W        W 4913   7.097   7.449   3.278
  861W        W 4914   9.498   6.547  10.945
  862W        W 4915   3.200   2.789   0.818
  863W        W 4916   3.216   1.759  11.936
  864W        W 4917   3.297   5.238  11.296
  865W        W 4918   5.071   5.651  11.908
  866W        W 4919   1.395   3.205   1.380
  867W        W 4920   9.068   3.645  11.008
  868W        W 4921   7.928   8.967   0.278
  869W        W 4922   2.632   6.971   1.394
  870W        W 4923   9.949   7.409   1.737
  871W        W 4924   5.033  10.480  11.517
  872W        W 4925   5.638   8.031   3.324
  873W        W 4926   3.283   9.438   3.226
  874W        W 4927  10.393   0.903   1.794
  875W        W 4928   7.446   6.601   3.628
  876W        W 4929   7.410   4.691  11.891
  877W        W 4930   6.666   8.972   2.265
  878W        W 4931   7.015   7.582   1.777
  879W        W 4932   1.816   4.634   2.334
  880W        W 4933   7.544   8.956   9.915
  881W        W 4934   0.432   4.123   0.361
  882W        W 4935   7.074   2.851   9.071
  883W        W 4936   8.061   3.120   1.345
  884W        W 4937   1.288   6.106   1.354
  885W        W 4938   4.221   4.653  11.789
  886W        W 4939  10.373   7.626  10.011
  887W        W 4940   9.482   0.924   9.958
  888W        W 4941   9.893   0.926  10.894
  889W        W 4942   4.200   4.727   3.749
  890W        W 4943   3.663   8.919   9.000
  891W        W 4944   3.187   9.365   2.324
  892W        W 4945   5.156   7.616  11.817
  893W        W 4946   8.503   5.249  11.448
  894W        W 4947   0.296   0.472   9.385
  895W        W 4948   0.734   8.480  10.547
  896W        W 4949   4.256   2.252   2.841
  897W        W 4950   0.321   8.407   1.228
  898W        W 4951   1.882   8.886   1.775
  899W        W 4952   5.699   3.152   8.074
  900W        W 4953   3.740   0.445   0.325
  901W        W 4954   1.213   5.045   9.871
  902W        W 4955   8.973   9.410   3.167
  903W        W 4956   1.679   0.771   1.314
  904W        W 4957   7.549   1.219   0.757
  905W        W 4958   9.953  10.016   1.259
  906W        W 4959   1.424   5.241   0.344
  907W        W 4960   1.815   0.727   9.505
  908W        W 4961   1.686   6.555   2.355
  909W        W 4962   8.030   8.915  10.512
  910W        W 4963  10.389   3.168   9.036
  911W        W 4964  10.399   7.936   9.025
  912W        W 4965   8.976   9.434  11.027
  913W        W 4966  10.279   9.928   9.058
  914W        W 4967   2.154   6.990   0.777
  915W        W 4968   9.918   8.982   0.274
  916W        W 4969   0.431   0.779  10.497
  917W        W 4970   4.759   0.791   2.233
  918W        W 4971   4.552   8.434   3.257
  919W        W 4972  10.363   8.436   0.302
  920W        W 4973   3.187   2.245  10.848
  921W        W 4974   6.476   0.886  11.402
  922W        W 4975  10.479   3.145   2.289
  923W        W 4976   5.014   6.998   2.174
  924W        W 4977   1.308   3.657   2.277
  925W        W 4978   7.552   9.457  11.791
  926W        W 4979   9.892   1.250   0.441
  927W        W 4980   5.532   7.577  10.418
  928W        W 4981   2.797   7.531   0.758
  929W        W 4982   8.425   3.691   3.186
  930W        W 4983   0.767   5.617  11.808
  931W        W 4984   2.360   9.510   1.329
  932W        W 4985   5.614   7.406   3.648
  933W        W 4986   0.453   8.553   0.270
  934W        W 4987   6.126   7.501  11.432
  935W        W 4988   6.466   7.151   0.876
  936W        W 4989   8.928   7.593   0.773
  937W        W 4990   5.093   0.804   2.745
  938W        W 4991   4.068   6.941  11.496
  939W        W 4992   7.623   5.062   3.630
  940W        W 4993   3.207   3.165   1.808
  941W        W 4994   8.580   3.140   1.763
  942W        W 4995   1.207   2.638   3.228
  943W        W 4996   7.531   8.566  10.377
  944W        W 4997   4.724   3.334   2.307
  945W        W 4998   5.969   2.350   9.383
  946W        W 4999   6.644   9.495  10.867
  947W        W 5000   7.116   7.538   0.793
  948W        W 5001   5.203   5.551   2.195
  949W        W 5002   4.606   7.550   9.052
  950W        W 5003   0.375   9.817   0.349
  951W        W 5004   3.306   2.721  10.353
  952W        W 5005   0.313   5.516   1.876
  953W        W 5006  10.420   9.828   2.776
  954W        W 5007   9.860   9.508   9.408
  955W        W 5008   7.128   9.810   2.171
  956W        W 5009   5.669   6.045   2.860
  957W        W 5010  10.021   2.372   2.802
  958W        W 5011   8.371   2.762   0.404
  959W        W 5012   3.616   6.959  11.465
  960W        W 5013   6.196   6.650  10.029
  961W        W 5014   8.111   5.544   2.279
  962W        W 5015   5.066   7.587   2.176
  963W        W 5016   6.144   9.490   0.455
  964W        W 5017   9.840  10.321   3.686
  965W        W 5018   6.054  10.457  11.494
  966W        W 5019   6.531   4.119  11.900
  967W        W 5020   8.021   2.313   0.744
  968W        W 5021   1.865   4.717   3.688
  969W        W 5022   6.508   8.999  10.060
  970W        W 5023   1.431   0.472   2.679
  971W        W 5024   9.529   7.151  10.954
  972W        W 5025   9.047   3.187   2.272
  973W        W 5026   9.834   0.840   3.703
  974W        W 5027   0.326   4.602   8.486
  975W        W 5028   3.180   6.089  10.536
  976W        W 5029   6.106   7.107   3.711
  977W        W 5030   2.637   3.733   2.233
  978W        W 5031   3.657   6.577   2.235
  979W        W 5032   5.117   2.194   1.287
  980W        W 5033   3.120   5.067   0.881
  981W        W 5034   2.712   0.307   9.507
  982W        W 5035   4.669   4.712   1.712
  983W        W 5036   9.941   6.937   2.296
  984W        W 5037   6.966   8.422   8.436
  985W        W 5038   5.155   2.161   2.169
  986W        W 5039   1.282   5.178   2.847
  987W        W 5040   7.914   1.683   9.069
  988W        W 5041   6.659   5.522   9.497
  989W        W 5042   6.565   4.080   0.792
  990W        W 5043   5.019   1.284  10.430
  991W        W 5044   2.225   5.970   8.575
  992W        W 5045   0.769   6.977   2.723
  993W        W 5046   7.129   3.262   1.757
  994W        W 5047   7.481   6.613   0.760
  995W        W 5048   2.819   9.511  11.859
  996W        W 5049   0.864   2.166   2.313
  997W        W 5050   4.708   8.040   9.975
  998W        W 5051   2.323   9.343   3.182
  999W        W 5052   4.695   1.303   9.426
 1000W        W 5053   3.815   3.628   3.284
 1001W        W 5054   6.129   1.719   9.369
 1002W        W 5055   5.012   6.553   4.250
 1003W        W 5056   6.193   1.405   3.200
 1004W        W 5057   9.312   4.196  11.321
 1005W        W 5058   2.173   7.880   3.351
 1006W        W 5059   1.707   5.615   1.745
 1007W        W 5060   8.453   1.235   1.376
 1008W        W 5061   1.242   9.406   9.432
 1009W        W 5062   0.926   7.148   8.901
 1010W        W 5063   2.858   1.321   2.795
 1011W        W 5064   5.500   9.350  10.031
 1012W        W 5065   0.466   1.764   1.412
 1013W        W 5066   5.697   6.933   0.819
 1014W        W 5067   5.628   4.769  10.924
 1015W        W 5068   1.800   9.913  10.805
 1016W        W 5069   3.712   5.012  11.363
 1017W        W 5070  10.421   6.169  11.021
 1018W        W 5071   8.522   2.814  11.341
 1019W        W 5072   6.638   8.533  11.303
 1020W        W 5073   1.292   0.412   0.862
 1021W        W 5074   0.822   7.450   2.695
 1022W        W 5075   1.196   0.766   1.680
 1023W        W 5076   5.249   5.618   9.387
 1024W        W 5077   7.574   4.756   8.934
 1025W        W 5078   3.807   4.606   2.313
 1026W        W 5079   9.536  10.014   9.598
 1027W        W 5080   5.992   3.207   3.721
 1028W        W 5081   8.847   3.125  11.021
 1029W        W 5082   8.107   1.783   1.313
 1030W        W 5083   0.740   9.829  11.951
 1031W        W 5084   8.502   8.830   0.364
 1032W        W 5085   7.038   8.055   9.572
 1033W        W 5086   8.928   2.677  10.928
 1034W        W 5087   7.445   0.934   8.978
 1035W        W 5088   4.234   4.549  10.330
 1036W        W 5089   4.714   8.894   1.731
 1037W        W 5090   3.664  10.323   0.325
 1038W        W 5091   6.671   5.992   1.299
 1039W        W 5092   7.625   1.766   2.250
 1040W        W 5093   8.064   1.704   9.928
 1041W        W 5094   5.988   4.535   3.758
 1042W        W 5095   2.765   6.127   0.474
 1043W        W 5096   5.123  10.471   0.452
 1044W        W 5097   1.826   6.055   9.078
 1045W        W 5098   8.975   9.365   0.812
 1046W        W 5099   6.666   8.873  11.514
 1047W        W 5100   8.550   0.367  10.473
 1048W        W 5101   9.916   2.698  10.043
 1049W        W 5102   1.430   2.189   2.677
 1050W        W 5103   1.864   7.439   2.735
 1051W        W 5104   4.238   9.915   0.275
 1052W        W 5105   0.267   8.558   9.895
 1053W        W 5106   9.521   6.469  11.825
 1054W        W 5107   2.286   7.495   8.614
 1055W        W 5108   7.536   3.200  11.791
 1056W        W 5109   4.207   6.547   0.454
 1057W        W 5110   4.210   6.531   0.943
 1058W        W 5111   8.503   9.836   0.748
 1059W        W 5112   5.027   6.613   3.828
 1060W        W 5113   6.614   3.661  11.883
 1061W        W 5114   0.337   3.649   2.181
 1062W        W 5115   0.791   6.455   9.096
 1063W        W 5116   9.029   5.039   0.375
 1064W        W 5117   9.475   3.127   2.196
 1065W        W 5118   3.219   4.598   9.057
 1066W        W 5119  10.017   7.446  10.431
 1067W        W 5120   6.636   4.124   8.549
 1068W        W 5121   1.277   4.252  10.015
 1069W        W 5122   4.065   4.690  11.010
 1070W        W 5123   8.092   9.452  10.992
 1071W        W 5124   4.593   6.958   9.388
 1072W        W 5125  10.009   9.826   2.195
 1073W        W 5126   7.570   4.587   0.335
 1074W        W 5127   8.585   3.805   0.822
 1075W        W 5128   0.330   1.787  10.847
 1076W        W 5129   4.239   5.110   0.723
 1077W        W 5130   9.527   9.024   9.922
 1078W        W 5131   6.117   0.341   8.967
 1079W        W 5132   9.966   2.198   9.453
 1080W        W 5133   4.113   7.949   9.374
 1081W        W 5134   6.542   2.766   1.860
 1082W        W 5135   3.655   1.241   3.277
 1083W        W 5136   1.728   1.694   8.941
 1084W        W 5137   5.996  10.493   1.324
 1085W        W 5138   9.852   6.093   9.581
 1086W        W 5139   2.779   4.564   2.820
 1087W        W 5140   9.045   0.755   1.692
 1088W        W 5141   2.820   5.539   0.323
 1089W        W 5142   6.160   4.602   1.863
 1090W        W 5143   2.717  10.338   0.371
 1091W        W 5144   5.542   9.865   3.224
 1092W        W 5145  10.275   2.184   0.466
 1093W        W 5146   5.615   1.805   2.349
 1094W        W 5147   6.029   9.954   0.338
 1095W        W 5148   2.626   2.686  11.356
 1096W        W 5149   4.713   8.384   1.366
 1097W        W 5150   7.971   7.886   3.360
 1098W        W 5151   0.867  10.393   3.142
 1099W        W 5152   5.535   6.135   9.367
 1100W        W 5153   2.714   7.887   0.797
 1101W        W 5154   0.302   2.658   3.351
 1102W        W 5155   6.585   1.378  11.401
 1103W        W 5156   5.968   0.937   0.929
 1104W        W 5157   8.039   7.907   0.909
 1105W        W 5158   1.755   5.634   1.300
 1106W        W 5159   2.836   3.214  11.833
 1107W        W 5160   1.323   6.563   3.306
 1108W        W 5161   3.226   8.536   2.197
 1109W        W 5162   6.661   6.672   0.720
 1110W        W 5163   3.281   8.524   1.293
 1111W        W 5164   7.425   0.364   2.814
 1112W        W 5165   0.455   3.267  11.937
 1113W        W 5166   3.782   8.909   2.743
 1114W        W 5167   2.711   4.153   0.788
 1115W        W 5168   6.126   3.807   0.270
 1116W        W 5169   2.366   7.996   0.321
 1117W        W 5170   9.910   6.477  10.321
 1118W        W 5171   9.896   8.884   9.941
 1119W        W 5172   1.852   3.774   2.370
 1120W        W 5173   3.142   9.510   3.836
 1121W        W 5174   9.878   5.572   1.884
 1122W        W 5175   2.270   7.431   9.101
 1123W        W 5176  10.344   1.329   9.984
 1124W        W 5177   3.194  10.324   1.756
 1125W        W 5178   6.939  10.320   1.220
 1126W        W 5179   0.317   9.387   0.909
 1127W        W 5180   4.755   0.381   2.731
 1128W        W 5181   3.330   3.809   0.883
 1129W        W 5182   7.107  10.303  10.475
 1130W        W 5183   5.091  10.459  11.819
 1131W        W 5184   4.649   9.990   9.459
 1132W        W 5185   7.545   8.986   0.922
 1133W        W 5186   5.641   5.600   9.994
 1134W        W 5187   9.403   9.037   2.872
 1135W        W 5188   3.636   3.292  10.010
 1136W        W 5189   1.408   8.018  10.043
 1137W        W 5190   4.163   4.070  10.879
 1138W        W 5191   9.526   3.211   2.649
 1139W        W 5192   5.527  10.005   9.888
 1140W        W 5193   4.711   9.535   1.306
 1141W        W 5194   9.420   8.399   8.970
 1142W        W 5195   3.636   1.761  11.769
 1143W        W 5196   3.616   6.187   3.251
 1144W        W 5197  10.390   4.126  11.365
 1145W        W 5198   6.533   6.070  10.975
 1146W        W 5199   5.556   8.888   1.245
 1147W        W 5200   1.383   7.107  10.513
 1148W        W 5201   4.682   1.726   9.427
 1149W        W 5202   4.668   9.317   9.515
 1150W        W 5203   6.108   1.197   9.524
 1151W        W 5204   9.885   6.612   2.694
 1152W        W 5205   6.574   8.091  10.392
 1153W        W 5206   9.943   2.632   9.440
 1154W        W 5207  10.465   4.683   1.271
 1155W        W 5208   4.105   2.332   2.382
 1156W        W 5209   3.610   9.892  10.966
 1157W        W 5210   7.469   7.125   2.851
 1158W        W 5211   8.927   8.000   9.936
 1159W        W 5212   3.300   7.095  11.911
 1160W        W 5213   7.414   7.514  10.847
 1161W        W 5214  10.332   3.313   9.396
 1162W        W 5215   4.104   6.559   2.359
 1163W        W 5216   3.325   6.189   1.278
 1164W        W 5217   5.542   5.042  11.876
 1165W        W 5218   3.813   4.669   9.856
 1166W        W 5219  10.416   9.437   1.914
 1167W        W 5220   1.240   7.499   1.218
 1168W        W 5221   0.720   1.835  10.846
 1169W        W 5222   8.942   0.366   3.186
 1170W        W 5223  10.422   6.148   9.906
 1171W        W 5224   0.802  10.365   9.495
 1172W        W 5225   9.853   8.508   0.297
 1173W        W 5226   6.038   9.514   1.220
 1174W        W 5227   0.777   1.681   0.810
 1175W        W 5228   0.329   3.646  10.911
 1176W        W 5229   7.955   8.496  11.321
 1177W        W 5230   0.416   7.903   1.330
 1178W        W 5231   4.626   8.536   0.856
 1179W        W 5232   4.666   5.185   0.400
 1180W        W 5233   5.555   2.171   1.697
 1181W        W 5234   5.491   6.600   0.448
 1182W        W 5235   9.453   9.417   0.422
 1183W        W 5236   2.708   7.889   9.092
 1184W        W 5237   3.594   9.402  10.870
 1185W        W 5238   7.615   2.853   9.057
 1186W        W 5239   0.253   6.587  10.468
 1187W        W 5240   9.494   3.739  10.924
 1188W        W 5241   9.813   0.933   2.188
 1189W        W 5242   9.055   4.636   1.317
 1190W        W 5243   8.399   9.969   9.859
 1191W        W 5244   3.682   4.551  11.030
 1192W        W 5245   7.153   0.313   2.283
 1193W        W 5246   1.790   0.276  11.932
 1194W        W 5247   7.617   5.230   0.242
 1195W        W 5248   7.984   0.871   0.843
 1196W        W 5249   6.593  10.279  11.489
 1197W        W 5250   5.023   5.630   9.115
 1198W        W 5251   8.094   0.789  10.972
 1199W        W 5252   0.765   2.362   1.761
 1200W        W 5253   6.549   5.066   9.857
 1201W        W 5254   5.552   3.132  11.512
 1202W        W 5255   9.881   2.826  10.474
 1203W        W 5256   8.565   2.662   2.828
 1204W        W 5257   3.129   8.837  11.358
 1205W        W 5258   4.175   7.904  10.041
 1206W        W 5259   6.169   2.753  11.494
 1207W        W 5260   9.863   5.133   2.333
 1208W        W 5261   2.735   2.207   9.883
 1209W        W 5262   3.765   0.262   2.244
 1210W        W 5263   4.625   3.105   3.312
 1211W        W 5264   0.421   7.940   2.204
 1212W        W 5265   4.116   5.661   3.287
 1213W        W 5266   3.283   5.501   2.740
 1214W        W 5267   3.692   7.575   9.393
 1215W        W 5268   4.154   6.037   8.003
 1216W        W 5269   0.939   3.591  10.020
 1217W        W 5270   9.969   6.150   2.347
 1218W        W 5271   1.841   0.428  11.484
 1219W        W 5272   9.337   3.676  11.899
 1220W        W 5273   2.747   8.859   3.341
 1221W        W 5274   5.105   8.532   2.362
 1222W        W 5275   9.010   4.649   8.470
 1223W        W 5276   2.341   4.177   9.466
 1224W        W 5277   9.816   3.317  10.393
 1225W        W 5278   9.474   2.661   9.028
 1226W        W 5279   8.493   8.575   0.833
 1227W        W 5280   2.165   3.706   3.803
 1228W        W 5281   2.322   7.435   9.441
 1229W        W 5282   3.715   9.014  11.383
 1230W        W 5283   4.251   4.126   2.338
 1231W        W 5284   5.059   6.973  11.802
 1232W        W 5285   0.818   3.270   0.735
 1233W        W 5286   1.404   2.856  11.018
 1234W        W 5287   2.156   6.941  11.477
 1235W        W 5288   5.663   6.463   9.392
 1236W        W 5289   4.220   3.121  10.991
 1237W        W 5290   7.542   5.652  11.770
 1238W        W 5291   1.789   5.208   9.579
 1239W        W 5292   4.243   3.295   9.361
 1240W        W 5293   0.318   2.261   2.846
 1241W        W 5294   0.381   6.625   1.717
 1242W        W 5295   1.316  10.283   9.020
 1243W        W 5296   6.965   4.542  11.021
 1244W        W 5297   9.802   3.658  11.363
 1245W        W 5298   4.728   5.574   8.888
 1246W        W 5299   8.856   9.061   9.087
 1247W        W 5300   5.131   1.428   8.984
 1248W        W 5301   5.506  10.341  11.799
 1249W        W 5302   7.956   2.756   1.299
 1250W        W 5303   9.504  10.421  11.867
 1251W        W 5304   4.119   8.889   9.102
 1252W        W 5305   2.352   1.883   2.204
 1253W        W 5306   9.983   0.332   1.774
 1254W        W 5307   3.688   8.045   9.846
 1255W        W 5308   6.581   6.663   1.695
 1256W        W 5309   6.093   3.118  10.356
 1257W        W 5310   3.147   8.418   0.373
 1258W        W 5311   0.411   9.820   8.426
 1259W        W 5312   8.970   2.742   8.609
 1260W        W 5313   5.700   6.500   4.087
 1261W        W 5314   9.499   1.819   8.972
 1262W        W 5315   9.531   4.189   9.569
 1263W        W 5316   4.717   4.083   2.829
 1264W        W 5317   5.691   5.208   0.370
 1265W        W 5318   1.693   8.976  11.327
 1266W        W 5319   9.543   7.540  11.370
 1267W        W 5320   9.798   0.948   0.858
 1268W        W 5321   3.701   6.043   1.752
 1269W        W 5322   0.292   2.169   3.302
 1270W        W 5323   5.626  10.288  11.324
 1271W        W 5324   6.108  10.481   8.949
 1272W        W 5325   8.026   2.198   9.490
 1273W        W 5326   4.613   1.432   2.244
 1274W        W 5327   6.593   4.592   9.556
 1275W        W 5328   9.471   4.648  10.875
 1276W        W 5329   3.322   5.169  10.967
 1277W        W 5330   4.567   6.506   3.163
 1278W        W 5331   2.385  10.495   0.479
 1279W        W 5332   9.942   5.655   9.527
 1280W        W 5333   4.259   2.217   1.911
 1281W        W 5334  10.416   7.037   3.312
 1282W        W 5335   7.082   1.289  11.352
 1283W        W 5336   7.504   8.400  10.863
 1284W        W 5337  10.012   9.948   9.113
 1285W        W 5338   6.597   2.763   8.960
 1286W        W 5339  10.453  10.456   2.703
 1287W        W 5340   4.681   2.347   9.999
 1288W        W 5341   6.509   2.196   3.310
 1289W        W 5342   9.948   1.370   2.272
 1290W        W 5343   2.372   6.099   9.512
 1291W        W 5344   5.625   3.726   3.137
 1292W        W 5345   8.095   1.885   3.335
 1293W        W 5346   2.713   1.685   2.320
 1294W        W 5347   1.762   2.671   9.998
 1295W        W 5348   9.006   3.748   2.841
 1296W        W 5349   1.425   5.612  11.973
 1297W        W 5350   0.874   1.338  11.432
 1298W        W 5351   0.302   4.573   0.753
 1299W        W 5352   1.282   3.293  10.428
 1300W        W 5353  10.448   4.700   3.165
 1301W        W 5354   6.930   3.592   3.232
 1302W        W 5355   3.628   0.810   9.575
 1303W        W 5356   4.575   1.697  10.350
 1304W        W 5357   5.566  10.349   0.790
 1305W        W 5358   3.637   6.085  10.891
 1306W        W 5359  10.461   8.081   2.256
 1307W        W 5360   4.165   4.695  11.304
 1308W        W 5361  10.496   3.807   2.740
 1309W        W 5362   1.834   9.954  10.553
 1310W        W 5363   8.053  10.466   1.287
 1311W        W 5364   4.628   1.866   2.689
 1312W        W 5365   7.480   4.615   1.801
 1313W        W 5366   3.248   3.776  10.519
 1314W        W 5367   5.212   5.031   0.278
 1315W        W 5368   4.592   4.705  11.449
 1316W        W 5369   8.481   1.230   2.333
 1317W        W 5370   4.649   8.526   0.322
 1318W        W 5371   5.130   1.716   1.330
 1319W        W 5372   0.275   4.637   3.811
 1320W        W 5373   1.221   9.355  10.342
 1321W        W 5374   5.715   3.764  10.855
 1322W        W 5375   3.604  10.294   9.912
 1323W        W 5376   9.389   4.592  11.943
 1324W        W 5377   5.151   4.068   1.345
 1325W        W 5378   5.199   5.527   1.327
 1326W        W 5379   7.607   1.847  10.934
 1327W        W 5380   2.157   9.331   8.933
 1328W        W 5381   2.673   8.034   3.180
 1329W        W 5382   7.615   7.141   8.915
 1330W        W 5383   3.602   5.996   0.758
 1331W        W 5384   0.435   0.293   0.247
 1332W        W 5385   3.210   3.251   2.211
 1333W        W 5386   5.154   2.168   0.385
 1334W        W 5387   7.000   2.292   9.012
 1335W        W 5388   6.484  10.478   2.284
 1336W        W 5389  10.361   6.630   9.571
 1337W        W 5390   4.720   5.051  10.352
 1338W        W 5391   9.501   0.454   0.814
 1339W        W 5392   7.566   3.284   3.229
 1340W        W 5393   3.109   6.031   4.083
 1341W        W 5394  10.406   1.672   0.858
 1342W        W 5395   8.088   1.800  10.931
 1343W        W 5396   7.898   3.306  11.453
 1344W        W 5397   4.768   1.816  10.966
 1345W        W 5398   4.617   5.718   0.293
 1346W        W 5399   8.955   6.109   2.642
 1347W        W 5400   4.062   3.646   0.474
 1348W        W 5401   4.172   2.816   0.754
 1349W        W 5402   7.600   9.856  10.531
 1350W        W 5403   9.892   6.943   3.735
 1351W        W 5404   8.567   1.845   9.498
 1352W        W 5405   3.233   7.950   3.319
 1353W        W 5406   7.439   6.044  10.457
 1354W        W 5407   0.293   2.295   1.889
 1355W        W 5408   3.146   8.512   9.861
 1356W        W 5409  10.020   9.985  10.006
 1357W        W 5410   5.619   1.389   3.311
 1358W        W 5411   3.805   2.705   1.241
 1359W        W 5412   7.401   9.039  10.467
 1360W        W 5413   9.907  10.455   1.861
 1361W        W 5414   9.998   0.325   9.583
 1362W        W 5415   6.043   2.382   9.928
 1363W        W 5416   5.653   0.791   8.976
 1364W        W 5417   0.455   6.572  10.061
 1365W        W 5418   2.638   5.567   0.730
 1366W        W 5419   1.428   3.158   9.970
 1367W        W 5420   0.790   5.694  10.871
 1368W        W 5421   0.283   3.603   0.871
 1369W        W 5422   7.979   4.648   2.773
 1370W        W 5423   6.922   6.928   9.047
 1371W        W 5424   5.563   9.433   0.267
 1372W        W 5425   2.770   3.733   0.721
 1373W        W 5426   8.398   8.499  11.899
 1374W        W 5427   2.368   7.046  11.836
 1375W        W 5428   7.566   8.517   0.929
 1376W        W 5429   1.677   9.831   2.797
 1377W        W 5430   5.078   4.164  10.863
 1378W        W 5431   0.318   5.572   3.218
 1379W        W 5432   7.411   0.266   0.811
 1380W        W 5433   7.467   2.327   2.806
 1381W        W 5434   5.530   2.342   9.987
 1382W        W 5435   0.250   4.229  10.989
 1383W        W 5436   6.925   3.724   1.724
 1384W        W 5437   3.811   9.468   0.316
 1385W        W 5438   3.164   9.408   9.425
 1386W        W 5439   8.102  10.370  11.876
 1387W        W 5440   3.811   5.681   0.843
 1388W        W 5441   8.403   0.275   1.723
 1389W        W 5442   8.923   2.313   9.365
 1390W        W 5443   1.882   2.748  10.914
 1391W        W 5444   7.001   6.575   9.980
 1392W        W 5445   2.325   3.697   1.303
 1393W        W 5446   5.985   7.005   1.355
 1394W        W 5447   1.812   7.551   1.289
 1395W        W 5448   5.975   5.968  10.489
 1396W        W 5449   9.328   1.369   9.443
 1397W        W 5450   9.345   4.107   1.761
 1398W        W 5451   8.849   8.435  10.999
 1399W        W 5452   9.063   4.122   3.183
 1400W        W 5453   3.785   7.111   3.278
 1401W        W 5454   3.328   4.212   1.822
 1402W        W 5455   2.809   7.928  11.308
 1403W        W 5456   3.260   8.011   0.252
 1404W        W 5457   3.803   5.201   8.480
 1405W        W 5458   0.368   7.543   0.374
 1406W        W 5459   2.750   7.556  10.363
 1407W        W 5460   5.987   3.722  10.981
 1408W        W 5461   2.307   7.081   9.583
 1409W        W 5462   5.108   5.527   2.702
 1410W        W 5463   9.444   0.908   0.414
 1411W        W 5464   5.103   8.097  10.830
 1412W        W 5465   0.375   8.026   3.273
 1413W        W 5466   4.549   0.868   0.358
 1414W        W 5467   6.525   4.139   2.876
 1415W        W 5468  10.452   7.048   9.868
 1416W        W 5469   1.359   3.656  10.380
 1417W        W 5470   2.668   5.711   1.753
 1418W        W 5471   0.731   9.946  10.506
 1419W        W 5472   3.152   9.800   2.399
 1420W        W 5473   1.823   8.002   8.997
 1421W        W 5474   8.585   9.528  11.475
 1422W        W 5475   6.042   3.175  10.838
 1423W        W 5476   7.077  10.380   9.451
 1424W        W 5477   0.829   2.310  10.029
 1425W        W 5478   6.127   7.565   3.173
 1426W        W 5479   5.596   6.028  10.436
 1427W        W 5480   5.541   9.413  11.298
 1428W        W 5481   4.242   4.555   3.346
 1429W        W 5482   7.066   5.211   2.365
 1430W        W 5483   3.636   6.942   2.792
 1431W        W 5484   1.827   5.672   3.691
 1432W        W 5485   8.895   7.103  10.496
 1433W        W 5486   1.305   7.544  10.061
 1434W        W 5487   4.187   8.524  10.336
 1435W        W 5488   5.095   9.992   1.254
 1436W        W 5489   7.071   5.625   8.608
 1437W        W 5490   2.773  10.327   9.971
 1438W        W 5491   6.556   2.694  11.026
 1439W        W 5492   3.204  10.262   9.361
 1440W        W 5493   7.994   2.652   9.844
 1441W        W 5494   0.858   5.711   3.330
 1442W        W 5495   3.298  10.003   9.521
 1443W        W 5496   1.430   1.705   8.624
 1444W        W 5497   9.977   4.679   9.449
 1445W        W 5498   1.242   3.304   0.817
 1446W        W 5499   9.861   5.125   3.344
 1447W        W 5500   7.921   2.224  11.424
 1448W        W 5501   7.083   5.674   9.476
 1449W        W 5502   4.096   5.209   1.775
 1450W        W 5503   5.986   4.577  10.442
 1451W        W 5504   8.384   2.722   0.825
 1452W        W 5505   0.764   6.503   3.185
 1453W        W 5506   9.515   1.207  10.349
 1454W        W 5507   3.192   4.225   0.277
 1455W        W 5508   9.344   5.024   2.344
 1456W        W 5509   9.338   3.142  11.454
 1457W        W 5510   9.336   4.571  10.437
 1458W        W 5511   2.815   8.455   2.225
 1459W        W 5512   0.336   6.074   1.230
 1460W        W 5513   8.479   8.363   3.793
 1461W        W 5514   5.221   1.696   3.358
 1462W        W 5515   7.573   5.678   9.578
 1463W        W 5516   3.623   8.066  10.979
 1464W        W 5517   3.148   6.173   2.201
 1465W        W 5518   1.247   0.814  10.528
 1466W        W 5519   5.229   5.086  11.032
 1467W        W 5520   5.971   4.602  11.973
 1468W        W 5521   6.941   6.533   9.113
 1469W        W 5522   7.011   2.825  10.343
 1470W        W 5523   7.901   8.436   1.727
 1471W        W 5524   9.828   9.985  11.799
 1472W        W 5525   1.833   1.387  11.906
 1473W        W 5526  10.358   4.671   0.736
 1474W        W 5527   5.660   4.167   0.439
 1475W        W 5528   9.793   3.194   3.274
 1476W        W 5529   6.098   1.198   1.365
 1477W        W 5530   0.396   0.719   2.220
 1478W        W 5531   3.639   0.860  10.330
 1479W        W 5532   4.542  10.343   1.421
 1480W        W 5533   8.872   3.124   3.133
 1481W        W 5534   4.273   0.778   9.482
 1482W        W 5535   6.448   2.180   0.303
 1483W        W 5536   6.469   0.364  11.019
 1484W        W 5537   2.824  10.386  11.425
 1485W        W 5538   5.165   9.865   1.706
 1486W        W 5539   3.151   1.284   1.288
 1487W        W 5540   2.359  10.304  10.966
 1488W        W 5541   1.300   5.704   1.207
 1489W        W 5542   8.025   0.453  11.503
 1490W        W 5543   8.978   3.784   0.367
 1491W        W 5544   1.678   1.383   9.424
 1492W        W 5545   6.954   1.389   1.314
 1493W        W 5546  10.013   3.295   1.328
 1494W        W 5547   3.691   5.191   3.308
 1495W        W 5548   8.371   5.084   1.427
 1496W        W 5549   8.523   3.652   9.490
 1497W        W 5550   2.814   7.998  10.379
 1498W        W 5551   3.708   7.468   0.831
 1499W        W 5552   6.068   5.198   9.388
 1500W        W 5553   8.500   9.545   0.244
 1501W        W 5554   7.036   9.528   1.336
 1502W        W 5555   6.197   7.533   9.396
 1503W        W 5556   7.973   3.795   0.860
 1504W        W 5557   8.077   9.901   9.555
 1505W        W 5558   0.942   0.886   0.814
 1506W        W 5559   7.457   5.182   0.721
 1507W        W 5560  10.480   1.352  11.314
 1508W        W 5561   3.787   9.499  10.503
 1509W        W 5562   2.846   7.525   2.273
 1510W        W 5563   8.866   3.245   0.776
 1511W        W 5564   4.112   7.566  11.982
 1512W        W 5565   6.636   7.596  10.920
 1513W        W 5566   9.522   4.294   3.201
 1514W        W 5567   1.701   5.236   3.310
 1515W        W 5568   4.649   9.875   9.979
 1516W        W 5569   0.719   7.993   0.420
 1517W        W 5570   9.989   3.598   1.770
 1518W        W 5571   8.849   6.126  11.427
 1519W        W 5572   5.176   7.879   3.333
 1520W        W 5573   1.226   2.199  11.386
 1521W        W 5574   6.563   6.573   2.726
 1522W        W 5575   0.917   5.564   8.952
 1523W        W 5576   1.684   4.190   9.374
 1524W        W 5577   8.505   4.684   0.876
 1525W        W 5578   0.944   8.850  10.961
 1526W        W 5579   6.100   7.588   8.538
 1527W        W 5580   6.079   8.874   1.818
 1528W        W 5581   7.893   5.231   9.517
 1529W        W 5582   2.860   4.135   8.906
 1530W        W 5583   9.444   9.319  10.425
 1531W        W 5584   3.679   7.586   3.256
 1532W        W 5585   0.868   6.058  11.406
 1533W        W 5586   9.873   2.301   1.312
 1534W        W 5587   8.469   1.381   0.877
 1535W        W 5588   3.340   2.757   0.460
 1536W        W 5589   4.180   5.015   3.280
 1537W        W 5590   0.471   7.894   8.890
 1538W        W 5591   3.712   0.920   2.305
 1539W        W 5592  10.463   0.759  11.440
 1540W        W 5593  10.293   0.737   2.249
 1541W        W 5594   3.107   4.196   2.391
 1542W        W 5595   0.942   7.436   9.503
 1543W        W 5596   5.718   6.630  11.409
 1544W        W 5597   1.885   1.430   0.313
 1545W        W 5598   2.792   0.893   2.797
 1546W        W 5599   1.709   2.182   1.439
 1547W        W 5600   2.843   8.021   9.446
 1548W        W 5601   4.236   2.721   9.973
 1549W        W 5602   6.987   8.085   0.924
 1550W        W 5603   6.634   9.842   8.912
 1551W        W 5604   3.319   6.514   0.936
 1552W        W 5605   4.255   7.426   1.880
 1553W        W 5606   6.011   5.712   2.286
 1554W        W 5607   8.842   7.541  11.502
 1555W        W 5608   3.287   0.425   0.729
 1556W        W 5609  10.283   0.341  11.836
 1557W        W 5610   2.201  10.304   9.987
 1558W        W 5611   7.622   6.640   3.204
 1559W        W 5612   8.942   9.990   1.439
 1560W        W 5613   5.086   9.350  10.952
 1561W        W 5614   7.885   5.600  11.329
 1562W        W 5615  10.273   1.711   1.890
 1563W        W 5616   1.764   3.778   0.867
 1564W        W 5617   5.080   5.020   3.292
 1565W        W 5618   3.707   3.816   2.772
 1566W        W 5619   4.209   4.128   0.944
 1567W        W 5620   3.610   0.386  10.333
 1568W        W 5621   6.586   0.776   3.240
 1569W        W 5622   0.752   4.659   0.398
 1570W        W 5623   7.150   2.809   3.286
 1571W        W 5624   0.833   1.720   9.518
 1572W        W 5625   7.598   8.855   8.428
 1573W        W 5626   7.988   3.238   9.365
 1574W        W 5627   5.618   8.060  10.974
 1575W        W 5628   3.750   3.613  10.940
 1576W        W 5629   5.097   7.900  10.002
 1577W        W 5630   3.208   6.114   0.738
 1578W        W 5631   1.310   9.358   2.221
 1579W        W 5632   2.690   8.094   2.724
 1580W        W 5633   5.093  10.298   9.390
 1581W        W 5634   8.588   4.243   2.830
 1582W        W 5635   9.963   4.127   1.301
 1583W        W 5636   2.183   2.695   2.674
 1584W        W 5637   9.346   0.288  11.494
 1585W        W 5638   9.846   8.047  10.505
 1586W        W 5639   5.093   7.592   8.508
 1587W        W 5640   1.900   9.840   9.951
 1588W        W 5641   1.388   5.668   9.515
 1589W        W 5642   6.622   5.989  11.371
 1590W        W 5643   4.647   4.664   0.378
 1591W        W 5644   1.326   4.677   9.493
 1592W        W 5645   8.392   6.156   1.279
 1593W        W 5646   3.619  10.019   1.339
 1594W        W 5647  10.375   2.834  10.834
 1595W        W 5648   6.065   4.665   2.856
 1596W        W 5649  10.431   9.531   1.225
 1597W        W 5650   9.885   9.326  11.976
 1598W        W 5651   5.231   3.776   8.506
 1599W        W 5652   2.851   0.755   9.376
 1600W        W 5653   7.965   5.509  10.847
 1601W        W 5654   5.131   2.209   0.904
 1602W        W 5655   8.558   8.019   2.183
 1603W        W 5656   1.876   2.168  11.319
 1604W        W 5657   3.182   3.590   2.388
 1605W        W 5658   7.107   8.574   2.832
 1606W        W 5659   7.449   3.235   2.712
 1607W        W 5660   1.366   4.733   3.315
 1608W        W 5661   3.220   1.680   2.879
 1609W        W 5662   8.412  10.456   1.760
 1610W        W 5663   2.381   2.344   1.220
 1611W        W 5664   3.620   7.019   1.722
 1612W        W 5665   7.431  10.460   2.388
 1613W        W 5666   1.394   7.111   9.043
 1614W        W 5667   7.078  10.416   2.703
 1615W        W 5668   6.677   2.364   2.259
 1616W        W 5669   1.804   8.982   2.280
 1617W        W 5670   3.781   6.949   9.937
 1618W        W 5671   2.755   2.768   1.861
 1619W        W 5672   5.040   0.329   2.370
 1620W        W 5673   7.601   1.905   3.197
 1621W        W 5674   2.824   3.812   1.264
 1622W        W 5675   3.591   2.692   0.331
 1623W        W 5676   6.619  10.438   1.413
 1624W        W 5677   8.455   4.708   1.787
 1625W        W 5678   7.875   6.073   3.203
 1626W        W 5679   0.901   9.955   9.544
 1627W        W 5680   8.359   9.450  10.473
 1628W        W 5681   8.095   0.423   9.585
 1629W        W 5682   0.394  10.459   1.413
 1630W        W 5683   8.417   0.785   9.074
 1631W        W 5684   4.687   6.506   9.519
 1632W        W 5685   3.117   9.051  11.989
 1633W        W 5686   9.971   9.916   9.473
 1634W        W 5687   9.912   4.643  10.885
 1635W        W 5688   2.366   1.689  11.898
 1636W        W 5689   1.291   0.720  11.364
 1637W        W 5690   9.052   7.940  11.888
 1638W        W 5691   3.811   5.200   0.853
 1639W        W 5692   5.502   6.091   0.956
 1640W        W 5693  10.285   8.953   9.932
 1641W        W 5694   0.259   8.072   9.422
 1642W        W 5695   6.154   6.598   3.176
 1643W        W 5696   3.254   6.139   3.670
 1644W        W 5697   9.360   2.753   9.476
 1645W        W 5698   6.562   1.781   0.382
 1646W        W 5699   0.931   1.199   2.839
 1647W        W 5700   1.809   1.248   2.323
 1648W        W 5701   5.145   7.439   9.527
 1649W        W 5702   8.951   9.906  10.808
 1650W        W 5703   7.991   8.030   0.296
 1651W        W 5704   1.309   1.791   9.542
 1652W        W 5705   4.147   9.964  10.027
 1653W        W 5706   5.050   6.554   1.429
 1654W        W 5707   1.861   7.935   0.908
 1655W        W 5708   1.276   0.826   8.880
 1656W        W 5709   7.077   0.281   9.927
 1657W        W 5710   7.011   1.738   3.203
 1658W        W 5711   3.698   1.805   0.420
 1659W        W 5712   3.271   3.627   2.829
 1660W        W 5713   2.317   3.742   0.268
 1661W        W 5714   9.311   3.213  10.055
 1662W        W 5715   8.558   6.140  10.847
 1663W        W 5716   6.613   5.035   0.357
 1664W        W 5717   0.884   5.018  11.340
 1665W        W 5718   0.415   1.234  10.031
 1666W        W 5719   9.917   7.404   2.660
 1667W        W 5720  10.429   7.079   2.161
 1668W        W 5721   4.072   5.159  10.913
 1669W        W 5722   3.142   8.006  11.959
 1670W        W 5723   0.939  10.004   0.380
 1671W        W 5724   9.369   6.170   9.901
 1672W        W 5725   8.553   6.151   2.306
 1673W        W 5726   7.473   2.295   3.278
 1674W        W 5727   4.192   0.296   2.346
 1675W        W 5728   1.796   1.840  10.522
 1676W        W 5729   1.861   4.099  11.966
 1677W        W 5730   0.344   2.675   9.851
 1678W        W 5731   7.041   2.720   9.489
 1679W        W 5732   6.940   6.065   0.779
 1680W        W 5733   6.034   0.824  11.927
 1681W        W 5734   2.858   5.492   2.815
 1682W        W 5735  10.273   3.606   1.883
 1683W        W 5736   9.326   3.761  11.330
 1684W        W 5737   6.195   4.148   3.285
 1685W        W 5738   6.198  10.021   0.827
 1686W        W 5739   0.757   0.775   1.336
 1687W        W 5740   8.909   4.546   0.271
 1688W        W 5741   4.596   4.762  10.990
 1689W        W 5742   1.315   1.857  10.446
 1690W        W 5743   5.563   9.996   1.841
 1691W        W 5744   5.086   8.551  11.474
 1692W        W 5745   4.095   7.451   0.730
 1693W        W 5746   4.654   5.617   2.663
 1694W        W 5747   4.637   0.470   1.816
 1695W        W 5748   9.461   1.198   9.047
 1696W        W 5749  10.266   1.859  10.806
 1697W        W 5750   6.464   7.604   8.552
 1698W        W 5751   7.921   6.015   2.822
 1699W        W 5752   5.154   3.293   8.905
 1700W        W 5753   3.586   6.470  11.811
 1701W        W 5754   7.918   5.973  10.921
 1702W        W 5755   3.605   6.130   2.749
 1703W        W 5756   4.290   5.213  11.401
 1704W        W 5757   6.459   5.655   3.283
 1705W        W 5758   2.832   4.572   8.889
 1706W        W 5759   2.793   3.807   2.873
 1707W        W 5760   0.836   2.659   3.134
 1708W        W 5761   6.067   9.066   0.328
 1709W        W 5762   5.515   8.944   1.916
 1710W        W 5763   7.131   5.998  11.353
 1711W        W 5764   1.419   8.876  11.465
 1712W        W 5765   3.218   8.013   2.837
 1713W        W 5766   2.637   4.087   9.427
 1714W        W 5767   5.106   3.703   3.816
 1715W        W 5768   6.939   2.819  11.965
 1716W        W 5769   7.879   4.232   1.339
 1717W        W 5770   5.217   3.169  11.427
 1718W        W 5771   5.549   1.884   1.242
 1719W        W 5772   4.160   3.182   1.798
 1720W        W 5773   7.469   0.841   2.277
 1721W        W 5774   7.005   1.275  11.772
 1722W        W 5775   7.917   4.223   2.855
 1723W        W 5776   5.230   1.798   0.380
 1724W        W 5777   9.476   0.904   3.749
 1725W        W 5778   8.491   9.034   1.416
 1726W        W 5779  10.022   7.049   9.990
 1727W        W 5780   0.408   2.187  10.503
 1728W        W 5781   4.090   1.698   3.154
 1729W        W 5782   3.233   1.869   1.917
 1730W        W 5783   8.371   6.007  10.452
 1731W        W 5784   2.285   0.770   9.463
 1732W        W 5785   0.353   3.680  11.863
 1733W        W 5786   9.980   1.826   2.344
 1734W        W 5787   4.140   9.538  10.421
 1735W        W 5788   5.181   6.607   9.475
 1736W        W 5789   8.947   1.301   3.288
 1737W        W 5790   5.662   5.497   1.395
 1738W        W 5791   7.569   6.204   9.556
 1739W        W 5792   5.108   4.731   0.940
 1740W        W 5793   1.852   9.476  11.900
 1741W        W 5794   2.804   8.848   0.301
 1742W        W 5795   0.346   5.059   3.128
 1743W        W 5796   9.007   4.677   1.771
 1744W        W 5797   4.705  10.380   2.806
 1745W        W 5798   5.637   4.613  11.312
 1746W        W 5799   7.554  10.488  10.474
 1747W        W 5800   8.027   6.480  11.495
 1748W        W 5801   0.295   7.136  11.775
 1749W        W 5802   7.463   4.733   9.435
 1750W        W 5803   6.044   7.891   9.862
 1751W        W 5804   0.281   7.537  10.462
 1752W        W 5805   7.985   9.527   9.539
 1753W        W 5806   6.201   6.987   9.984
 1754W        W 5807   8.560   5.232   0.412
 1755W        W 5808   9.499   4.611   0.432
 1756W        W 5809   5.552   4.661   2.291
 1757W        W 5810   5.688   3.779  11.350
 1758W        W 5811   7.975   8.854  10.077
 1759W        W 5812   9.336   0.314   0.452
 1760W        W 5813   8.892   7.107   9.531
 1761W        W 5814   8.878   8.024   9.495
 1762W        W 5815   7.527   5.682  10.542
 1763W        W 5816   5.157   1.199   2.754
 1764W        W 5817   2.366   0.876   0.306
 1765W        W 5818   3.716   3.678   9.948
 1766W        W 5819  10.383   6.106   1.852
 1767W        W 5820   4.173   3.735   0.731
 1768W        W 5821   9.337   7.486   8.963
 1769W        W 5822   2.193   3.763   1.870
 1770W        W 5823   9.004   6.027  11.996
 1771W        W 5824   4.735   1.199   3.247
 1772W        W 5825  10.467   1.786   2.191
 1773W        W 5826   9.865   5.220  10.476
 1774W        W 5827   1.248   1.730  10.002
 1775W        W 5828   1.314   3.140   3.268
 1776W        W 5829   4.599  10.019   0.278
 1777W        W 5830   9.914   8.365   1.408
 1778W        W 5831   2.224   5.221  10.819
 1779W        W 5832   9.505   2.287   8.937
 1780W        W 5833   4.760   7.427  10.904
 1781W        W 5834   7.944   5.176  11.368
 1782W        W 5835   7.006   0.298   2.762
 1783W        W 5836   7.076   9.867   1.311
 1784W        W 5837   3.164   8.390  11.353
 1785W        W 5838   3.160   0.796   3.301
 1786W        W 5839   6.632   5.573   9.100
 1787W        W 5840   7.877   4.620   9.424
 1788W        W 5841   4.170   4.111   0.372
 1789W        W 5842   9.449   0.261   1.801
 1790W        W 5843   9.517   7.900   3.271
 1791W        W 5844   2.281   6.549   1.761
 1792W        W 5845   9.811   7.019  10.510
 1793W        W 5846   2.778   0.919   1.721
 1794W        W 5847   8.402   2.159   9.364
 1795W        W 5848  10.008   7.424  11.847
 1796W        W 5849   7.618   4.144   9.067
 1797W        W 5850   0.470   3.783   3.180
 1798W        W 5851   7.879   7.457   8.953
 1799W        W 5852   1.400   8.501   0.814
 1800W        W 5853   0.879   1.804   2.322
 1801W        W 5854   0.343   1.220   0.806
 1802W        W 5855   9.454   0.782   1.238
 1803W        W 5856   0.390   4.563  11.886
 1804W        W 5857   6.099   2.654   9.978
 1805W        W 5858   6.577   0.919   8.904
 1806W        W 5859   7.023   8.376   9.572
 1807W        W 5860   4.605   9.510  10.078
 1808W        W 5861   7.087   3.749   9.020
 1809W        W 5862   0.884   6.942   0.372
 1810W        W 5863   6.446   8.926   3.271
 1811W        W 5864   8.018  10.363   3.283
 1812W        W 5865   8.500   3.669  11.291
 1813W        W 5866  10.278   6.545   2.723
 1814W        W 5867   7.585   5.670  11.295
 1815W        W 5868   6.186   5.627  10.830
 1816W        W 5869   1.723   7.464   9.845
 1817W        W 5870   3.813   2.715   1.734
 1818W        W 5871   2.290  10.498   1.219
 1819W        W 5872   8.403   7.566   1.906
 1820W        W 5873   4.110   5.055   2.325
 1821W        W 5874   8.893   2.201  10.379
 1822W        W 5875   4.551   5.560   0.861
 1823W        W 5876   4.765   7.958   0.471
 1824W        W 5877   7.442   2.772  11.351
 1825W        W 5878   9.031   7.011  11.824
 1826W        W 5879  10.471   7.059   2.678
 1827W        W 5880   6.553   5.090   9.401
 1828W        W 5881   6.036   5.182  10.547
 1829W        W 5882   1.726   9.529  10.536
 1830W        W 5883   0.265   9.001  10.413
 1831W        W 5884   9.954   9.407   9.853
 1832W        W 5885   2.768   4.712  11.328
 1833W        W 5886   5.549   4.072  11.340
 1834W        W 5887  10.468   0.430   3.357
 1835W        W 5888   3.716   2.744   2.687
 1836W        W 5889   2.386   3.729  11.442
 1837W        W 5890   4.087   6.973   1.254
 1838W        W 5891   7.043   5.723   1.783
 1839W        W 5892   6.114   9.492   8.965
 1840W        W 5893   1.255   6.518   9.371
 1841W        W 5894   4.712   4.258   0.773
 1842W        W 5895  10.385   8.841  11.493
 1843W        W 5896   1.407   1.712   2.219
 1844W        W 5897   9.864   0.751  10.036
 1845W        W 5898   7.010   0.880   2.792
 1846W        W 5899   0.257   0.723   1.235
 1847W        W 5900   2.762   5.702  10.076
 1848W        W 5901   8.090   7.620   1.706
 1849W        W 5902   2.373   9.802   2.859
 1850W        W 5903   0.406   2.714  11.471
 1851W        W 5904   2.658   5.144  11.399
 1852W        W 5905   0.369   5.089  11.794
 1853W        W 5906   2.801   3.180   1.349
 1854W        W 5907   6.576   6.446   3.235
 1855W        W 5908   7.969   6.037   0.951
 1856W        W 5909   7.492   4.692  11.333
 1857W        W 5910   0.306   0.824  11.472
 1858W        W 5911   1.763   1.828   3.346
 1859W        W 5912   8.423   6.538   9.520
 1860W        W 5913   5.056   4.102   0.807
 1861W        W 5914   5.544  10.341   2.793
 1862W        W 5915   5.695   2.644   1.392
 1863W        W 5916   0.288   9.896  11.825
 1864W        W 5917   2.762   2.229   0.737
 1865W        W 5918   4.661   0.420  10.814
 1866W        W 5919   3.118   9.516   2.771
 1867W        W 5920   9.974   9.481  10.441
 1868W        W 5921   8.831   9.540   9.884
 1869W        W 5922   3.680   4.672  11.290
 1870W        W 5923   1.732   1.312   1.867
 1871W        W 5924   6.590   4.718   8.154
 1872W        W 5925   8.575   9.443   9.919
 1873W        W 5926   9.481   1.375   0.248
 1874W        W 5927   6.110   5.557   0.792
 1875W        W 5928   9.333   0.381   2.773
 1876W        W 5929   2.815   5.693  10.804
 1877W        W 5930   4.209   3.593  10.893
 1878W        W 5931   1.388  10.423   2.211
 1879W        W 5932   5.050   2.848  10.501
 1880W        W 5933   4.075   1.315   9.544
 1881W        W 5934   1.880   4.617  10.917
 1882W        W 5935   9.348  10.312   2.172
 1883W        W 5936   3.184   7.472   0.888
 1884W        W 5937   5.622   0.730  10.387
 1885W        W 5938   3.151   2.730   9.959
 1886W        W 5939   3.111   9.040   8.574
 1887W        W 5940   9.994   0.380  10.864
 1888W        W 5941   5.716   5.592   0.958
 1889W        W 5942   2.348   7.151  10.442
 1890W        W 5943   5.520   4.158  10.488
 1891W        W 5944   8.582  10.378  11.805
 1892W        W 5945   3.799   5.233  10.060
 1893W        W 5946   1.683   3.196   0.330
 1894W        W 5947   6.601   3.789   0.388
 1895W        W 5948   8.894   0.368  11.931
 1896W        W 5949   6.673   6.137   8.989
 1897W        W 5950   8.404   4.589   0.366
 1898W        W 5951   6.107   2.342   3.145
 1899W        W 5952   4.539   6.632  11.910
 1900W        W 5953   9.007   1.816  11.837
 1901W        W 5954   1.417   0.800  10.942
 1902W        W 5955   1.759   8.874   8.588
 1903W        W 5956   3.783   5.106   1.713
 1904W        W 5957   2.846   5.975   2.857
 1905W        W 5958  10.421   0.376   8.933
 1906W        W 5959   9.946   2.639  11.023
 1907W        W 5960   6.162   7.547   8.932
 1908W        W 5961   5.715   4.133  10.056
 1909W        W 5962   8.865   9.036  10.019
 1910W        W 5963   8.547   2.779  10.555
 1911W        W 5964   5.634   9.494   1.222
 1912W        W 5965   3.174   2.679  10.881
 1913W        W 5966   9.488   0.816   9.495
 1914W        W 5967   7.444   3.102   8.484
 1915W        W 5968   6.203   6.960   0.916
 1916W        W 5969   5.590   0.381  10.329
 1917W        W 5970   9.879   8.412  10.026
 1918W        W 5971   0.267   6.944   9.485
 1919W        W 5972   2.743   3.289   0.731
 1920W        W 5973   0.897   6.622   9.464
 1921W        W 5974   1.858   8.058   2.322
 1922W        W 5975   7.985   2.748  10.489
 1923W        W 5976   4.757   0.863   9.865
 1924W        W 5977   9.936   1.216   8.907
 1925W        W 5978   5.687   3.105  10.481
 1926W        W 5979   4.243   9.034  10.009
 1927W        W 5980   5.673   8.400   0.414
 1928W        W 5981   1.345   0.428   0.382
 1929W        W 5982   4.113   9.823   1.270
 1930W        W 5983   2.304   5.704  10.484
 1931W        W 5984   7.955   7.559   9.965
 1932W        W 5985   2.255   8.839  11.820
 1933W        W 5986   3.225   1.808   8.911
 1934W        W 5987   5.227   8.896   3.353
 1935W        W 5988   6.111   0.869   9.966
 1936W        W 5989   6.183   7.521   2.250
 1937W        W 5990   2.301   7.911  11.997
 1938W        W 5991   7.602   9.880   2.331
 1939W        W 5992   8.571   2.789   3.214
 1940W        W 5993  10.408   5.162   1.894
 1941W        W 5994   9.925   4.713   1.693
 1942W        W 5995   7.955   6.928  10.863
 1943W        W 5996   8.452   8.055   1.431
 1944W        W 5997   4.763   3.317  10.998
 1945W        W 5998   9.352   0.298   2.262
 1946W        W 5999   7.425   0.816  10.458
 1947W        W 6000  10.318   0.286   1.223
 1948W        W 6001   1.395   3.807  11.511
 1949W        W 6002   9.952   5.606   0.271
 1950W        W 6003   9.936   9.317   3.321
 1951W        W 6004   3.701   4.155  11.440
 1952W        W 6005   5.057   8.888   1.304
 1953W        W 6006   4.549   8.537  11.922
 1954W        W 6007   1.408   5.117  11.395
 1955W        W 6008   1.807   0.952   2.189
 1956W        W 6009   3.726   9.541   1.795
 1957W        W 6010   2.659   1.809   3.139
 1958W        W 6011   1.737   4.125   3.146
 1959W        W 6012  10.013   1.906   2.699
 1960W        W 6013   6.456   8.056   2.365
 1961W        W 6014   2.770   6.511  10.391
 1962W        W 6015   3.173   5.039   2.678
 1963W        W 6016   1.299   9.055  10.488
 1964W        W 6017   2.381   7.048   3.322
 1965W        W 6018   5.100   4.651   9.386
 1966W        W 6019   8.456   5.991  10.078
 1967W        W 6020   2.305   7.579   0.469
 1968W        W 6021   7.061   4.282   9.933
 1969W        W 6022   4.657   6.197  10.892
 1970W        W 6023   7.444   4.576   4.242
 1971W        W 6024   2.675   0.732  11.822
 1972W        W 6025   8.877   8.061  10.947
 1973W        W 6026   9.006   6.193   9.055
 1974W        W 6027   7.605   4.199  11.310
 1975W        W 6028   9.924   6.053   2.743
 1976W        W 6029   9.346   2.315  10.495
 1977W        W 6030   8.072   4.696   2.208
 1978W        W 6031   0.382   7.144   2.244
 1979W        W 6032  10.384   2.311  11.404
 1980W        W 6033   2.660   6.998   3.261
 1981W        W 6034   8.049   8.880   3.290
 1982W        W 6035   5.497   8.849   0.303
 1983W        W 6036   2.313   9.957  11.980
 1984W        W 6037   4.657   3.132   9.925
 1985W        W 6038   2.173  10.328   0.800
 1986W        W 6039   0.790   9.015  11.778
 1987W        W 6040   3.610  10.372   1.264
 1988W        W 6041   8.397   5.025   0.958
 1989W        W 6042   7.493   0.378   8.637
 1990W        W 6043   0.792   1.256   2.391
 1991W        W 6044   9.423   0.273   9.848
 1992W        W 6045   8.878   2.842   3.309
 1993W        W 6046   6.519   7.054  10.973
 1994W        W 6047   5.648   8.074   9.450
 1995W        W 6048   1.796   6.996   0.270
 1996W        W 6049   5.972   4.262   3.623
 1997W        W 6050   2.853   9.924   0.784
 1998W        W 6051   9.440   3.248   9.562
 1999W        W 6052   0.797   8.551   2.392
 2000W        W 6053   0.722   8.449   0.747
 2001W        W 6054   5.721   9.883   9.046
 2002W        W 6055   7.436   3.156  10.841
 2003W        W 6056   3.716   0.321   9.005
 2004W        W 6057   2.825   2.161  10.351
 2005W        W 6058   3.793   1.391   0.424
 2006W        W 6059   0.364   6.149  10.801
 2007W        W 6060   8.547   4.720  11.008
 2008W        W 6061   3.114   9.367  10.475
 2009W        W 6062   5.038   6.088   3.687
 2010W        W 6063   7.127   4.271  11.317
 2011W        W 6064   5.605   0.939   2.675
 2012W        W 6065   8.071   2.679   3.238
 2013W        W 6066   0.397   2.265   9.559
 2014W        W 6067  10.300   7.524   3.275
 2015W        W 6068   5.683   2.627   0.743
 2016W        W 6069   7.598   2.658  10.406
 2017W        W 6070   2.148   2.782   8.917
 2018W        W 6071   7.119   8.029   1.313
 2019W        W 6072   6.639   0.880   1.779
 2020W        W 6073   9.803   8.388   9.069
 2021W        W 6074   7.622   8.568   9.485
 2022W        W 6075   3.121   3.220   3.660
 2023W        W 6076   8.518   1.238   2.767
 2024W        W 6077   9.325   1.899   3.197
 2025W        W 6078   7.109   7.462   1.323
 2026W        W 6079   0.757   1.897   2.877
 2027W        W 6080   1.329   7.977   1.829
 2028W        W 6081   5.712   3.793   2.339
 2029W        W 6082   5.015   0.395  10.035
 2030W        W 6083  10.487   7.634   9.362
 2031W        W 6084   9.455  10.444   3.200
 2032W        W 6085   5.210   7.939   9.524
 2033W        W 6086   0.273   4.639   9.952
 2034W        W 6087   5.057   9.058  11.486
 2035W        W 6088   9.041   8.384  11.421
 2036W        W 6089   2.635   9.365   2.364
 2037W        W 6090   7.892   9.522   3.188
 2038W        W 6091  10.355   8.436   9.963
 2039W        W 6092   2.727   0.810   0.383
 2040W        W 6093   1.394   7.574   0.958
 2041W        W 6094   7.921   1.384  10.468
 2042W        W 6095   3.715   7.488  11.017
 2043W        W 6096   4.089   4.576   2.175
 2044W        W 6097   7.440   8.095   0.749
 2045W        W 6098   8.833   1.701  11.414
 2046W        W 6099   1.197   8.538   3.219
 2047W        W 6100   0.434   1.218  11.408
 2048W        W 6101   9.845   8.485  11.024
 2049W        W 6102   3.801   0.416   0.768
 2050W        W 6103   8.454   1.355   0.345
 2051W        W 6104   5.554   2.654   2.294
 2052W        W 6105   3.116   5.716   3.151
 2053W        W 6106   8.429   2.808   9.430
 2054W        W 6107   8.987   6.071   1.772
 2055W        W 6108   2.241   0.269   3.246
 2056W        W 6109   8.403   9.053   1.857
 2057W        W 6110   6.627   1.848   9.376
 2058W        W 6111   1.431   9.812   9.380
 2059W        W 6112   1.768   7.909  11.506
 2060W        W 6113   1.857   6.019   8.466
 2061W        W 6114   1.275   1.251   1.876
 2062W        W 6115   9.871   7.056  11.513
 2063W        W 6116   3.655   2.159   8.999
 2064W        W 6117   2.202   5.693   2.759
 2065W        W 6118   7.399   2.746   9.451
 2066W        W 6119   2.353   9.540  11.325
 2067W        W 6120   1.267   9.543  10.991
 2068W        W 6121  10.309   5.519  10.851
 2069W        W 6122   9.880   1.424  11.362
 2070W        W 6123   0.453   1.379   9.572
 2071W        W 6124  10.303   2.202   9.593
 2072W        W 6125   6.070   6.680   0.831
 2073W        W 6126   2.320   9.516   9.965
 2074W        W 6127   1.201   7.482  10.339
 2075W        W 6128   4.755   5.088   9.067
 2076W        W 6129   5.132   9.432   2.753
 2077W        W 6130   2.288   2.215   0.322
 2078W        W 6131   3.738   4.139   4.140
 2079W        W 6132   4.770   2.382   2.832
 2080W        W 6133   2.685   4.560   8.479
 2081W        W 6134   5.623   4.247   3.733
 2082W        W 6135   5.209   0.867  11.497
 2083W        W 6136   4.637   4.664   1.286
 2084W        W 6137   5.679   0.738   3.292
 2085W        W 6138   1.369   8.932   1.373
 2086W        W 6139   0.943   8.847  11.469
 2087W        W 6140   2.294   6.111   2.306
 2088W        W 6141   0.776   2.804   9.385
 2089W        W 6142   3.635   1.730  10.499
 2090W        W 6143   0.837   7.533   1.882
 2091W        W 6144   5.219   4.560  11.432
 2092W        W 6145   5.184  10.427  10.841
 2093W        W 6146   2.760   4.068   1.218
 2094W        W 6147   7.489   5.988  11.025
 2095W        W 6148   6.008   3.142   9.993
 2096W        W 6149   8.468   9.520   9.430
 2097W        W 6150   9.829   9.917  11.402
 2098W        W 6151   8.377   5.124  10.338
 2099W        W 6152   2.743   7.114   9.361
 2100W        W 6153   6.137   9.311   8.432
 2101W        W 6154   0.905   5.247   0.467
 2102W        W 6155  10.007   1.430   9.925
 2103W        W 6156   6.506   1.213   1.778
 2104W        W 6157  10.417   9.408   2.866
 2105W        W 6158   9.475   2.787  11.794
 2106W        W 6159   3.760   9.456  11.777
 2107W        W 6160   9.843   5.139   2.728
 2108W        W 6161   6.665   4.145   0.411
 2109W        W 6162   8.450  10.322  11.449
 2110W        W 6163   9.016   6.041   2.370
 2111W        W 6164   0.381   2.244   0.271
 2112W        W 6165   3.298   8.421  11.882
 2113W        W 6166   5.501   2.338   0.363
 2114W        W 6167   9.015   7.533  10.898
 2115W        W 6168   8.852   3.616  11.470
 2116W        W 6169   5.014   5.080   9.063
 2117W        W 6170   9.025   8.411  10.525
 2118W        W 6171   2.217   5.037   8.460
 2119W        W 6172   3.779   0.865   0.478
 2120W        W 6173   4.110   9.053   3.606
 2121W        W 6174   8.975   2.241   8.979
 2122W        W 6175   2.670   0.394   2.361
 2123W        W 6176   8.494   8.021  10.969
 2124W        W 6177   7.083   3.735   2.250
 2125W        W 6178   3.645  10.359   8.978
 2126W        W 6179   6.015   6.648  10.856
 2127W        W 6180   3.618   1.744   2.183
 2128W        W 6181  10.015   1.785  11.010
 2129W        W 6182   3.737   0.295   1.388
 2130W        W 6183   9.815  10.333   3.179
 2131W        W 6184   8.573   7.952   0.937
 2132W        W 6185   8.861   9.493  11.972
 2133W        W 6186   2.830   7.467   2.830
 2134W        W 6187   9.813   9.520  10.873
 2135W        W 6188   5.534   6.646   9.874
 2136W        W 6189   7.882   6.160  11.412
 2137W        W 6190   7.595   0.260   1.841
 2138W        W 6191   6.922   9.413  11.328
 2139W        W 6192   8.056   1.356   0.728
 2140W        W 6193   1.213   2.664  11.435
 2141W        W 6194   8.843   9.951   2.383
 2142W        W 6195   5.092   6.192   9.903
 2143W        W 6196   0.936   4.659   2.237
 2144W        W 6197   2.802   9.046  10.939
 2145W        W 6198   4.184   0.285   0.796
 2146W        W 6199  10.365   0.372  10.559
 2147W        W 6200   4.081   9.908   2.374
 2148W        W 6201   8.899   3.739  10.490
 2149W        W 6202   5.708   0.291   1.202
 2150W        W 6203   3.235   3.617   8.567
 2151W        W 6204   3.650   8.855   0.749
 2152W        W 6205   0.848   0.821   9.461
 2153W        W 6206   2.178   1.337   0.310
 2154W        W 6207   0.774   7.035   9.932
 2155W        W 6208   1.692   2.307   9.021
 2156W        W 6209   3.328   1.300  11.506
 2157W        W 6210   5.725   7.430   1.367
 2158W        W 6211   0.734   6.174   0.768
 2159W        W 6212   6.203   8.027   9.013
 2160W        W 6213   1.815  10.406  10.363
 2161W        W 6214   6.140   1.869   2.266
 2162W        W 6215   1.676   7.121   3.747
 2163W        W 6216   1.276   5.988  10.991
 2164W        W 6217   1.392   2.704   1.743
 2165W        W 6218   7.920   1.710   0.330
 2166W        W 6219   9.914   1.718   0.405
 2167W        W 6220   2.200   5.516   0.846
 2168W        W 6221   4.158   6.506   3.159
 2169W        W 6222   4.223   9.346   1.919
 2170W        W 6223   2.785   5.491  11.955
 2171W        W 6224   9.365   9.786   3.127
 2172W        W 6225   8.023   2.254   2.762
 2173W        W 6226   2.349   2.268   3.237
 2174W        W 6227   7.991  10.020   2.251
 2175W        W 6228   7.146  10.303  11.515
 2176W        W 6229   2.669   3.700   8.890
 2177W        W 6230   7.966   8.494  11.897
 2178W        W 6231   9.051  10.396  11.517
 2179W        W 6232   7.076   2.630   0.286
 2180W        W 6233   3.188   0.929   1.397
 2181W        W 6234   0.855   5.038   8.962
 2182W        W 6235   0.723  10.344   1.391
 2183W        W 6236   7.018   2.355  11.883
 2184W        W 6237   6.551   4.717   2.802
 2185W        W 6238   8.473   2.848  10.015
 2186W        W 6239   3.818   7.979  10.408
 2187W        W 6240   9.057   7.031   1.210
 2188W        W 6241   8.096   4.290   3.193
 2189W        W 6242   1.330   4.554  11.410
 2190W        W 6243   4.609   8.911  10.815
 2191W        W 6244   6.575   7.048  11.984
 2192W        W 6245   7.960   9.877   8.566
 2193W        W 6246   9.320   4.221   2.254
 2194W        W 6247   9.311   7.954  10.387
 2195W        W 6248   5.137   3.328  10.984
 2196W        W 6249   5.512   5.723  11.842
 2197W        W 6250   3.661   9.450   9.027
 2198W        W 6251   4.199  10.333   9.097
 2199W        W 6252   5.642   8.472   2.309
 2200W        W 6253   3.272   6.563  11.034
 2201W        W 6254   1.758   6.611  11.996
 2202W        W 6255   7.975   1.345  10.824
 2203W        W 6256   3.321   6.480  10.357
 2204W        W 6257   9.448   1.793   2.395
 2205W        W 6258   9.033   0.924   3.300
 2206W        W 6259   7.427   4.285  11.838
 2207W        W 6260   1.272   2.761  10.558
 2208W        W 6261   1.362   4.604   0.306
 2209W        W 6262   3.281   2.221   1.780
 2210W        W 6263   2.344   7.009  10.994
 2211W        W 6264   4.708   3.137   0.873
 2212W        W 6265   5.724   6.000   0.437
 2213W        W 6266   5.503   6.994   1.890
 2214W        W 6267   1.676   3.666   1.401
 2215W        W 6268   7.513   4.268   9.579
 2216W        W 6269   9.535   7.463   1.698
 2217W        W 6270   7.111   1.843  11.786
 2218W        W 6271   1.691   5.127  10.809
 2219W        W 6272   2.634   0.472   0.882
 2220W        W 6273   9.319   7.129   9.463
 2221W        W 6274   2.861   4.109   1.825
 2222W        W 6275   2.276   6.001  11.913
 2223W        W 6276   6.082   4.612   1.357
 2224W        W 6277   0.459   8.090   0.899
 2225W        W 6278   8.976   8.361   9.013
 2226W        W 6279   9.800   1.701   8.500
 2227W        W 6280   6.622   5.170   9.086
 2228W        W 6281   3.580   5.657  11.018
 2229W        W 6282   2.714   5.724  10.475
 2230W        W 6283   5.230   1.801  10.537
 2231W        W 6284   5.205   1.314   0.407
 2232W        W 6285   8.957   8.010   0.881
 2233W        W 6286   9.036   5.221  10.455
 2234W        W 6287   6.656   5.539   2.714
 2235W        W 6288   3.305   5.248   0.351
 2236W        W 6289   8.908   2.279   0.927
 2237W        W 6290   0.741   7.956  10.922
 2238W        W 6291   8.567   9.031   8.965
 2239W        W 6292   3.330   3.143   3.183
 2240W        W 6293   2.233   0.350   2.730
 2241W        W 6294   5.105   2.180   2.667
 2242W        W 6295   7.089   8.070   9.933
 2243W        W 6296   1.817  10.458   2.208
 2244W        W 6297   2.731   9.836  10.872
 2245W        W 6298   4.094   8.878  11.484
 2246W        W 6299   1.787   2.195   3.810
 2247W        W 6300   7.123   4.131   3.712
 2248W        W 6301   0.344   0.465   9.848
 2249W        W 6302   8.844   2.193   2.642
 2250W        W 6303   2.743   2.680   1.317
 2251W        W 6304   6.962   8.008   2.797
 2252W        W 6305   3.191   1.837   9.513
 2253W        W 6306   4.673   1.351   1.692
 2254W        W 6307   9.489   9.352   9.363
 2255W        W 6308   0.441   0.837   8.896
 2256W        W 6309  10.308   8.402  11.302
 2257W        W 6310   5.515   0.418   8.885
 2258W        W 6311   0.815  10.314  11.370
 2259W        W 6312   8.394   9.484   0.790
 2260W        W 6313   7.944   2.279   3.189
 2261W        W 6314   3.657   8.927  10.353
 2262W        W 6315   4.292   6.121   0.852
 2263W        W 6316   5.154  10.295   9.921
 2264W        W 6317   7.418   8.407   3.198
 2265W        W 6318   6.647   0.313   2.319
 2266W        W 6319   1.720   9.422   1.758
 2267W        W 6320   4.283   1.807  10.471
 2268W        W 6321   1.424   4.765   2.168
 2269W        W 6322   3.171   9.465   8.958
 2270W        W 6323   8.947   1.254  11.492
 2271W        W 6324   3.235   2.371  11.939
 2272W        W 6325   3.294   8.585   9.525
 2273W        W 6326   1.322   7.456   9.508
 2274W        W 6327   0.793   7.465  11.787
 2275W        W 6328   5.204   8.969   2.796
 2276W        W 6329   7.064   6.950   1.762
 2277W        W 6330   1.864   2.159  10.397
 2278W        W 6331   8.972   0.331   0.270
 2279W        W 6332   7.433   7.012   9.990
 2280W        W 6333   6.622   1.259  11.866
 2281W        W 6334   1.342   5.174  11.800
 2282W        W 6335   4.565   9.525  10.815
 2283W        W 6336   4.581   9.538   3.242
 2284W        W 6337   3.186   7.993  11.447
 2285W        W 6338   0.927  10.404  11.998
 2286W        W 6339   8.998   1.375   0.371
 2287W        W 6340   3.654   5.595   1.886
 2288W        W 6341   6.057   1.765  10.367
 2289W        W 6342   3.322   7.047   3.165
 2290W        W 6343   0.838   1.902   1.356
 2291W        W 6344   7.464   9.871  11.025
 2292W        W 6345   8.054   9.480   2.650
 2293W        W 6346   3.273   4.193   8.897
 2294W        W 6347   2.184   9.045  11.287
 2295W        W 6348   1.701   6.165   2.734
 2296W        W 6349   8.072   2.685  10.889
 2297W        W 6350   5.525   2.365  11.868
 2298W        W 6351   1.314   1.908   1.350
 2299W        W 6352   0.423   6.983  10.526
 2300W        W 6353   0.362   2.186  11.455
 2301W        W 6354   1.226   4.263   8.936
 2302W        W 6355   1.753   7.110   0.929
 2303W        W 6356   0.880   0.242   0.747
 2304W        W 6357   3.709   2.324   2.876
 2305W        W 6358   8.956   4.238   0.330
 2306W        W 6359   2.386   8.475   0.294
 2307W        W 6360   1.821   4.268  10.970
 2308W        W 6361   1.717   8.355   8.475
 2309W        W 6362   4.087   6.973   0.269
 2310W        W 6363   9.451   7.408   2.163
 2311W        W 6364   0.864   4.077   2.780
 2312W        W 6365   2.319   7.965   9.522
 2313W        W 6366   7.046   6.657   4.173
 2314W        W 6367   9.363   6.158   0.730
 2315W        W 6368   7.564   9.803   0.838
 2316W        W 6369   0.788   9.513   2.811
 2317W        W 6370   7.071   1.305   2.223
 2318W        W 6371   2.249   4.683   3.135
 2319W        W 6372   3.773   8.588   1.427
 2320W        W 6373   8.884   8.462   0.936
 2321W        W 6374   4.160   6.609   1.837
 2322W        W 6375   9.037   3.699   8.973
 2323W        W 6376   5.504   9.869   2.194
 2324W        W 6377   0.269   6.046  11.935
 2325W        W 6378   8.830   6.514   0.472
 2326W        W 6379   6.094   1.800  11.285
 2327W        W 6380  10.264   1.265   1.827
 2328W        W 6381   9.880   1.740   9.957
 2329W        W 6382   9.950   1.353  11.879
 2330W        W 6383   8.843   1.775   1.752
 2331W        W 6384   7.885   2.710   1.810
 2332W        W 6385   1.775   5.147   0.314
 2333W        W 6386   0.809   7.989  10.357
 2334W        W 6387   6.669   7.948   0.270
 2335W        W 6388   5.622   5.183   2.720
 2336W        W 6389  10.271   8.421   2.722
 2337W        W 6390   9.987   2.712   3.240
 2338W        W 6391   3.174   3.580   1.831
 2339W        W 6392   9.843   3.215  11.885
 2340W        W 6393   7.066   3.150   9.460
 2341W        W 6394   1.418   0.431   8.568
 2342W        W 6395   3.656   4.178  10.908
 2343W        W 6396   7.627   5.967   8.415
 2344W        W 6397   4.753   2.823   0.821
 2345W        W 6398   1.676   6.078   9.946
 2346W        W 6399   7.560   6.071   1.880
 2347W        W 6400   4.124   9.042   2.225
 2348W        W 6401   4.584   3.727   9.899
 2349W        W 6402   0.845   1.882   0.440
 2350W        W 6403   1.694   6.659   1.710
 2351W        W 6404   4.105   0.853  11.434
 2352W        W 6405   6.983   7.538  10.064
 2353W        W 6406   1.741  10.494   0.402
 2354W        W 6407   4.109   2.628  10.996
 2355W        W 6408   4.222   3.290  11.439
 2356W        W 6409   3.602   1.822   0.789
 2357W        W 6410   6.501   0.253   1.902
 2358W        W 6411   5.237   4.147   8.048
 2359W        W 6412   3.115   4.583   9.927
 2360W        W 6413   1.331   0.918  11.851
 2361W        W 6414   8.880   8.381   9.979
 2362W        W 6415   8.973   7.958   1.350
 2363W        W 6416   2.751   0.385   0.422
 2364W        W 6417   9.879   8.830  11.869
 2365W        W 6418   2.306   5.995  10.842
 2366W        W 6419   3.667   2.787   0.948
 2367W        W 6420  10.325   8.508  10.906
 2368W        W 6421   1.685   7.594  10.917
 2369W        W 6422   0.445   0.250   9.110
 2370W        W 6423   7.438   7.629  11.390
 2371W        W 6424   8.382   6.503  11.818
 2372W        W 6425   9.502   6.503   0.946
 2373W        W 6426   7.035   3.117   0.859
 2374W        W 6427   7.592   8.896   9.067
 2375W        W 6428   9.030   7.891  10.533
 2376W        W 6429   3.205   6.944   8.457
 2377W        W 6430   6.505   1.839  10.403
 2378W        W 6431   3.289   8.066   0.822
 2379W        W 6432   4.636   9.951   3.220
 2380W        W 6433   9.933  10.389   9.935
 2381W        W 6434   9.997   5.652  11.485
 2382W        W 6435   8.025   9.882   0.892
 2383W        W 6436   6.592   9.025   2.782
 2384W        W 6437   0.274   1.222   2.651
 2385W        W 6438  10.366   6.667  10.842
 2386W        W 6439   7.550   5.631   1.737
 2387W        W 6440   6.551   1.777   9.975
 2388W        W 6441   6.516   5.606   1.719
 2389W        W 6442   3.174   9.973  11.911
 2390W        W 6443   4.738   1.403  11.884
 2391W        W 6444   1.338   6.078   3.236
 2392W        W 6445   6.095   3.600   0.861
 2393W        W 6446   7.948   3.105  10.915
 2394W        W 6447   6.948   5.496   2.749
 2395W        W 6448   5.667  10.293   2.335
 2396W        W 6449   1.358   6.584  10.460
 2397W        W 6450   8.005   7.549  10.447
 2398W        W 6451   7.938   2.227   2.323
 2399W        W 6452   7.085   3.215  11.519
 2400W        W 6453   2.629   8.859  10.079
 2401W        W 6454   9.932  10.427   1.334
 2402W        W 6455   1.890   6.613   3.295
 2403W        W 6456   1.891   9.337  10.831
 2404W        W 6457   2.769   4.103  11.939
 2405W        W 6458   4.569   6.477   2.815
 2406W        W 6459   1.407   7.108   1.245
 2407W        W 6460   2.198   6.079  10.509
 2408W        W 6461   7.436   4.643   1.425
 2409W        W 6462   4.708   9.351  11.793
 2410W        W 6463   8.850   5.156   3.265
 2411W        W 6464   9.964   6.965   0.473
 2412W        W 6465   4.653   5.073   1.270
 2413W        W 6466   3.251   6.131   8.500
 2414W        W 6467   2.775   3.777  11.951
 2415W        W 6468   7.522   7.611   1.904
 2416W        W 6469   7.066   0.727   1.757
 2417W        W 6470   9.523   1.342   0.803
 2418W        W 6471   7.439   5.504   1.239
 2419W        W 6472   5.241   9.428   2.215
 2420W        W 6473   2.165   2.860   9.594
 2421W        W 6474   6.956   5.581  11.486
 2422W        W 6475   9.811   5.557  11.837
 2423W        W 6476   4.250   8.462   9.096
 2424W        W 6477   2.241   2.305   2.726
 2425W        W 6478   7.009   4.159   0.287
 2426W        W 6479   0.378   7.424   3.325
 2427W        W 6480   7.008  10.000  11.871
 2428W        W 6481   5.064   5.700  11.500
 2429W        W 6482   3.715   6.595   9.523
 2430W        W 6483   2.803   9.903   9.384
 2431W        W 6484   7.924   3.180  11.798
 2432W        W 6485   3.735   4.284   9.564
 2433W        W 6486   0.818   1.297   0.890
 2434W        W 6487   6.936   6.088   4.158
 2435W        W 6488   3.723   9.831   9.013
 2436W        W 6489   4.081   8.077   0.947
 2437W        W 6490   9.060   2.263   0.359
 2438W        W 6491   8.537   2.659   1.308
 2439W        W 6492   9.447   4.734   1.807
 2440W        W 6493   7.900   0.930   1.770
 2441W        W 6494   2.777   9.425   3.217
 2442W        W 6495   5.063   0.309   2.841
 2443W        W 6496   8.514   7.916   1.832
 2444W        W 6497   7.953   6.612   9.585
 2445W        W 6498   5.066   4.622  10.535
 2446W        W 6499   6.158  10.466   9.372
 2447W        W 6500   8.415   1.849   0.259
 2448W        W 6501   1.728   7.485   1.737
 2449W        W 6502   3.171   9.407   0.440
 2450W        W 6503   4.085   0.918   3.196
 2451W        W 6504   9.796   1.372   9.369
 2452W        W 6505   6.101   4.066  11.417
 2453W        W 6506   7.985   5.713   1.918
 2454W        W 6507   7.593   8.096   2.724
 2455W        W 6508  10.316   8.058   2.795
 2456W        W 6509   9.950   6.672   0.884
 2457W        W 6510   5.609  10.346  10.868
 2458W        W 6511   5.690   0.719  11.801
 2459W        W 6512   4.231  10.458  10.923
 2460W        W 6513   3.614   7.133   2.283
 2461W        W 6514   7.129   9.892   3.799
 2462W        W 6515   3.156   3.723  11.517
 2463W        W 6516   1.200   5.534  11.495
 2464W        W 6517   2.256   3.339   0.814
 2465W        W 6518  10.440   7.074  10.534
 2466W        W 6519   4.097   2.176   9.843
 2467W        W 6520   6.172   2.693   9.442
 2468W        W 6521   3.681   6.589  11.432
 2469W        W 6522   4.730   3.325   9.478
 2470W        W 6523   3.709   2.204   2.382
 2471W        W 6524   6.526   6.508   3.650
 2472W        W 6525   0.309   6.480   2.775
 2473W        W 6526   8.454   6.626   3.191
 2474W        W 6527   4.610   8.073   9.514
 2475W        W 6528   3.777   1.271  11.793
 2476W        W 6529   5.653   8.092   8.966
 2477W        W 6530   0.945   5.125   1.358
 2478W        W 6531   0.857   3.146  10.896
 2479W        W 6532   6.445   4.162   1.248
 2480W        W 6533   7.113   1.718  10.926
 2481W        W 6534   7.530   6.511  10.343
 2482W        W 6535   4.219   9.512   9.442
 2483W        W 6536   5.121   7.966   1.760
 2484W        W 6537   1.240   9.041   3.306
 2485W        W 6538   4.061   3.293   0.911
 2486W        W 6539   1.393   1.359   3.124
 2487W        W 6540   3.669   9.864   9.851
 2488W        W 6541   3.203   1.266   1.786
 2489W        W 6542   8.495  10.317   0.315
 2490W        W 6543   3.315   9.022   2.784
 2491W        W 6544   7.963   8.037   1.800
 2492W        W 6545   0.858   8.985  10.452
 2493W        W 6546   7.444   2.853   3.186
 2494W        W 6547   9.330  10.267   0.409
 2495W        W 6548   6.003   0.244   1.744
 2496W        W 6549   7.013   4.230   1.823
 2497W        W 6550   6.033   9.016   3.281
 2498W        W 6551   8.360   3.799   9.077
 2499W        W 6552  10.272   5.091   0.299
 2500W        W 6553   8.879   2.645   1.427
 2501W        W 6554   6.559   1.807   9.016
 2502W        W 6555   6.145   8.004   3.234
 2503W        W 6556   9.817   9.354   0.778
 2504W        W 6557  10.383   7.922  10.333
 2505W        W 6558   7.965   7.424   0.775
 2506W        W 6559   3.149   9.996   9.030
 2507W        W 6560   6.089   9.046   9.468
 2508W        W 6561   8.840   0.432   2.871
 2509W        W 6562   4.602   7.072   8.612
 2510W        W 6563   1.291   8.549   2.371
 2511W        W 6564   8.433   7.090  11.977
 2512W        W 6565   5.164   8.522   0.934
 2513W        W 6566   3.684   4.060   3.234
 2514W        W 6567   6.023   1.295   1.853
 2515W        W 6568  10.271   5.602   3.272
 2516W        W 6569   3.177   0.447   2.231
 2517W        W 6570  10.343   5.559   0.932
 2518W        W 6571   9.360   2.666   3.174
 2519W        W 6572   9.928   3.195   0.274
 2520W        W 6573   1.717   7.119   3.288
 2521W        W 6574   3.637   6.664   0.943
 2522W        W 6575   8.040   6.947   9.969
 2523W        W 6576   4.222   6.974   2.232
 2524W        W 6577   5.623   8.850   8.978
 2525W        W 6578   9.360   3.211   1.401
 2526W        W 6579   8.961   6.972   2.210
 2527W        W 6580   3.782   7.433  11.850
 2528W        W 6581   2.714   6.558   1.242
 2529W        W 6582   3.275   3.245   0.814
 2530W        W 6583   8.574   3.118   0.733
 2531W        W 6584   7.428   1.332   9.389
 2532W        W 6585   0.276   9.390  10.439
 2533W        W 6586   7.574   7.028   1.297
 2534W        W 6587   5.180   4.093   4.131
 2535W        W 6588   1.330   9.388   1.751
 2536W        W 6589   7.920   3.707   9.945
 2537W        W 6590   7.915   7.021   9.401
 2538W        W 6591   1.303   0.270   9.387
 2539W        W 6592   5.695   3.221   0.756
 2540W        W 6593   1.886   2.351   0.796
 2541W        W 6594   8.512   0.298   3.307
 2542W        W 6595   2.829   8.425   1.244
 2543W        W 6596   5.563   9.793   8.624
 2544W        W 6597   0.855   6.167  10.371
 2545W        W 6598   6.449   0.287   3.314
 2546W        W 6599   2.312   6.083   1.257
 2547W        W 6600   8.382   2.225   3.313
 2548W        W 6601   2.315   0.420  10.980
 2549W        W 6602   3.240   2.734   2.648
 2550W        W 6603   0.453   0.326   1.741
 2551W        W 6604   7.557   7.465   9.914
 2552W        W 6605   6.987   8.372   8.883
 2553W        W 6606   7.623   9.545   3.144
 2554W        W 6607   2.256   0.842  10.493
 2555W        W 6608   4.737   8.451   1.840
 2556W        W 6609   5.717   8.022  11.781
 2557W        W 6610   0.296   3.593  11.443
 2558W        W 6611   8.900   8.993  10.855
 2559W        W 6612  10.353   6.485  10.453
 2560W        W 6613   0.410   2.810   8.916
 2561W        W 6614  10.485   1.811   9.956
 2562W        W 6615   1.228  10.022  11.455
 2563W        W 6616   4.552   5.219   1.748
 2564W        W 6617   6.095   2.627   2.227
 2565W        W 6618   3.296   0.826  11.962
 2566W        W 6619   2.380   6.662   9.879
 2567W        W 6620   7.998   4.150   1.869
 2568W        W 6621   7.876   8.088   2.355
 2569W        W 6622   7.068   8.526  10.520
 2570W        W 6623   7.562   2.245   1.723
 2571W        W 6624   9.316   4.130   2.735
 2572W        W 6625   9.976   4.125   0.904
 2573W        W 6626   7.583   9.316   0.378
 2574W        W 6627   8.960   0.946   0.882
 2575W        W 6628   3.113   5.720  10.524
 2576W        W 6629   6.468   5.685   8.630
 2577W        W 6630   5.717   3.149  11.946
 2578W        W 6631   4.115   0.733   1.327
 2579W        W 6632   2.656   9.452  11.383
 2580W        W 6633   3.809   2.649  11.318
 2581W        W 6634   7.144   9.422   0.949
 2582W        W 6635   5.619   1.863   9.963
 2583W        W 6636   3.674   2.193   0.435
 2584W        W 6637  10.434   5.129   8.944
 2585W        W 6638   4.617   9.988  11.360
 2586W        W 6639  10.014   5.076   1.787
 2587W        W 6640   7.457   9.357   1.791
 2588W        W 6641   4.096   7.600  10.942
 2589W        W 6642   3.220   4.727  11.962
 2590W        W 6643  10.282   5.062  10.474
 2591W        W 6644   5.628   5.683  11.448
 2592W        W 6645   0.288   4.737   2.778
 2593W        W 6646   8.099   3.591   0.431
 2594W        W 6647   2.294   8.550   2.641
 2595W        W 6648   1.253   4.251   9.596
 2596W        W 6649   7.993   0.720  11.418
 2597W        W 6650   3.302   0.914   1.843
 2598W        W 6651   5.570   5.177   0.786
 2599W        W 6652   1.741   1.392   1.398
 2600W        W 6653   4.093   5.672   8.992
 2601W        W 6654   6.473   8.443   1.206
 2602W        W 6655   3.800   6.451   8.901
 2603W        W 6656   1.780   0.853   0.445
 2604W        W 6657   5.221   7.086   3.172
 2605W        W 6658   6.140   8.515   2.877
 2606W        W 6659   1.371   6.077   0.280
 2607W        W 6660   3.163   6.573  11.467
 2608W        W 6661   0.901   9.389   9.063
 2609W        W 6662   3.273   9.896  10.375
 2610W        W 6663   2.847   7.138   1.681
 2611W        W 6664   0.404   7.523   9.854
 2612W        W 6665   7.145   3.613   0.854
 2613W        W 6666   2.689   1.755   1.412
 2614W        W 6667   1.871   3.189   3.194
 2615W        W 6668   3.686   1.741  10.903
 2616W        W 6669   9.325   2.854  10.414
 2617W        W 6670   0.803   1.377   1.336
 2618W        W 6671   1.428   3.635   1.817
 2619W        W 6672   3.164   8.916   2.320
 2620W        W 6673  10.282   9.814  10.348
 2621W        W 6674   3.682  10.349  11.928
 2622W        W 6675   1.429   5.176   9.514
 2623W        W 6676   1.292   8.503   0.331
 2624W        W 6677   6.014   4.637  10.000
 2625W        W 6678   1.278   2.342   3.266
 2626W        W 6679   3.789   5.056   3.634
 2627W        W 6680   4.098   5.711   0.280
 2628W        W 6681   6.624   3.643  10.524
 2629W        W 6682   8.465   1.877  10.048
 2630W        W 6683   2.792   6.667   2.785
 2631W        W 6684   4.154   9.928   0.747
 2632W        W 6685   8.106   6.450   1.356
 2633W        W 6686   8.864  10.443   9.596
 2634W        W 6687   5.021   9.413  10.434
 2635W        W 6688   6.541  10.324  10.976
 2636W        W 6689   7.073   7.155  11.792
 2637W        W 6690   6.666   1.339  10.986
 2638W        W 6691   1.794   1.816  11.392
 2639W        W 6692   9.536   5.495  10.866
 2640W        W 6693   0.307   4.767   2.348
 2641W        W 6694   9.354   4.595   1.370
 2642W        W 6695   8.359   4.263   8.939
 2643W        W 6696   8.494   8.998  10.510
 2644W        W 6697   6.513   8.485   9.541
 2645W        W 6698   6.669   8.099   9.432
 2646W        W 6699   2.204   3.255  11.924
 2647W        W 6700   6.492   7.885   9.917
 2648W        W 6701   0.774   5.490   2.765
 2649W        W 6702   2.815   0.760   8.594
 2650W        W 6703   8.549   0.367  10.967
 2651W        W 6704   7.620   6.079  11.476
 2652W        W 6705   1.820   0.816  11.030
 2653W        W 6706   6.051   9.796   3.330
 2654W        W 6707   8.929  10.399   2.167
 2655W        W 6708   6.488   5.611  11.805
 2656W        W 6709   6.955   4.550   9.576
 2657W        W 6710   8.581   6.060   0.365
 2658W        W 6711   5.596   9.818   0.770
 2659W        W 6712   1.907   3.682   2.784
 2660W        W 6713   7.496   2.343  11.417
 2661W        W 6714   5.540   7.876   1.804
 2662W        W 6715  10.284   0.828   8.570
 2663W        W 6716   1.405   8.472   9.010
 2664W        W 6717   9.859   3.781   0.802
 2665W        W 6718   0.789   2.154  11.786
 2666W        W 6719   9.940   0.337  11.787
 2667W        W 6720   2.166   0.751   3.208
 2668W        W 6721   5.155   6.983   1.789
 2669W        W 6722   0.459  10.365   0.395
 2670W        W 6723   1.718   0.824   9.865
 2671W        W 6724   9.329   2.711   0.384
 2672W        W 6725   8.989   0.812   2.162
 2673W        W 6726   4.288   6.521   7.986
 2674W        W 6727   4.191   2.708   8.894
 2675W        W 6728   8.424   3.281  10.977
 2676W        W 6729   9.928   3.624  10.437
 2677W        W 6730   8.910   4.540   9.045
 2678W        W 6731   0.258   9.007   1.841
 2679W        W 6732   5.021   0.292   0.330
 2680W        W 6733   8.415   8.084   9.013
 2681W        W 6734   4.178   1.702   3.667
 2682W        W 6735   7.610   0.282   9.372
 2683W        W 6736   9.014   4.748   3.149
 2684W        W 6737   3.810   5.507  11.956
 2685W        W 6738   2.762   2.385   1.699
 2686W        W 6739   7.421  10.336   9.072
 2687W        W 6740   2.813  10.343   9.523
 2688W        W 6741   8.044   5.075   0.938
 2689W        W 6742   6.509   7.545  11.777
 2690W        W 6743   3.148   4.175   9.526
 2691W        W 6744   4.766   7.606   0.383
 2692W        W 6745   7.919   7.991  11.834
 2693W        W 6746   3.651   3.263  10.557
 2694W        W 6747   2.270   5.681   9.075
 2695W        W 6748  10.497   6.177  11.764
 2696W        W 6749  10.304   0.305   2.765
 2697W        W 6750   3.327   8.894   9.903
 2698W        W 6751   9.490   4.722   0.904
 2699W        W 6752   6.026   1.340   2.205
 2700W        W 6753   8.852   6.468   8.904
 2701W        W 6754   2.852   2.728  10.831
 2702W        W 6755   5.077   7.886  11.801
 2703W        W 6756   9.426   2.791   0.722
 2704W        W 6757   1.404   4.287   1.377
 2705W        W 6758   7.579   9.449  10.420
 2706W        W 6759   4.224   0.385  10.448
 2707W        W 6760   4.134   1.767   8.949
 2708W        W 6761   9.036   5.536   2.823
 2709W        W 6762   4.592   2.845  10.475
 2710W        W 6763   2.796   4.597   1.815
 2711W        W 6764   7.597   8.569  11.393
 2712W        W 6765  10.363   2.227   1.914
 2713W        W 6766  10.432  10.417   0.308
 2714W        W 6767  10.376   2.672  11.339
 2715W        W 6768   8.094   2.323   8.985
 2716W        W 6769   7.887   0.800  11.911
 2717W        W 6770   4.162   5.152   2.706
 2718W        W 6771   3.335   4.684   8.407
 2719W        W 6772   8.534  10.367  10.548
 2720W        W 6773   8.038   5.562   9.928
 2721W        W 6774   3.104   4.143   3.621
 2722W        W 6775   9.321   6.018   1.304
 2723W        W 6776   5.065   1.391   9.874
 2724W        W 6777   3.213   8.503   3.325
 2725W        W 6778   0.429   9.927  11.457
 2726W        W 6779   0.759   4.652   9.401
 2727W        W 6780   1.886   4.677   2.852
 2728W        W 6781   8.507  10.330   3.313
 2729W        W 6782   2.768   8.469  11.501
 2730W        W 6783   6.976  10.461   1.748
 2731W        W 6784   2.746   1.784  10.913
 2732W        W 6785   1.283   5.052   0.752
 2733W        W 6786   6.538   5.180  10.973
 2734W        W 6787   5.714   6.666   2.255
 2735W        W 6788   4.564   1.259  10.388
 2736W        W 6789   2.250   1.268   2.788
 2737W        W 6790   4.197   7.411   9.938
 2738W        W 6791   5.638   1.200   9.111
 2739W        W 6792   3.657   6.117   2.193
 2740W        W 6793   5.991   0.730   1.773
 2741W        W 6794   0.261   6.178  10.010
 2742W        W 6795   6.166   8.466  11.431
 2743W        W 6796  10.416   9.001   1.225
 2744W        W 6797   4.102   2.244   3.226
 2745W        W 6798   7.568   1.319  10.012
 2746W        W 6799  10.261   2.690   0.780
 2747W        W 6800   3.731   6.517   1.301
 2748W        W 6801   6.116   7.040   2.746
 2749W        W 6802   8.910   1.201   0.772
 2750W        W 6803   9.051   7.977   1.883
 2751W        W 6804   2.699   8.988   1.800
 2752W        W 6805   2.807   1.277  11.826
 2753W        W 6806   0.347   9.339   1.903
 2754W        W 6807   1.284   6.972   0.421
 2755W        W 6808   4.721   2.369   3.307
 2756W        W 6809  10.319   3.165   1.325
 2757W        W 6810   5.666   3.733  10.041
 2758W        W 6811   7.981   4.209   9.863
 2759W        W 6812   4.696   1.689  11.349
 2760W        W 6813   6.615  10.274   0.348
 2761W        W 6814   2.744   1.863   0.942
 2762W        W 6815   7.116   7.901   8.974
 2763W        W 6816   0.290  10.398  10.856
 2764W        W 6817  10.388   6.001   9.520
 2765W        W 6818   3.812   8.019  11.989
 2766W        W 6819   1.332   0.907   0.740
 2767W        W 6820   5.219   1.248   3.336
 2768W        W 6821   2.267   5.169   1.379
 2769W        W 6822   2.779   5.165   1.228
 2770W        W 6823   0.802   9.313   9.582
 2771W        W 6824   3.633   4.542   4.246
 2772W        W 6825   4.176   9.416  10.937
 2773W        W 6826   3.213   7.142  10.962
 2774W        W 6827   0.747   2.328   3.646
 2775W        W 6828   9.499   5.157   9.498
 2776W        W 6829   8.450   3.645   0.453
 2777W        W 6830   0.415  10.382   9.376
 2778W        W 6831   4.649   5.516  10.058
 2779W        W 6832   3.126  10.498   8.893
 2780W        W 6833   7.042   8.948   3.161
 2781W        W 6834   7.970   2.817   9.387
 2782W        W 6835   9.382   9.025  11.944
 2783W        W 6836   5.613   0.732   9.866
 2784W        W 6837   8.391   4.116  11.781
 2785W        W 6838   9.057   5.529   9.078
 2786W        W 6839   5.169   3.734   4.121
 2787W        W 6840   4.662   4.122  11.388
 2788W        W 6841   9.496   6.021  11.909
 2789W        W 6842   2.751   4.113   9.859
 2790W        W 6843   2.280   6.067   3.177
 2791W        W 6844   5.119   1.260   1.215
 2792W        W 6845   7.876  10.364   9.908
 2793W        W 6846   4.685   2.237   8.955
 2794W        W 6847   0.432  10.485   9.939
 2795W        W 6848   8.396   0.723   2.867
 2796W        W 6849   6.522   7.515  11.393
 2797W        W 6850   4.534   8.982  11.769
 2798W        W 6851   3.679   9.963   0.831
 2799W        W 6852   8.469   2.753   1.865
 2800W        W 6853   9.447   8.513   1.396
 2801W        W 6854   2.207   9.524  10.358
 2802W        W 6855  10.402   4.666   2.676
 2803W        W 6856   8.360   4.652   3.148
 2804W        W 6857   8.570   9.851   8.449
 2805W        W 6858   2.760   7.876  10.929
 2806W        W 6859   4.661   1.899   0.900
 2807W        W 6860   5.988   7.627   2.720
 2808W        W 6861   1.811   6.592  10.047
 2809W        W 6862   7.894   0.430   0.952
 2810W        W 6863   1.790   0.329   1.265
 2811W        W 6864   8.035   1.203   9.932
 2812W        W 6865   7.561   2.735   9.910
 2813W        W 6866   8.871   4.073   2.266
 2814W        W 6867   3.171   0.318   3.153
 2815W        W 6868   9.819   5.685  10.832
 2816W        W 6869   2.640   5.695   3.284
 2817W        W 6870   8.912   4.137  10.021
 2818W        W 6871   9.828   7.012  10.939
 2819W        W 6872   8.362   5.683   2.844
 2820W        W 6873   8.532   3.612   2.388
 2821W        W 6874   4.740   2.789   9.441
 2822W        W 6875   4.553   5.997   9.946
 2823W        W 6876   0.315   9.969   0.813
 2824W        W 6877   0.346   4.615  10.883
 2825W        W 6878   1.700   4.749   1.361
 2826W        W 6879   5.042   8.434   9.922
 2827W        W 6880   5.511   4.565   1.683
 2828W        W 6881   0.793   4.560   9.084
 2829W        W 6882   2.832   8.440   8.882
 2830W        W 6883   0.828   0.907  10.879
 2831W        W 6884   0.299   7.509   9.593
 2832W        W 6885   4.695   4.751   2.719
 2833W        W 6886   5.100   6.017   1.853
 2834W        W 6887   8.430   4.269  10.489
 2835W        W 6888   7.074   9.356   1.857
 2836W        W 6889   2.200   6.562   3.351
 2837W        W 6890   5.247   1.420  11.292
 2838W        W 6891   7.527   4.212   0.476
 2839W        W 6892   0.378   8.943   2.812
 2840W        W 6893   2.210   0.334   0.830
 2841W        W 6894   8.094   1.336   2.720
 2842W        W 6895   8.063   6.075   2.221
 2843W        W 6896  10.387   8.977  10.381
 2844W        W 6897   1.250   8.884  11.010
 2845W        W 6898   4.077   1.253  10.923
 2846W        W 6899   1.692   8.574   1.292
 2847W        W 6900   3.773   8.941   9.530
 2848W        W 6901   5.556   2.320   3.720
 2849W        W 6902   0.855   8.885   1.312
 2850W        W 6903   7.631   1.869   1.907
 2851W        W 6904   7.623   9.536   8.901
 2852W        W 6905   6.128   0.299   8.546
 2853W        W 6906   7.910   3.751  11.508
 2854W        W 6907   1.397   4.598  11.009
 2855W        W 6908   0.762   5.013   0.915
 2856W        W 6909   9.007   5.547  11.946
 2857W        W 6910   6.976   1.341   9.029
 2858W        W 6911   8.032   9.855  11.365
 2859W        W 6912   7.027   8.510   0.300
 2860W        W 6913   5.226   0.809   9.951
 2861W        W 6914   5.649   5.137  10.506
 2862W        W 6915   3.699   8.584  10.024
 2863W        W 6916   8.886  10.391   1.800
 2864W        W 6917   2.633   3.586   0.289
 2865W        W 6918   8.515   1.391   9.488
 2866W        W 6919   5.224   5.688  10.903
 2867W        W 6920   8.415   8.881   0.795
 2868W        W 6921   3.602   2.793  11.875
 2869W        W 6922   0.264   7.494   2.361
 2870W        W 6923   5.696   2.306  10.385
 2871W        W 6924   5.573   6.129   9.111
 2872W        W 6925   9.404   6.620   9.937
 2873W        W 6926   1.345   4.578   9.956
 2874W        W 6927   9.363   2.311   2.226
 2875W        W 6928   4.747   4.658   8.932
 2876W        W 6929   4.059   2.844   2.642
 2877W        W 6930   3.311   5.068   1.301
 2878W        W 6931   0.791   6.986   2.172
 2879W        W 6932   8.495   0.282   0.356
 2880W        W 6933   1.832   1.303  10.833
 2881W        W 6934  10.349   8.064   0.243
 2882W        W 6935   7.098   9.842  10.011
 2883W        W 6936   3.655   2.703  10.509
 2884W        W 6937   4.084   4.683   4.106
 2885W        W 6938   3.588  10.347  10.540
 2886W        W 6939   0.394   9.831   9.388
 2887W        W 6940   6.196  10.457   2.250
 2888W        W 6941   6.480   8.443  10.499
 2889W        W 6942   2.187   0.763   9.015
 2890W        W 6943   5.579   6.011   1.855
 2891W        W 6944   7.615   4.169   1.838
 2892W        W 6945   9.457   8.435  11.995
 2893W        W 6946   1.836   0.399   9.945
 2894W        W 6947   8.959   7.562   1.875
 2895W        W 6948   7.625   4.190   3.135
 2896W        W 6949   3.272   7.974   9.058
 2897W        W 6950   3.698   8.431   0.391
 2898W        W 6951   1.278   2.174   8.901
 2899W        W 6952   1.315   2.368   0.936
 2900W        W 6953   3.733   9.047  10.051
 2901W        W 6954   0.412   3.112   0.336
 2902W        W 6955   4.552   2.726  11.942
 2903W        W 6956   0.423   7.578   9.112
 2904W        W 6957   8.590   7.574  10.515
 2905W        W 6958   5.126   6.157   2.208
 2906W        W 6959  10.406   0.375   0.739
 2907W        W 6960   1.312   1.318  10.066
 2908W        W 6961   6.958   5.541   8.127
 2909W        W 6962   4.081   8.376  11.994
 2910W        W 6963  10.455   5.636   2.241
 2911W        W 6964   4.745   6.643   8.943
 2912W        W 6965   4.124   4.771   9.097
 2913W        W 6966   1.255   8.553   1.334
 2914W        W 6967   3.695   5.579  11.428
 2915W        W 6968   3.243   3.153  10.346
 2916W        W 6969   3.606   4.100   9.866
 2917W        W 6970   1.737   9.998   1.782
 2918W        W 6971   4.149   2.152   9.371
 2919W        W 6972   9.364   7.441   9.851
 2920W        W 6973   7.585   0.335   3.336
 2921W        W 6974   1.859   9.406   2.291
 2922W        W 6975   0.888   5.509   0.804
 2923W        W 6976   0.440   3.340   9.075
 2924W        W 6977   6.455   6.048   7.999
 2925W        W 6978   2.296   1.689  10.956
 2926W        W 6979   9.509   7.604   0.772
 2927W        W 6980   8.992   1.269  11.874
 2928W        W 6981   6.152   4.646   9.443
 2929W        W 6982   3.315   5.642   9.521
 2930W        W 6983   6.655   6.534   0.369
 2931W        W 6984  10.413   0.792   9.027
 2932W        W 6985   5.577   1.754   2.823
 2933W        W 6986   3.614   5.564  10.068
 2934W        W 6987   7.121   9.447   9.464
 2935W        W 6988   5.605   7.430   8.543
 2936W        W 6989   8.491   9.400   1.297
 2937W        W 6990   2.249   8.836  10.427
 2938W        W 6991   1.730   9.308   1.401
 2939W        W 6992   9.807   5.593   3.350
 2940W        W 6993   0.894   9.459   3.324
 2941W        W 6994   6.680   4.265   3.736
 2942W        W 6995   6.546   8.953  10.843
 2943W        W 6996   6.617   3.802   0.889
 2944W        W 6997   1.677   3.666  11.976
 2945W        W 6998   1.388   8.014   0.839
 2946W        W 6999   0.721   5.652   1.900
 2947W        W 7000   1.900   1.879   2.797
 2948W        W 7001   7.093   6.538   9.382
 2949W        W 7002   2.298   5.675  11.284
 2950W        W 7003   4.622   9.872  10.827
 2951W        W 7004   8.078   5.082  10.363
 2952W        W 7005   9.786   5.026   0.478
 2953W        W 7006   3.153   8.833   9.582
 2954W        W 7007  10.443   8.840  11.930
 2955W        W 7008   6.583   5.667   9.953
 2956W        W 7009   1.329   4.284   2.753
 2957W        W 7010   9.498   8.939   1.814
 2958W        W 7011   1.792  10.412   9.516
 2959W        W 7012   8.364   4.705  11.889
 2960W        W 7013   4.195  10.411   0.258
 2961W        W 7014   2.656   1.690   1.920
 2962W        W 7015   0.299   9.054   9.880
 2963W        W 7016   8.549   1.410  11.902
 2964W        W 7017   5.105  10.400   0.728
 2965W        W 7018   7.545   0.427   9.936
 2966W        W 7019   6.083   9.523   2.715
 2967W        W 7020   8.842   4.573  10.956
 2968W        W 7021   8.454   4.763   9.870
 2969W        W 7022   0.802   2.734  11.995
 2970W        W 7023   6.600   2.196   1.353
 2971W        W 7024   3.749   2.373  11.860
 2972W        W 7025   7.159   4.577   2.235
 2973W        W 7026   6.158   6.110  10.918
 2974W        W 7027   2.266   3.286   3.351
 2975W        W 7028   6.607   7.067   9.117
 2976W        W 7029  10.279   8.955   0.760
 2977W        W 7030   4.127  10.459  11.319
 2978W        W 7031   2.671  10.385   0.784
 2979W        W 7032   7.890   6.055   8.528
 2980W        W 7033   2.631   9.030   2.828
 2981W        W 7034   0.833   2.302   9.574
 2982W        W 7035   6.118   3.741   1.789
 2983W        W 7036   2.266   2.806  10.490
 2984W        W 7037   7.454   6.000   7.968
 2985W        W 7038  10.454   3.585   3.314
 2986W        W 7039   1.275   1.381  11.029
 2987W        W 7040   2.854   8.468  11.811
 2988W        W 7041   2.835   4.180   2.357
 2989W        W 7042   1.319   7.014   2.307
 2990W        W 7043   9.323   4.161   9.074
 2991W        W 7044   8.856   7.081   8.420
 2992W        W 7045  10.012   5.582   0.936
 2993W        W 7046   7.513   6.994   2.320
 2994W        W 7047   7.098   5.240   7.984
 2995W        W 7048   4.156   3.631   9.384
 2996W        W 7049   2.341   7.981   2.663
 2997W        W 7050   8.530   0.245   8.982
 2998W        W 7051   0.288   8.431   2.328
 2999W        W 7052   9.455   7.927  11.409
 3000W        W 7053   2.847   9.496  10.426
 3001W        W 7054   4.062   2.686  11.913
 3002W        W 7055   8.983   7.452   2.651
 3003W        W 7056   2.197   2.627   0.265
 3004W        W 7057   8.478   8.903   3.279
 3005W        W 7058   1.842   3.149  10.394
 3006W        W 7059  10.448   0.302  11.000
 3007W        W 7060   1.273   0.896  10.068
 3008W        W 7061   9.498   1.298  11.304
 3009W        W 7062   9.527   6.034   9.566
 3010W        W 7063   6.152   4.293   1.871
 3011W        W 7064   5.527   7.080   8.126
 3012W        W 7065   5.607   9.308   2.666
 3013W        W 7066   0.944   8.017   1.855
 3014W        W 7067   4.714   7.585   0.768
 3015W        W 7068   4.131   3.772  10.375
 3016W        W 7069   0.353   0.871   0.322
 3017W        W 7070   3.618   7.555   1.322
 3018W        W 7071   3.663   5.250   7.938
 3019W        W 7072   1.245   8.577   1.780
 3020W        W 7073   4.697   2.280   1.802
 3021W        W 7074   6.470   2.189  10.952
 3022W        W 7075   8.916   8.004   2.362
 3023W        W 7076   9.013   3.759   3.176
 3024W        W 7077  10.475   3.641   9.520
 3025W        W 7078   6.563   8.039   0.952
 3026W        W 7079   8.976   9.438   0.266
 3027W        W 7080   5.516   8.400   9.114
 3028W        W 7081   2.364   3.603   9.389
 3029W        W 7082   9.061   6.491  10.042
 3030W        W 7083   3.114   3.144   9.505
 3031W        W 7084   5.071   1.803   9.498
 3032W        W 7085   4.214   8.021  10.873
 3033W        W 7086   7.017   4.286  11.028
 3034W        W 7087   0.948   7.970   3.267
 3035W        W 7088   8.364   9.829  10.535
 3036W        W 7089   5.020   6.930  10.346
 3037W        W 7090   0.731   0.845  11.913
 3038W        W 7091   0.800  10.301   9.119
 3039W        W 7092   7.986   4.157   8.889
 3040W        W 7093   3.784   5.620   3.762
 3041W        W 7094   6.602   2.688  11.438
 3042W        W 7095   9.006   7.544   3.770
 3043W        W 7096   6.956   1.856   0.275
 3044W        W 7097   1.340   4.151  11.025
 3045W        W 7098   4.143   3.249   8.602
 3046W        W 7099  10.495   9.982   1.722
 3047W        W 7100   3.115   2.786  11.887
 3048W        W 7101   0.467   0.736   3.677
 3049W        W 7102  10.439   2.844   2.696
 3050W        W 7103   7.402   2.335   2.194
 3051W        W 7104   1.239   7.922   2.754
 3052W        W 7105   9.525   7.473  11.032
 3053W        W 7106   1.707   4.558   3.296
 3054W        W 7107   3.244   1.742   2.207
 3055W        W 7108   4.259   1.883  11.292
 3056W        W 7109   4.570   1.432   8.938
 3057W        W 7110   2.299   0.745   0.729
 3058W        W 7111   9.985   6.181   9.888
 3059W        W 7112   9.333   3.805   9.519
 3060W        W 7113   3.290   4.224   3.280
 3061W        W 7114   6.595   1.196   3.154
 3062W        W 7115   9.312   1.907   9.485
 3063W        W 7116   5.573   0.354   0.463
 3064W        W 7117   8.381   7.567   0.459
 3065W        W 7118   3.584   4.767   3.806
 3066W        W 7119   0.820   6.092   1.687
 3067W        W 7120   0.291   5.519   9.049
 3068W        W 7121   8.906   6.130   0.346
 3069W        W 7122   8.546   3.726  10.453
 3070W        W 7123   8.576   6.992  11.403
 3071W        W 7124   9.953   6.610  11.834
 3072W        W 7125   3.786   4.709   2.852
 3073W        W 7126   5.247   8.922   0.268
 3074W        W 7127   6.682   9.991  10.002
 3075W        W 7128   5.994   6.086   8.893
 3076W        W 7129   9.067   7.597   1.368
 3077W        W 7130   5.718   8.024   0.766
 3078W        W 7131   5.187   3.186  10.489
 3079W        W 7132   6.180   1.399   0.927
 3080W        W 7133   5.576   3.729   0.813
 3081W        W 7134   1.378   6.662   0.266
 3082W        W 7135   3.812   3.129  11.436
 3083W        W 7136   0.780   6.529   2.864
 3084W        W 7137   4.600   7.040   0.956
 3085W        W 7138   0.888   7.102  11.827
 3086W        W 7139   9.406   3.631   0.807
 3087W        W 7140   7.631   1.326   2.834
 3088W        W 7141   6.976   2.280   0.892
 3089W        W 7142   8.913   4.208  10.988
 3090W        W 7143   3.650   7.604   8.948
 3091W        W 7144   3.211   0.741   9.569
 3092W        W 7145   3.724   4.067   1.410
 3093W        W 7146  10.408   7.588   1.833
 3094W        W 7147   6.080   9.799   1.332
 3095W        W 7148  10.366  10.376   8.902
 3096W        W 7149   8.452   8.033   0.400
 3097W        W 7150   7.409   7.420   0.957
 3098W        W 7151   5.171   7.488   8.940
 3099W        W 7152   2.328   1.272   2.260
 3100W        W 7153   6.573   4.213  10.913
 3101W        W 7154   9.849   8.373  10.467
 3102W        W 7155   1.720   4.256   2.826
 3103W        W 7156   2.350   7.981   1.717
 3104W        W 7157   8.515   3.161  11.961
 3105W        W 7158   6.629  10.327  11.771
 3106W        W 7159   9.999   3.703   9.864
 3107W        W 7160   5.045   4.652   1.425
 3108W        W 7161   3.131   1.748   3.747
 3109W        W 7162   0.787   4.071   8.479
 3110W        W 7163   6.926   7.940   3.260
 3111W        W 7164   6.985   8.400   3.165
 3112W        W 7165   5.507   6.130  10.942
 3113W        W 7166   2.214   8.862   3.243
 3114W        W 7167   6.158   8.458   1.333
 3115W        W 7168   1.791   4.713  11.989
 3116W        W 7169  10.015   0.303   9.871
 3117W        W 7170   6.050   8.113   2.771
 3118W        W 7171   3.815   6.055   4.181
 3119W        W 7172   5.061   5.108   9.507
 3120W        W 7173   6.961   8.935  10.920
 3121W        W 7174   8.971   1.728  10.014
 3122W        W 7175   7.419   0.942   1.401
 3123W        W 7176   9.955   4.562   9.086
 3124W        W 7177   2.780   2.694   3.205
 3125W        W 7178   8.022   2.338  10.034
 3126W        W 7179   4.687   0.953  10.945
 3127W        W 7180   7.035   5.513  10.539
 3128W        W 7181   2.677   3.286   2.246
 3129W        W 7182   6.086   5.144  10.060
 3130W        W 7183   1.255   6.549   2.340
 3131W        W 7184   8.019   5.052   3.218
 3132W        W 7185   9.787   1.777   9.576
 3133W        W 7186   6.652   3.316  11.334
 3134W        W 7187   7.012   0.902   3.295
 3135W        W 7188   6.002  10.377   0.359
 3136W        W 7189   7.415   8.496   0.290
 3137W        W 7190   8.493   4.696   9.001
 3138W        W 7191   8.514   5.681   1.251
 3139W        W 7192   9.029   6.456   2.284
 3140W        W 7193   7.597   2.667   2.362
 3141W        W 7194   3.691   5.024  10.851
 3142W        W 7195   3.107   9.359  10.938
 3143W        W 7196   4.140   0.347   9.434
 3144W        W 7197   4.059   1.681   2.331
 3145W        W 7198   8.093   0.431   1.846
 3146W        W 7199   7.973   5.706  10.413
 3147W        W 7200   3.741  10.313   3.238
 3148W        W 7201   5.016   8.984   9.372
 3149W        W 7202  10.355   3.157  11.459
 3150W        W 7203   9.033   5.087  10.904
 3151W        W 7204   0.861   9.942   0.743
 3152W        W 7205   5.584   5.214   3.125
 3153W        W 7206   7.895   0.874   9.400
 3154W        W 7207   9.459   1.356   9.884
 3155W        W 7208   2.173   4.237   8.964
 3156W        W 7209   9.401   8.070  11.849
 3157W        W 7210   5.166   9.941   2.801
 3158W        W 7211   5.586   5.247  10.872
 3159W        W 7212   2.338   6.544   2.312
 3160W        W 7213   5.557   2.319  11.365
 3161W        W 7214   6.001   1.209   9.111
 3162W        W 7215   7.581   5.051   8.478
 3163W        W 7216   9.799   0.274   3.324
 3164W        W 7217   0.467   4.289   9.008
 3165W        W 7218  10.455   2.198  10.425
 3166W        W 7219   4.731   7.133   2.823
 3167W        W 7220   9.454   0.744  10.834
 3168W        W 7221  10.009   9.448   1.869
 3169W        W 7222   3.792   2.648   8.584
 3170W        W 7223   7.949   7.063   8.936
 3171W        W 7224   4.721   5.214  11.357
 3172W        W 7225   1.721   7.449  11.508
 3173W        W 7226   4.667   7.440   3.267
 3174W        W 7227   6.142   6.598  11.947
 3175W        W 7228   8.556   5.574   2.231
 3176W        W 7229   0.892   0.377  11.451
 3177W        W 7230   5.190   2.271  11.417
 3178W        W 7231   5.033   8.459   3.184
 3179W        W 7232   2.685   0.838   9.960
 3180W        W 7233   8.890   7.628   2.176
 3181W        W 7234   0.951   1.735   9.913
 3182W        W 7235   8.525  10.412   9.414
 3183W        W 7236   6.002   3.805   2.764
 3184W        W 7237   9.972   9.956   2.825
 3185W        W 7238   7.517   9.917   2.687
 3186W        W 7239   7.105   5.216  10.942
 3187W        W 7240   9.369   3.781   2.755
 3188W        W 7241   4.273   7.023  10.424
 3189W        W 7242   8.542   7.955  10.477
 3190W        W 7243   9.542   1.213   3.138
 3191W        W 7244   1.202   2.773   9.917
 3192W        W 7245   2.225   4.207  10.856
 3193W        W 7246   2.210   5.518   0.339
 3194W        W 7247   4.768   2.657   1.364
 3195W        W 7248   6.027   5.704   9.399
 3196W        W 7249   6.930   0.281  11.907
 3197W        W 7250   0.745   6.086   8.450
 3198W        W 7251   1.878   3.287   9.419
 3199W        W 7252   5.048   6.156   9.481
 3200W        W 7253   6.451   5.127  11.368
 3201W        W 7254   2.166   5.502  11.020
 3202W        W 7255   8.551   5.505  10.367
 3203W        W 7256   0.840   7.451  11.015
 3204W        W 7257   4.582   1.703   0.434
 3205W        W 7258   1.830   2.720   1.333
 3206W        W 7259   0.855   5.175   3.285
 3207W        W 7260   8.582   7.485  11.790
 3208W        W 7261  10.000   1.367   3.227
 3209W        W 7262   2.279   8.928   0.401
 3210W        W 7263   5.980   6.567   8.973
 3211W        W 7264   4.602   2.202  11.380
 3212W        W 7265   2.339   9.014  11.018
 3213W        W 7266   8.978   0.331  10.848
 3214W        W 7267   0.919   1.205   0.268
 3215W        W 7268   7.112   6.142   8.082
 3216W        W 7269   0.451   0.325   3.210
 3217W        W 7270   9.051   8.483   1.259
 3218W        W 7271   7.069   6.185   3.830
 3219W        W 7272   8.504   6.988  10.559
 3220W        W 7273   1.328   3.746  10.905
 3221W        W 7274   3.684   3.610  11.496
 3222W        W 7275   8.095   1.682   9.572
 3223W        W 7276   1.395   2.333   2.394
 3224W        W 7277   5.144   2.194   1.765
 3225W        W 7278   1.231   1.737   2.811
 3226W        W 7279   8.830   9.946   9.866
 3227W        W 7280   9.841  10.363   2.374
 3228W        W 7281   3.245   9.854   0.338
 3229W        W 7282   4.569   5.663  11.040
 3230W        W 7283   3.700   4.590   0.367
 3231W        W 7284   5.201   2.790   0.788
 3232W        W 7285   7.981   7.951   8.973
 3233W        W 7286   0.286   6.458   0.359
 3234W        W 7287   5.180   6.622  10.978
 3235W        W 7288   3.686   5.539   4.289
 3236W        W 7289   7.877   4.267   0.912
 3237W        W 7290   4.617   5.575   3.356
 3238W        W 7291   9.925   3.712   2.180
 3239W        W 7292   7.995   1.431  11.369
 3240W        W 7293   2.280   5.045   2.160
 3241W        W 7294   5.606   0.306   0.727
 3242W        W 7295   0.265   9.031   3.124
 3243W        W 7296   0.856   8.391   9.372
 3244W        W 7297   3.582   8.370   2.681
 3245W        W 7298   2.783  10.387   2.770
 3246W        W 7299   8.582   5.089   1.798
 3247W        W 7300   3.661   3.159   0.919
 3248W        W 7301   9.910   0.895   2.771
 3249W        W 7302   6.101   4.231  10.459
 3250W        W 7303   8.436   4.155   3.254
 3251W        W 7304  10.289   9.990   8.544
 3252W        W 7305   7.439   3.583   9.454
 3253W        W 7306   9.403   8.114   1.214
 3254W        W 7307   5.493   5.234   8.953
 3255W        W 7308   4.218   8.454  10.810
 3256W        W 7309   1.884   0.337   0.798
 3257W        W 7310   0.912   0.741   2.855
 3258W        W 7311   2.712   0.337   8.964
 3259W        W 7312   8.414   9.049  10.061
 3260W        W 7313   9.986   7.576   0.257
 3261W        W 7314  10.461   9.320  11.814
 3262W        W 7315   0.246   4.754   9.053
 3263W        W 7316   3.812   9.391   1.255
 3264W        W 7317   4.542  10.288  10.962
 3265W        W 7318   2.749   6.133   0.883
 3266W        W 7319   2.301   0.403   0.474
 3267W        W 7320   9.326   0.784  10.547
 3268W        W 7321   6.053   9.425  11.473
 3269W        W 7322   0.831   1.319  10.920
 3270W        W 7323   7.065   7.148  10.531
 3271W        W 7324   6.008   7.457   9.880
 3272W        W 7325   9.875   1.671   0.727
 3273W        W 7326   5.969   4.116   9.383
 3274W        W 7327   8.488   6.600   9.944
 3275W        W 7328   2.205   0.384   2.207
 3276W        W 7329   4.275   8.512   3.259
 3277W        W 7330   4.129   5.690   3.676
 3278W        W 7331   1.380   3.307   9.504
 3279W        W 7332   9.006   3.199   2.703
 3280W        W 7333   9.396   2.236  11.371
 3281W        W 7334   8.999   5.560   1.315
 3282W        W 7335   6.173   4.609  11.018
 3283W        W 7336   0.460   3.144  10.956
 3284W        W 7337   5.547   6.122   3.763
 3285W        W 7338   1.705   8.996   2.669
 3286W        W 7339   7.927   5.575   2.650
 3287W        W 7340   5.499   1.421  11.490
 3288W        W 7341   2.750   5.499   2.315
 3289W        W 7342   0.268  10.288   2.381
 3290W        W 7343   1.723   8.358   9.006
 3291W        W 7344   3.232   6.110  10.996
 3292W        W 7345   3.266   5.079   9.854
 3293W        W 7346   8.023   3.747   1.705
 3294W        W 7347   6.565   9.890   0.749
 3295W        W 7348   1.271   0.324  10.458
 3296W        W 7349   0.354   9.999   9.949
 3297W        W 7350   0.825  10.432   2.737
 3298W        W 7351   3.333   8.837  10.938
 3299W        W 7352   7.966   8.917   8.931
 3300W        W 7353  10.270   8.482  11.782
 3301W        W 7354   2.187   2.719  11.438
 3302W        W 7355   6.527   0.827   1.239
 3303W        W 7356   0.724   9.528   1.328
 3304W        W 7357   6.675   7.982   8.884
 3305W        W 7358   7.402   8.558   9.985
 3306W        W 7359   6.015   9.892  11.892
 3307W        W 7360   9.411   1.739   0.787
 3308W        W 7361   0.838   6.668   1.310
 3309W        W 7362  10.432   2.244  10.888
 3310W        W 7363   6.954  10.277   2.167
 3311W        W 7364   1.838   2.148   1.832
 3312W        W 7365   2.175   4.568   9.963
 3313W        W 7366   5.221   9.393   3.159
 3314W        W 7367   5.525   0.730   3.633
 3315W        W 7368   8.839   3.213   9.890
 3316W        W 7369  10.274   4.662   0.459
 3317W        W 7370   3.791   7.945   2.669
 3318W        W 7371   3.656   8.023   0.358
 3319W        W 7372   8.554   9.813   9.556
 3320W        W 7373   4.727   6.923   1.276
 3321W        W 7374   3.798   6.033  10.345
 3322W        W 7375   9.497   4.130  10.850
 3323W        W 7376   8.564   7.590  10.045
 3324W        W 7377   9.981   4.644   1.345
 3325W        W 7378   9.449   7.461   1.400
 3326W        W 7379   3.276   4.070   0.859
 3327W        W 7380   2.816   4.624   0.429
 3328W        W 7381   0.452   2.852  11.012
 3329W        W 7382   8.926   2.760  11.470
 3330W        W 7383   8.068   6.127   0.322
 3331W        W 7384   3.318   0.358  11.815
 3332W        W 7385   6.473   7.912   1.307
 3333W        W 7386   0.816   3.614   1.405
 3334W        W 7387   9.499   6.624  11.307
 3335W        W 7388   6.613   5.499   0.947
 3336W        W 7389   7.426   9.969  11.899
 3337W        W 7390   4.187   0.794   1.686
 3338W        W 7391   3.603   2.313  10.939
 3339W        W 7392   7.999   4.711   0.882
 3340W        W 7393  10.433   1.420   0.863
 3341W        W 7394   4.591   3.332   1.218
 3342W        W 7395   8.112   0.828   9.024
 3343W        W 7396   2.204   1.864   3.357
 3344W        W 7397   6.193   4.193  10.987
 3345W        W 7398   4.211   8.478   8.450
 3346W        W 7399   8.965   4.257  11.838
 3347W        W 7400   6.175   5.157   8.898
 3348W        W 7401   1.424   9.406   2.716
 3349W        W 7402   2.335   9.006   2.780
 3350W        W 7403   8.012   8.583  10.535
 3351W        W 7404   0.765   0.326   3.239
 3352W        W 7405   7.617   4.214  10.035
 3353W        W 7406   1.858   2.304   3.289
 3354W        W 7407   0.825   5.061   9.401
 3355W        W 7408   8.079   5.041   1.690
 3356W        W 7409   2.795   9.906   3.132
 3357W        W 7410   5.504   4.684  11.883
 3358W        W 7411  10.384   9.847   3.334
 3359W        W 7412  10.447   6.088   1.298
 3360W        W 7413   4.238   7.437   2.358
 3361W        W 7414   6.561   9.903   2.250
 3362W        W 7415  10.285   1.408  11.934
 3363W        W 7416   9.002   6.944   1.773
 3364W        W 7417   0.361   9.326   1.428
 3365W        W 7418   8.112   3.717   2.247
 3366W        W 7419   3.184   5.199  11.898
 3367W        W 7420   5.702   6.547   8.951
 3368W        W 7421   6.149   2.347   8.927
 3369W        W 7422   3.667   6.978   8.561
 3370W        W 7423   3.624   8.892  10.981
 3371W        W 7424   7.982   9.046   0.941
 3372W        W 7425   5.109   2.731  10.043
 3373W        W 7426   0.772   9.536  10.467
 3374W        W 7427   3.147   1.261  11.827
 3375W        W 7428   7.490   5.659   8.060
 3376W        W 7429   6.644  10.496   9.950
 3377W        W 7430   6.579   5.029   2.357
 3378W        W 7431   0.252   0.368   2.322
 3379W        W 7432   7.019   9.397  11.018
 3380W        W 7433   6.016   8.868   2.285
 3381W        W 7434   9.958   4.163   9.389
 3382W        W 7435   9.393   6.513   2.847
 3383W        W 7436   7.075   1.880  10.450
 3384W        W 7437   6.127   5.050  10.936
 3385W        W 7438   2.698   5.706   1.393
 3386W        W 7439   6.933   2.243  11.021
 3387W        W 7440   9.532   1.291   1.899
 3388W        W 7441   1.758   0.319  10.868
 3389W        W 7442   5.032   9.948  11.421
 3390W        W 7443   6.662   3.161   9.890
 3391W        W 7444   1.415   3.753   0.452
 3392W        W 7445   0.442   6.496   1.270
 3393W        W 7446   5.189   5.550   0.939
 3394W        W 7447   2.741   8.498  10.502
 3395W        W 7448   9.440   9.339   2.681
 3396W        W 7449   1.228   7.066  11.856
 3397W        W 7450   2.276   7.963   8.457
 3398W        W 7451   6.473   8.954   1.821
 3399W        W 7452   9.434   8.471   0.396
 3400W        W 7453  10.483   5.201   2.719
 3401W        W 7454   4.741   8.051   3.232
 3402W        W 7455   7.534   8.015  11.494
 3403W        W 7456   4.565   6.921  11.862
 3404W        W 7457   3.317   2.265   0.356
 3405W        W 7458   4.576   9.345   2.254
 3406W        W 7459   5.156   8.935   0.857
 3407W        W 7460   1.432  10.334   1.861
 3408W        W 7461   6.528   9.445  11.877
 3409W        W 7462   4.612   0.818   8.501
 3410W        W 7463   8.048   6.659  10.983
 3411W        W 7464  10.498   2.311   3.150
 3412W        W 7465   9.017   7.956   9.022
 3413W        W 7466   4.724   3.600  10.456
 3414W        W 7467   7.158   4.676   9.091
 3415W        W 7468   4.214   8.432   1.307
 3416W        W 7469   3.689   5.604   1.361
 3417W        W 7470   8.403   2.347   2.793
 3418W        W 7471  10.335   1.839   3.212
 3419W        W 7472   6.562   6.101  10.482
 3420W        W 7473   8.903   2.231   3.328
 3421W        W 7474   4.063   5.092   0.474
 3422W        W 7475   5.239   7.491  11.469
 3423W        W 7476   9.018   0.720  11.426
 3424W        W 7477   5.205   0.442   3.175
 3425W        W 7478   1.822   8.922   9.575
 3426W        W 7479   5.718   1.336   2.397
 3427W        W 7480   5.042   4.117   1.770
 3428W        W 7481   6.934  10.304   3.791
 3429W        W 7482   9.503   4.672  11.489
 3430W        W 7483   4.674   1.414   0.804
 3431W        W 7484   6.566  10.373  10.418
 3432W        W 7485   6.477   3.587   9.397
 3433W        W 7486   6.005   5.123   0.381
 3434W        W 7487   3.154   1.407   3.794
 3435W        W 7488   4.662   8.591  10.380
 3436W        W 7489   3.339   1.729   3.240
 3437W        W 7490   5.707   5.703   3.147
 3438W        W 7491   7.072   7.412  10.900
 3439W        W 7492   7.446   3.320   0.456
 3440W        W 7493   3.756   6.014   1.256
 3441W        W 7494   6.194   6.660   8.512
 3442W        W 7495   5.589   1.872   1.906
 3443W        W 7496   4.720   2.297   2.193
 3444W        W 7497   0.899   7.916   0.792
 3445W        W 7498   7.075   8.535   2.350
 3446W        W 7499   6.147   5.553   1.709
 3447W        W 7500   8.011   0.754   3.167
 3448W        W 7501   5.605   4.205   9.105
 3449W        W 7502   7.408   6.577   1.280
 3450W        W 7503   6.014   6.086   3.214
 3451W        W 7504  10.021   3.288  11.348
 3452W        W 7505   9.989   6.938   1.359
 3453W        W 7506   7.991   6.509  10.064
 3454W        W 7507   9.901   1.824  11.421
 3455W        W 7508   6.470   5.153  11.924
 3456W        W 7509   9.452   5.644  11.856
 3457W        W 7510   4.135   0.428   2.668
 3458W        W 7511  10.404   4.280   0.271
 3459W        W 7512   1.761   2.162   9.388
 3460W        W 7513   0.337   0.384  11.803
 3461W        W 7514   1.369   1.337   0.955
 3462W        W 7515  10.304   5.224  11.036
 3463W        W 7516   4.292   2.786   1.285
 3464W        W 7517   1.851   8.536   9.931
 3465W        W 7518   4.710   4.639   0.925
 3466W        W 7519   1.331   6.444  11.486
 3467W        W 7520   3.281   7.562   3.151
 3468W        W 7521   1.264   1.431  10.495
 3469W        W 7522   1.312  10.400  10.834
 3470W        W 7523   0.385   3.727   0.315
 3471W        W 7524   3.748   7.897   8.586
 3472W        W 7525   2.249   1.421  11.516
 3473W        W 7526   5.023   4.569   2.183
 3474W        W 7527   2.798   9.330   0.433
 3475W        W 7528   3.639   1.898  11.338
 3476W        W 7529   9.322   4.680   8.957
 3477W        W 7530   2.736   8.455   9.413
 3478W        W 7531  10.269   5.067   1.302
 3479W        W 7532   6.122   0.773  11.401
 3480W        W 7533  10.342   7.598  11.024
 3481W        W 7534   3.163   0.409  10.501
 3482W        W 7535   4.538   0.333   0.465
 3483W        W 7536   7.003   5.668   9.946
 3484W        W 7537   7.092   8.953  11.892
 3485W        W 7538   6.522   7.589   1.717
 3486W        W 7539   1.820   9.326   9.535
 3487W        W 7540   4.172   6.180   2.387
 3488W        W 7541   8.584   6.954   2.656
 3489W        W 7542   5.131   0.285   0.818
 3490W        W 7543   8.573   0.261   9.929
 3491W        W 7544   1.396   7.063  11.494
 3492W        W 7545   9.937   7.001   8.895
 3493W        W 7546   7.156   7.403   8.453
 3494W        W 7547   4.154   9.390   9.120
 3495W        W 7548   2.841   6.528   1.823
 3496W        W 7549   6.048   2.366  11.834
 3497W        W 7550   5.178   3.332   1.744
 3498W        W 7551   9.330   6.481   0.314
 3499W        W 7552   9.060   2.775   1.809
 3500W        W 7553  10.391   7.503   9.043
 3501W        W 7554   5.143   6.498   7.952
 3502W        W 7555   9.941   5.597   2.753
 3503W        W 7556   8.029   1.323   3.148
 3504W        W 7557   5.705   6.037   8.411
 3505W        W 7558   0.405   8.086   9.966
 3506W        W 7559   0.874   2.775   1.755
 3507W        W 7560   8.391   8.475   1.734
 3508W        W 7561   6.602   6.641   8.587
 3509W        W 7562   0.898   2.663   1.314
 3510W        W 7563   7.469  10.454  11.398
 3511W        W 7564   9.357   1.760  11.032
 3512W        W 7565   8.432   5.137   9.911
 3513W        W 7566   2.176   7.402  10.813
 3514W        W 7567   0.312   2.661  10.505
 3515W        W 7568   5.562   4.146  11.878
 3516W        W 7569   2.731   7.988   0.445
 3517W        W 7570   7.520   0.306   9.065
 3518W        W 7571   3.312   1.281   3.359
 3519W        W 7572   2.347   0.862  11.970
 3520W        W 7573   4.541   6.466  10.347
 3521W        W 7574   2.148  10.389   1.795
 3522W        W 7575   3.238   5.132   9.071
 3523W        W 7576   8.848   8.481   2.649
 3524W        W 7577   8.533   7.543   9.433
 3525W        W 7578   4.262   0.845   8.887
 3526W        W 7579  10.355   9.990   9.515
 3527W        W 7580   1.327   8.948   9.923
 3528W        W 7581   7.455   3.707   1.808
 3529W        W 7582   1.852   5.658   9.546
 3530W        W 7583   5.710   2.284   0.842
 3531W        W 7584   6.946   8.904   0.823
 3532W        W 7585   5.978   7.481   0.758
 3533W        W 7586   4.091   2.204   0.314
 3534W        W 7587   5.197   5.053  10.506
 3535W        W 7588   9.527  10.410   1.256
 3536W        W 7589   4.060   1.276   9.015
 3537W        W 7590   0.336   1.886   8.949
 3538W        W 7591   3.288   7.573   8.928
 3539W        W 7592   1.277   7.464   1.742
 3540W        W 7593   6.536   4.280   8.136
 3541W        W 7594   7.402   5.971   1.205
 3542W        W 7595   7.134   2.232   0.285
 3543W        W 7596   8.450   4.723   1.232
 3544W        W 7597   8.917   3.673   0.814
 3545W        W 7598   3.326   6.953  11.295
 3546W        W 7599   7.437   6.936  11.359
 3547W        W 7600   5.647   1.210   1.866
 3548W        W 7601  10.486   8.530   2.219
 3549W        W 7602  10.394   1.318  10.802
 3550W        W 7603   0.278   9.022   1.234
 3551W        W 7604   2.699   1.301   1.881
 3552W        W 7605   2.811   3.677   1.682
 3553W        W 7606   3.258   5.653   1.217
 3554W        W 7607   8.409   8.540   0.307
 3555W        W 7608   0.453   0.370  11.319
 3556W        W 7609  10.017   3.778   2.867
 3557W        W 7610   2.307   8.430  10.975
 3558W        W 7611   0.288   6.447  11.904
 3559W        W 7612  10.353   6.950   1.332
 3560W        W 7613   4.092   6.174   3.667
 3561W        W 7614   3.786  10.452   2.648
 3562W        W 7615   9.886  10.319  11.367
 3563W        W 7616   6.011   8.948   2.686
 3564W        W 7617  10.497   9.939   0.465
 3565W        W 7618   8.550   1.881  11.320
 3566W        W 7619   9.001   6.509   0.882
 3567W        W 7620  10.447   5.591  10.023
 3568W        W 7621   4.601   6.649   0.797
 3569W        W 7622   7.996   4.622  11.466
 3570W        W 7623   9.469   5.115  11.337
 3571W        W 7624   9.516   3.742   0.462
 3572W        W 7625   7.575   5.993   3.193
 3573W        W 7626  10.370   1.234   9.563
 3574W        W 7627  10.352   4.705  11.940
 3575W        W 7628   5.494   9.464   3.303
 3576W        W 7629   8.394   9.942   3.224
 3577W        W 7630   5.204   9.467   9.977
 3578W        W 7631   4.741   8.561   2.351
 3579W        W 7632   5.665   4.188   9.403
 3580W        W 7633   6.534   6.105   3.634
 3581W        W 7634   8.475   8.571   2.648
 3582W        W 7635   1.907   6.492  11.316
 3583W        W 7636   5.627   7.884   1.372
 3584W        W 7637   8.955  10.276   3.251
 3585W        W 7638   0.892   3.129   1.874
 3586W        W 7639   2.720  10.281   3.324
 3587W        W 7640  10.266   8.869   2.811
 3588W        W 7641   4.271   3.157   0.476
 3589W        W 7642   5.572   9.939  11.463
 3590W        W 7643   9.786   0.261   8.885
 3591W        W 7644   7.074  10.477   0.352
 3592W        W 7645   3.755   4.651   3.322
 3593W        W 7646   8.547   6.980   9.522
 3594W        W 7647   7.475   6.141   8.910
 3595W        W 7648   8.982  10.482   0.281
 3596W        W 7649   4.628   6.021   3.223
 3597W        W 7650   1.829   5.176  11.291
 3598W        W 7651   7.623   4.280   1.368
 3599W        W 7652   1.419   1.369   1.289
 3600W        W 7653   7.565   8.452   2.270
 3601W        W 7654   6.944   5.214   8.882
 3602W        W 7655   1.683   6.027   1.216
 3603W        W 7656   0.938   2.774  11.037
 3604W        W 7657   6.076   5.025   2.873
 3605W        W 7658   5.525  10.353   9.052
 3606W        W 7659   2.274   3.164  10.401
 3607W        W 7660   9.875   0.302   2.860
 3608W        W 7661   6.096   8.500   2.243
 3609W        W 7662   2.229   1.684   2.873
 3610W        W 7663   6.033   8.047   9.524
 3611W        W 7664   7.455   3.221   2.238
 3612W        W 7665   7.461   9.905   3.270
 3613W        W 7666   4.569   3.716   0.383
 3614W        W 7667   3.651   6.624  11.004
 3615W        W 7668   7.068   1.234   2.792
 3616W        W 7669   1.412   8.394  10.857
 3617W        W 7670   8.396   9.802  11.459
 3618W        W 7671  10.367   0.276  11.301
 3619W        W 7672   9.473   8.972   9.021
 3620W        W 7673   6.606   2.793   9.510
 3621W        W 7674   3.668   1.391   8.952
 3622W        W 7675   6.159   9.004   0.858
 3623W        W 7676   9.336   9.807  11.401
 3624W        W 7677   4.236   6.581   3.716
 3625W        W 7678   4.703   8.997   8.966
 3626W        W 7679   0.332   1.779   2.774
 3627W        W 7680   7.121   9.934   8.938
 3628W        W 7681   6.672   4.698  11.399
 3629W        W 7682   0.898   6.558  10.530
 3630W        W 7683   9.016   4.277  11.458
 3631W        W 7684   6.646   7.511   0.763
 3632W        W 7685   9.891   2.744   2.399
 3633W        W 7686   7.919  10.282   2.733
 3634W        W 7687   9.938  10.365   8.461
 3635W        W 7688   6.467   9.452   2.271
 3636W        W 7689   4.194   4.224   8.540
 3637W        W 7690   1.211   6.613   1.836
 3638W        W 7691   1.805   8.861   1.330
 3639W        W 7692   4.195   7.146   8.920
 3640W        W 7693   2.358   0.749   1.916
 3641W        W 7694   9.834   0.719   9.033
 3642W        W 7695   7.007   5.195   3.188
 3643W        W 7696   5.190   5.136   0.871
 3644W        W 7697   8.988   9.934  11.462
 3645W        W 7698   8.376   5.631   9.969
 3646W        W 7699   4.676   0.784   9.514
 3647W        W 7700   4.230   9.318   0.385
 3648W        W 7701   0.325   9.333   9.075
 3649W        W 7702   5.575   8.410   1.734
 3650W        W 7703   7.059   4.705   2.854
 3651W        W 7704   4.603   8.030   9.049
 3652W        W 7705   2.255   5.495   1.848
 3653W        W 7706  10.394   3.817   2.278
 3654W        W 7707   5.528   2.161  10.986
 3655W        W 7708   7.486   5.533   8.579
 3656W        W 7709   5.217   3.762   2.347
 3657W        W 7710   0.776   9.526  11.783
 3658W        W 7711   0.838   6.112   8.931
 3659W        W 7712   7.400   8.870   2.332
 3660W        W 7713   3.709   7.972   0.918
 3661W        W 7714   1.785   3.256   2.165
 3662W        W 7715   0.813   0.837   0.432
 3663W        W 7716   6.934   3.740   1.422
 3664W        W 7717   3.817   3.123  11.973
 3665W        W 7718   7.920   7.989   9.541
 3666W        W 7719   4.247  10.499  10.485
 3667W        W 7720   0.944   4.758  11.313
 3668W        W 7721   5.581   6.567   8.069
 3669W        W 7722   3.616   5.061   0.307
 3670W        W 7723   2.783   6.016   1.419
 3671W        W 7724   7.067   7.980   0.333
 3672W        W 7725   3.108   1.357   0.784
 3673W        W 7726   5.043   6.469  11.801
 3674W        W 7727   7.903   1.337   1.287
 3675W        W 7728   7.043   3.675   2.651
 3676W        W 7729   1.259   9.948  10.339
 3677W        W 7730   5.146   0.898   0.387
 3678W        W 7731  10.465   6.569  10.052
 3679W        W 7732   6.012   5.983   0.769
 3680W        W 7733   7.091   0.394   1.425
 3681W        W 7734   4.232  10.385   3.208
 3682W        W 7735   4.064   1.861   0.872
 3683W        W 7736   0.348   9.407  11.316
 3684W        W 7737   6.046   3.730   8.945
 3685W        W 7738   0.243   2.683   1.782
 3686W        W 7739   9.027   6.965  10.828
 3687W        W 7740   8.852   2.201   1.433
 3688W        W 7741   6.541   7.976   1.840
 3689W        W 7742   5.627   7.609  10.981
 3690W        W 7743   0.815   0.301  10.928
 3691W        W 7744   5.707   6.945  11.378
 3692W        W 7745   1.886   9.417   3.149
 3693W        W 7746   5.153   8.849   1.796
 3694W        W 7747   2.209   3.191   1.335
 3695W        W 7748   0.776   0.398   2.721
 3696W        W 7749   1.222   7.088   3.354
 3697W        W 7750   5.194   4.207   3.834
 3698W        W 7751   6.168   3.251   1.835
 3699W        W 7752   9.052   7.632   0.290
 3700W        W 7753   6.025   2.818   3.151
 3701W        W 7754   3.146   9.942   1.278
 3702W        W 7755  10.457   8.409   9.544
 3703W        W 7756   7.444   8.077   8.911
 3704W        W 7757   6.107   5.057  11.947
 3705W        W 7758   1.844   3.292   2.760
 3706W        W 7759   0.753   8.490   2.805
 3707W        W 7760  10.398   7.511  11.764
 3708W        W 7761   4.127   3.263   9.021
 3709W        W 7762   8.409   4.708   9.470
 3710W        W 7763   4.607   2.223   9.406
 3711W        W 7764   2.826   4.295  11.000
 3712W        W 7765   2.714   6.661  10.074
 3713W        W 7766   5.021   2.725   9.013
 3714W        W 7767   9.319   4.761   3.778
 3715W        W 7768   3.140  10.015   0.916
 3716W        W 7769   1.798   2.818   0.261
 3717W        W 7770   7.587  10.452  10.964
 3718W        W 7771   9.792   8.105   0.876
 3719W        W 7772   1.269   4.260  11.409
 3720W        W 7773   6.987   5.494   2.313
 3721W        W 7774   9.463   6.001   0.371
 3722W        W 7775   2.384   1.253   3.324
 3723W        W 7776   2.298   2.202   9.911
 3724W        W 7777   8.438   4.544  11.476
 3725W        W 7778   8.432   8.090   9.388
 3726W        W 7779   5.116   6.157   8.519
 3727W        W 7780   5.014  10.013   2.386
 3728W        W 7781   0.828   4.288   3.778
 3729W        W 7782   7.614   1.685   2.831
 3730W        W 7783   7.616   4.691   2.723
 3731W        W 7784   0.792   0.887   9.862
 3732W        W 7785   5.173   2.314  10.985
 3733W        W 7786   7.441   2.195   0.281
 3734W        W 7787   1.286   2.323   0.416
 3735W        W 7788   1.296   8.364  10.017
 3736W        W 7789   7.944   0.923   9.957
 3737W        W 7790   6.120   8.835  10.419
 3738W        W 7791   8.980   8.419   0.379
 3739W        W 7792   3.258   2.225   3.837
 3740W        W 7793   0.924   6.144  11.987
 3741W        W 7794   9.988   7.981  11.460
 3742W        W 7795   5.618   3.757   8.626
 3743W        W 7796   7.045   7.417   2.729
 3744W        W 7797   6.977   5.040  11.765
 3745W        W 7798  10.015   6.559   0.403
 3746W        W 7799   0.763   2.646  10.532
 3747W        W 7800   3.693   0.258   2.856
 3748W        W 7801   8.486   9.958   1.255
 3749W        W 7802   6.029   6.130   3.675
 3750W        W 7803   6.655   7.541   2.271
 3751W        W 7804   5.156   4.261   9.463
 3752W        W 7805   9.467   2.163   0.362
 3753W        W 7806   0.308   7.533   0.818
 3754W        W 7807   6.926   1.688   2.716
 3755W        W 7808   7.980  10.478  10.550
 3756W        W 7809   3.719   1.315  10.870
 3757W        W 7810   7.974   3.715  11.927
 3758W        W 7811   4.163   0.897   2.794
 3759W        W 7812   3.750   5.567   9.471
 3760W        W 7813   2.653   6.663   9.010
 3761W        W 7814   8.995   3.236   1.432
 3762W        W 7815   5.506   2.775  10.434
 3763W        W 7816   5.127   3.217   0.380
 3764W        W 7817   4.105   1.721   9.363
 3765W        W 7818   4.276   5.057  10.434
 3766W        W 7819   1.223   7.469   3.123
 3767W        W 7820  10.280   3.106   2.833
 3768W        W 7821   5.568   7.607   9.091
 3769W        W 7822   4.762   7.917   2.684
 3770W        W 7823   3.767   4.266   9.088
 3771W        W 7824   4.765   3.103  11.996
 3772W        W 7825   4.745   5.107   2.277
 3773W        W 7826   1.365   5.126   9.004
 3774W        W 7827   3.661   3.208  11.027
 3775W        W 7828   5.501   4.141   7.933
 3776W        W 7829   1.310   3.128  10.862
 3777W        W 7830  10.319   4.186   9.021
 3778W        W 7831   2.307   8.898   9.599
 3779W        W 7832   9.899   1.429   0.907
 3780W        W 7833   3.271   1.300  10.462
 3781W        W 7834   6.669   0.423   1.215
 3782W        W 7835   7.922   7.595   0.419
 3783W        W 7836   7.901   1.737  10.454
 3784W        W 7837   1.431   7.574  11.403
 3785W        W 7838  10.466  10.347   3.330
 3786W        W 7839   4.192   1.300   2.655
 3787W        W 7840   0.943   5.216   1.684
 3788W        W 7841   5.591   5.569   0.260
 3789W        W 7842   2.815   7.465   1.311
 3790W        W 7843  10.321   1.802  10.357
 3791W        W 7844   1.738   4.558   9.850
 3792W        W 7845   8.430   8.406   1.386
 3793W        W 7846   7.911   0.284  10.433
 3794W        W 7847   5.157   3.697  10.516
 3795W        W 7848   5.216   5.526   9.959
 3796W        W 7849   1.733   5.571   0.866
 3797W        W 7850   1.846   2.782   1.800
 3798W        W 7851  10.296   9.879   2.189
 3799W        W 7852   1.833   4.077   9.950
 3800W        W 7853   6.170   5.656   3.280
 3801W        W 7854   5.693   6.928   1.380
 3802W        W 7855   7.460   5.224   1.791
 3803W        W 7856   5.700   5.517  10.493
 3804W        W 7857   1.800   4.110   2.347
 3805W        W 7858   7.607   3.659   0.310
 3806W        W 7859   3.285   8.981  10.372
 3807W        W 7860  10.456   4.737  10.914
 3808W        W 7861   3.649   9.876   2.189
 3809W        W 7862   3.150   0.369   1.706
 3810W        W 7863   9.929   7.567   8.924
 3811W        W 7864   2.385   4.756   8.903
 3812W        W 7865   0.337   1.388  11.024
 3813W        W 7866   7.038   5.674   0.400
 3814W        W 7867   0.911   9.794   1.316
 3815W        W 7868   6.568   8.901   0.441
 3816W        W 7869   7.026   7.539   9.498
 3817W        W 7870   7.631   3.125  11.505
 3818W        W 7871   9.846   1.714   1.853
 3819W        W 7872   3.151   7.896  10.937
 3820W        W 7873   0.252   7.454   2.654
 3821W        W 7874   4.578   6.595   1.215
 3822W        W 7875   5.048   3.209   9.892
 3823W        W 7876   0.876   4.127   1.394
 3824W        W 7877   2.198   9.398  10.994
 3825W        W 7878   1.220   2.160   1.844
 3826W        W 7879   7.948   2.374  10.448
 3827W        W 7880   5.664   1.745  11.795
 3828W        W 7881   5.580   1.361   2.679
 3829W        W 7882  10.310   7.467   2.200
 3830W        W 7883   9.394   5.599   2.172
 3831W        W 7884   0.814   4.105   0.408
 3832W        W 7885   0.460   7.012  10.074
 3833W        W 7886   4.752   5.188  10.906
 3834W        W 7887  10.297   3.612   9.927
 3835W        W 7888   9.319   2.790   2.219
 3836W        W 7889   5.117   6.504   2.828
 3837W        W 7890   7.400   6.607   8.958
 3838W        W 7891   8.938   5.588   9.546
 3839W        W 7892   7.441   5.215  10.487
 3840W        W 7893   8.394   4.099  10.953
 3841W        W 7894   8.014   1.775  11.488
 3842W        W 7895  10.410   7.076  11.950
 3843W        W 7896   3.199   7.044   2.310
 3844W        W 7897   5.973   0.469   3.268
 3845W        W 7898   9.384   3.289  10.475
 3846W        W 7899   0.754   0.373   9.543
 3847W        W 7900   8.356   9.922   8.889
 3848W        W 7901   5.969   0.290   2.689
 3849W        W 7902   0.376   0.432  10.917
 3850W        W 7903   9.313   9.059  11.311
 3851W        W 7904   2.180   9.332   1.839
 3852W        W 7905   0.726   6.560  10.019
 3853W        W 7906   7.015   5.727  10.852
 3854W        W 7907   2.316   5.191   2.855
 3855W        W 7908   8.539   6.999   9.102
 3856W        W 7909   4.577  10.425   2.263
 3857W        W 7910   7.554   9.985   9.952
 3858W        W 7911   2.332   8.493   3.133
 3859W        W 7912   9.055   1.872   0.301
 3860W        W 7913   0.288   5.522  11.884
 3861W        W 7914   6.599   8.864   1.210
 3862W        W 7915   9.030   5.659  10.555
 3863W        W 7916   7.900   4.126  11.975
 3864W        W 7917   2.187   6.024   1.741
 3865W        W 7918   4.226   1.702   2.690
 3866W        W 7919   6.142   7.007   4.306
 3867W        W 7920   2.152   7.146  10.023
 3868W        W 7921   4.152   8.042   2.249
 3869W        W 7922   4.684   0.810   8.918
 3870W        W 7923   7.069   9.927   1.744
 3871W        W 7924   7.058   2.300   2.850
 3872W        W 7925   1.871   3.229  10.986
 3873W        W 7926   1.308   9.846   9.060
 3874W        W 7927   7.496   3.694  10.820
 3875W        W 7928   5.982   3.710   1.389
 3876W        W 7929   2.235   3.229   2.659
 3877W        W 7930   7.465  10.397   0.332
 3878W        W 7931   8.018   6.458   2.866
 3879W        W 7932   2.808   7.017  11.943
 3880W        W 7933   5.015   4.665   0.353
 3881W        W 7934   2.242   4.746   2.663
 3882W        W 7935   0.787   0.765   2.227
 3883W        W 7936   9.807   4.633  10.526
 3884W        W 7937   7.068   0.346   3.307
 3885W        W 7938   1.705   1.687  11.832
 3886W        W 7939  10.432   0.728   1.383
 3887W        W 7940   9.402   4.642   9.904
 3888W        W 7941   2.792   7.095   0.457
 3889W        W 7942   8.508   6.578   0.816
 3890W        W 7943   1.290   4.200   3.210
 3891W        W 7944   3.581   6.573   1.734
 3892W        W 7945   1.244   0.263   8.955
 3893W        W 7946  10.329   6.650   0.410
 3894W        W 7947   7.071   3.671   0.261
 3895W        W 7948   4.224  10.427   2.693
 3896W        W 7949   7.577   9.018  10.842
 3897W        W 7950   3.274   1.214  10.889
 3898W        W 7951   4.704   2.317  10.836
 3899W        W 7952   5.016   8.526  10.538
 3900W        W 7953   9.319   8.545   3.247
 3901W        W 7954   4.639   9.384   2.688
 3902W        W 7955   6.192   4.144   8.637
 3903W        W 7956   9.427   8.108   9.103
 3904W        W 7957   7.889   8.510   9.386
 3905W        W 7958   6.928   2.214   1.278
 3906W        W 7959   3.264   0.450   9.989
 3907W        W 7960   2.231   7.959  11.499
 3908W        W 7961   0.367   5.242   0.422
 3909W        W 7962   1.811   4.721   0.905
 3910W        W 7963   2.843   6.057  11.907
 3911W        W 7964   5.969   1.898   3.273
 3912W        W 7965   2.678   2.669  10.458
 3913W        W 7966   6.674   0.323   9.504
 3914W        W 7967   2.823  10.466  11.002
 3915W        W 7968   8.556   4.199   1.216
 3916W        W 7969  10.447   4.581   8.895
 3917W        W 7970   6.568   1.371  10.339
 3918W        W 7971   7.609   5.681   3.168
 3919W        W 7972   5.246   6.065   9.092
 3920W        W 7973   2.288   6.533   1.289
 3921W        W 7974   4.650   3.172   0.292
 3922W        W 7975   6.119   7.595   1.886
 3923W        W 7976   7.115   6.516   1.702
 3924W        W 7977   9.888   3.248   8.474
 3925W        W 7978   4.259   1.259  11.914
 3926W        W 7979   8.071   7.445   2.799
 3927W        W 7980   7.994   9.988   9.102
 3928W        W 7981  10.361   3.800  11.283
 3929W        W 7982   2.726   5.087   2.291
 3930W        W 7983   1.319   1.810   8.909
 3931W        W 7984   5.069   4.756  10.952
 3932W        W 7985   9.450   6.665   1.786
 3933W        W 7986   5.078   8.435  11.022
 3934W        W 7987   3.798  10.422   2.236
 3935W        W 7988   9.384   7.143   1.428
 3936W        W 7989   7.519   2.222   0.722
 3937W        W 7990   5.207   7.630  10.958
 3938W        W 7991  10.310   0.725   9.443
 3939W        W 7992   4.107  10.328   0.747
 3940W        W 7993   7.537   3.624   9.996
 3941W        W 7994   4.590   1.713   9.079
 3942W        W 7995   0.312   8.512  11.464
 3943W        W 7996   0.847   5.612   0.438
 3944W        W 7997   6.936   6.602   2.388
 3945W        W 7998   9.821   3.582  11.827
 3946W        W 7999   5.638   0.936   2.300
 3947W        W 8000   4.266   8.899  10.366
 3948W        W 8001   1.255  10.449   9.573
 3949W        W 8002   6.974   9.806  10.809
 3950W        W 8003   7.898   4.262   2.253
 3951W        W 8004   2.753   0.759   3.332
 3952W        W 8005   1.775   8.472   1.687
 3953W        W 8006   8.930   0.882   2.702
 3954W        W 8007   7.007   8.976   2.752
 3955W        W 8008   2.788   2.677   2.755
 3956W        W 8009   4.604   3.817   1.433
 3957W        W 8010   0.462   0.874  11.961
 3958W        W 8011   0.355   5.186   9.984
 3959W        W 8012   2.348   8.946   1.803
 3960W        W 8013   3.637   8.839   1.297
 3961W        W 8014   8.553   0.285   9.522
 3962W        W 8015   7.055   0.395  11.377
 3963W        W 8016  10.353   5.040   2.211
 3964W        W 8017   4.683   6.968  10.426
 3965W        W 8018   7.134   8.984   0.310
 3966W        W 8019   6.151   4.199  11.847
 3967W        W 8020   4.278   0.762   8.461
 3968W        W 8021   1.701  10.414  10.815
 3969W        W 8022   7.888  10.427   0.268
 3970W        W 8023   4.229   5.717   8.489
 3971W        W 8024   9.880  10.405  11.775
 3972W        W 8025   6.014   2.350  11.393
 3973W        W 8026   8.877   4.687   2.303
 3974W        W 8027   5.167   6.446   8.607
 3975W        W 8028   7.060   2.218  10.412
 3976W        W 8029   0.852   8.938   0.305
 3977W        W 8030   5.667   4.745   0.424
 3978W        W 8031   7.051   7.556   0.411
 3979W        W 8032   9.854   3.238   2.342
 3980W        W 8033   2.377   2.829  11.991
 3981W        W 8034   2.643   6.144   3.253
 3982W        W 8035   9.348   9.353   2.385
 3983W        W 8036   6.982   8.970   1.220
 3984W        W 8037   2.293   7.400   1.780
 3985W        W 8038   9.326   8.359   9.392
 3986W        W 8039   3.587  10.409  10.819
 3987W        W 8040   9.931   4.108  10.983
 3988W        W 8041   6.551   1.350   2.848
 3989W        W 8042   5.674   2.358   2.349
 3990W        W 8043   1.230   9.512  11.998
 3991W        W 8044   5.973   7.402   1.340
 3992W        W 8045   5.711   7.455   2.872
 3993W        W 8046   8.414   0.301   8.599
 3994W        W 8047   1.780   0.285   2.185
 3995W        W 8048   7.433   5.160   9.118
 3996W        W 8049   2.767   3.632   9.425
 3997W        W 8050   2.676   0.460  10.976
 3998W        W 8051   5.030   2.256   9.000
 3999W        W 8052   2.346  10.384   2.724
 4000W        W 8053   4.083   1.688   1.689
 4001W        W 8054   4.268   6.645   9.568
 4002W        W 8055   0.862   9.051   9.907
 4003W        W 8056   7.090   9.835  11.433
 4004W        W 8057   7.138   1.781  11.455
 4005W        W 8058   9.418   5.607   9.590
 4006W        W 8059   6.131   3.119   3.338
 4007W        W 8060   0.776   8.494   1.888
 4008W        W 8061   9.359   1.851   8.615
 4009W        W 8062   4.634   8.981  11.324
 4010W        W 8063   5.156   9.975  10.002
 4011W        W 8064   1.382   8.061   1.420
 4012W        W 8065   1.303   2.804   0.460
 4013W        W 8066   1.754   6.121  10.434
 4014W        W 8067   9.495   0.936   1.802
 4015W        W 8068   2.325   2.282  11.469
 4016W        W 8069   4.607   3.696  10.831
 4017W        W 8070   0.789   7.079  10.810
 4018W        W 8071   1.393   0.371   3.217
 4019W        W 8072   0.428   1.824   9.870
 4020W        W 8073   9.496   7.145   0.896
 4021W        W 8074   0.361   7.481   1.402
 4022W        W 8075   3.122   4.678   1.300
 4023W        W 8076   2.781   6.037   1.808
 4024W        W 8077   4.160   8.057   8.917
 4025W        W 8078   6.094   4.184   7.986
 4026W        W 8079   6.573   3.328   0.336
 4027W        W 8080   3.104   7.615   8.544
 4028W        W 8081   7.114   0.811  11.966
 4029W        W 8082   3.335   0.279   9.479
 4030W        W 8083   2.656   9.983   2.836
 4031W        W 8084   8.556   7.977   3.246
 4032W        W 8085   6.992   9.353   2.838
 4033W        W 8086   6.177   6.987   1.855
 4034W        W 8087   6.596   7.616   3.125
 4035W        W 8088   1.201   0.917   2.258
 4036W        W 8089   4.635   9.787  11.995
 4037W        W 8090  10.397   4.608  10.331
 4038W        W 8091  10.316   7.583   1.317
 4039W        W 8092   2.790   4.294  11.397
 4040W        W 8093   5.248   1.877   9.910
 4041W        W 8094   4.678   0.416   9.565
 4042W        W 8095   5.184   1.367   2.358
 4043W        W 8096   6.193   7.145  10.892
 4044W        W 8097   0.252   0.830   1.721
 4045W        W 8098   5.692   5.209   1.706
 4046W        W 8099   5.073   0.422   8.944
 4047W        W 8100   8.084   9.436   0.278
 4048W        W 8101   4.140   5.706  10.557
 4049W        W 8102   9.819   8.970  10.391
 4050W        W 8103   4.256   6.110  10.490
 4051W        W 8104   8.536   9.062   3.749
 4052W        W 8105   0.749   3.611  10.355
 4053W        W 8106   2.328   7.462   1.314
 4054W        W 8107   0.887   8.871   9.434
 4055W        W 8108   4.638   4.144   8.936
 4056W        W 8109   3.296   3.616   1.297
 4057W        W 8110   7.410   2.785   1.430
 4058W        W 8111   9.523   5.542  10.346
 4059W        W 8112   3.122   6.573   2.874
 4060W        W 8113   9.468   9.378   9.950
 4061W        W 8114   2.644   7.581   9.036
 4062W        W 8115   7.585   3.680  11.476
 4063W        W 8116  10.378   5.691   1.397
 4064W        W 8117   4.727   4.676   3.326
 4065W        W 8118   2.680   1.198  10.983
 4066W        W 8119   7.969   0.255   1.339
 4067W        W 8120   1.740   5.630  10.412
 4068W        W 8121   7.556   7.014  11.945
 4069W        W 8122   0.288   9.312  11.001
 4070W        W 8123   2.844   7.422  11.336
 4071W        W 8124   6.628   9.473   1.385
 4072W        W 8125   5.560  10.449   1.809
 4073W        W 8126   7.522   5.134   9.573
 4074W        W 8127   8.076   2.214   1.271
 4075W        W 8128   6.200   3.693   9.997
 4076W        W 8129   5.720   7.524   0.255
 4077W        W 8130   3.285   8.000   1.914
 4078W        W 8131   5.509   7.002   9.029
 4079W        W 8132   6.134   8.932  10.906
 4080W        W 8133   8.545   6.448   2.225
 4081W        W 8134   0.263   8.459   1.883
 4082W        W 8135   7.138   5.153   2.843
 4083W        W 8136   4.193   3.776   9.020
 4084W        W 8137   8.989   4.256   1.363
 4085W        W 8138   5.019   6.922   8.055
 4086W        W 8139   6.090   1.274  11.362
 4087W        W 8140   7.951   8.947   2.843
 4088W        W 8141   3.303   7.063   0.849
 4089W        W 8142   5.237   0.361  11.037
 4090W        W 8143   4.157   4.222   1.220
 4091W        W 8144   6.519   2.725   0.282
 4092W        W 8145   2.274   3.681   3.168
 4093W        W 8146   1.813   7.450   0.419
 4094W        W 8147   6.170   3.298  11.375
 4095W        W 8148   4.708   3.793   2.808
 4096W        W 8149  10.402   4.065   2.698
 4097W        W 8150   8.020   3.634   3.286
 4098W        W 8151   8.390   0.725   3.204
 4099W        W 8152   8.515   1.858   2.826
 4100W        W 8153   1.291   6.527  10.945
 4101W        W 8154   4.255   5.703   1.728
 4102W        W 8155   3.273   2.205   3.206
 4103W        W 8156   2.667   9.526   9.984
 4104W        W 8157   6.201   1.804  10.046
 4105W        W 8158   0.781   4.069   1.733
 4106W        W 8159   5.586   7.041   8.597
 4107W        W 8160   6.008   8.501   0.800
 4108W        W 8161   8.966   6.067  10.002
 4109W        W 8162   3.720   3.760   1.295
 4110W        W 8163   8.866   4.590   2.689
 4111W        W 8164   9.815   0.824   1.203
 4112W        W 8165   5.219   9.544   9.409
 4113W        W 8166   2.262   2.719  10.856
 4114W        W 8167   1.360   6.609   0.770
 4115W        W 8168   2.802   8.915   9.565
 4116W        W 8169   0.844   3.783   3.138
 4117W        W 8170   4.096   1.300   1.767
 4118W        W 8171   0.774   7.412   8.941
 4119W        W 8172   5.715   3.621   1.366
 4120W        W 8173   8.979   0.330   9.977
 4121W        W 8174   0.917   2.667   2.849
 4122W        W 8175   3.232   6.964   2.804
 4123W        W 8176   3.277   3.698   8.912
 4124W        W 8177   8.539   0.403   2.802
 4125W        W 8178   9.814   8.995  11.386
 4126W        W 8179   5.018   6.597   0.953
 4127W        W 8180  10.485   2.661   1.843
 4128W        W 8181   8.561   6.488  10.801
 4129W        W 8182   4.262   9.039   2.686
 4130W        W 8183   9.933   3.337   9.421
 4131W        W 8184   7.596   9.338  10.887
 4132W        W 8185   6.021   5.055  11.430
 4133W        W 8186   9.477   4.255  10.518
 4134W        W 8187   6.603   4.198   2.366
 4135W        W 8188   3.585   9.890  10.322
 4136W        W 8189   7.459   2.297   9.559
 4137W        W 8190   9.838   0.952   0.242
 4138W        W 8191   5.099   3.651  10.829
 4139W        W 8192   0.418   8.096  10.386
 4140W        W 8193   0.820   7.954   2.860
 4141W        W 8194   5.146   3.292   3.206
 4142W        W 8195   9.789   0.244   0.851
 4143W        W 8196   7.635   6.018  11.773
 4144W        W 8197   3.672   1.285   9.955
 4145W        W 8198   8.476   4.262   9.956
 4146W        W 8199   2.150   3.108  11.387
 4147W        W 8200   4.201   6.143   8.934
 4148W        W 8201   4.576   4.627  11.915
 4149W        W 8202   8.113   1.307   9.006
 4150W        W 8203   9.509   0.873   2.749
 4151W        W 8204   6.461   2.209   1.788
 4152W        W 8205   4.731   1.884   1.309
 4153W        W 8206   5.652  10.374   3.279
 4154W        W 8207   4.150   7.446   9.486
 4155W        W 8208   5.593   3.206   1.808
 4156W        W 8209  10.457   3.303  10.507
 4157W        W 8210   5.105   9.050  10.833
 4158W        W 8211   8.548   2.860  10.820
 4159W        W 8212   5.547   0.722   1.411
 4160W        W 8213   4.098   7.514  10.350
 4161W        W 8214   2.339   5.636   8.611
 4162W        W 8215   1.312   6.092   2.399
 4163W        W 8216   4.771   5.151   0.884
 4164W        W 8217   0.249   7.944  10.867
 4165W        W 8218   7.500   6.095   0.910
 4166W        W 8219   4.617   5.122   2.802
 4167W        W 8220   5.167   9.862  10.341
 4168W        W 8221   5.693   6.161   9.871
 4169W        W 8222  10.486   1.292   2.714
 4170W        W 8223   7.563   1.296   3.332
 4171W        W 8224   5.639   8.922  10.056
 4172W        W 8225   2.704   5.566   9.050
 4173W        W 8226   3.691   1.750   9.900
 4174W        W 8227   5.722   2.377   1.376
 4175W        W 8228   3.302   5.691   9.978
 4176W        W 8229   8.060   2.664   0.885
 4177W        W 8230   3.198   6.197  11.411
 4178W        W 8231   2.374   6.674   8.425
 4179W        W 8232   2.336   1.712   1.270
 4180W        W 8233   4.659   5.687   1.827
 4181W        W 8234   7.148   2.280   9.527
 4182W        W 8235   0.348  10.354  11.419
 4183W        W 8236   8.427   7.154   2.180
 4184W        W 8237   6.534   3.303   1.289
 4185W        W 8238   9.500   6.136  10.380
 4186W        W 8239   8.979   6.935   9.047
 4187W        W 8240   2.197   2.687   1.716
 4188W        W 8241   0.931   8.552   9.910
 4189W        W 8242   1.680   8.360   2.727
 4190W        W 8243   2.772   9.346   8.927
 4191W        W 8244   8.859   8.951   9.532
 4192W        W 8245   6.143   6.654  11.284
 4193W        W 8246   8.575   5.166   9.507
 4194W        W 8247   5.238   2.683   3.253
 4195W        W 8248   1.888   3.257   1.705
 4196W        W 8249   4.190   6.638  10.839
 4197W        W 8250   2.850   8.933  11.789
 4198W        W 8251   0.844   9.325   1.777
 4199W        W 8252   7.406  10.299   1.916
 4200W        W 8253   9.891   4.622  10.035
 4201W        W 8254   4.067   0.388   3.344
 4202W        W 8255   4.577   8.908   0.790
 4203W        W 8256   7.418   5.719   2.168
 4204W        W 8257   0.913   3.795  10.802
 4205W        W 8258   3.158   2.271   2.230
 4206W        W 8259  10.442   9.936   1.334
 4207W        W 8260   6.018   9.408   3.331
 4208W        W 8261   6.990   8.112  10.831
 4209W        W 8262   0.923   5.070   2.298
 4210W        W 8263   0.438   1.897   2.223
 4211W        W 8264   1.330   6.625   9.091
 4212W        W 8265   4.660   1.727   2.213
 4213W        W 8266   0.893   3.110   9.114
 4214W        W 8267   2.688   6.497   0.758
 4215W        W 8268   0.350   7.565  11.343
 4216W        W 8269   3.711   0.261   1.820
 4217W        W 8270   0.800   1.753  11.378
 4218W        W 8271   5.058   4.287   9.076
 4219W        W 8272   7.597   0.788   1.904
 4220W        W 8273   5.561   6.445   3.663
 4221W        W 8274   1.400   5.984   9.913
 4222W        W 8275   9.966   4.138   0.375
 4223W        W 8276   8.379   1.333   3.342
 4224W        W 8277  10.294   5.638   2.694
 4225W        W 8278   5.522   6.954   9.990
 4226W        W 8279   7.543   2.780   1.760
 4227W        W 8280   9.455  10.357   9.841
 4228W        W 8281   0.401   5.623  10.938
 4229W        W 8282   4.716   7.887  10.441
 4230W        W 8283   8.986   1.340   9.414
 4231W        W 8284   1.330   4.114   1.890
 4232W        W 8285   3.610   6.039  11.847
 4233W        W 8286   6.639   8.528   2.664
 4234W        W 8287   3.305   6.933   8.918
 4235W        W 8288   1.411   2.302  11.861
 4236W        W 8289   8.047   9.364  10.514
 4237W        W 8290   6.663   4.242   9.595
 4238W        W 8291   8.420   2.629  11.902
 4239W        W 8292   7.979   9.818   0.295
 4240W        W 8293   7.552   6.550   0.380
 4241W        W 8294   8.918   9.423   2.258
 4242W        W 8295   4.590   4.176   3.289
 4243W        W 8296   6.036   8.444   9.419
 4244W        W 8297   3.700   1.315   1.774
 4245W        W 8298   0.838   6.977   9.551
 4246W        W 8299   8.082   1.889  11.957
 4247W        W 8300   6.555   6.534  11.353
 4248W        W 8301  10.453   8.414   3.279
 4249W        W 8302   9.417   3.741   9.085
 4250W        W 8303   4.102   7.605  11.354
 4251W        W 8304  10.463   9.393   0.952
 4252W        W 8305   4.695   8.855   3.163
 4253W        W 8306   3.122   3.670  10.077
 4254W        W 8307   5.978   9.512  10.989
 4255W        W 8308  10.343   9.922  11.329
 4256W        W 8309   1.399   3.715   2.877
 4257W        W 8310   7.526   1.215  10.516
 4258W        W 8311   8.531   7.038  10.940
 4259W        W 8312   4.211   5.145   8.456
 4260W        W 8313   2.184   3.710   8.962
 4261W        W 8314   4.709   6.016   0.908
 4262W        W 8315   1.787   3.269  11.856
 4263W        W 8316   3.291   7.080  10.374
 4264W        W 8317   9.402   2.643   1.694
 4265W        W 8318   3.612   2.710   2.329
 4266W        W 8319   4.643   7.085   2.168
 4267W        W 8320   6.001   2.319  10.412
 4268W        W 8321   1.696   6.089   1.725
 4269W        W 8322   7.882  10.005  11.921
 4270W        W 8323   6.495   6.148  11.932
 4271W        W 8324   9.424   9.007   1.253
 4272W        W 8325   9.434  10.380   2.667
 4273W        W 8326   1.871   9.836   0.752
 4274W        W 8327   2.273   9.823  10.379
 4275W        W 8328   0.412   3.155   0.788
 4276W        W 8329   2.378   4.711  10.911
 4277W        W 8330   3.323   4.726   3.763
 4278W        W 8331  10.354   2.787   0.466
 4279W        W 8332  10.471   8.000  10.989
 4280W        W 8333   5.234   9.545   0.903
 4281W        W 8334   4.618   2.318   1.341
 4282W        W 8335   1.704   8.396  11.797
 4283W        W 8336   3.237   7.124   1.234
 4284W        W 8337   0.457   5.048   3.726
 4285W        W 8338   8.920   6.453   8.455
 4286W        W 8339   7.071   4.161   0.920
 4287W        W 8340   1.271   7.915   0.467
 4288W        W 8341   2.653   9.836   1.914
 4289W        W 8342   2.383   6.643  11.776
 4290W        W 8343   1.822   9.409  11.300
 4291W        W 8344   6.177   4.149   9.057
 4292W        W 8345   8.113   9.982   9.958
 4293W        W 8346   7.967   8.467   2.742
 4294W        W 8347   9.450   1.689   9.852
 4295W        W 8348   3.792   3.606   2.183
 4296W        W 8349   3.809   9.418   9.998
 4297W        W 8350   1.355   3.239  11.768
 4298W        W 8351   2.268   3.811  10.066
 4299W        W 8352   3.331   9.008   3.150
 4300W        W 8353   8.382   5.246  10.907
 4301W        W 8354   3.272   0.759   2.771
 4302W        W 8355   3.591   4.630   8.478
 4303W        W 8356  10.330   6.017   2.827
 4304W        W 8357   6.529   4.732   1.215
 4305W        W 8358   3.590   4.708   1.784
 4306W        W 8359   2.664   2.174   9.017
 4307W        W 8360   4.253  10.013  10.511
 4308W        W 8361   7.139   2.170  10.025
 4309W        W 8362   9.494   2.818  10.993
 4310W        W 8363   1.751   7.541   8.931
 4311W        W 8364   6.538   6.066   4.132
 4312W        W 8365   1.783   7.142  11.808
 4313W        W 8366  10.433  10.315   9.541
 4314W        W 8367   0.338   3.211   1.418
 4315W        W 8368   9.391   5.643   0.765
 4316W        W 8369   8.936   5.209   9.097
 4317W        W 8370   8.423   6.651   1.829
 4318W        W 8371   0.758   4.741  10.942
 4319W        W 8372   2.339   4.660  11.318
 4320W        W 8373   3.750   8.531   9.446
 4321W        W 8374   2.221   0.764   1.319
 4322W        W 8375   6.185   9.824   9.368
 4323W        W 8376   5.187   4.192   8.534
 4324W        W 8377   6.062   2.330   1.685
 4325W        W 8378   4.689   6.113  10.477
 4326W        W 8379  10.294   3.239  11.844
 4327W        W 8380   8.409   4.058   0.251
 4328W        W 8381   7.944   8.843   2.386
 4329W        W 8382   2.794   8.470   2.791
 4330W        W 8383   3.109  10.402   2.824
 4331W        W 8384  10.493  10.376   0.910
 4332W        W 8385   2.636  10.352  11.900
 4333W        W 8386   8.492   6.640   2.865
 4334W        W 8387   0.250   6.462   9.520
 4335W        W 8388   4.238   9.456   1.273
 4336W        W 8389   3.640   0.318   8.624
 4337W        W 8390   6.604   3.795   1.775
 4338W        W 8391   8.911  10.383  11.900
 4339W        W 8392   0.322   9.046   2.165
 4340W        W 8393   1.294   1.245  11.994
 4341W        W 8394   8.991   9.843   2.739
 4342W        W 8395   0.393   0.830  11.021
 4343W        W 8396   6.111   6.581   3.706
 4344W        W 8397   6.189   0.734  10.828
 4345W        W 8398   7.925   0.836   0.264
 4346W        W 8399   9.489   7.532  11.932
 4347W        W 8400   2.375   1.244   9.056
 4348W        W 8401   1.846   9.956  11.844
 4349W        W 8402   3.283   7.462  11.496
 4350W        W 8403   0.244   2.715   0.941
 4351W        W 8404   2.636   2.292  11.468
 4352W        W 8405   5.103   9.909  11.973
 4353W        W 8406   6.523   8.556   1.846
 4354W        W 8407   4.746   5.709  11.914
 4355W        W 8408   1.677   7.947   9.885
 4356W        W 8409   1.308   2.774   2.746
 4357W        W 8410   9.975   7.124   0.729
 4358W        W 8411   6.628  10.379   9.483
 4359W        W 8412   4.277   8.379   9.879
 4360W        W 8413   6.156  10.449  11.960
 4361W        W 8414   0.272   5.236   0.881
 4362W        W 8415  10.300   6.634   8.928
 4363W        W 8416   8.072   4.066   9.598
 4364W        W 8417   3.184   2.221  10.330
 4365W        W 8418   7.620   5.082  11.449
 4366W        W 8419   6.459   6.997   0.374
 4367W        W 8420   6.113   1.819  11.962
 4368W        W 8421   9.441   0.382   1.242
 4369W        W 8422   6.092   5.558   9.901
 4370W        W 8423   8.990   5.710   2.289
 4371W        W 8424   9.471  10.447   0.923
 4372W        W 8425   0.357   6.119   9.504
 4373W        W 8426   7.598   6.190   2.683
 4374W        W 8427   6.021   6.076   9.470
 4375W        W 8428   6.607   3.255   9.438
 4376W        W 8429   0.822   9.051   2.806
 4377W        W 8430   4.617   2.728   1.843
 4378W        W 8431   3.303   0.351  11.386
 4379W        W 8432   4.060   0.949  10.467
 4380W        W 8433  10.389   6.939   8.960
 4381W        W 8434   3.681   3.284   2.852
 4382W        W 8435   7.566   4.117   4.088
 4383W        W 8436   9.541   6.196  11.343
 4384W        W 8437   2.649   7.487  11.897
 4385W        W 8438   0.298   7.561  11.980
 4386W        W 8439   6.955   5.044   1.722
 4387W        W 8440   0.346   5.133   2.813
 4388W        W 8441   4.272   6.054   2.819
 4389W        W 8442   3.678   3.765  10.405
 4390W        W 8443   5.554   1.827   0.742
 4391W        W 8444   3.690   0.720   9.030
 4392W        W 8445   7.603   1.259  10.950
 4393W        W 8446   2.749   9.955   8.986
 4394W        W 8447   4.615   9.955   0.815
 4395W        W 8448   6.604   8.426   2.194
 4396W        W 8449   5.089   4.244  10.030
 4397W        W 8450   6.956   0.827   9.476
 4398W        W 8451   2.171   6.950   1.833
 4399W        W 8452   8.832   2.789  11.906
 4400W        W 8453   5.100   6.534   2.324
 4401W        W 8454   0.736   2.386   1.244
 4402W        W 8455   9.049   8.830   0.854
 4403W        W 8456   9.802   8.050   2.684
 4404W        W 8457   3.282   7.630  10.357
 4405W        W 8458   4.661   6.170  11.512
 4406W        W 8459   7.008   5.500   0.856
 4407W        W 8460   7.970   6.601   0.763
 4408W        W 8461   8.406   6.007  11.402
 4409W        W 8462   6.145   2.758  11.027
 4410W        W 8463   8.371   6.080   2.791
 4411W        W 8464   9.907   6.165  10.963
 4412W        W 8465   2.181   8.475   2.340
 4413W        W 8466   8.980   2.665   0.908
 4414W        W 8467   9.415   5.550   1.845
 4415W        W 8468   4.236   8.977   0.795
 4416W        W 8469   2.695   9.976  10.499
 4417W        W 8470   5.013   9.502   1.432
 4418W        W 8471   7.034   7.470   9.116
 4419W        W 8472  10.019   6.650  10.996
 4420W        W 8473   4.103   3.751  11.918
 4421W        W 8474   9.929   2.863   8.944
 4422W        W 8475   2.740   9.800  11.478
 4423W        W 8476   5.611   0.946   0.872
 4424W        W 8477   0.425   7.074   3.273
 4425W        W 8478   5.616  10.426   9.528
 4426W        W 8479   7.880   3.307   9.888
 4427W        W 8480   7.519   1.426   8.882
 4428W        W 8481   5.538   5.644   1.890
 4429W        W 8482   9.461   4.534   2.310
 4430W        W 8483   9.884   4.201   1.831
 4431W        W 8484   9.450   9.056  11.031
 4432W        W 8485   6.050   3.761   9.371
 4433W        W 8486   2.626   8.368   0.393
 4434W        W 8487   1.258   4.710   0.756
 4435W        W 8488   9.880   9.005  10.901
 4436W        W 8489   9.958   5.226   0.829
 4437W        W 8490   1.386   6.022   9.588
 4438W        W 8491   7.911   6.163   9.409
 4439W        W 8492   5.062   0.470  10.326
 4440W        W 8493   5.146   3.634   0.351
 4441W        W 8494   2.758   1.238  10.440
 4442W        W 8495   8.479   1.894   2.304
 4443W        W 8496   4.736   3.723  11.471
 4444W        W 8497   5.054   9.935   9.516
 4445W        W 8498   1.312   6.538   2.819
 4446W        W 8499   0.454   8.397   2.642
 4447W        W 8500   6.172   4.240   2.711
 4448W        W 8501   7.926   0.413  10.069
 4449W        W 8502   3.637   9.851   3.163
 4450W        W 8503   5.726   8.478  10.488
 4451W        W 8504   9.540   7.072   0.259
 4452W        W 8505   2.297   7.068   2.351
 4453W        W 8506   2.727   1.762   9.558
 4454W        W 8507   2.244   7.875  10.525
 4455W        W 8508   6.094   4.244   0.286
 4456W        W 8509   4.281   7.955   2.776
 4457W        W 8510   2.668   4.614   9.452
 4458W        W 8511  10.448   8.480   1.722
 4459W        W 8512   1.882   0.292   8.939
 4460W        W 8513   2.271   4.287  11.469
 4461W        W 8514   4.717   6.078  11.779
 4462W        W 8515   6.004   0.718   2.384
 4463W        W 8516   4.726   8.978   9.453
 4464W        W 8517   8.404   0.935   1.239
 4465W        W 8518   8.493   2.685   2.333
 4466W        W 8519   4.616  10.348   1.825
 4467W        W 8520   9.015   0.814  10.894
 4468W        W 8521   0.738   8.559   3.280
 4469W        W 8522   6.127   1.908   1.286
 4470W        W 8523   5.198   7.929   2.704
 4471W        W 8524   0.390   1.715   1.692
 4472W        W 8525   7.477   7.051  10.390
 4473W        W 8526   8.463   5.077   3.336
 4474W        W 8527   7.146   5.501   3.683
 4475W        W 8528  10.408   4.146  11.968
 4476W        W 8529   0.270   7.559   1.865
 4477W        W 8530   9.972   5.502   1.320
 4478W        W 8531   5.556   3.592  11.892
 4479W        W 8532   4.266   2.385  11.421
 4480W        W 8533   6.038   4.169   0.781
 4481W        W 8534   8.037   3.668  10.948
 4482W        W 8535   3.335   0.348   2.876
 4483W        W 8536   5.630   8.836  11.474
 4484W        W 8537   2.795   0.793  10.413
 4485W        W 8538   6.682   1.330   0.322
 4486W        W 8539   7.611   5.560   9.956
 4487W        W 8540   4.281   3.691   1.397
 4488W        W 8541   3.680   9.968  11.996
 4489W        W 8542   4.201   9.404   2.705
 4490W        W 8543   5.659   6.576  10.369
 4491W        W 8544   9.536   1.424  10.989
 4492W        W 8545   8.040   3.613  10.489
 4493W        W 8546   0.741   5.608  11.352
 4494W        W 8547   0.466   1.886   0.814
 4495W        W 8548   4.079   7.072   0.809
 4496W        W 8549   4.262   0.945  11.962
 4497W        W 8550   5.012   8.405   9.400
 4498W        W 8551   1.823   2.323   9.971
 4499W        W 8552   3.219   6.049   9.569
 4500W        W 8553   7.144   9.824   0.289
 4501W        W 8554   1.742   7.439   3.806
 4502W        W 8555   8.461   3.136   9.879
 4503W        W 8556   6.553   2.315  11.379
 4504W        W 8557   1.878   7.130  10.355
 4505W        W 8558   0.435   6.016   1.914
 4506W        W 8559   6.142   6.947   9.525
 4507W        W 8560   2.782   5.177   3.215
 4508W        W 8561   1.783   0.401   1.849
 4509W        W 8562   1.730   8.000  11.860
 4510W        W 8563   6.061   8.458  10.445
 4511W        W 8564   6.939   2.269   2.284
 4512W        W 8565   5.994   9.009   9.098
 4513W        W 8566   9.010   5.968  10.495
 4514W        W 8567   6.457   2.848   3.217
 4515W        W 8568   7.031   2.770   1.322
 4516W        W 8569  10.010   6.492  11.447
 4517W        W 8570   9.409   3.677   1.383
 4518W        W 8571   0.869   6.055   2.347
 4519W        W 8572   8.020   8.094   1.247
 4520W        W 8573   4.057   3.336   3.347
 4521W        W 8574   0.471   8.967   0.296
 4522W        W 8575   5.623   0.252   2.268
 4523W        W 8576   2.316   0.334  10.421
 4524W        W 8577   9.994   6.509   9.507
 4525W        W 8578   3.719   3.183   0.440
 4526W        W 8579   8.958   4.677   9.579
 4527W        W 8580   0.867   9.411  11.434
 4528W        W 8581   1.212   1.272   2.704
 4529W        W 8582   1.700   5.661  11.949
 4530W        W 8583   8.050   6.993  11.420
 4531W        W 8584   9.315   0.277   3.148
 4532W        W 8585   1.365   9.480   0.936
 4533W        W 8586   8.436   0.415   2.333
 4534W        W 8587  10.414   4.269   1.705
 4535W        W 8588   7.033   5.170   1.283
 4536W        W 8589   8.427  10.430   2.174
 4537W        W 8590   3.212   3.198  11.490
 4538W        W 8591   4.760   6.985   0.414
 4539W        W 8592   3.301   5.663  10.872
 4540W        W 8593   9.795   5.699   8.930
 4541W        W 8594   8.030   8.989  10.886
 4542W        W 8595   2.852   0.465  11.979
 4543W        W 8596   9.018   3.648   9.999
 4544W        W 8597   5.721   5.152   2.343
 4545W        W 8598   4.178  10.293   2.241
 4546W        W 8599   0.316   8.055   1.806
 4547W        W 8600   0.793   6.614  10.998
 4548W        W 8601   0.809   3.742   8.405
 4549W        W 8602   5.623   7.038   2.751
 4550W        W 8603   8.580   1.820  10.968
 4551W        W 8604   6.506   0.914  11.018
 4552W        W 8605   5.687   1.698  10.465
 4553W        W 8606   8.476   7.458  11.448
 4554W        W 8607   5.160   8.934   2.266
 4555W        W 8608   7.065   5.053   9.988
 4556W        W 8609   9.957   6.041   0.269
 4557W        W 8610   7.001   3.261   9.944
 4558W        W 8611   4.658   3.622   2.294
 4559W        W 8612   8.587   7.114  10.067
 4560W        W 8613   5.540   7.442   3.327
 4561W        W 8614   3.700   7.122  11.030
 4562W        W 8615   2.773   0.807  10.977
 4563W        W 8616   8.063   8.859  11.862
 4564W        W 8617   9.834   5.124  11.802
 4565W        W 8618   8.874   1.809   9.597
 4566W        W 8619   6.032   3.811  11.795
 4567W        W 8620   7.512   0.431  10.365
 4568W        W 8621   1.217   2.239  10.888
 4569W        W 8622   3.255   3.261   1.410
 4570W        W 8623   8.913   8.044   2.784
 4571W        W 8624   4.595   9.326   0.453
 4572W        W 8625   7.125   1.811   1.286
 4573W        W 8626   2.190   8.585  10.025
 4574W        W 8627   4.176   9.936  10.933
 4575W        W 8628   3.338   5.677   1.696
 4576W        W 8629   5.592   3.220   9.486
 4577W        W 8630   6.937   8.107  10.366
 4578W        W 8631   6.526   5.106   1.365
 4579W        W 8632   9.819   0.837  11.885
 4580W        W 8633   4.100   9.906  11.869
 4581W        W 8634   3.637   7.031   1.292
 4582W        W 8635   1.357   0.424   1.296
 4583W        W 8636   6.202   5.603  11.479
 4584W        W 8637   3.785   4.123   2.357
 4585W        W 8638   4.106   4.271   2.745
 4586W        W 8639   3.204   4.551   3.187
 4587W        W 8640   9.027   6.922   2.717
 4588W        W 8641   2.639   8.442   3.216
 4589W        W 8642   3.763   0.875   1.725
 4590W        W 8643   4.731   6.635   9.882
 4591W        W 8644   2.767   0.391  11.441
 4592W        W 8645   3.236   3.286  11.014
 4593W        W 8646   9.516   9.435   3.239
 4594W        W 8647   6.930   2.850  11.373
 4595W        W 8648   1.304   1.702   1.683
 4596W        W 8649   5.153   7.147   1.383
 4597W        W 8650   7.066   7.041   2.238
 4598W        W 8651   8.057   7.076   2.387
 4599W        W 8652   5.617   3.612   2.845
 4600W        W 8653   9.028   9.801   3.170
 4601W        W 8654   3.760   4.607   1.267
 4602W        W 8655   6.101   8.476  11.950
 4603W        W 8656   1.207   8.008   2.281
 4604W        W 8657   7.956   0.270   2.828
 4605W        W 8658   1.904   8.961  10.932
 4606W        W 8659   1.730   9.421   9.981
 4607W        W 8660   4.756   2.846   2.657
 4608W        W 8661   9.958   1.343   1.386
 4609W        W 8662   6.119   0.249   2.226
 4610W        W 8663   6.668   7.126   1.213
 4611W        W 8664   3.588   4.293   0.299
 4612W        W 8665   3.707   0.802   3.255
 4613W        W 8666   7.946   5.202   9.940
 4614W        W 8667   7.124   8.392  10.057
 4615W        W 8668   4.687   8.968  10.430
 4616W        W 8669   0.836   0.886   1.812
 4617W        W 8670   4.124   7.405   0.357
 4618W        W 8671   2.638   0.843   0.883
 4619W        W 8672   2.790   0.252   2.796
 4620W        W 8673   7.500   3.309   0.788
 4621W        W 8674   4.247   5.490  10.046
 4622W        W 8675   0.388   2.812   2.650
 4623W        W 8676   4.250   4.257   9.089
 4624W        W 8677   7.460   3.692  11.874
 4625W        W 8678   1.872   6.552  10.537
 4626W        W 8679   3.644   4.681  11.924
 4627W        W 8680   8.497   8.835   2.870
 4628W        W 8681   6.556   8.029  10.980
 4629W        W 8682  10.476   6.584  11.482
 4630W        W 8683   6.100   5.505   8.979
 4631W        W 8684   0.731   6.081   2.745
 4632W        W 8685  10.321   6.477   1.323
 4633W        W 8686   8.407  10.479  10.883
 4634W        W 8687  10.488   2.689   9.979
 4635W        W 8688   9.880   5.124  10.991
 4636W        W 8689   5.097   2.665  11.478
 4637W        W 8690   0.423   9.043  11.408
 4638W        W 8691   2.808   2.338   8.500
 4639W        W 8692   8.832   0.731   9.403
 4640W        W 8693   3.682   4.168  11.781
 4641W        W 8694   9.031   8.839  10.474
 4642W        W 8695   8.487   5.097   2.270
 4643W        W 8696   1.242   2.838   0.738
 4644W        W 8697   9.428   6.530   9.362
 4645W        W 8698   7.152   8.409   0.873
 4646W        W 8699   9.813   2.303   1.759
 4647W        W 8700   5.503   4.628   2.811
 4648W        W 8701   2.852  10.493  10.374
 4649W        W 8702   4.683   0.261   2.203
 4650W        W 8703   6.645   6.132  10.000
 4651W        W 8704   5.995   8.391   3.252
 4652W        W 8705   3.187   7.908   2.310
 4653W        W 8706   5.174   8.938   9.031
 4654W        W 8707   6.521   3.762  10.057
 4655W        W 8708   2.648   3.311   9.969
 4656W        W 8709   0.913   6.202  10.871
 4657W        W 8710   8.867   7.504   3.249
 4658W        W 8711   7.013   6.473   3.735
 4659W        W 8712  10.450   4.685   9.915
 4660W        W 8713   5.595   0.332   1.682
 4661W        W 8714   5.726   3.683   1.899
 4662W        W 8715   8.530   7.631   1.322
 4663W        W 8716   6.521   4.689   4.258
 4664W        W 8717   1.702   9.900   1.359
 4665W        W 8718   8.458   4.249   9.389
 4666W        W 8719   0.420   2.805  11.954
 4667W        W 8720   5.201   8.559   2.747
 4668W        W 8721   8.403   5.136   3.714
 4669W        W 8722   8.100  10.394   9.115
 4670W        W 8723  10.423   2.661  11.978
 4671W        W 8724   4.181   8.526   2.719
 4672W        W 8725   9.509   9.890  10.812
 4673W        W 8726   3.752   4.554   9.585
 4674W        W 8727   1.197   7.607   9.099
 4675W        W 8728   4.696   2.198  11.886
 4676W        W 8729   8.886   0.379  11.486
 4677W        W 8730   3.733   5.662   8.538
 4678W        W 8731   3.744   2.210   1.436
 4679W        W 8732   2.278   2.151   9.050
 4680W        W 8733   7.433   4.615   0.846
 4681W        W 8734   5.086   0.894   9.446
 4682W        W 8735   7.159   8.436   1.773
 4683W        W 8736   9.335   3.160   3.165
 4684W        W 8737   0.726   1.203   9.064
 4685W        W 8738   1.233   8.050  10.980
 4686W        W 8739  10.386   0.327   2.210
 4687W        W 8740   5.556   6.978  10.968
 4688W        W 8741   6.550  10.277   3.356
 4689W        W 8742   8.404   1.264  10.897
 4690W        W 8743   7.530   4.631  10.862
 4691W        W 8744   4.714   4.729  10.558
 4692W        W 8745   3.606   0.766  11.809
 4693W        W 8746   9.459   3.669  10.407
 4694W        W 8747   8.584   3.292   9.516
 4695W        W 8748   3.241   5.711  11.899
 4696W        W 8749   5.618   4.695   9.915
 4697W        W 8750   0.316   0.894  10.021
 4698W        W 8751   3.245   5.699   8.496
 4699W        W 8752   1.795   8.104  10.487
 4700W        W 8753   6.586  10.317   1.759
 4701W        W 8754   8.060   9.929   1.688
 4702W        W 8755   4.744   7.886  11.302
 4703W        W 8756   2.673   0.944   1.214
 4704W        W 8757   6.121   7.453  11.984
 4705W        W 8758   9.307   2.386   9.429
 4706W        W 8759   1.749   6.665   2.803
 4707W        W 8760   1.703   6.970   9.940
 4708W        W 8761   0.256   1.769   9.518
 4709W        W 8762   8.504   6.164  11.886
 4710W        W 8763   3.113   2.808   9.032
 4711W        W 8764   9.872   0.951   1.831
 4712W        W 8765   5.624   8.998   0.747
 4713W        W 8766   6.094   3.178  11.846
 4714W        W 8767   9.925   1.697  11.899
 4715W        W 8768   3.144   4.123  11.840
 4716W        W 8769   1.821   1.363  10.473
 4717W        W 8770   3.646  10.474  11.414
 4718W        W 8771   0.307   6.980   9.065
 4719W        W 8772   7.094   5.663   1.394
 4720W        W 8773   5.552   2.863   9.883
 4721W        W 8774   8.474   2.361   1.727
 4722W        W 8775   8.508   9.823   0.412
 4723W        W 8776   6.646   9.320   0.263
 4724W        W 8777   7.041   4.749   4.279
 4725W        W 8778   8.418   3.735   9.884
 4726W        W 8779   3.333   2.308   1.317
 4727W        W 8780   1.321   5.246   1.397
 4728W        W 8781   0.376   0.766   3.299
 4729W        W 8782   7.897   5.073  10.861
 4730W        W 8783   0.805   5.038   9.947
 4731W        W 8784  10.333   5.597   9.597
 4732W        W 8785  10.269   3.620   8.480
 4733W        W 8786   9.024   4.642  10.411
 4734W        W 8787   7.584   0.326   0.359
 4735W        W 8788   5.233   4.127   2.243
 4736W        W 8789   9.894   9.802   3.254
 4737W        W 8790   1.865   8.371  10.880
 4738W        W 8791   9.338   4.139  11.858
 4739W        W 8792   1.317   5.580   9.987
 4740W        W 8793   2.261   8.435   9.557
 4741W        W 8794   8.425   6.538  11.384
 4742W        W 8795   8.514   8.505   3.274
 4743W        W 8796   7.552   9.919   1.287
 4744W        W 8797   7.078   3.774  10.379
 4745W        W 8798   9.497   6.029  11.029
 4746W        W 8799   7.951  10.387   1.766
 4747W        W 8800   4.725   6.010   9.511
 4748W        W 8801   6.133   6.079   2.384
 4749W        W 8802   7.451   2.355  10.491
 4750W        W 8803   6.632   0.275   0.813
 4751W        W 8804   5.979   0.849   8.425
 4752W        W 8805   7.541   0.792   0.246
 4753W        W 8806   9.503   3.796  10.002
 4754W        W 8807  10.273   9.028   2.186
 4755W        W 8808   6.065   8.007   1.770
 4756W        W 8809  10.305   1.814   0.382
 4757W        W 8810   7.008   5.204   0.293
 4758W        W 8811   8.556   3.160   2.287
 4759W        W 8812   2.631   5.136   9.006
 4760W        W 8813   7.989   6.058   9.981
 4761W        W 8814   4.194   6.611  10.432
 4762W        W 8815   3.817   3.793   9.078
 4763W        W 8816   0.789   3.751   9.061
 4764W        W 8817   4.076   3.322  10.511
 4765W        W 8818   3.776   6.623   9.960
 4766W        W 8819   0.721   0.894   3.236
 4767W        W 8820   2.791   8.354  10.905
 4768W        W 8821   4.668   5.154   9.541
 4769W        W 8822   5.557   5.648  10.863
 4770W        W 8823   5.189   5.089   1.750
 4771W        W 8824   7.487   0.818   9.431
 4772W        W 8825   5.108   5.998  10.928
 4773W        W 8826   6.677   6.026   3.322
 4774W        W 8827   5.589   1.227   9.439
 4775W        W 8828  10.264   3.213   0.336
 4776W        W 8829   2.362   5.045  11.497
 4777W        W 8830   9.927   4.089   3.617
 4778W        W 8831   9.358   6.528   2.186
 4779W        W 8832   2.780   1.309   9.519
 4780W        W 8833  10.297   8.911  10.841
 4781W        W 8834   0.759   3.142  11.995
 4782W        W 8835   4.614   6.604   3.659
 4783W        W 8836   2.631   5.045  11.894
 4784W        W 8837   7.594   0.769   9.915
 4785W        W 8838   0.899  10.447   3.626
 4786W        W 8839   3.143  10.348   1.224
 4787W        W 8840   8.523   7.440   2.263
 4788W        W 8841   8.515   7.605   2.845
 4789W        W 8842   0.824   7.406   0.462
 4790W        W 8843   0.772   9.536   0.898
 4791W        W 8844   0.942   9.949  11.392
 4792W        W 8845   9.023   9.862  11.808
 4793W        W 8846   1.316   6.071   2.726
 4794W        W 8847  10.461  10.015   0.894
 4795W        W 8848   4.659   2.796  11.297
 4796W        W 8849   1.729   0.775   3.150
 4797W        W 8850   1.849   2.376   2.238
 4798W        W 8851   6.116   0.395  11.954
 4799W        W 8852   8.062   5.036   1.440
 4800W        W 8853   2.855   2.638   2.357
 4801W        W 8854   0.380   3.684  10.513
 4802W        W 8855   3.738   5.977   9.948
 4803W        W 8856   6.628   5.250   0.774
 4804W        W 8857   6.523   6.132   9.580
 4805W        W 8858   6.578   8.354   0.769
 4806W        W 8859   2.323   0.770   2.697
 4807W        W 8860   6.667   8.908  11.785
 4808W        W 8861   1.759   3.176   8.912
 4809W        W 8862   5.177   7.547   9.901
 4810W        W 8863   1.734   9.974   0.249
 4811W        W 8864   9.017   1.696   8.483
 4812W        W 8865   6.525   0.735   2.350
 4813W        W 8866   9.510   6.586   3.162
 4814W        W 8867   2.153   3.245   9.086
 4815W        W 8868   1.811   7.503  11.933
 4816W        W 8869   1.357   6.013  10.457
 4817W        W 8870   3.809   4.579   8.953
 4818W        W 8871   3.665   8.559   9.053
 4819W        W 8872   4.232   2.254   9.114
 4820W        W 8873   1.205   7.934   9.555
 4821W        W 8874   4.212   4.682   7.934
 4822W        W 8875   3.783   2.633  10.931
 4823W        W 8876   4.168  10.457   1.716
 4824W        W 8877   6.522   9.995   1.299
 4825W        W 8878   6.981   6.089   2.252
 4826W        W 8879   4.133   9.822   9.435
 4827W        W 8880   3.757   0.793   0.724
 4828W        W 8881  10.450   3.770   0.783
 4829W        W 8882   1.287   1.263  11.289
 4830W        W 8883   9.417   7.939   0.869
 4831W        W 8884   5.514   3.302   8.991
 4832W        W 8885   7.029   2.364  11.448
 4833W        W 8886   0.829   4.276  11.348
 4834W        W 8887   9.520  10.323  10.853
 4835W        W 8888   1.327  10.302   9.975
 4836W        W 8889   4.160   0.417  11.508
 4837W        W 8890   2.722   9.905  10.075
 4838W        W 8891   4.059   2.744   3.304
 4839W        W 8892  10.480   9.421  10.406
 4840W        W 8893   3.146   8.516   1.716
 4841W        W 8894   3.201   3.143   2.642
 4842W        W 8895   3.312   5.133  10.528
 4843W        W 8896   5.206  10.296   2.257
 4844W        W 8897   9.465   1.870   1.410
 4845W        W 8898   4.210   9.009   3.290
 4846W        W 8899   2.191   5.210   9.023
 4847W        W 8900   8.014   8.390   0.246
 4848W        W 8901   0.285   4.112   9.370
 4849W        W 8902   4.678   7.025   3.780
 4850W        W 8903   9.869   4.772   0.905
 4851W        W 8904   8.074   8.904   1.717
 4852W        W 8905   0.841   9.882  10.920
 4853W        W 8906   5.112   0.333  11.774
 4854W        W 8907   5.083   7.062   9.558
 4855W        W 8908  10.022   4.174  11.871
 4856W        W 8909   1.287   5.718   8.467
 4857W        W 8910   5.678   9.823  10.328
 4858W        W 8911   2.290   4.576   2.218
 4859W        W 8912   4.099   7.116   9.959
 4860W        W 8913   7.151   4.668   0.953
 4861W        W 8914   5.716   9.910  11.780
 4862W        W 8915   9.382   3.180   8.618
 4863W        W 8916   8.018   4.265  11.377
 4864W        W 8917   6.589   9.838  10.486
 4865W        W 8918   5.614   3.709   4.149
 4866W        W 8919   2.731   6.532  11.805
 4867W        W 8920   6.958   7.452   3.608
 4868W        W 8921   2.151  10.486   2.284
 4869W        W 8922   9.847   2.345  10.371
 4870W        W 8923   7.120   4.735   0.370
 4871W        W 8924   3.767   9.329   2.169
 4872W        W 8925   0.422   4.117   2.812
 4873W        W 8926   3.187   0.462   8.885
 4874W        W 8927   0.777   6.662   1.805
 4875W        W 8928   6.464   2.724  11.774
 4876W        W 8929   6.202   8.942   3.821
 4877W        W 8930   4.615   1.723   9.887
 4878W        W 8931   0.774   3.608   2.337
 4879W        W 8932   4.731   0.469   9.081
 4880W        W 8933   0.862   6.527   0.773
 4881W        W 8934   0.377   2.264  11.010
 4882W        W 8935  10.365   0.803   0.797
 4883W        W 8936   3.703   3.732  11.961
 4884W        W 8937   7.532   8.974  11.928
 4885W        W 8938   8.429   1.426   9.982
 4886W        W 8939   6.949   7.442  10.463
 4887W        W 8940   0.340   9.916   1.421
 4888W        W 8941   5.119   6.996   0.409
 4889W        W 8942   5.048  10.389   1.299
 4890W        W 8943   4.539   7.015   1.842
 4891W        W 8944   6.565   0.270   9.887
 4892W        W 8945   0.775  10.388   0.450
 4893W        W 8946   8.515   3.277  10.354
 4894W        W 8947   2.813   5.194   0.950
 4895W        W 8948   6.070   3.327   2.740
 4896W        W 8949   2.282   6.488   9.539
 4897W        W 8950   4.726   3.193   3.837
 4898W        W 8951   6.930   0.796  10.388
 4899W        W 8952   6.474   4.564   2.295
 4900W        W 8953   1.723   8.361  10.409
 4901W        W 8954   2.790   0.779  11.518
 4902W        W 8955   7.603   1.788   8.420
 4903W        W 8956   9.419   6.651   1.413
 4904W        W 8957   0.726   0.367   1.201
 4905W        W 8958   6.948   7.474   2.243
 4906W        W 8959   5.027   7.630  10.431
 4907W        W 8960   9.517   9.482   1.220
 4908W        W 8961  10.494   8.437   1.285
 4909W        W 8962   7.408   6.484   2.825
 4910W        W 8963   8.487   2.241   9.078
 4911W        W 8964   8.420   9.946  11.854
 4912W        W 8965   2.185   2.645   8.566
 4913W        W 8966   6.462   4.771   1.882
 4914W        W 8967   0.300   8.364   0.797
 4915W        W 8968   9.371   2.773   2.738
 4916W        W 8969   4.260   6.040  11.398
 4917W        W 8970   3.124  10.349   0.261
 4918W        W 8971   9.044   1.248  10.827
 4919W        W 8972   2.711   1.383   8.905
 4920W        W 8973   9.028   2.761  10.321
 4921W        W 8974   8.030   5.192   9.092
 4922W        W 8975   0.924   4.572   9.970
 4923W        W 8976   6.454   2.657  10.500
 4924W        W 8977   0.363   8.845   0.779
 4925W        W 8978   6.514   1.202   2.257
 4926W        W 8979   5.985   3.743   4.247
 4927W        W 8980   6.494   7.517   2.718
 4928W        W 8981   7.625   3.707   2.865
 4929W        W 8982   9.426   3.296   1.754
 4930W        W 8983   9.463   1.679  11.358
 4931W        W 8984   9.461   7.521   0.321
 4932W        W 8985   1.301   9.038  11.998
 4933W        W 8986   7.135   5.593   9.085
 4934W        W 8987  10.268   4.084  10.498
 4935W        W 8988   7.558   7.990  10.547
 4936W        W 8989   0.734   7.051   3.271
 4937W        W 8990   0.922   9.862   2.182
 4938W        W 8991   2.199   1.271  10.984
 4939W        W 8992   3.137   6.055  11.817
 4940W        W 8993  10.265   3.224  10.922
 4941W        W 8994   8.376   3.113   1.333
 4942W        W 8995   4.655   6.638   1.810
 4943W        W 8996   6.045   2.744  10.405
 4944W        W 8997   1.715   8.050   2.658
 4945W        W 8998   7.094   9.492   9.971
 4946W        W 8999   7.154   6.486  11.288
 4947W        W 9000   2.150   7.400   2.878
 4948W        W 9001   7.028   1.836   0.901
 4949W        W 9002   6.017   4.566   3.160
 4950W        W 9003   6.082   0.454  10.069
 4951W        W 9004   0.246   4.770   1.894
 4952W        W 9005   0.312   4.082   3.358
 4953W        W 9006   9.860   3.684   0.449
 4954W        W 9007   8.077   6.994   1.825
 4955W        W 9008   4.722   4.085   3.699
 4956W        W 9009  10.015   8.998   2.349
 4957W        W 9010   8.490   5.081   8.638
 4958W        W 9011   7.475   4.236  10.452
 4959W        W 9012   2.213   1.390  11.878
 4960W        W 9013   0.930   3.668   1.917
 4961W        W 9014   8.976   1.758   1.363
 4962W        W 9015   4.177   4.200  11.831
 4963W        W 9016   5.679   1.275   1.276
 4964W        W 9017   7.558   0.741   2.745
 4965W        W 9018   6.544   4.675   3.642
 4966W        W 9019   0.807   8.868   1.706
 4967W        W 9020   1.786   6.095   9.380
 4968W        W 9021   3.581   2.828   3.188
 4969W        W 9022   2.319   4.186  10.040
 4970W        W 9023   7.588   7.975   3.136
 4971W        W 9024   8.909   8.906   3.211
 4972W        W 9025   0.332   4.769   0.339
 4973W        W 9026   2.735   4.649  11.846
 4974W        W 9027   6.049   8.492   9.876
 4975W        W 9028   0.942   3.640   2.866
 4976W        W 9029   6.971   8.975   2.268
 4977W        W 9030   2.817   8.533   1.715
 4978W        W 9031   6.966   3.781  11.338
 4979W        W 9032  10.279   9.019   3.263
 4980W        W 9033   1.866   2.739  11.831
 4981W        W 9034   5.505   0.820   9.368
 4982W        W 9035   7.487   8.488   2.847
 4983W        W 9036   0.786   4.141   3.194
 4984W        W 9037   5.580   3.263   9.915
 4985W        W 9038   3.188   4.138   2.802
 4986W        W 9039   7.921   4.738  11.763
 4987W        W 9040   1.326   2.832   2.329
 4988W        W 9041   7.629   9.794   1.741
 4989W        W 9042   0.835   3.112   0.467
 4990W        W 9043   3.777   6.468   2.706
 4991W        W 9044   2.650   8.966   0.776
 4992W        W 9045   8.912   6.519   3.232
 4993W        W 9046   5.561   0.892  11.029
 4994W        W 9047   0.896   9.916   2.663
 4995W        W 9048   7.621   9.820   8.904
 4996W        W 9049   4.182   8.055  11.838
 4997W        W 9050   1.705   0.733   2.684
 4998W        W 9051   2.183   9.995   1.316
 4999W        W 9052   3.635   1.704   2.674
 5000W        W 9053   7.531   4.281  10.960
 5001W        W 9054   7.044   1.683   8.987
 5002W        W 9055   8.466   6.681   1.250
 5003W        W 9056   7.899   2.698   2.271
 5004W        W 9057   9.386   5.640   9.971
 5005W        W 9058   4.551   7.967   1.687
 5006W        W 9059   4.702   0.292  11.320
 5007W        W 9060   6.515   0.920  10.358
 5008W        W 9061   1.727   2.862  10.349
 5009W        W 9062   0.886   1.729   3.256
 5010W        W 9063   4.615   6.945   9.895
 5011W        W 9064   1.732   3.173   8.601
 5012W        W 9065  10.006   6.118  10.497
 5013W        W 9066   4.697   7.478   9.413
 5014W        W 9067   3.279   6.508   9.512
 5015W        W 9068   0.400   2.639   0.274
 5016W        W 9069   1.676   4.175   8.909
 5017W        W 9070   2.199   1.676   9.082
 5018W        W 9071   2.646   3.582   9.926
 5019W        W 9072   4.738   1.407  11.397
 5020W        W 9073   1.850   5.117   0.749
 5021W        W 9074   9.845   6.103   9.115
 5022W        W 9075   8.979   4.176   1.890
 5023W        W 9076   9.047   9.986   9.564
 5024W        W 9077   6.467   9.431  10.374
 5025W        W 9078   8.516   4.658   8.581
 5026W        W 9079   9.034   2.237  11.502
 5027W        W 9080   7.877   9.319   9.996
 5028W        W 9081   9.939   2.202   3.166
 5029W        W 9082  10.287   5.677   9.063
 5030W        W 9083   7.077   6.529  10.486
 5031W        W 9084   9.988  10.364  10.559
 5032W        W 9085   2.190   0.876   8.567
 5033W        W 9086   4.627   6.132   0.473
 5034W        W 9087   8.080   6.563  10.395
 5035W        W 9088   1.217   1.796   3.180
 5036W        W 9089   8.391   5.530   1.763
 5037W        W 9090   5.499   3.250   2.757
 5038W        W 9091  10.356   7.419   2.783
 5039W        W 9092   8.902   4.079   2.801
 5040W        W 9093   0.441   5.507   9.369
 5041W        W 9094   7.620   4.592  10.437
 5042W        W 9095   6.104   0.364   1.261
 5043W        W 9096   4.182   9.891   1.886
 5044W        W 9097   7.902   9.488  11.925
 5045W        W 9098   6.562   4.666  10.041
 5046W        W 9099   9.394   8.507   9.974
 5047W        W 9100   4.091   2.357  10.886
 5048W        W 9101   0.374   5.021   1.273
 5049W        W 9102   4.100   6.955   1.900
 5050W        W 9103   1.784  10.357   1.725
 5051W        W 9104   4.634   7.417   2.655
 5052W        W 9105   8.910   9.925   8.949
 5053W        W 9106   2.160   7.064   2.877
 5054W        W 9107   1.740   1.219   3.244
 5055W        W 9108   8.027   2.249   0.442
 5056W        W 9109   7.149   6.134  10.381
 5057W        W 9110   0.866   4.134  11.893
 5058W        W 9111   6.035   7.934  11.969
 5059W        W 9112  10.426   0.878  10.426
 5060W        W 9113   9.971   6.140   1.269
 5061W        W 9114   7.553   3.581  10.417
 5062W        W 9115   1.430  10.328   0.905
 5063W        W 9116   5.971   6.511   0.352
 5064W        W 9117   2.696   7.415   0.313
 5065W        W 9118   0.287   4.087   9.970
 5066W        W 9119   6.015   9.922  11.355
 5067W        W 9120   9.513   8.108   9.422
 5068W        W 9121   4.657   0.260   8.494
 5069W        W 9122   7.907   7.536  11.464
 5070W        W 9123   6.120   5.995  11.801
 5071W        W 9124   1.832   8.921  11.902
 5072W        W 9125   6.621   7.050  11.418
 5073W        W 9126   4.569   3.203  11.507
 5074W        W 9127   8.527   2.152   2.354
 5075W        W 9128   7.023   5.155  11.428
 5076W        W 9129   5.536   8.082  11.305
 5077W        W 9130   9.343   3.721   1.816
 5078W        W 9131   2.830   0.851   2.169
 5079W        W 9132   5.185   0.414  11.352
 5080W        W 9133   2.797   8.538   0.783
 5081W        W 9134   4.255   1.276  10.432
 5082W        W 9135   1.745   4.582  11.515
 5083W        W 9136   2.730  10.445   2.256
 5084W        W 9137   4.122   0.761   0.875
 5085W        W 9138   6.101   6.647   2.264
 5086W        W 9139   3.625   6.093   0.258
 5087W        W 9140   8.958   6.164  10.934
 5088W        W 9141   8.040  10.015   3.276
 5089W        W 9142   4.145   7.510   3.350
 5090W        W 9143   2.682   7.149   2.718
 5091W        W 9144   2.748   1.272   1.420
 5092W        W 9145   1.776   7.558   0.762
 5093W        W 9146   1.306   5.719   2.781
 5094W        W 9147   8.360   7.523  10.992
 5095W        W 9148   4.073   6.515   2.869
 5096W        W 9149   7.071   7.501  11.903
 5097W        W 9150   8.066  10.406   2.197
 5098W        W 9151   0.242   2.331   2.239
 5099W        W 9152   7.908   0.849   2.872
 5100W        W 9153   5.726   3.173   8.513
 5101W        W 9154   5.143   4.609   3.355
 5102W        W 9155   6.452   1.882   2.661
 5103W        W 9156   6.452   0.871  11.947
 5104W        W 9157   1.765   9.910  11.510
 5105W        W 9158   4.665   0.851   1.820
 5106W        W 9159  10.014   8.509   1.892
 5107W        W 9160   7.614   5.512   2.671
 5108W        W 9161   0.264  10.427   3.295
 5109W        W 9162   7.936   1.795   2.274
 5110W        W 9163   8.844   1.239   1.427
 5111W        W 9164   3.787   6.465   4.203
 5112W        W 9165   6.922   3.190   9.018
 5113W        W 9166   9.003   0.298   2.327
 5114W        W 9167   1.309   7.095   1.732
 5115W        W 9168   8.090   0.898  10.421
 5116W        W 9169   8.839   9.325  11.449
 5117W        W 9170   5.111   1.430   0.857
 5118W        W 9171   9.923   0.454  11.295
 5119W        W 9172   6.011   0.928  10.469
 5120W        W 9173  10.022   6.478   1.343
 5121W        W 9174   5.708  10.299   1.435
 5122W        W 9175   7.491   2.698   0.388
 5123W        W 9176   8.575   1.743   8.892
 5124W        W 9177   6.121   9.937   2.168
 5125W        W 9178   2.246   4.700   0.421
 5126W        W 9179   1.366   8.932   0.453
 5127W        W 9180   0.324   1.392   8.935
 5128W        W 9181  10.406   5.186  11.993
 5129W        W 9182   4.287   6.490  11.861
 5130W        W 9183   8.448   0.815   9.544
 5131W        W 9184   4.130   1.698  10.833
 5132W        W 9185   5.643   5.116   1.328
 5133W        W 9186   1.685   3.248  10.012
 5134W        W 9187  10.005   8.019   3.295
 5135W        W 9188   5.635   8.948  10.931
 5136W        W 9189   4.652   0.253  10.056
 5137W        W 9190   3.585   2.380   9.364
 5138W        W 9191   3.627   2.344  11.289
 5139W        W 9192   0.441   6.600  10.902
 5140W        W 9193   9.041   0.346   1.782
 5141W        W 9194   7.151   6.562   0.363
 5142W        W 9195   7.518   9.441   1.280
 5143W        W 9196   1.761   2.626   9.582
 5144W        W 9197   1.307   6.162   9.048
 5145W        W 9198   2.378   4.211   0.297
 5146W        W 9199   0.935   8.837   2.285
 5147W        W 9200   2.244   0.460   1.363
 5148W        W 9201   6.552   9.339  11.416
 5149W        W 9202   1.872   8.551   3.756
 5150W        W 9203  10.359   7.043   1.786
 5151W        W 9204  10.325   9.426   9.424
 5152W        W 9205   0.815   9.490  10.915
 5153W        W 9206   2.360   5.228   0.886
 5154W        W 9207   0.867   2.231  11.426
 5155W        W 9208   4.264   1.297   1.222
 5156W        W 9209   6.145   5.624   0.269
 5157W        W 9210   2.258   4.144  11.812
 5158W        W 9211   9.022   8.834  11.901
 5159W        W 9212   9.311   9.875   0.283
 5160W        W 9213   4.641   6.672  11.516
 5161W        W 9214   9.498   2.292   1.796
 5162W        W 9215   1.806   7.131   9.406
 5163W        W 9216   4.093   5.655  10.811
 5164W        W 9217   4.627   3.752  11.898
 5165W        W 9218   4.284   4.083  10.483
 5166W        W 9219   2.846   0.751   9.086
 5167W        W 9220   5.196   6.117  11.947
 5168W        W 9221   4.268   0.280   1.224
 5169W        W 9222   3.190   2.154   0.932
 5170W        W 9223   8.861   1.764  10.533
 5171W        W 9224  10.378   3.760  10.408
 5172W        W 9225   6.477   9.053  10.386
 5173W        W 9226   9.467   3.199   9.053
 5174W        W 9227   1.736   9.000  10.428
 5175W        W 9228   6.032   3.746  11.302
 5176W        W 9229   0.743   1.292   3.336
 5177W        W 9230   3.668  10.496   1.881
 5178W        W 9231   5.105   9.405   9.019
 5179W        W 9232   0.409   9.002  11.761
 5180W        W 9233   2.291   8.911   8.919
 5181W        W 9234   0.378   1.321   1.339
 5182W        W 9235   6.652   3.755   1.373
 5183W        W 9236   2.850   6.065   2.260
 5184W        W 9237   0.331   5.517   2.780
 5185W        W 9238   0.853   4.682   2.811
 5186W        W 9239   3.750   2.301   9.955
 5187W        W 9240   4.697   6.146   9.059
 5188W        W 9241   6.929   6.655   0.885
 5189W        W 9242   8.033   8.490   2.277
 5190W        W 9243   5.047   7.097  11.018
 5191W        W 9244   8.998   1.742  10.898
 5192W        W 9245   9.852   4.108   8.960
 5193W        W 9246   0.339   1.387   2.245
 5194W        W 9247   1.239   7.516   2.786
 5195W        W 9248   0.415   5.979   0.287
 5196W        W 9249   6.115   6.574  10.537
 5197W        W 9250   8.390   3.648   1.804
 5198W        W 9251   8.975   6.026   9.546
 5199W        W 9252   0.760   5.581  10.455
 5200W        W 9253   2.336   0.300   8.902
 5201W        W 9254   1.873   8.426   2.301
 5202W        W 9255   5.545   8.406   0.874
 5203W        W 9256   5.079   6.052   0.353
 5204W        W 9257   4.724   1.735   3.280
 5205W        W 9258   4.063   3.805   9.965
 5206W        W 9259   2.760   5.995  11.518
 5207W        W 9260   0.936   1.228  11.785
 5208W        W 9261   6.203   1.876   0.844
 5209W        W 9262   8.096   0.316   2.270
 5210W        W 9263   9.485   6.952   2.860
 5211W        W 9264   3.188   7.983  10.531
 5212W        W 9265  10.398   2.213  10.057
 5213W        W 9266   7.613   9.003   0.255
 5214W        W 9267   5.996   6.476   1.294
 5215W        W 9268   4.756  10.002   1.357
 5216W        W 9269   7.008   8.571  11.037
 5217W        W 9270   1.344   6.000  11.874
 5218W        W 9271   8.411   5.595  11.351
 5219W        W 9272   2.257   7.966   9.120
 5220W        W 9273   4.070   4.060   3.649
 5221W        W 9274   1.857   9.933   3.243
 5222W        W 9275   7.127   4.256   8.509
 5223W        W 9276   7.992   9.535   8.906
 5224W        W 9277   2.175   5.163  11.936
 5225W        W 9278   4.193   8.378   2.306
 5226W        W 9279   0.276   4.200   2.317
 5227W        W 9280   5.526   6.507   1.687
 5228W        W 9281   7.511   9.051   1.308
 5229W        W 9282   7.585   3.803   0.878
 5230W        W 9283   1.344   4.558   2.853
 5231W        W 9284   4.135   6.154   9.450
 5232W        W 9285   6.113   3.277   1.422
 5233W        W 9286   6.160   9.839  10.524
 5234W        W 9287   7.564   1.905   9.437
 5235W        W 9288   7.914   7.509  11.900
 5236W        W 9289  10.268   1.689   9.466
 5237W        W 9290   5.073   5.200   2.371
 5238W        W 9291   5.697   8.113  10.476
 5239W        W 9292   9.462   5.619   8.900
 5240W        W 9293   1.771  10.426   1.424
 5241W        W 9294   2.758   2.204   9.428
 5242W        W 9295   7.411   6.131   0.351
 5243W        W 9296   4.135   8.845   1.396
 5244W        W 9297   6.984   4.128   1.263
 5245W        W 9298   9.371   5.649   3.236
 5246W        W 9299   5.061   8.504  11.853
 5247W        W 9300   4.743   2.313  10.421
 5248W        W 9301   9.425   1.831   2.873
 5249W        W 9302   2.362   2.861   2.241
 5250W        W 9303   8.923   1.405   2.246
 5251W        W 9304   1.252   9.386   3.126
 5252W        W 9305   6.956   0.406  10.860
 5253W        W 9306   0.887   4.280   2.389
 5254W        W 9307  10.323   4.570   2.248
 5255W        W 9308   5.595   6.136   3.318
 5256W        W 9309   8.516   0.442   0.946
 5257W        W 9310   4.762   4.070   9.400
 5258W        W 9311   6.449   7.506   0.361
 5259W        W 9312   1.280  10.268  11.893
 5260W        W 9313   0.825   2.175   8.429
 5261W        W 9314   2.861   8.093   1.918
 5262W        W 9315   8.487   6.555  10.520
 5263W        W 9316   2.159   4.261   1.908
 5264W        W 9317   4.733   9.784   8.407
 5265W        W 9318   1.899   1.876   1.202
 5266W        W 9319   0.391   3.281   9.490
 5267W        W 9320   9.445   3.243   0.842
 5268W        W 9321   5.063   7.908   1.282
 5269W        W 9322   6.510   3.642   3.278
 5270W        W 9323   9.930   3.207  10.048
 5271W        W 9324   0.308   5.022   1.694
 5272W        W 9325   2.191   2.161   8.484
 5273W        W 9326   8.918   8.525   2.345
 5274W        W 9327   9.485  10.281   9.556
 5275W        W 9328   6.455   7.984  11.932
 5276W        W 9329  10.316   9.797   9.864
 5277W        W 9330   9.990   2.184   9.843
 5278W        W 9331   8.940   0.719   1.273
 5279W        W 9332   9.409   7.489   9.513
 5280W        W 9333   4.652   1.210   0.447
 5281W        W 9334   2.161   6.136   2.865
 5282W        W 9335   6.204   2.341   2.745
 5283W        W 9336   9.835   9.489   0.280
 5284W        W 9337   9.941   1.256   2.752
 5285W        W 9338   3.170   2.758   1.415
 5286W        W 9339   1.790   5.094   2.276
 5287W        W 9340   4.768   3.671   3.350
 5288W        W 9341   4.730   0.915   0.850
 5289W        W 9342   7.617   8.944   3.222
 5290W        W 9343   1.674   5.639  11.286
 5291W        W 9344   4.699   4.652   9.515
 5292W        W 9345   5.580   7.487   0.869
 5293W        W 9346   8.041   7.988  10.989
 5294W        W 9347   3.182   5.717   9.095
 5295W        W 9348   3.807   6.006  11.369
 5296W        W 9349   9.394  10.489   1.809
 5297W        W 9350   7.032   0.760   2.329
 5298W        W 9351   5.174   7.002   2.712
 5299W        W 9352   0.466   7.121   1.422
 5300W        W 9353   2.746   3.268   3.194
 5301W        W 9354   0.878   2.380   2.854
 5302W        W 9355   9.940   4.112  11.402
 5303W        W 9356  10.396   6.181   8.546
 5304W        W 9357   5.160   7.074   3.740
 5305W        W 9358   9.857   2.827   2.706
 5306W        W 9359   7.608  10.005  11.461
 5307W        W 9360  10.390   3.153   0.728
 5308W        W 9361   9.463   9.422   0.844
 5309W        W 9362   4.709   8.026   0.869
 5310W        W 9363   8.928   9.915   0.316
 5311W        W 9364   4.226   0.297   9.993
 5312W        W 9365   8.487   5.567   9.525
 5313W        W 9366  10.468   2.331   9.039
 5314W        W 9367   2.244   9.480   2.306
 5315W        W 9368   5.165   7.423   1.299
 5316W        W 9369   1.887   6.168   0.818
 5317W        W 9370   9.540   0.392  10.964
 5318W        W 9371   9.988   8.925   1.837
 5319W        W 9372   9.786   0.836   9.500
 5320W        W 9373   9.501   6.028   2.752
 5321W        W 9374   5.121   8.568   1.885
 5322W        W 9375   2.324   0.438   9.541
 5323W        W 9376   4.066  10.482   1.219
 5324W        W 9377   0.406   0.474  10.395
 5325W        W 9378   4.280   5.094   1.309
 5326W        W 9379   3.106   0.836   0.255
 5327W        W 9380   9.879   2.277   8.930
 5328W        W 9381  10.296   5.041   3.278
 5329W        W 9382   9.010   3.309   0.367
 5330W        W 9383   6.933  10.498  10.961
 5331W        W 9384   4.196   4.579   1.291
 5332W        W 9385   6.085   9.019  11.404
 5333W        W 9386   1.777   4.143  10.367
 5334W        W 9387   7.553   1.287  11.415
 5335W        W 9388   2.645   9.792   0.282
 5336W        W 9389   7.574   5.213   2.683
 5337W        W 9390   0.886   8.583   8.940
 5338W        W 9391  10.372   4.761  11.457
 5339W        W 9392   0.768   4.632   1.373
 5340W        W 9393   3.259   0.944   9.873
 5341W        W 9394   1.405   8.924   8.937
 5342W        W 9395   7.537   3.707   2.171
 5343W        W 9396   5.067   5.984  11.443
 5344W        W 9397   4.235   7.101   2.713
 5345W        W 9398   7.455   3.731   3.270
 5346W        W 9399   0.365   3.235   3.204
 5347W        W 9400   7.492   6.950   1.767
 5348W        W 9401   2.751   6.632   3.143
 5349W        W 9402   5.052   2.733   2.804
 5350W        W 9403   2.376   7.030   0.434
 5351W        W 9404   8.865   7.023   3.191
 5352W        W 9405   8.381   0.764   0.371
 5353W        W 9406   5.569   6.574   1.427
 5354W        W 9407   2.386   7.410   2.237
 5355W        W 9408   5.015   9.345  11.389
 5356W        W 9409   9.993   0.851   3.257
 5357W        W 9410   9.361   2.789   1.261
 5358W        W 9411   0.892   7.458   9.943
 5359W        W 9412   5.150   4.755   8.963
 5360W        W 9413   6.474   1.387   9.066
 5361W        W 9414   1.198   2.783   1.310
 5362W        W 9415   9.378   8.479  10.325
 5363W        W 9416   0.911   6.518  11.853
 5364W        W 9417   1.430   8.517   9.501
 5365W        W 9418   7.528   6.958   0.794
 5366W        W 9419   4.280   6.644   4.285
 5367W        W 9420   0.464   0.411   1.337
 5368W        W 9421   8.042   8.037  10.501
 5369W        W 9422   4.140   6.011  11.897
 5370W        W 9423   7.979   6.195   9.095
 5371W        W 9424   9.834   7.915   1.892
 5372W        W 9425   5.506   8.909  10.553
 5373W        W 9426   7.958   1.373   2.240
 5374W        W 9427   0.262   0.447   2.833
 5375W        W 9428   1.383   3.800   1.377
 5376W        W 9429   8.370   7.126   0.819
 5377W        W 9430   1.352   7.062   9.573
 5378W        W 9431   4.269   5.233   9.097
 5379W        W 9432   6.172   3.596   2.316
 5380W        W 9433   9.954   2.818   1.853
 5381W        W 9434   6.569   6.158   0.733
 5382W        W 9435   9.502   4.682   9.399
 5383W        W 9436   1.420   1.359   0.345
 5384W        W 9437   9.432   5.515  11.361
 5385W        W 9438   0.890   3.142  10.523
 5386W        W 9439   2.235   5.631   3.129
 5387W        W 9440   0.775   9.493   2.287
 5388W        W 9441   2.187   0.401   9.865
 5389W        W 9442   9.845   1.684   1.219
 5390W        W 9443   2.255   7.451  11.846
 5391W        W 9444   6.976   3.611  11.807
 5392W        W 9445   4.711   8.396   2.807
 5393W        W 9446   5.519   9.943  10.958
 5394W        W 9447   8.473   6.507   9.073
 5395W        W 9448   8.979   9.805  10.367
 5396W        W 9449   4.724   8.833   1.218
 5397W        W 9450   3.241   8.917   0.885
 5398W        W 9451   3.630   8.054   9.007
 5399W        W 9452   6.174   3.620   3.778
 5400W        W 9453   8.396  10.486   0.952
 5401W        W 9454   1.843   9.447   0.430
 5402W        W 9455   4.609   1.304  11.037
 5403W        W 9456   2.295   9.014   2.194
 5404W        W 9457   6.666   4.731  11.017
 5405W        W 9458   0.259   7.415  10.882
 5406W        W 9459   9.360   1.879   0.471
 5407W        W 9460   4.107   0.326   1.736
 5408W        W 9461   2.310   4.660   8.605
 5409W        W 9462   4.099   3.619   2.381
 5410W        W 9463   7.588   6.643   8.516
 5411W        W 9464   2.835   0.472   9.911
 5412W        W 9465   4.648   7.107   9.008
 5413W        W 9466   0.837   3.274   9.451
 5414W        W 9467  10.419   1.243   0.356
 5415W        W 9468   7.603   5.522   9.071
 5416W        W 9469   1.408   1.827   0.919
 5417W        W 9470   5.179   8.945  10.549
 5418W        W 9471  10.439  10.396  10.956
 5419W        W 9472   3.262   7.583   2.318
 5420W        W 9473   2.791   5.999   9.426
 5421W        W 9474   6.942   6.958  10.884
 5422W        W 9475   0.475   5.041  10.870
 5423W        W 9476   3.702   1.258   0.840
 5424W        W 9477   8.997   0.418   0.771
 5425W        W 9478   7.881   3.124  10.523
 5426W        W 9479   8.069   2.653   9.039
 5427W        W 9480   9.927   9.843  10.358
 5428W        W 9481   4.609   8.949   8.546
 5429W        W 9482   6.183  10.429   9.937
 5430W        W 9483  10.345   4.732   9.567
 5431W        W 9484   3.338   6.156   0.338
 5432W        W 9485   5.122   3.729   1.813
 5433W        W 9486  10.267   5.619  11.820
 5434W        W 9487   3.156   5.139   2.276
 5435W        W 9488   1.364   6.464   9.911
 5436W        W 9489   1.696   7.884  10.858
 5437W        W 9490   7.109   7.046  10.071
 5438W        W 9491   5.641   1.803  10.951
 5439W        W 9492   3.127   3.104   9.980
 5440W        W 9493   7.140   6.003  10.018
 5441W        W 9494   6.557   1.379   0.868
 5442W        W 9495   7.552   0.263  11.911
 5443W        W 9496   1.899   9.342   2.732
 5444W        W 9497   8.567   7.017   3.327
 5445W        W 9498   0.461   7.069   2.866
 5446W        W 9499   6.188   0.363   9.361
 5447W        W 9500   1.786   7.607   9.494
 5448W        W 9501   7.131   4.681  10.325
 5449W        W 9502   5.062   2.652   2.252
 5450W        W 9503   5.566   3.644   9.026
 5451W        W 9504   4.235  10.002   8.994
 5452W        W 9505   3.232   7.417   1.881
 5453W        W 9506   5.721   0.413  11.353
 5454W        W 9507   1.356   7.145  10.005
 5455W        W 9508   7.562   8.385  11.814
 5456W        W 9509   2.789   1.219   2.389
 5457W        W 9510  10.373   7.482   0.452
 5458W        W 9511   5.100   7.535   3.300
 5459W        W 9512   1.219   3.629   9.592
 5460W        W 9513   4.765   4.745   2.385
 5461W        W 9514   4.140   9.357   0.872
 5462W        W 9515   3.288   1.414   9.390
 5463W        W 9516   3.156   7.086   3.812
 5464W        W 9517   1.424   5.489   1.812
 5465W        W 9518   9.800   7.027   9.548
 5466W        W 9519   9.814   7.488   8.577
 5467W        W 9520   7.444   7.942   9.910
 5468W        W 9521   9.944   6.572   3.244
 5469W        W 9522   6.642   0.384  11.485
 5470W        W 9523   1.870   4.743   8.898
 5471W        W 9524   5.501   0.938   1.760
 5472W        W 9525   2.341  10.288  10.453
 5473W        W 9526   0.259   9.790   2.179
 5474W        W 9527   2.734   4.240   2.692
 5475W        W 9528   6.170   9.058  11.803
 5476W        W 9529   4.721   6.059   1.390
 5477W        W 9530   7.404   4.132   2.876
 5478W        W 9531   5.120   3.779   0.929
 5479W        W 9532   4.538   6.025   3.750
 5480W        W 9533   9.880   9.958   3.659
 5481W        W 9534   3.149   1.681   1.373
 5482W        W 9535   4.615   5.601   1.221
 5483W        W 9536   7.578   9.889   9.545
 5484W        W 9537   5.998   9.447  10.344
 5485W        W 9538   8.504   6.982   8.572
 5486W        W 9539   8.455   8.000   2.759
 5487W        W 9540   2.845   7.431   1.852
 5488W        W 9541   1.891   1.378   3.721
 5489W        W 9542   3.642   8.997   0.400
 5490W        W 9543   1.334   7.108   0.882
 5491W        W 9544   1.814   0.360   9.453
 5492W        W 9545   6.592   6.553  10.937
 5493W        W 9546   5.540   9.888   9.384
 5494W        W 9547   0.356   0.876   9.508
 5495W        W 9548  10.427   6.157   0.829
 5496W        W 9549   5.141   6.107  10.474
 5497W        W 9550  10.490   9.392  11.317
 5498W        W 9551   6.972   7.069   1.309
 5499W        W 9552   5.111  10.342   9.110
 5500W        W 9553   3.675   6.182   9.091
 5501W        W 9554   3.284   0.334   1.271
 5502W        W 9555   4.645   2.771  10.961
 5503W        W 9556   2.762   3.201  11.517
 5504W        W 9557   6.540   9.817   3.187
 5505W        W 9558   4.228   9.407  11.297
 5506W        W 9559   0.898   8.851   0.959
 5507W        W 9560   8.935   2.189   8.415
 5508W        W 9561   9.797   6.490   9.972
 5509W        W 9562   5.050   9.950  11.029
 5510W        W 9563   6.930   2.775   2.807
 5511W        W 9564   3.632   2.793   9.488
 5512W        W 9565   3.258   2.192  11.473
 5513W        W 9566   6.626   3.728   9.079
 5514W        W 9567   1.252   8.103  11.794
 5515W        W 9568  10.438   3.225  10.078
 5516W        W 9569   3.290   2.825   2.234
 5517W        W 9570   0.337   5.670   2.240
 5518W        W 9571   7.489   1.718   0.929
 5519W        W 9572   1.201   9.913  10.045
 5520W        W 9573   2.336   5.967   9.975
 5521W        W 9574   9.314   6.514   8.961
 5522W        W 9575   0.269   6.033   3.204
 5523W        W 9576   8.039   6.676   0.337
 5524W        W 9577   7.460   1.768   1.210
 5525W        W 9578   9.970   3.204   2.736
 5526W        W 9579   5.612   2.853   8.937
 5527W        W 9580   5.973   6.451   1.918
 5528W        W 9581   6.117   0.792   2.875
 5529W        W 9582   7.627   1.690   9.844
 5530W        W 9583   0.463   6.536  11.367
 5531W        W 9584   6.115   6.019   0.476
 5532W        W 9585   3.589   3.114   2.306
 5533W        W 9586   2.767   0.294   1.219
 5534W        W 9587   3.703   9.474  11.494
 5535W        W 9588   0.908   3.592   3.827
 5536W        W 9589   7.896   6.632   1.740
 5537W        W 9590   9.058   2.682   9.109
 5538W        W 9591   1.310   0.840   9.591
 5539W        W 9592   1.248   1.392   9.444
 5540W        W 9593   1.673   3.812  11.282
 5541W        W 9594   8.839   5.085  11.318
 5542W        W 9595   4.100   7.989   0.404
 5543W        W 9596   5.135   4.092   2.662
 5544W        W 9597   3.818   3.151   9.439
 5545W        W 9598   6.072   3.144   0.440
 5546W        W 9599   3.655   7.898   2.183
 5547W        W 9600   3.178   0.952  10.882
 5548W        W 9601  10.451   7.062   0.916
 5549W        W 9602   4.551   7.485  11.987
 5550W        W 9603   1.857   0.811  10.372
 5551W        W 9604   7.149   5.491   4.313
 5552W        W 9605   1.835   6.458   0.431
 5553W        W 9606   4.083   5.724   1.295
 5554W        W 9607   8.384   9.013   2.247
 5555W        W 9608   5.043   5.071  11.340
 5556W        W 9609   8.868   5.491  11.483
 5557W        W 9610   5.219   6.471  10.050
 5558W        W 9611   5.668   6.461   0.948
 5559W        W 9612   2.153  10.285   3.304
 5560W        W 9613   2.262   0.912  10.860
 5561W        W 9614   1.233   5.715  10.364
 5562W        W 9615   7.116   2.198   1.860
 5563W        W 9616   4.153   0.273  10.907
 5564W        W 9617   7.603   6.593   2.383
 5565W        W 9618   2.376   1.783   9.370
 5566W        W 9619   5.997   7.474   3.656
 5567W        W 9620   4.604  10.265   0.249
 5568W        W 9621   4.211   6.556   8.477
 5569W        W 9622   5.724   2.660  11.887
 5570W        W 9623   7.158   7.156   9.415
 5571W        W 9624   7.525   2.324  10.825
 5572W        W 9625   6.450   5.617   0.289
 5573W        W 9626   3.667   9.509   8.489
 5574W        W 9627   2.322   6.138   0.930
 5575W        W 9628   6.116   2.765   0.376
 5576W        W 9629   6.549   2.379   8.571
 5577W        W 9630   0.740   2.769   2.377
 5578W        W 9631   2.179   8.583   0.823
 5579W        W 9632   4.274   6.051   0.471
 5580W        W 9633   5.509   1.346  10.921
 5581W        W 9634   6.675   8.970   0.793
 5582W        W 9635  10.446   6.460   3.149
 5583W        W 9636   5.202   1.883   8.931
 5584W        W 9637   6.083   0.923   0.363
 5585W        W 9638   2.264   9.988   3.325
 5586W        W 9639   4.715   9.539  10.526
 5587W        W 9640   6.953   8.585   1.252
 5588W        W 9641   1.681   8.440   9.589
 5589W        W 9642   7.975   8.057   2.749
 5590W        W 9643   6.177   0.432  10.917
 5591W        W 9644   0.854   0.376   0.366
 5592W        W 9645   1.382   4.074   0.241
 5593W        W 9646   9.530   4.646   3.258
 5594W        W 9647   3.270   3.720   9.360
 5595W        W 9648   8.973   8.906  11.465
 5596W        W 9649   9.817   7.405   0.917
 5597W        W 9650   3.104   1.713  10.853
 5598W        W 9651   7.565   1.854   0.467
 5599W        W 9652   6.169   7.998   2.394
 5600W        W 9653   7.032   2.628   9.851
 5601W        W 9654   2.676   2.850   0.738
 5602W        W 9655   3.104  10.012   3.159
 5603W        W 9656   9.432   6.926   2.344
 5604W        W 9657   8.041   6.525   3.212
 5605W        W 9658   4.737   0.309  11.789
 5606W        W 9659   0.413   5.603   1.402
 5607W        W 9660   5.995   8.043   1.419
 5608W        W 9661   6.544   3.631  10.961
 5609W        W 9662   7.017   1.317   3.246
 5610W        W 9663   9.808   7.033   2.772
 5611W        W 9664  10.001   0.800  11.491
 5612W        W 9665   5.240   3.165   9.432
 5613W        W 9666   9.383   6.089   9.003
 5614W        W 9667   1.250  10.022   1.836
 5615W        W 9668   6.969   8.026  11.975
 5616W        W 9669   3.105   6.625   0.372
 5617W        W 9670   7.518  10.282   9.955
 5618W        W 9671   7.525   2.319   1.347
 5619W        W 9672   6.534   2.200  10.017
 5620W        W 9673   9.422   0.749   0.837
 5621W        W 9674   2.258   8.996  10.003
 5622W        W 9675   8.033   1.237  11.855
 5623W        W 9676   5.657   3.333   2.332
 5624W        W 9677   3.814   6.042   9.583
 5625W        W 9678  10.412   1.883  11.887
 5626W        W 9679   4.222   1.404   2.179
 5627W        W 9680   4.564   9.318   1.876
 5628W        W 9681   8.000   5.598   0.328
 5629W        W 9682   5.602   8.835   2.358
 5630W        W 9683   0.832   5.199  10.985
 5631W        W 9684   9.021   4.576   0.944
 5632W        W 9685   5.123   9.974   8.947
 5633W        W 9686   0.375   7.051   0.470
 5634W        W 9687   7.878   4.584   8.918
 5635W        W 9688   0.450   2.858   2.311
 5636W        W 9689   7.443   3.207  10.348
 5637W        W 9690   1.784   9.429   3.767
 5638W        W 9691   2.181   9.978  10.902
 5639W        W 9692   8.955   8.920   1.419
 5640W        W 9693   6.669   8.042   2.695
 5641W        W 9694   0.774   8.572  11.979
 5642W        W 9695   4.068   5.984   1.427
 5643W        W 9696   6.596   8.410  11.894
 5644W        W 9697   2.307   1.857   0.249
 5645W        W 9698   0.334   9.959   9.031
 5646W        W 9699   7.604   7.897   2.193
 5647W        W 9700   2.199   5.017   1.904
 5648W        W 9701   2.720   3.615  10.435
 5649W        W 9702   5.059   2.836   1.233
 5650W        W 9703   5.979   8.935   1.366
 5651W        W 9704   8.103   3.232   3.217
 5652W        W 9705   4.591   8.051  11.762
 5653W        W 9706   1.901   8.843   0.281
 5654W        W 9707  10.434   0.412   9.486
 5655W        W 9708   4.667   4.757   9.977
 5656W        W 9709   0.451  10.279   2.815
 5657W        W 9710   4.605   2.796   3.324
 5658W        W 9711   6.996   3.136   1.247
 5659W        W 9712   8.504   7.952   9.928
 5660W        W 9713   1.768   8.543  11.392
 5661W        W 9714   0.720   8.072   1.224
 5662W        W 9715   8.092   3.585   1.251
 5663W        W 9716   1.864   7.906   1.840
 5664W        W 9717   2.797   9.329   1.284
 5665W        W 9718   8.424   2.371   1.338
 5666W        W 9719   1.678   1.426   9.882
 5667W        W 9720   3.234   5.085   1.804
 5668W        W 9721   7.099   5.995   9.091
 5669W        W 9722  10.321   5.616  10.390
 5670W        W 9723   6.055  10.464   1.718
 5671W        W 9724   4.077   2.633  11.397
 5672W        W 9725   6.490   9.482   9.536
 5673W        W 9726   7.050   9.014  11.398
 5674W        W 9727   3.730   2.211   0.790
 5675W        W 9728   3.107   6.621  11.813
 5676W        W 9729   0.441   5.098  11.339
 5677W        W 9730  10.303   5.511  11.326
 5678W        W 9731   5.686   4.098   1.714
 5679W        W 9732   0.901   2.247   3.171
 5680W        W 9733   5.181   7.021   8.995
 5681W        W 9734   3.201   5.145   9.429
 5682W        W 9735   0.373   8.423   8.943
 5683W        W 9736   0.950   7.511   0.738
 5684W        W 9737   0.857   2.206   0.308
 5685W        W 9738   8.011   6.494  11.946
 5686W        W 9739   9.338   0.922   3.297
 5687W        W 9740   4.732   4.694   3.839
 5688W        W 9741   6.507   0.319  11.892
 5689W        W 9742  10.360   3.807   0.296
 5690W        W 9743   5.999   9.332  10.012
 5691W        W 9744   4.660   5.230  10.010
 5692W        W 9745   8.413   5.981   9.588
 5693W        W 9746   9.888   8.560  11.792
 5694W        W 9747   5.532   1.682   8.947
 5695W        W 9748   1.369   0.390  10.853
 5696W        W 9749   3.298   8.373   9.080
 5697W        W 9750   9.330   7.900  10.825
 5698W        W 9751   9.844   9.810   1.726
 5699W        W 9752   5.489   3.759  10.404
 5700W        W 9753   7.559   3.268   8.922
 5701W        W 9754   1.743   8.074   0.377
 5702W        W 9755   1.277   3.669   0.909
 5703W        W 9756   5.093   8.555   0.364
 5704W        W 9757   0.855   0.721  11.409
 5705W        W 9758   1.225   0.357  10.029
 5706W        W 9759   8.109   6.101   1.331
 5707W        W 9760   9.406   5.581   1.361
 5708W        W 9761   0.873   5.581  10.030
 5709W        W 9762   3.734   6.143   3.660
 5710W        W 9763   3.674  10.336   9.381
 5711W        W 9764   7.595   1.693   9.000
 5712W        W 9765   1.347   5.019  10.839
 5713W        W 9766   7.513   6.655  10.000
 5714W        W 9767   5.087   3.676   1.270
 5715W        W 9768   1.410  10.327   1.226
 5716W        W 9769   6.589   3.145   3.176
 5717W        W 9770   0.923   4.289   9.455
 5718W        W 9771   1.213   7.907  10.552
 5719W        W 9772   3.329   7.444   2.655
 5720W        W 9773   2.806   4.234  10.497
 5721W        W 9774   1.887   2.706  11.492
 5722W        W 9775   0.871   6.650  11.490
 5723W        W 9776   5.684   8.453   3.217
 5724W        W 9777   2.218   3.263   1.868
 5725W        W 9778   6.109   5.514  11.818
 5726W        W 9779   7.907  10.450   0.805
 5727W        W 9780   2.223   9.407   9.508
 5728W        W 9781   7.512   1.234   0.254
 5729W        W 9782   3.643   3.812   1.848
 5730W        W 9783   6.931  10.268   3.152
 5731W        W 9784   5.554   0.913  11.355
 5732W        W 9785   7.977   2.733   0.477
 5733W        W 9786   3.134   0.856  11.491
 5734W        W 9787   8.872   2.210  10.038
 5735W        W 9788   2.814   1.284  10.053
 5736W        W 9789   6.968   5.084  10.423
 5737W        W 9790   4.567   5.207   3.607
 5738W        W 9791   1.396   9.331   1.327
 5739W        W 9792   2.337   5.651  10.006
 5740W        W 9793   3.196   3.204   9.081
 5741W        W 9794   9.044   3.329   1.894
 5742W        W 9795   5.610   3.663   0.426
 5743W        W 9796   0.410   9.538  11.867
 5744W        W 9797   5.206   3.266   1.315
 5745W        W 9798   5.676   6.527   3.228
 5746W        W 9799  10.343   6.952  10.854
 5747W        W 9800   9.796   8.832   1.385
 5748W        W 9801   6.937  10.013   2.784
 5749W        W 9802   4.741   2.312   0.745
 5750W        W 9803   1.289   0.757   0.355
 5751W        W 9804   6.069  10.437  10.822
 5752W        W 9805   3.680   5.031   2.285
 5753W        W 9806   1.259   0.770   3.168
 5754W        W 9807   3.637   0.744  11.397
 5755W        W 9808   7.407   9.348   9.863
 5756W        W 9809   7.096   8.055  11.337
 5757W        W 9810   9.856  10.441   2.747
 5758W        W 9811   1.885   1.721   9.453
 5759W        W 9812   4.722  10.438   9.875
 5760W        W 9813   6.032   9.810   8.885
 5761W        W 9814   2.754   7.439   9.403
 5762W        W 9815   2.179   6.139  11.511
 5763W        W 9816   7.515   5.196   2.217
 5764W        W 9817   4.719   3.183   1.719
 5765W        W 9818   8.951   0.256   9.112
 5766W        W 9819   8.447   2.188  10.446
 5767W        W 9820   9.065  10.475   1.228
 5768W        W 9821   7.030   6.064  10.850
 5769W        W 9822   4.262   7.882   1.315
 5770W        W 9823   9.372   2.251   3.288
 5771W        W 9824   4.206   6.979   3.180
 5772W        W 9825   4.669   8.885   2.384
 5773W        W 9826   2.207   2.313   9.388
 5774W        W 9827   4.771   8.548  11.308
 5775W        W 9828   4.620   5.541   9.447
 5776W        W 9829   5.187   0.895  10.994
 5777W        W 9830   9.522   5.135   2.738
 5778W        W 9831  10.431   2.702   3.335
 5779W        W 9832   4.546   0.475   1.407
 5780W        W 9833   3.622   5.673   8.055
 5781W        W 9834   8.513   0.728   0.913
 5782W        W 9835   1.375   9.411   8.881
 5783W        W 9836   2.332   6.533   0.724
 5784W        W 9837   2.840   4.772   0.854
 5785W        W 9838   8.095   8.437   1.410
 5786W        W 9839   8.941   7.623  10.401
 5787W        W 9840   0.932  10.316  10.557
 5788W        W 9841   7.572   4.115   0.805
 5789W        W 9842   1.197   6.487  11.958
 5790W        W 9843   2.646   9.506  10.878
 5791W        W 9844   7.036   9.798  10.390
 5792W        W 9845   3.118   8.053   9.509
 5793W        W 9846   0.336   5.190   9.461
 5794W        W 9847   9.027   7.965   3.298
 5795W        W 9848   0.360   8.576  11.803
 5796W        W 9849   7.478   5.675   3.703
 5797W        W 9850   0.470   8.531  10.513
 5798W        W 9851   8.447   9.398   1.904
 5799W        W 9852   8.834   6.446  11.389
 5800W        W 9853   0.760   2.227   8.969
 5801W        W 9854   7.578   6.623   1.844
 5802W        W 9855   4.552   4.169   1.395
 5803W        W 9856   0.299   4.764  10.520
 5804W        W 9857   3.592   0.884   2.755
 5805W        W 9858   5.569   3.190  10.858
 5806W        W 9859   2.359   1.899  11.392
 5807W        W 9860   2.383   0.270   1.737
 5808W        W 9861   3.191   5.222   3.254
 5809W        W 9862   4.171  10.488  11.931
 5810W        W 9863   0.345   4.674   3.353
 5811W        W 9864   8.902   6.485  10.544
 5812W        W 9865  10.369   7.157   0.405
 5813W        W 9866   0.794   6.070   9.970
 5814W        W 9867   0.282   8.036  11.948
 5815W        W 9868   2.253   2.207  11.970
 5816W        W 9869   3.788   5.016   4.081
 5817W        W 9870   4.676   5.674   2.357
 5818W        W 9871   7.483   2.633  11.830
 5819W        W 9872   8.907   9.484  10.364
 5820W        W 9873   9.965  10.261  10.959
 5821W        W 9874   3.177   8.460   0.945
 5822W        W 9875   0.912  10.362   0.882
 5823W        W 9876   8.369   1.717  10.349
 5824W        W 9877   3.150   4.679   0.287
 5825W        W 9878   5.544   2.237   2.645
 5826W        W 9879   0.328   1.348  10.471
 5827W        W 9880   3.699   8.101   3.344
 5828W        W 9881   9.323   9.422  11.848
 5829W        W 9882   1.723   3.790  10.516
 5830W        W 9883   6.099   7.505  10.904
 5831W        W 9884   2.634  10.324   1.306
 5832W        W 9885   8.885   9.830   0.923
 5833W        W 9886   0.765   7.932  11.902
 5834W        W 9887   9.873   4.747  11.769
 5835W        W 9888   1.351   3.251   2.333
 5836W        W 9889   3.647   9.321   2.858
 5837W        W 9890   3.191   9.418   9.933
 5838W        W 9891   0.360   3.812   9.573
 5839W        W 9892   1.195   3.670   9.089
 5840W        W 9893   0.806   8.433   1.208
 5841W        W 9894   4.295   7.474   8.969
 5842W        W 9895   3.106   0.379   0.464
 5843W        W 9896   9.376   9.791   1.864
 5844W        W 9897   2.236   6.048   0.265
 5845W        W 9898   3.600   0.465  11.908
 5846W        W 9899   1.329   9.859   3.276
 5847W        W 9900   9.528   3.197  10.931
 5848W        W 9901   2.272   4.164   2.749
 5849W        W 9902   5.107   7.135   8.421
 5850W        W 9903   4.178   1.832  10.003
 5851W        W 9904   0.443  10.411   0.872
 5852W        W 9905   2.683   6.145  10.871
 5853W        W 9906   0.773   0.469  10.065
 5854W        W 9907   6.446   1.807  11.916
 5855W        W 9908   4.579   5.206   3.176
 5856W        W 9909   4.271   5.027   3.700
 5857W        W 9910   1.874   4.620   1.850
 5858W        W 9911   1.746   7.150   9.043
 5859W        W 9912   8.429   2.357   9.880
 5860W        W 9913   4.726   5.100  11.770
 5861W        W 9914   5.031   5.133  10.052
 5862W        W 9915   0.241   6.945   1.688
 5863W        W 9916  10.430  10.476   2.234
 5864W        W 9917   6.674   6.925   9.922
 5865W        W 9918   0.900   4.095  10.346
 5866W        W 9919   7.050   4.606   1.825
 5867W        W 9920   6.124   6.503   2.784
 5868W        W 9921   1.890   9.898   9.452
 5869W        W 9922   2.762   9.804  11.928
 5870W        W 9923   2.675   6.637  11.467
 5871W        W 9924   4.627   0.770  11.829
 5872W        W 9925   6.965   1.865   9.881
 5873W        W 9926   2.653  10.373   1.718
 5874W        W 9927  10.000   9.458   2.819
 5875W        W 9928   2.149   2.247   2.282
 5876W        W 9929   1.361   3.253  11.519
 5877W        W 9930   3.591   9.410   9.396
 5878W        W 9931   0.403  10.350  11.806
 5879W        W 9932   0.804   3.258  11.470
 5880W        W 9933  10.327   7.935   9.925
 5881W        W 9934   6.196   6.631   9.477
 5882W        W 9935   0.407   5.687  10.365
 5883W        W 9936   6.943   5.219   4.121
 5884W        W 9937   7.975   3.315   0.270
 5885W        W 9938   3.713   7.041   0.295
 5886W        W 9939   6.478   4.146  10.377
 5887W        W 9940   7.561   8.358   3.664
 5888W        W 9941   6.465   2.851   9.976
 5889W        W 9942   5.975   5.536   1.365
 5890W        W 9943   4.148   4.276   1.882
 5891W        W 9944  10.479  10.300  10.381
 5892W        W 9945   5.713   9.539  11.908
 5893W        W 9946   5.721   0.441   3.216
 5894W        W 9947   6.672   4.194  11.315
 5895W        W 9948   9.373   1.406   2.370
 5896W        W 9949   8.503   5.690  10.957
 5897W        W 9950   5.666   2.200   3.199
 5898W        W 9951   3.112   9.412   1.746
 5899W        W 9952   5.084   5.127   2.832
 5900W        W 9953   2.712   2.744   9.549
 5901W        W 9954   0.348   3.274  10.067
 5902W        W 9955   4.253   3.638  11.308
 5903W        W 9956   1.198   8.996   2.257
 5904W        W 9957   1.825   0.467   3.251
 5905W        W 9958   7.892   8.516   3.234
 5906W        W 9959   6.466   7.046   1.761
 5907W        W 9960   6.936   0.802  10.033
 5908W        W 9961   1.237   8.018   3.352
 5909W        W 9962   6.583   5.573   3.779
 5910W        W 9963   2.301   5.058  10.514
 5911W        W 9964   5.038   3.703   8.030
 5912W        W 9965   1.275   4.289   0.863
 5913W        W 9966   1.728   5.060  10.071
 5914W        W 9967   8.587   1.872   3.292
 5915W        W 9968   3.687   3.113   1.857
 5916W        W 9969   2.297   5.051   3.221
 5917W        W 9970   5.559   2.646   3.151
 5918W        W 9971   7.104   6.127   0.468
 5919W        W 9972   5.022   1.324  11.768
 5920W        W 9973   8.903   6.978   0.726
 5921W        W 9974   2.279   2.724   9.929
 5922W        W 9975   9.927   4.145  10.519
 5923W        W 9976   9.866   1.248  10.457
 5924W        W 9977   7.510   9.413   2.644
 5925W        W 9978   0.842   1.775  10.453
 5926W        W 9979   3.614   8.444  10.911
 5927W        W 9980   3.207  10.383  11.931
 5928W        W 9981   1.881   9.390   0.954
 5929W        W 9982   5.650   6.922   3.268
 5930W        W 9983   9.992  10.264   0.312
 5931W        W 9984   4.139   2.344  10.411
 5932W        W 9985   7.629   7.945   0.370
 5933W        W 9986   4.614   1.345   1.367
 5934W        W 9987   6.633   9.800  11.898
 5935W        W 9988   3.171   5.629   2.348
 5936W        W 9989   6.044   4.273  10.016
 5937W        W 9990   5.179   1.311   9.525
 5938W        W 9991   6.987   9.488  10.476
 5939W        W 9992   0.729   6.660   0.410
 5940W        W 9993   8.883  10.386   8.934
 5941W        W 9994   8.960   6.990  10.003
 5942W        W 9995   9.366   5.212   0.743
 5943W        W 9996   9.890   7.624  10.061
 5944W        W 9997   9.973   0.333   2.237
 5945W        W 9998   2.185   9.878   0.826
 5946W        W 9999   8.029   3.169   1.918
 5947W        W10000   3.202   1.329   2.367
 5948W        W10001   6.182   1.894   2.762
 5949W        W10002   6.035   7.551  10.428
 5950W        W10003   2.317   9.388   2.662
 5951W        W10004   7.015   1.227   9.595
 5952W        W10005   2.630   1.852   9.995
 5953W        W10006   8.560   9.441  10.960
 5954W        W10007   9.448   6.982   1.806
 5955W        W10008   5.721   6.056   2.375
 5956W        W10009   3.736   1.430  11.513
 5957W        W10010   3.148   4.157   1.270
 5958W        W10011   4.714   4.124  10.049
 5959W        W10012   5.145   5.514   3.196
 5960W        W10013   7.928   3.759   2.767
 5961W        W10014   2.794   3.327  10.823
 5962W        W10015   4.692   9.814   8.900
 5963W        W10016   1.748  10.348   8.913
 5964W        W10017   7.485   5.146   9.926
 5965W        W10018   1.798   2.216   0.406
 5966W        W10019   1.413   5.553   0.909
 5967W        W10020  10.491   8.025   1.325
 5968W        W10021   0.891   8.093  11.428
 5969W        W10022   0.887   0.326   8.925
 5970W        W10023   5.496   7.426   4.176
 5971W        W10024  10.405   6.102   2.394
 5972W        W10025   5.497   0.438   9.458
 5973W        W10026  10.455   7.132   9.482
 5974W        W10027   4.689   7.496  11.480
 5975W        W10028   1.409   2.168   9.375
 5976W        W10029   7.089   7.501  11.493
 5977W        W10030   5.105   2.163   9.998
 5978W        W10031   5.232   4.140  11.768
 5979W        W10032   3.323   5.679   3.641
 5980W        W10033   1.814   7.413   3.276
 5981W        W10034   8.882   1.687   2.187
 5982W        W10035   4.147   4.631   9.584
 5983W        W10036   6.492   2.191  11.951
 5984W        W10037   4.750  10.414  11.437
 5985W        W10038   3.118   7.122  10.072
 5986W        W10039   4.600   4.269   8.557
 5987W        W10040   3.196   9.856   2.685
 5988W        W10041   3.124   3.599   3.278
 5989W        W10042   6.106   5.537   8.601
 5990W        W10043   6.063   9.878  11.039
 5991W        W10044   2.656   9.372   1.800
 5992W        W10045   3.150   6.124   3.126
 5993W        W10046   9.919   9.833   0.934
 5994W        W10047   9.971   1.884   3.219
 5995W        W10048   5.502   4.224   8.455
 5996W        W10049   2.697   8.904  10.434
 5997W        W10050   1.421  10.330   0.479
 5998W        W10051   9.379   0.905   2.304
 5999W        W10052   5.233   8.087   0.342
 6000W        W10053  10.334   8.969   9.038
 6001W        W10054   9.319   1.431   2.783
 6002W        W10055   9.978   1.795   8.973
 6003W        W10056   2.330   7.958   0.875
 6004W        W10057   8.387   1.406  10.502
 6005W        W10058   3.752   7.093   0.906
 6006W        W10059   6.521   6.511  10.390
 6007W        W10060   3.306   2.826   9.481
 6008W        W10061   8.947   5.997   3.135
 6009W        W10062   8.857   4.119   3.790
 6010W        W10063   8.897  10.466  11.014
 6011W        W10064   9.891   9.028   3.298
 6012W        W10065   5.693   4.767   9.055
 6013W        W10066   0.312   2.203   1.250
 6014W        W10067   2.690   3.737  10.975
 6015W        W10068  10.358   2.675   1.389
 6016W        W10069   3.168   8.455   2.715
 6017W        W10070   5.677   2.346   8.909
 6018W        W10071   3.772   4.185   3.640
 6019W        W10072   5.672   5.131   8.453
 6020W        W10073   3.221   7.604   9.950
 6021W        W10074   4.765   8.065   1.373
 6022W        W10075   8.910   1.719   2.711
 6023W        W10076   9.324  10.001   1.330
 6024W        W10077   8.525   2.659   8.939
 6025W        W10078   2.684   3.301  10.374
 6026W        W10079   2.292   3.816  10.434
 6027W        W10080   0.765   7.494  10.423
 6028W        W10081   6.550   1.776  11.422
 6029W        W10082   8.396   8.934  11.927
 6030W        W10083   2.363   9.860   1.870
 6031W        W10084   6.469   0.453   9.018
 6032W        W10085   7.462   5.572   0.396
 6033W        W10086   9.800   9.309   8.943
 6034W        W10087   6.642   7.891   3.243
 6035W        W10088   1.712   6.500   0.945
 6036W        W10089   8.092   9.473   0.946
 6037W        W10090   7.618   5.532   0.767
 6038W        W10091   0.263   4.687   9.566
 6039W        W10092   1.822   1.816   0.284
 6040W        W10093   2.184  10.335  11.926
 6041W        W10094   5.581   1.697   0.276
 6042W        W10095   0.917   1.413   9.419
 6043W        W10096   2.677   5.554   9.441
 6044W        W10097   2.674   4.205   3.344
 6045W        W10098   8.909  10.459   2.848
 6046W        W10099   1.904   3.671   9.088
 6047W        W10100   8.052  10.407   9.400
 6048W        W10101   5.069   1.900   1.830
 6049W        W10102   6.590   3.309  11.943
 6050W        W10103   6.458   3.330  10.866
 6051W        W10104   7.947   5.704  11.962
 6052W        W10105   8.987   5.144  11.997
 6053W        W10106   1.859   1.215   9.044
 6054W        W10107   8.910   0.279   1.206
 6055W        W10108   3.249   7.996   1.216
 6056W        W10109   0.729   9.807   9.004
 6057W        W10110   4.266   7.509   2.654
 6058W        W10111   5.686   5.155   9.540
 6059W        W10112   2.156   9.917   0.401
 6060W        W10113   1.714   5.529   2.788
 6061W        W10114   6.603  10.368   0.867
 6062W        W10115   5.198   0.728  10.355
 6063W        W10116   6.181   2.170  10.978
 6064W        W10117   8.091   9.453   2.221
 6065W        W10118   7.066   8.009   1.751
 6066W        W10119   4.224   1.315   3.207
 6067W        W10120   4.178   2.736   2.260
 6068W        W10121   0.261   9.828  10.938
 6069W        W10122   7.150   1.383   1.748
 6070W        W10123   5.169   9.379   1.684
 6071W        W10124   8.377   2.225   0.827
 6072W        W10125   3.779   0.867  10.821
 6073W        W10126   6.175   7.143   2.358
 6074W        W10127   3.251   5.604   0.265
 6075W        W10128   7.088   8.990   9.573
 6076W        W10129   7.589   7.435  10.388
 6077W        W10130   3.297   5.621   0.729
 6078W        W10131   1.722   5.141  11.834
 6079W        W10132   8.474   0.856  11.911
 6080W        W10133   0.240   2.175   0.839
 6081W        W10134   9.913   7.917   9.005
 6082W        W10135   1.859   2.721   0.888
 6083W        W10136   8.066  10.416  10.949
 6084W        W10137   9.034   0.339  10.401
 6085W        W10138   6.001   8.581   8.480
 6086W        W10139   5.125   5.185  11.903
 6087W        W10140   4.675   7.410   1.695
 6088W        W10141   4.130   4.604   2.730
 6089W        W10142   0.822   5.591   2.223
 6090W        W10143   6.083   0.408  11.498
 6091W        W10144   7.890   5.017  11.926
 6092W        W10145   7.093   1.737   9.527
 6093W        W10146   5.508   7.454   9.442
 6094W        W10147   9.419   8.863   9.494
 6095W        W10148   7.548   5.044   1.335
 6096W        W10149   8.964   0.765  10.459
 6097W        W10150   1.717   1.743   0.861
 6098W        W10151   1.734   0.768   1.688
 6099W        W10152   1.233   5.212   3.265
 6100W        W10153  10.439   2.654   2.217
 6101W        W10154  10.429   8.834   1.718
 6102W        W10155   5.649   1.775  11.304
 6103W        W10156   8.112   1.412   0.417
 6104W        W10157   2.233  10.300   9.493
 6105W        W10158   2.728   6.471  11.012
 6106W        W10159   4.195   9.336   3.185
 6107W        W10160   8.916   5.239   0.838
 6108W        W10161   9.376   8.843   0.747
 6109W        W10162   9.445   9.829   9.979
 6110W        W10163   2.727   3.296   9.512
 6111W        W10164   3.256   6.203   9.930
 6112W        W10165   6.609   3.326   2.330
 6113W        W10166   6.937   7.111   3.223
 6114W        W10167   8.557   2.263  10.993
 6115W        W10168   3.206   4.657  11.375
 6116W        W10169   4.161  10.449   9.492
 6117W        W10170   6.665   7.425   9.437
 6118W        W10171   2.286   1.872  10.400
 6119W        W10172   0.445   5.492  11.434
 6120W        W10173   8.435   8.098  11.487
 6121W        W10174   0.477   1.880  11.324
 6122W        W10175   4.674   9.374   8.930
 6123W        W10176   3.672   2.657   8.918
 6124W        W10177  10.437   1.414  10.322
 6125W        W10178   7.547   0.838   0.940
 6126W        W10179   2.211   8.076  10.056
 6127W        W10180   8.991   1.270  10.505
 6128W        W10181   3.698   7.988  11.288
 6129W        W10182   9.003   5.626   0.419
 6130W        W10183   6.611   4.577   8.557
 6131W        W10184   8.078   2.768  11.765
 6132W        W10185   6.629   0.787   0.411
 6133W        W10186   6.944   5.529   3.268
 6134W        W10187   3.627   5.188  11.995
 6135W        W10188   4.687   0.455   3.331
 6136W        W10189   1.797  10.345   3.698
 6137W        W10190   3.682   3.157   8.933
 6138W        W10191   2.744   4.641   2.199
 6139W        W10192   7.055   4.244   2.167
 6140W        W10193   9.841   7.523   3.284
 6141W        W10194   2.835   5.148   0.267
 6142W        W10195   8.926   7.483   9.517
 6143W        W10196   6.937   1.302   9.877
 6144W        W10197   6.002   8.099   0.356
 6145W        W10198   7.045   5.182   3.720
 6146W        W10199   4.706  10.474   0.760
 6147W        W10200   8.466   4.124  11.453
 6148W        W10201   3.244   5.560  11.453
 6149W        W10202   5.671   2.645   1.768
 6150W        W10203   6.562   8.995   9.533
 6151W        W10204   2.718   2.165   2.301
 6152W        W10205   3.207   9.986   1.775
 6153W        W10206   0.738   7.563   8.408
 6154W        W10207   5.673   8.379   1.332
 6155W        W10208   2.644   4.605   9.894
 6156W        W10209   0.304   4.261  11.835
 6157W        W10210   3.688   0.811   1.334
 6158W        W10211   0.443   3.665   9.098
 6159W        W10212   6.198   9.526   2.371
 6160W        W10213   1.863   3.717   1.826
 6161W        W10214   4.770   6.158   2.176
 6162W        W10215   1.709   7.902   3.277
 6163W        W10216   1.742   3.778   9.595
 6164W        W10217   4.576   0.827  11.321
 6165W        W10218   9.930   8.538  11.503
 6166W        W10219   0.365   6.164   2.279
 6167W        W10220   2.318   1.721   9.950
 6168W        W10221   8.001   5.019   2.172
 6169W        W10222   5.502  10.379  10.369
 6170W        W10223   3.192   2.242   2.645
 6171W        W10224   1.720   3.632   3.187
 6172W        W10225   5.235   9.349   0.302
 6173W        W10226   6.038   1.313   2.727
 6174W        W10227   9.008   2.236   2.334
 6175W        W10228   8.891   5.230   1.734
 6176W        W10229   0.716   7.083   1.706
 6177W        W10230   2.212   4.268   0.851
 6178W        W10231   7.087   1.217   0.818
 6179W        W10232   7.602   2.647   0.920
 6180W        W10233   6.621   7.137   2.704
 6181W        W10234   9.527   8.502   2.362
 6182W        W10235   1.290   2.737   9.458
 6183W        W10236   2.181   9.445  11.934
 6184W        W10237   7.489   5.598  11.034
 6185W        W10238   0.360   0.802   0.959
 6186W        W10239   5.526   4.253   2.657
 6187W        W10240   1.381   3.335   0.324
 6188W        W10241   9.036   9.333   1.690
 6189W        W10242   4.711   5.589  11.404
 6190W        W10243   7.037   2.729   0.928
 6191W        W10244   3.622   8.054   1.207
 6192W        W10245   7.499  10.476  11.837
 6193W        W10246   0.250   6.110  11.334
 6194W        W10247   0.932   0.287  11.812
 6195W        W10248   3.240   3.612  11.808
 6196W        W10249   0.247   8.521   3.243
 6197W        W10250   4.293   8.987   9.461
 6198W        W10251   2.174   3.264   0.337
 6199W        W10252   3.222   2.740   3.348
 6200W        W10253   5.024   3.800   9.002
 6201W        W10254   2.744   9.024   1.285
 6202W        W10255  10.448   5.513   1.781
 6203W        W10256   0.886   2.172  10.416
 6204W        W10257   5.583   2.793   0.280
 6205W        W10258   6.661   4.201   9.005
 6206W        W10259   3.245   9.399  11.495
 6207W        W10260   3.729   4.760   0.871
 6208W        W10261   0.814   1.426   1.917
 6209W        W10262   9.357   1.236  11.836
 6210W        W10263   8.099   8.484   0.740
 6211W        W10264   1.770   5.126  10.418
 6212W        W10265   9.910   6.535   1.838
 6213W        W10266   5.134   6.561   0.389
 6214W        W10267   3.312  10.014  10.804
 6215W        W10268   6.569   2.186   2.724
 6216W        W10269   5.151   3.188   8.434
 6217W        W10270   8.845   3.339   8.984
 6218W        W10271   3.319   1.290  10.043
 6219W        W10272   9.828   6.477   9.094
 6220W        W10273   9.924   6.986   8.520
 6221W        W10274   4.557   1.198   2.819
 6222W        W10275   4.573   2.777   2.163
 6223W        W10276   4.164   4.295  11.396
 6224W        W10277   4.252   8.456   9.554
 6225W        W10278   6.118   6.946  11.999
 6226W        W10279   6.115   5.057   0.854
 6227W        W10280   2.701  10.005   2.301
 6228W        W10281   2.185   9.824   9.933
 6229W        W10282   4.743   0.949  10.341
 6230W        W10283   6.640   1.884   1.418
 6231W        W10284   6.124  10.462  10.480
 6232W        W10285   9.389   9.448   1.835
 6233W        W10286   8.555   5.683   8.617
 6234W        W10287   5.516   1.397   0.439
 6235W        W10288   0.819  10.014   9.902
 6236W        W10289   7.056   0.936   1.201
 6237W        W10290   5.085   3.243  11.783
 6238W        W10291   6.017   2.709   8.886
 6239W        W10292   0.392   8.863   3.759
 6240W        W10293   8.041   3.778   8.999
 6241W        W10294   0.774   1.754  11.975
 6242W        W10295   0.788   6.130   9.515
 6243W        W10296   8.005   7.553  10.811
 6244W        W10297   7.948   9.530   1.357
 6245W        W10298   7.154   3.665   9.933
 6246W        W10299   6.120   2.254   1.248
 6247W        W10300   9.485   7.575  10.406
 6248W        W10301   6.530   2.840   2.762
 6249W        W10302   5.611   9.382   1.761
 6250W        W10303   7.059   8.481  11.766
 6251W        W10304   2.651   2.372  11.017
 6252W        W10305   8.479   9.375   8.889
 6253W        W10306   1.295   6.118   0.929
 6254W        W10307   5.161   1.786  10.966
 6255W        W10308   8.958   7.026  11.426
 6256W        W10309  10.490   1.730   1.275
 6257W        W10310   6.548   0.886   9.905
 6258W        W10311   6.033   3.675   8.116
 6259W        W10312   9.336   2.183  10.016
 6260W        W10313   4.088   6.485   1.363
 6261W        W10314   5.020   8.835  10.027
 6262W        W10315   6.185   2.646   1.784
 6263W        W10316   5.203   4.672   9.919
 6264W        W10317   1.749   4.064   3.810
 6265W        W10318   7.399   5.194  10.980
 6266W        W10319   4.751   3.704   9.377
 6267W        W10320   1.859   1.369   2.758
 6268W        W10321   3.140   2.350   9.080
 6269W        W10322   9.542   8.071   0.343
 6270W        W10323   0.744   1.743   8.974
 6271W        W10324   3.708   7.436   1.765
 6272W        W10325   5.605   9.395  10.969
 6273W        W10326   0.751   3.215   1.434
 6274W        W10327   7.136   5.982   1.757
 6275W        W10328   3.237   4.092  11.391
 6276W        W10329   3.210   8.959   8.947
 6277W        W10330   9.878   2.166   0.740
 6278W        W10331   7.923   6.019   1.770
 6279W        W10332  10.371   0.913   0.403
 6280W        W10333   7.617   3.608   9.022
 6281W        W10334   6.017   0.720   9.520
 6282W        W10335   8.055   4.568   1.884
 6283W        W10336   6.925   0.265  10.371
 6284W        W10337   2.260   0.445  11.316
 6285W        W10338   3.283   0.742   2.218
 6286W        W10339   5.679  10.473   9.984
 6287W        W10340  10.363   1.246   3.230
 6288W        W10341   1.327   4.215  11.920
 6289W        W10342   6.532   6.026   8.590
 6290W        W10343   8.033   0.303   3.290
 6291W        W10344   1.357   0.453   1.788
 6292W        W10345   0.271   3.791   1.906
 6293W        W10346   7.999   9.924  10.969
 6294W        W10347   4.191   2.808   0.384
 6295W        W10348   9.362   5.122   8.934
 6296W        W10349   4.288   3.645   1.895
 6297W        W10350   6.644   3.806   2.337
 6298W        W10351   7.449   3.118   1.860
 6299W        W10352   5.632   0.420   2.654
 6300W        W10353   5.241   9.792   3.204
 6301W        W10354   3.789   2.169   8.556
 6302W        W10355   5.649   5.166   9.874
 6303W        W10356   3.295   4.753  10.434
 6304W        W10357   7.000   4.087  10.504
 6305W        W10358   0.318   1.851   3.221
 6306W        W10359   5.613   0.336  11.922
 6307W        W10360   3.171  10.399   3.339
 6308W        W10361   3.185   7.506   3.772
 6309W        W10362   1.288   1.732   0.355
 6310W        W10363   1.798   8.433   4.213
 6311W        W10364   3.687   1.260   2.813
 6312W        W10365   6.100   7.902  11.462
 6313W        W10366   2.849   3.299   0.313
 6314W        W10367   4.094   5.641   9.583
 6315W        W10368   3.805   8.381   1.899
 6316W        W10369   5.546   9.820   0.459
 6317W        W10370   2.350   4.686  11.956
 6318W        W10371   4.109   0.721   2.341
 6319W        W10372   6.607   3.271   1.781
 6320W        W10373   2.385   7.570  10.403
 6321W        W10374   7.876   0.306  11.031
 6322W        W10375   7.410   3.750   1.410
 6323W        W10376   9.982   5.980  11.426
 6324W        W10377   6.074   7.036   8.919
 6325W        W10378   8.935   0.866   9.886
 6326W        W10379   2.648   5.055  10.431
 6327W        W10380   7.601   2.815   2.716
 6328W        W10381   2.171   5.704   1.326
 6329W        W10382   1.336   0.460  11.500
 6330W        W10383   9.448   0.929  11.889
 6331W        W10384   6.108   8.859   9.946
 6332W        W10385   1.297   3.796   3.259
 6333W        W10386   5.028   9.023  11.922
 6334W        W10387   3.225   6.198   2.719
 6335W        W10388   9.006   2.844   9.904
 6336W        W10389   5.015   3.315   2.715
 6337W        W10390   8.978   5.073   1.418
 6338W        W10391   3.594   3.274   1.342
 6339W        W10392   3.167   7.580   1.216
 6340W        W10393  10.016   4.270   9.889
 6341W        W10394  10.373   0.429   1.865
 6342W        W10395   6.938   3.738  10.992
 6343W        W10396   8.079   3.156   8.935
 6344W        W10397   0.374   7.931   2.844
 6345W        W10398   8.423   5.213  11.953
 6346W        W10399   8.968   5.710   0.922
 6347W        W10400   5.579   1.687   3.274
 6348W        W10401   4.243   1.262   9.992
 6349W        W10402   3.269   8.846   1.812
 6350W        W10403   3.175  10.491   9.998
 6351W        W10404   2.233   6.670  10.515
 6352W        W10405   9.451   5.580   0.447
 6353W        W10406   3.268   6.559   3.201
 6354W        W10407   3.751  10.022   1.851
 6355W        W10408   3.247   9.862   9.920
 6356W        W10409   5.029   0.451   1.912
 6357W        W10410   5.079   7.944  10.512
 6358W        W10411   1.349   8.965   1.907
 6359W        W10412   1.418   2.298  10.421
 6360W        W10413   1.896   2.843   3.228
 6361W        W10414   0.448   3.802   2.721
 6362W        W10415   5.599   6.530  11.026
 6363W        W10416   8.005   9.356  11.320
 6364W        W10417   6.101   1.862  10.980
 6365W        W10418   5.166   8.004  11.427
 6366W        W10419   4.727   1.402   9.906
 6367W        W10420   6.107   7.002   0.395
 6368W        W10421   3.104   1.791   0.835
 6369W        W10422   7.017   4.685   1.409
 6370W        W10423   0.766   9.966   8.475
 6371W        W10424   6.482   8.531   3.305
 6372W        W10425   2.317   4.174  10.481
 6373W        W10426   2.298   0.893  10.059
 6374W        W10427   7.104  10.019   0.812
 6375W        W10428   9.494   1.858   1.910
 6376W        W10429   1.876   9.416   9.068
 6377W        W10430   5.522   8.586  11.765
 6378W        W10431   9.792   4.719  11.419
 6379W        W10432   6.989   5.973   2.665
 6380W        W10433   1.803   5.724  11.021
 6381W        W10434   9.320   5.049  11.806
 6382W        W10435   3.144   1.407   9.108
 6383W        W10436   7.912  10.280  11.479
 6384W        W10437   1.423   0.280  11.913
 6385W        W10438   6.505   5.565   2.332
 6386W        W10439   8.540   0.885  10.998
 6387W        W10440   0.797   4.623   1.705
 6388W        W10441   7.578   6.955   0.341
 6389W        W10442   6.649   4.722   3.160
 6390W        W10443   8.370  10.360   2.774
 6391W        W10444   8.064   1.867   2.716
 6392W        W10445   6.949   0.453   0.774
 6393W        W10446   2.351   3.204   2.296
 6394W        W10447   3.339   4.735   9.535
 6395W        W10448   9.511   9.917  10.469
 6396W        W10449   5.248   3.310   2.181
 6397W        W10450   4.135   8.021   3.314
 6398W        W10451   2.216   4.256   2.361
 6399W        W10452   0.805   4.152   0.737
 6400W        W10453   9.537   9.538   8.943
 6401W        W10454   5.642   1.314  11.920
 6402W        W10455   8.879   2.337   1.836
 6403W        W10456   7.060   0.356   9.075
 6404W        W10457   9.032   5.567   1.856
 6405W        W10458   1.888   3.732  11.037
 6406W        W10459   9.446   3.736   3.274
 6407W        W10460   8.397   8.454  11.005
 6408W        W10461   8.065   0.403   0.245
 6409W        W10462   0.869   3.246  10.076
 6410W        W10463   6.146   9.523   0.871
 6411W        W10464   5.209   9.909   0.858
 6412W        W10465  10.020   3.276   1.902
 6413W        W10466  10.376   9.353  10.070
 6414W        W10467   6.017   7.126  11.309
 6415W        W10468   2.325   1.396   1.310
 6416W        W10469   6.658   3.309  10.468
 6417W        W10470   3.808   9.419   3.247
 6418W        W10471   2.678   6.005   9.047
 6419W        W10472   3.243   4.662   2.170
 6420W        W10473   3.644  10.398   0.737
 6421W        W10474   8.909   7.469   8.883
 6422W        W10475   9.810   8.917   8.937
 6423W        W10476  10.425   2.183   2.814
 6424W        W10477   2.293   2.231  10.552
 6425W        W10478   2.159   3.268   9.913
 6426W        W10479   6.962   1.839   1.863
 6427W        W10480   9.917   1.418   1.846
 6428W        W10481   9.905   8.937   2.715
 6429W        W10482   3.202   4.295  10.938
 6430W        W10483   5.690   4.620   9.376
 6431W        W10484   5.523   3.122   3.256
 6432W        W10485   0.312   7.072  11.358
 6433W        W10486   2.210   3.757  11.886
 6434W        W10487  10.005   3.287   9.075
 6435W        W10488   2.816   3.151   9.017
 6436W        W10489   8.505   3.790  10.931
 6437W        W10490   3.775   3.144   3.334
 6438W        W10491   7.115   7.080   2.666
 6439W        W10492   1.853   5.070   1.271
 6440W        W10493   6.594   9.830   9.544
 6441W        W10494   3.625   5.230   2.762
 6442W        W10495   0.464   7.875   0.308
 6443W        W10496   8.939   9.499   1.348
 6444W        W10497   5.558   1.782   9.557
 6445W        W10498   2.275   6.467   0.401
 6446W        W10499   5.176   2.830  10.920
 6447W        W10500   8.910   9.543   9.424
 6448W        W10501   7.110   5.205   8.522
 6449W        W10502   5.103   6.456  10.369
 6450W        W10503   9.507   4.292   0.409
 6451W        W10504   8.383   1.671   0.830
 6452W        W10505   9.001   6.190   3.604
 6453W        W10506   8.888   8.572   3.272
 6454W        W10507   1.824   0.477   0.269
 6455W        W10508   1.200  10.336  11.286
 6456W        W10509   9.812   8.532   2.284
 6457W        W10510   8.361   5.996   1.710
 6458W        W10511   1.381   7.105   2.727
 6459W        W10512   5.677   8.429   9.370
 6460W        W10513   4.180   4.765   8.470
 6461W        W10514   9.910   8.000  10.956
 6462W        W10515   7.513   5.069   3.254
 6463W        W10516   8.027   2.270   1.910
 6464W        W10517   6.567   9.806   0.312
 6465W        W10518   5.196   3.590   9.539
 6466W        W10519   6.108   6.084  11.350
 6467W        W10520   1.686   0.389   2.765
 6468W        W10521   2.214   4.605   9.360
 6469W        W10522   6.556   9.446  10.056
 6470W        W10523   5.056   8.024   2.353
 6471W        W10524   4.099   2.721   1.690
 6472W        W10525  10.425   9.536  10.830
 6473W        W10526   6.046   5.171   2.319
 6474W        W10527   5.625   3.279   1.356
 6475W        W10528   0.734   7.921   8.882
 6476W        W10529   6.044  10.425   3.220
 6477W        W10530   6.120   2.784   0.914
 6478W        W10531   5.560   1.267  10.368
 6479W        W10532   4.752   2.735  10.007
 6480W        W10533   1.767   6.044   2.337
 6481W        W10534   6.179   5.215   3.158
 6482W        W10535   1.768   6.568   8.930
 6483W        W10536   6.085   5.984   1.896
 6484W        W10537   5.518   4.237   1.227
 6485W        W10538   3.799   7.443   0.341
 6486W        W10539   0.458   6.616   3.191
 6487W        W10540   0.843   5.201  10.421
 6488W        W10541   0.355  10.385   1.873
 6489W        W10542   5.213   2.673  11.979
 6490W        W10543   9.337   3.194   0.367
 6491W        W10544  10.021   6.525   8.569
 6492W        W10545   5.228  10.472   2.802
 6493W        W10546   7.497   8.957   9.409
 6494W        W10547   4.551   6.473   0.392
 6495W        W10548   8.571   9.536   2.643
 6496W        W10549   2.328   4.286   1.380
 6497W        W10550  10.342   2.333   0.729
 6498W        W10551   7.956   8.072   9.880
 6499W        W10552   1.276   9.310  11.466
 6500W        W10553   5.718   7.108   3.655
 6501W        W10554   2.760   7.016   8.934
 6502W        W10555   3.247   3.744   0.376
 6503W        W10556   0.385   9.913   3.208
 6504W        W10557   5.510   9.500   2.213
 6505W        W10558   7.627   3.151   1.246
 6506W        W10559   6.028   4.205   4.095
 6507W        W10560   8.021   0.726   1.353
 6508W        W10561   0.359   4.158   1.425
 6509W        W10562   3.659   0.441  11.009
 6510W        W10563   4.725   9.816   1.772
 6511W        W10564   5.166   6.629   3.332
 6512W        W10565   1.862   1.298   0.941
 6513W        W10566   6.130   5.121   1.895
 6514W        W10567   9.930   5.675   2.241
 6515W        W10568   8.376   1.881  11.891
 6516W        W10569   5.980   8.573   1.770
 6517W        W10570   7.487   9.034   2.775
 6518W        W10571   8.975   8.427   1.900
 6519W        W10572   7.456   1.282   2.353
 6520W        W10573   9.337   9.512  11.499
 6521W        W10574   0.912   7.092   0.760
 6522W        W10575   7.073   0.773  11.390
 6523W        W10576   1.291   1.347   2.309
 6524W        W10577   1.853   9.034   3.223
 6525W        W10578   4.168   6.007   9.967
 6526W        W10579   2.772   2.373  11.823
 6527W        W10580   1.735   7.586  10.449
 6528W        W10581   1.285   0.739   1.425
 6529W        W10582   6.047   4.649   0.877
 6530W        W10583   3.279   2.715   1.695
 6531W        W10584   5.696   2.638  10.993
 6532W        W10585   8.403   7.050   1.242
 6533W        W10586   6.168   7.601   0.444
 6534W        W10587   0.285   4.291  10.519
 6535W        W10588   6.644   2.810   2.272
 6536W        W10589   2.234   2.747   1.238
 6537W        W10590   0.719  10.405   1.879
 6538W        W10591   6.094   1.284  10.323
 6539W        W10592   8.933   4.109   9.004
 6540W        W10593   9.052   2.643   0.443
 6541W        W10594   3.271   6.601   1.373
 6542W        W10595   5.245   0.764   1.878
 6543W        W10596   7.966   7.581   1.267
 6544W        W10597   8.380  10.449   9.953
 6545W        W10598   1.903   2.766   2.344
 6546W        W10599   1.752   6.082  10.802
 6547W        W10600   9.460   2.252   1.390
 6548W        W10601   5.155   6.511   1.704
 6549W        W10602   9.316   5.520   2.649
 6550W        W10603   4.741   8.557   9.863
 6551W        W10604   2.179   6.677  11.466
 6552W        W10605   4.696   3.263   2.730
 6553W        W10606   5.697   0.330  10.991
 6554W        W10607   1.379   8.553   2.714
 6555W        W10608   2.815   6.184  10.471
 6556W        W10609   2.825   2.368   0.368
 6557W        W10610   3.811   5.627   3.172
 6558W        W10611   4.714   5.979   1.872
 6559W        W10612   6.495   2.327   9.108
 6560W        W10613   1.879   2.338   2.764
 6561W        W10614   8.853   1.271   2.835
 6562W        W10615   7.054   0.725  10.864
 6563W        W10616   2.174   2.306   1.740
 6564W        W10617   0.850   1.361  10.356
 6565W        W10618   6.523   0.808   2.815
 6566W        W10619   0.342   9.866   2.674
 6567W        W10620   4.648   2.670   9.043
 6568W        W10621   2.303   1.242   9.436
 6569W        W10622   3.710   5.598   0.318
 6570W        W10623   8.446   6.490   0.273
 6571W        W10624   6.958  10.472  11.877
 6572W        W10625   3.605   8.466  10.509
 6573W        W10626   4.676   8.987   2.716
 6574W        W10627   8.005   2.750   2.744
 6575W        W10628   3.321   0.955   0.749
 6576W        W10629   1.679   3.150   0.885
 6577W        W10630   5.552   8.075   2.372
 6578W        W10631   9.426   3.621   2.278
 6579W        W10632   4.263   5.662  11.765
 6580W        W10633   0.794   2.665   8.441
 6581W        W10634   9.068   6.557  10.912
 6582W        W10635   3.808   7.153  10.346
 6583W        W10636   9.033   3.669   1.904
 6584W        W10637   9.853   7.632   3.698
 6585W        W10638   6.669   0.391   0.422
 6586W        W10639   3.167   6.610   9.903
 6587W        W10640   9.810   9.354  11.443
 6588W        W10641   5.518   4.074   3.197
 6589W        W10642   5.648   3.168   0.391
 6590W        W10643   0.779   8.865   3.282
 6591W        W10644   7.980   6.979  10.395
 6592W        W10645   8.427   5.697   8.930
 6593W        W10646   1.274  10.452   2.646
 6594W        W10647   0.443   0.412   0.836
 6595W        W10648   3.616   5.606  10.389
 6596W        W10649   8.962  10.295   0.721
 6597W        W10650   8.463   8.464   9.049
 6598W        W10651   5.705   4.259   2.257
 6599W        W10652   0.306   6.523   8.966
 6600W        W10653   6.610   6.655   9.049
 6601W        W10654   0.242   8.568  10.984
 6602W        W10655   7.977   3.735   9.422
 6603W        W10656   3.146   7.035   1.686
 6604W        W10657   7.884   7.428   2.322
 6605W        W10658   5.226  10.268   1.897
 6606W        W10659   5.633   4.285   4.153
 6607W        W10660   5.521   7.513  11.779
 6608W        W10661   6.132   2.802  11.827
 6609W        W10662   5.078   8.565   8.402
 6610W        W10663   5.544   0.947   0.341
 6611W        W10664   8.469   6.060   0.888
 6612W        W10665   5.165   6.171   2.721
 6613W        W10666   8.391   4.164   1.706
 6614W        W10667   5.976   3.717  10.476
 6615W        W10668   2.280   2.236   0.843
 6616W        W10669   9.416   5.241   0.376
 6617W        W10670   7.499   3.149   9.888
 6618W        W10671   5.558   4.687   3.129
 6619W        W10672   1.887   6.144  11.831
 6620W        W10673   4.058   5.015   9.931
 6621W        W10674   6.070   1.326   9.866
 6622W        W10675   1.823   6.949   1.381
 6623W        W10676   5.033   1.765   2.189
 6624W        W10677   3.739   2.238   1.916
 6625W        W10678   7.086   5.981   9.453
 6626W        W10679   3.309   1.897  11.415
 6627W        W10680   1.750   0.847   0.727
 6628W        W10681   3.253   4.587   0.871
 6629W        W10682   9.867   4.163   2.839
 6630W        W10683   4.685  10.283   8.916
 6631W        W10684   0.278   5.982  10.324
 6632W        W10685   3.335   1.277   2.869
 6633W        W10686   1.834   5.497   8.943
 6634W        W10687   8.541   8.567   8.440
 6635W        W10688   5.049   1.348  10.913
 6636W        W10689   0.883   5.595   1.424
 6637W        W10690   9.331   8.071   2.876
 6638W        W10691   6.462   5.618  11.330
 6639W        W10692  10.445   6.024  11.359
 6640W        W10693   9.311   7.013  11.895
 6641W        W10694   9.904   2.181  11.932
 6642W        W10695   7.536   8.465   8.447
 6643W        W10696   8.019   1.373   9.507
 6644W        W10697   0.918   7.437   1.353
 6645W        W10698   0.897   3.665   0.243
 6646W        W10699   1.702   0.763  11.329
 6647W        W10700  10.367   7.591  11.351
 6648W        W10701   8.495   7.893  11.887
 6649W        W10702   7.115   2.291   3.257
 6650W        W10703   3.191   3.778  10.968
 6651W        W10704   0.366   5.604   0.769
 6652W        W10705   4.128   0.876  10.957
 6653W        W10706   7.945   7.141   0.263
 6654W        W10707   1.329   7.506  11.767
 6655W        W10708   5.031   3.783   9.853
 6656W        W10709   1.894   7.135   2.329
 6657W        W10710   1.217   6.184  11.305
 6658W        W10711   4.141   8.499   1.807
 6659W        W10712   5.099  10.278  10.340
 6660W        W10713   7.907   4.209  10.385
 6661W        W10714   8.982   2.795   9.473
 6662W        W10715   2.319   6.149   9.022
 6663W        W10716   0.888   8.449  11.013
 6664W        W10717   9.029   9.883   1.836
 6665W        W10718   1.378   9.020   2.758
 6666W        W10719   7.157   4.101   9.465
 6667W        W10720   7.158   0.421   0.450
 6668W        W10721   8.831  10.344   9.881
 6669W        W10722   2.760   7.064   2.288
 6670W        W10723   4.704   7.134  11.298
 6671W        W10724   2.314   3.627   0.856
 6672W        W10725   4.574   3.743   0.936
 6673W        W10726   8.990   1.870   3.637
 6674W        W10727   9.884   3.684  11.011
 6675W        W10728   6.567   9.477   3.214
 6676W        W10729   3.149   4.742   2.777
 6677W        W10730   3.134   7.062   0.432
 6678W        W10731   6.507   9.531   0.842
 6679W        W10732   5.726   9.009   3.144
 6680W        W10733   4.189   1.257   0.798
 6681W        W10734   9.013   3.728  11.909
 6682W        W10735  10.004   2.194   0.326
 6683W        W10736   6.103   0.935   9.081
 6684W        W10737   6.198   0.774   3.148
 6685W        W10738   8.940   1.415   1.709
 6686W        W10739   2.287   9.972  11.370
 6687W        W10740   0.736   7.963   9.442
 6688W        W10741   4.183   3.264   2.210
 6689W        W10742   2.378   9.881   9.448
 6690W        W10743   0.837   1.786   1.690
 6691W        W10744   5.627   9.931   2.803
 6692W        W10745  10.493   0.723   2.773
 6693W        W10746   0.241   5.184  10.352
 6694W        W10747   2.721   7.429   9.922
 6695W        W10748   8.537   1.268   1.878
 6696W        W10749  10.015   4.753   3.135
 6697W        W10750   9.866   8.587   2.710
 6698W        W10751   2.794   6.078   9.845
 6699W        W10752   6.581   5.704  10.925
 6700W        W10753   2.255   8.402  11.927
 6701W        W10754   5.198   6.955  10.036
 6702W        W10755   0.289   6.158   2.874
 6703W        W10756   0.941   7.580  11.364
 6704W        W10757   8.103   3.308   0.788
 6705W        W10758  10.399  10.331  11.328
 6706W        W10759   0.441   9.348   2.875
 6707W        W10760   6.598   2.366  10.510
 6708W        W10761   4.084   7.031  11.835
 6709W        W10762   6.540   5.020   2.781
 6710W        W10763   2.324   1.860   0.911
 6711W        W10764   8.953   1.758   8.946
 6712W        W10765   2.309   2.711   3.257
 6713W        W10766   0.398   3.753   1.206
 6714W        W10767   9.023   8.581   9.449
 6715W        W10768   5.973   2.306   0.439
 6716W        W10769   6.200   9.873   1.765
 6717W        W10770   2.648   7.426  10.935
 6718W        W10771   3.289   8.939   0.436
 6719W        W10772   3.155   4.265  10.326
 6720W        W10773  10.354   8.482   9.001
 6721W        W10774   7.441  10.337   0.783
 6722W        W10775   3.157   1.786   9.894
 6723W        W10776   8.053   3.139   2.263
 6724W        W10777   6.012   4.543   8.586
 6725W        W10778   4.696   4.095   1.694
 6726W        W10779   0.294   9.037   9.040
 6727W        W10780   4.234   3.231   2.714
 6728W        W10781   2.746   5.585  11.357
 6729W        W10782   7.001  10.430   0.764
 6730W        W10783   2.368   1.342   0.874
 6731W        W10784   3.764   5.574   2.397
 6732W        W10785   4.268   4.247   9.543
 6733W        W10786   9.919   6.130   1.890
 6734W        W10787   3.141  10.279  10.974
 6735W        W10788  10.452   7.623   0.800
 6736W        W10789   4.110   6.058  10.967
 6737W        W10790   6.948   3.260  11.024
 6738W        W10791   1.431   9.931   2.845
 6739W        W10792   7.401  10.312   9.465
 6740W        W10793   2.245   7.492   3.286
 6741W        W10794  10.465   1.303   8.921
 6742W        W10795   5.111   6.114   1.411
 6743W        W10796   8.431   3.188   3.235
 6744W        W10797   9.903   7.025   3.222
 6745W        W10798   6.983   9.998   3.152
 6746W        W10799   4.098   1.787   1.299
 6747W        W10800   6.614   3.640  11.315
 6748W        W10801   1.327   9.900   0.847
 6749W        W10802   3.782   5.665   8.966
 6750W        W10803   9.821   3.269   0.769
 6751W        W10804   4.683   7.940   2.385
 6752W        W10805   6.554   5.692   1.219
 6753W        W10806   0.876   6.093   0.437
 6754W        W10807   0.783   6.027   1.209
 6755W        W10808  10.398   4.141   0.839
 6756W        W10809   6.632   7.061   2.287
 6757W        W10810   9.419  10.299  10.545
 6758W        W10811   9.535   2.246   2.820
 6759W        W10812   6.538   1.864   1.800
 6760W        W10813   2.193   9.018   0.927
 6761W        W10814   5.065   7.157   0.765
 6762W        W10815   3.271   6.020   1.811
 6763W        W10816   7.501   9.809   0.394
 6764W        W10817   0.356   9.530   0.345
 6765W        W10818   6.943   4.288   9.108
 6766W        W10819   5.557   6.150   1.226
 6767W        W10820   9.363   3.213  11.888
 6768W        W10821   6.637   8.472  10.070
 6769W        W10822   4.683   8.539  10.923
 6770W        W10823   9.951   3.681   3.154
 6771W        W10824   5.119   0.756  11.995
 6772W        W10825   0.412   5.673   9.842
 6773W        W10826   5.589   1.205   0.906
 6774W        W10827   4.262   3.719   3.214
 6775W        W10828   2.383   6.535   2.878
 6776W        W10829   7.452   0.767  10.909
 6777W        W10830   6.977   9.545   2.304
 6778W        W10831  10.442   7.942   9.413
 6779W        W10832   2.688   8.983   2.189
 6780W        W10833   9.017   6.668  11.873
 6781W        W10834   1.856   8.956   0.900
 6782W        W10835   8.095   0.402  11.911
 6783W        W10836   2.335   4.620   1.406
 6784W        W10837   2.720   9.914   1.369
 6785W        W10838   6.590   5.495  10.538
 6786W        W10839   7.493   2.639   8.510
 6787W        W10840   9.035   1.713   0.880
 6788W        W10841   1.307   5.592  10.994
 6789W        W10842   5.081   6.483  11.481
 6790W        W10843   2.238   8.485   1.236
 6791W        W10844   5.692   0.317   9.913
 6792W        W10845   9.047   2.662   2.298
 6793W        W10846   6.664   9.011   9.113
 6794W        W10847   5.502   7.078   9.561
 6795W        W10848  10.422   8.377   8.568
 6796W        W10849   8.414   4.151   0.825
 6797W        W10850   9.040   3.195  10.416
 6798W        W10851   5.136   0.792   3.122
 6799W        W10852   7.514   1.196  11.903
 6800W        W10853   7.570   9.502   0.937
 6801W        W10854   5.533   4.263  10.808
 6802W        W10855   9.936   2.851   0.951
 6803W        W10856   1.810  10.321   0.730
 6804W        W10857   2.334   4.561   1.842
 6805W        W10858   6.477   8.355   0.410
 6806W        W10859   0.393   4.695   1.330
 6807W        W10860   5.235   2.834   1.890
 6808W        W10861   6.622   9.513   9.008
 6809W        W10862   3.757   8.587   3.126
 6810W        W10863   1.430   8.527  10.329
 6811W        W10864   9.033   6.663   1.838
 6812W        W10865   1.781   8.440   3.275
 6813W        W10866   5.148   4.099   3.357
 6814W        W10867   8.443   9.407   3.818
 6815W        W10868   6.186   9.972  10.045
 6816W        W10869   7.536   6.112   9.899
 6817W        W10870   4.133   0.788   0.297
 6818W        W10871   9.799   7.537   9.384
 6819W        W10872   4.116   0.446   0.368
 6820W        W10873   7.046   6.007   8.635
 6821W        W10874   1.325   9.789  10.871
 6822W        W10875   9.326   0.319  11.761
 6823W        W10876  10.293   5.614   0.286
 6824W        W10877   1.711   0.912   3.797
 6825W        W10878   2.281   4.636   0.730
 6826W        W10879   5.565   7.934   9.896
 6827W        W10880   5.183   5.693  10.404
 6828W        W10881   4.629   9.007   9.909
 6829W        W10882   8.514   3.186  11.442
 6830W        W10883  10.019  10.497   9.483
 6831W        W10884   6.941   8.947   1.902
 6832W        W10885   3.116   0.457  10.894
 6833W        W10886   4.589   8.048  10.835
 6834W        W10887   7.025   4.210  11.920
 6835W        W10888   9.938   4.755   2.329
 6836W        W10889   5.650   6.041  11.969
 6837W        W10890   5.159   1.357   1.685
 6838W        W10891   3.675   4.724  10.324
 6839W        W10892   5.539   8.362  11.424
 6840W        W10893   4.590   0.852   2.713
 6841W        W10894   0.793   3.326   2.838
 6842W        W10895  10.466   9.045   9.406
 6843W        W10896   5.114   1.782  11.896
 6844W        W10897  10.430   3.239   1.750
 6845W        W10898   8.944   0.923   9.063
 6846W        W10899   6.489   0.343  10.350
 6847W        W10900   3.192   9.537  11.959
 6848W        W10901   9.929   4.118   2.361
 6849W        W10902  10.302   2.290   2.336
 6850W        W10903   1.424   3.225   1.800
 6851W        W10904   2.710   1.765  11.362
 6852W        W10905   5.634   5.684   2.222
 6853W        W10906   9.001   3.685   9.392
 6854W        W10907   0.782   3.232   3.126
 6855W        W10908   4.085   8.836  11.966
 6856W        W10909   9.426   7.062   3.287
 6857W        W10910   6.555   5.239   1.897
 6858W        W10911   7.409   0.461   1.318
 6859W        W10912   5.535   7.097   2.303
 6860W        W10913   6.980   1.379   0.333
 6861W        W10914   5.603  10.376   0.352
 6862W        W10915   8.434  10.266   8.880
 6863W        W10916   8.932   7.127   0.345
 6864W        W10917   4.088   6.958  10.913
 6865W        W10918   8.936   5.242   9.973
 6866W        W10919   3.780   5.168   9.062
 6867W        W10920   0.241   2.198  11.889
 6868W        W10921   7.058   8.972   8.932
 6869W        W10922  10.483   9.388   3.333
 6870W        W10923   0.429   1.701  11.778
 6871W        W10924   1.700   2.281  11.978
 6872W        W10925   7.608   2.215   8.506
 6873W        W10926   4.175   4.177   3.212
 6874W        W10927   3.125  10.469  11.343
 6875W        W10928   7.634   1.728  10.404
 6876W        W10929   9.498   5.096   3.342
 6877W        W10930   9.416   9.882   0.722
 6878W        W10931   0.360   3.247  11.296
 6879W        W10932   1.771   2.713   9.064
 6880W        W10933   5.068   6.107   3.193
 6881W        W10934   9.902   6.596   2.172
 6882W        W10935   2.276   5.630   2.272
 6883W        W10936   5.018   1.816   2.843
 6884W        W10937   6.631   2.673   0.921
 6885W        W10938   5.540   2.343   9.502
 6886W        W10939   6.572   1.295   9.984
 6887W        W10940   7.974   2.360  11.873
 6888W        W10941   1.330   2.629   8.972
 6889W        W10942   1.302   7.429   0.366
 6890W        W10943   5.112   1.715   0.882
 6891W        W10944   0.828   4.208  10.804
 6892W        W10945   7.439   8.981  11.434
 6893W        W10946   9.948   5.243   9.364
 6894W        W10947   4.237   3.229  11.862
 6895W        W10948   3.231   1.321   0.399
 6896W        W10949   9.982   5.527   9.911
 6897W        W10950   7.512   4.103   3.794
 6898W        W10951   6.082   4.234   2.386
 6899W        W10952   2.256   1.889   1.894
 6900W        W10953   0.753   7.571   2.174
 6901W        W10954   6.610   3.263   9.113
 6902W        W10955   9.857   7.073   1.761
 6903W        W10956   5.639   8.929   2.721
 6904W        W10957  10.408   1.374   2.291
 6905W        W10958   0.371   4.293   1.685
 6906W        W10959   4.291   1.672  11.835
 6907W        W10960   0.321   1.834  10.547
 6908W        W10961   6.449   3.749   2.873
 6909W        W10962   8.435   5.699   0.727
 6910W        W10963   8.113   4.729   3.331
 6911W        W10964   7.068   9.382  11.850
 6912W        W10965   1.754   6.056  11.305
 6913W        W10966   2.773   7.908  11.991
 6914W        W10967   8.533   0.783  11.509
 6915W        W10968   9.966   5.522  10.518
 6916W        W10969   8.587   5.642   3.166
 6917W        W10970   3.698   0.271   9.592
 6918W        W10971   6.017   9.518   1.877
 6919W        W10972   0.930   0.751   8.544
 6920W        W10973   0.443  10.457   8.898
 6921W        W10974   8.990   9.337   8.954
 6922W        W10975   6.007   1.402  11.925
 6923W        W10976  10.402   8.548  10.442
 6924W        W10977   6.651   9.816  10.944
 6925W        W10978   2.714   2.668   9.083
 6926W        W10979   7.994   2.863  11.311
 6927W        W10980   0.946   3.668   9.400
 6928W        W10981   6.631   4.557  10.465
 6929W        W10982   2.677   5.084  11.014
 6930W        W10983   8.548   5.501  11.843
 6931W        W10984   4.168   1.338   0.327
 6932W        W10985   5.214   6.078   0.900
 6933W        W10986   6.198  10.002   8.517
 6934W        W10987   4.135   5.595   2.858
 6935W        W10988  10.000   8.065  10.011
 6936W        W10989   2.365   7.604   0.724
 6937W        W10990   9.028   3.713   1.295
 6938W        W10991   7.453   5.229  11.854
 6939W        W10992   8.483   3.801  11.977
 6940W        W10993   6.588   7.104   9.569
 6941W        W10994  10.020   7.116  11.846
 6942W        W10995   3.686   5.530   2.878
 6943W        W10996  10.496   0.901  11.850
 6944W        W10997   7.583  10.389   2.711
 6945W        W10998   5.014  10.465   3.164
 6946W        W10999   9.540   4.266   1.312
 6947W        W11000   7.509   4.711   3.159
 6948W        W11001   3.288  10.430   2.283
 6949W        W11002   7.127   3.145   3.294
 6950W        W11003   9.324   8.397  11.016
 6951W        W11004   7.994   7.011   3.123
 6952W        W11005   7.552   7.509   9.497
 6953W        W11006   8.369   3.187   2.660
 6954W        W11007   4.748   3.635   1.802
 6955W        W11008   6.651   5.014  10.380
 6956W        W11009   7.563   1.379   1.292
 6957W        W11010   5.980   4.678   0.451
 6958W        W11011   3.798   7.468   2.715
 6959W        W11012   8.561   0.800   1.723
 6960W        W11013   8.504   1.405  11.499
 6961W        W11014   1.282   4.651   1.422
 6962W        W11015   7.547   7.933  11.776
 6963W        W11016  10.300   2.712   9.079
 6964W        W11017   8.077   9.836   2.853
 6965W        W11018   4.722   6.592   2.234
 6966W        W11019   0.942   4.690   0.913
 6967W        W11020   6.947   4.721  11.475
 6968W        W11021   5.083   2.281  10.370
 6969W        W11022   1.771   4.616   0.334
 6970W        W11023   8.589  10.272   1.337
 6971W        W11024  10.394   7.877   0.922
 6972W        W11025   4.649   7.458  10.332
 6973W        W11026   8.567   8.849  11.450
 6974W        W11027   7.103   9.346   8.923
 6975W        W11028   6.148   6.128   9.983
 6976W        W11029   9.951  10.453   8.921
 6977W        W11030   6.153   1.738   0.418
 6978W        W11031   2.634   2.685   0.453
 6979W        W11032   0.384   5.249   2.394
 6980W        W11033   4.111   9.062   1.828
 6981W        W11034   1.756   5.177   1.769
 6982W        W11035   8.874   4.117   0.854
 6983W        W11036   0.375   5.512   0.323
 6984W        W11037   6.530   4.279   3.233
 6985W        W11038  10.272   7.952   3.312
 6986W        W11039   1.864   1.880   9.908
 6987W        W11040   7.535   0.762   3.193
 6988W        W11041   7.408   1.783   3.817
 6989W        W11042   1.421   8.561  11.776
 6990W        W11043   2.690   5.120  10.048
 6991W        W11044   2.259   2.628   3.623
 6992W        W11045  10.418   2.215   1.325
 6993W        W11046   6.018   1.840   8.456
 6994W        W11047   9.454   8.449   0.923
 6995W        W11048   0.876   3.771   0.851
 6996W        W11049   4.065   7.549   1.382
 6997W        W11050   6.455   4.765   0.253
 6998W        W11051   3.816   1.729   9.391
 6999W        W11052   3.328   6.520   3.732
 7000W        W11053   8.546   4.686   2.837
 7001W        W11054   9.435   0.364   9.110
 7002W        W11055   3.691   4.136   1.751
 7003W        W11056   1.776   4.130   0.805
 7004W        W11057   3.276   7.585   9.510
 7005W        W11058   9.811   8.832   9.526
 7006W        W11059   5.652   4.596   0.824
 7007W        W11060   2.252   4.763  10.453
 7008W        W11061  10.007   2.237  10.887
 7009W        W11062   9.377   9.902  11.838
 7010W        W11063   5.228  10.009   0.362
 7011W        W11064   1.244   0.308   2.263
 7012W        W11065   7.456   0.799  11.503
 7013W        W11066   9.894   2.365  11.327
 7014W        W11067   3.313   1.876  10.451
 7015W        W11068   8.058   4.716   9.922
 7016W        W11069   9.310   7.537   2.686
 7017W        W11070   6.654   0.357   2.875
 7018W        W11071   1.793   4.744   9.580
 7019W        W11072   3.796   1.380   9.554
 7020W        W11073   9.895   8.075   0.323
 7021W        W11074   8.896   0.912   0.263
 7022W        W11075   5.537   6.927  10.335
 7023W        W11076   2.282   9.335   0.861
 7024W        W11077   3.624   4.227  10.430
 7025W        W11078   4.740   4.075   2.167
 7026W        W11079   4.537   2.354   0.293
 7027W        W11080   8.441   5.561   0.476
 7028W        W11081   3.701   9.807  11.509
 7029W        W11082   8.939   4.765  11.380
 7030W        W11083   9.456   7.037   9.889
 7031W        W11084   4.640   8.590   8.902
 7032W        W11085   4.755   4.218  10.436
 7033W        W11086   1.885   0.830   9.082
 7034W        W11087   8.450   9.872   2.766
 7035W        W11088   9.939   5.501   3.776
 7036W        W11089   5.070   2.336   3.271
 7037W        W11090   6.958   5.645  11.859
 7038W        W11091   2.386  10.421   9.097
 7039W        W11092   8.109   5.085   2.687
 7040W        W11093   8.430   0.720  10.532
 7041W        W11094   9.964   5.108   8.968
 7042W        W11095   9.402   9.000  10.341
 7043W        W11096   9.965   4.712   2.838
 7044W        W11097   8.842   4.713   9.976
 7045W        W11098   5.691   4.669   1.337
 7046W        W11099   7.080   6.521   3.356
 7047W        W11100   1.721   3.580   9.883
 7048W        W11101   7.422   4.749   2.201
 7049W        W11102   3.685   1.865   9.007
 7050W        W11103   8.516   5.148   2.651
 7051W        W11104   4.244   9.976   3.128
 7052W        W11105   4.258   3.179   1.326
 7053W        W11106   7.081   4.717   3.277
 7054W        W11107   6.923   7.142  11.312
 7055W        W11108   9.864   4.536   0.343
 7056W        W11109   6.518   4.166   1.750
 7057W        W11110   2.667   6.971  11.015
 7058W        W11111   7.062   9.389   0.441
 7059W        W11112   1.687   3.615   8.523
 7060W        W11113   9.994   4.241   8.461
 7061W        W11114   5.680   9.511   8.898
 7062W        W11115   9.000   7.530   9.878
 7063W        W11116   1.375   3.766  11.832
 7064W        W11117   0.918   4.662   8.482
 7065W        W11118   4.676   3.672   9.111
 7066W        W11119   5.233   1.796   8.550
 7067W        W11120   0.733   8.097  10.027
 7068W        W11121  10.426  10.299  11.949
 7069W        W11122   1.377   2.186   1.207
 7070W        W11123   7.488   9.452   2.163
 7071W        W11124   5.678   6.635  11.959
 7072W        W11125   8.944   2.347  11.923
 7073W        W11126   6.011   3.117   8.555
 7074W        W11127   8.984   0.724  11.795
 7075W        W11128   0.313   4.656  11.306
 7076W        W11129   4.732   6.640   8.595
 7077W        W11130   6.530   6.598   9.469
 7078W        W11131   0.361   1.263   0.254
 7079W        W11132   9.518   2.186  11.853
 7080W        W11133   5.049   1.855  11.284
 7081W        W11134   1.333   1.852  11.801
 7082W        W11135  10.330   4.167   9.475
 7083W        W11136   0.930   3.234   2.185
 7084W        W11137   2.654   7.939   1.304
 7085W        W11138   3.275   6.045   9.071
 7086W        W11139   9.939   2.327   2.297
 7087W        W11140   4.096   2.316   1.319
 7088W        W11141   6.549   6.183   1.905
 7089W        W11142   3.151   6.645   1.815
 7090W        W11143   5.703   6.668   2.838
 7091W        W11144   0.852   9.824   3.178
 7092W        W11145   2.861   0.305   3.303
 7093W        W11146   8.018   1.860   0.808
 7094W        W11147   0.328   6.501   0.821
 7095W        W11148   2.194   1.370  10.405
 7096W        W11149   8.406   0.457   1.228
 7097W        W11150   7.929   1.770   1.845
 7098W        W11151   6.540   6.091   2.183
 7099W        W11152   6.503  10.304   2.775
 7100W        W11153   6.931   6.575   2.719
 7101W        W11154   4.250   2.181  11.904
 7102W        W11155   6.681   9.372   1.865
 7103W        W11156   6.140   2.633   2.762
 7104W        W11157   0.821   8.423  11.322
 7105W        W11158   2.362   7.143   1.422
 7106W        W11159   4.122   9.916  11.327
 7107W        W11160  10.298   6.621   2.203
 7108W        W11161  10.347   1.857  11.462
 7109W        W11162   9.339   4.224  10.029
 7110W        W11163   1.223   6.995  11.030
 7111W        W11164   3.677   7.517  10.444
 7112W        W11165   1.366   1.836  11.475
 7113W        W11166   9.507  10.437  11.308
 7114W        W11167   1.203   1.683  10.829
 7115W        W11168   0.269   3.163   1.756
 7116W        W11169   6.526   4.632   0.957
 7117W        W11170  10.308   8.838   0.313
 7118W        W11171   1.814   3.292   1.313
 7119W        W11172   9.806   7.532  10.997
 7120W        W11173   1.222   9.787   0.470
 7121W        W11174   1.849   4.210   1.826
 7122W        W11175   4.610   0.807   1.242
 7123W        W11176   6.930   6.618   1.358
 7124W        W11177   2.688   6.950  10.463
 7125W        W11178   3.749   7.019   9.362
 7126W        W11179   5.091   0.885   1.295
 7127W        W11180   1.801   4.200   0.400
 7128W        W11181   2.706   9.341   9.422
 7129W        W11182   9.524   8.862   3.308
 7130W        W11183   8.543   7.467   9.000
 7131W        W11184   4.105   6.929   9.588
 7132W        W11185   4.192   6.200   4.258
 7133W        W11186   0.777   0.459   1.918
 7134W        W11187   9.498   2.272   0.913
 7135W        W11188   9.843   5.227   1.339
 7136W        W11189   2.625   7.965  10.051
 7137W        W11190  10.424   0.752   3.134
 7138W        W11191   2.812   0.310   1.699
 7139W        W11192   3.180   4.643  10.909
 7140W        W11193   3.682   6.135   8.570
 7141W        W11194   9.380   2.371  10.894
 7142W        W11195   9.542   8.588   2.758
 7143W        W11196   5.684   9.398   9.579
 7144W        W11197   8.549   8.461   9.945
 7145W        W11198   7.892   5.586   9.022
 7146W        W11199   7.117   2.773   2.170
 7147W        W11200   2.839   1.754   2.788
 7148W        W11201   9.797   7.440  11.360
 7149W        W11202   6.958   3.782   9.446
 7150W        W11203   2.216   3.590  10.883
 7151W        W11204   9.055   8.956   0.445
 7152W        W11205   6.521  10.337   8.934
 7153W        W11206   9.027   2.154  10.858
 7154W        W11207   0.914   7.007  11.438
 7155W        W11208   1.308   5.494   3.356
 7156W        W11209   0.452   2.849   9.597
 7157W        W11210  10.282   5.978  10.546
 7158W        W11211   8.990   5.147   9.520
 7159W        W11212   0.446   3.144   2.194
 7160W        W11213   7.546   2.320  11.810
 7161W        W11214   0.318   1.301   3.765
 7162W        W11215  10.275   4.148  10.952
 7163W        W11216  10.265   2.804   9.510
 7164W        W11217   5.623   7.937   0.272
 7165W        W11218   4.764   7.615   1.413
 7166W        W11219   4.570   2.803   0.307
 7167W        W11220   2.300   7.466  11.341
 7168W        W11221   9.312  10.017   2.840
 7169W        W11222   6.622   5.141   3.757
 7170W        W11223   3.679   0.399   3.271
 7171W        W11224   6.149   5.657  10.423
 7172W        W11225   2.286   0.249  11.890
 7173W        W11226   1.281   5.249   1.844
 7174W        W11227   1.719   8.950   9.913
 7175W        W11228  10.383   0.805  10.839
 7176W        W11229   4.225   4.696   0.929
 7177W        W11230   1.723  10.336  11.303
 7178W        W11231   0.439   6.096   0.817
 7179W        W11232   6.681   1.810   0.733
 7180W        W11233   0.747   3.787  11.816
 7181W        W11234   6.176   3.320   8.051
 7182W        W11235   3.585   6.593   0.423
 7183W        W11236   6.943   5.085   9.370
 7184W        W11237   7.494   9.529  11.427
 7185W        W11238   4.562   9.439   0.854
 7186W        W11239   2.629   4.725  10.894
 7187W        W11240   5.506   7.146   4.124
 7188W        W11241   9.871   7.629   2.268
 7189W        W11242   9.795   2.718  11.397
 7190W        W11243   6.190   5.232   1.211
 7191W        W11244   0.407   3.118  10.468
 7192W        W11245   0.321   8.400   9.463
 7193W        W11246   3.627   8.485   2.178
 7194W        W11247   9.516   8.887   2.334
 7195W        W11248   8.476   2.327  11.410
 7196W        W11249   0.250   2.246   9.918
 7197W        W11250   5.032   0.389   9.565
 7198W        W11251   5.136   7.562   0.782
 7199W        W11252   9.796  10.402   0.944
 7200W        W11253   2.149   6.476  10.817
 7201W        W11254   5.105   5.656   1.745
 7202W        W11255   9.518   1.406   1.279
 7203W        W11256   1.803   4.240  11.518
 7204W        W11257   7.410   6.656  11.330
 7205W        W11258   6.661   5.231   3.128
 7206W        W11259   1.369   6.117   1.762
 7207W        W11260   7.128   4.290   3.178
 7208W        W11261   1.799   6.187   0.432
 7209W        W11262   7.582   7.419   2.203
 7210W        W11263   5.639   9.463  10.389
 7211W        W11264   2.752   6.524   2.165
 7212W        W11265   4.287   8.990   0.434
 7213W        W11266   6.079   2.314   0.865
 7214W        W11267   0.787   7.883   2.232
 7215W        W11268   3.251   6.488   8.992
 7216W        W11269   1.685   8.834   8.959
 7217W        W11270   1.302   5.207  10.438
 7218W        W11271   5.519   2.840   2.710
 7219W        W11272   3.171   1.677   0.436
 7220W        W11273   1.843   6.925   1.912
 7221W        W11274   6.176   3.185   9.530
 7222W        W11275   4.749   8.044   3.653
 7223W        W11276   7.441   9.527   9.474
 7224W        W11277   6.643   1.674   2.160
 7225W        W11278   2.716   2.828   9.924
 7226W        W11279  10.329   2.825  10.349
 7227W        W11280   1.897   7.143  11.396
 7228W        W11281   6.008   8.031  10.995
 7229W        W11282   4.138   5.623   2.383
 7230W        W11283   9.968   7.521   1.281
 7231W        W11284   0.800   9.330  10.024
 7232W        W11285   4.122   5.702  11.362
 7233W        W11286   1.277   8.024  11.374
 7234W        W11287   8.569   3.801   1.366
 7235W        W11288   7.050   0.883   0.371
 7236W        W11289   4.737   5.489  10.495
 7237W        W11290   9.975   7.885   2.323
 7238W        W11291   7.120  10.422   8.974
 7239W        W11292   8.021   8.112  11.349
 7240W        W11293   3.160   2.349   9.849
 7241W        W11294   7.455   7.099  11.038
 7242W        W11295   4.066   4.190  10.041
 7243W        W11296  10.395   5.974   0.416
 7244W        W11297   6.615   9.969   2.676
 7245W        W11298   5.088   9.437  11.803
 7246W        W11299   8.565   4.632   2.338
 7247W        W11300   1.674   7.158   2.675
 7248W        W11301   7.407   7.007   3.190
 7249W        W11302   9.536   5.036   1.322
 7250W        W11303   8.574   9.397   2.375
 7251W        W11304   0.327   8.112  11.475
 7252W        W11305  10.009   1.856   3.650
 7253W        W11306   8.468   8.380   2.258
 7254W        W11307   6.991   4.658   8.462
 7255W        W11308   0.404   7.067   0.933
 7256W        W11309   0.719  10.376  10.978
 7257W        W11310   4.076   9.385   2.332
 7258W        W11311   6.500   2.378   0.803
 7259W        W11312   0.815   7.053  10.453
 7260W        W11313   2.857   6.136   3.727
 7261W        W11314   4.185   6.501  11.323
 7262W        W11315   6.114   7.043  10.431
 7263W        W11316   8.425   8.396   9.426
 7264W        W11317   9.387   0.898   9.016
 7265W        W11318   7.967   5.061   0.274
 7266W        W11319   4.712   4.113   0.277
 7267W        W11320   9.811   0.889  10.426
 7268W        W11321   2.807   6.494   9.467
 7269W        W11322   6.645   5.983   0.396
 7270W        W11323  10.380   6.642   1.789
 7271W        W11324   7.613   4.551   9.987
 7272W        W11325   8.106   3.159   2.853
 7273W        W11326   1.265   4.590  11.954
 7274W        W11327   6.160   0.316   0.937
 7275W        W11328   3.309   0.953  10.426
 7276W        W11329   9.484   8.036   1.743
 7277W        W11330   2.250   5.037   0.477
 7278W        W11331   4.131   9.308  11.888
 7279W        W11332   2.862   7.147   0.860
 7280W        W11333   2.840   3.768  11.327
 7281W        W11334   1.696  10.296   9.924
 7282W        W11335   0.837   5.662   8.438
 7283W        W11336   6.071   6.945   3.281
 7284W        W11337   7.437   7.424   0.398
 7285W        W11338   5.132   0.756   2.193
 7286W        W11339   3.278   9.794  11.423
 7287W        W11340   9.334   7.103  10.448
 7288W        W11341   5.035   5.621   0.286
 7289W        W11342   1.733   1.241  11.413
 7290W        W11343   0.290   5.063   9.055
 7291W        W11344   5.703   9.475   0.847
 7292W        W11345   5.147   6.946  11.318
 7293W        W11346   0.891   9.929   1.801
 7294W        W11347   1.720  10.016   8.948
 7295W        W11348   8.879   6.670   9.446
 7296W        W11349   9.907   2.863  11.780
 7297W        W11350   7.910   8.407   8.981
 7298W        W11351   1.824   5.490   2.282
 7299W        W11352   8.043   7.521   9.423
 7300W        W11353   5.716   5.565   9.102
 7301W        W11354   0.335   3.715   9.865
 7302W        W11355  10.340   6.649  11.935
 7303W        W11356   3.151   3.255  11.853
 7304W        W11357   4.546   7.583   9.978
 7305W        W11358   8.515   2.171  11.921
 7306W        W11359   6.530   7.446  10.480
 7307W        W11360   2.796   2.359   2.838
 7308W        W11361   7.458   2.241   9.886
 7309W        W11362   3.745   5.171   9.551
 7310W        W11363   9.455   7.982   2.351
 7311W        W11364   6.011   8.491   0.363
 7312W        W11365   3.776   3.789   9.575
 7313W        W11366   0.405   6.538   2.291
 7314W        W11367   2.255   5.047   9.368
 7315W        W11368   9.864   8.081   1.267
 7316W        W11369   9.514   9.984   9.036
 7317W        W11370   7.436   1.865  11.835
 7318W        W11371   1.353   3.278   2.825
 7319W        W11372   0.933  10.316  10.010
 7320W        W11373   0.792   7.636   3.695
 7321W        W11374   1.195   1.255   9.096
 7322W        W11375   7.990   0.449   9.022
 7323W        W11376   5.175   0.863   0.945
 7324NA+    NA+11377   6.561   5.047   8.538
 7325NA+    NA+11378   1.793  10.000   2.168
 7326NA+    NA+11379   7.559   7.512  11.820
 7327NA+    NA+11380   8.961   5.982   1.296
 7328NA+    NA+11381   5.510   3.628   9.589
 7329NA+    NA+11382   7.907   4.739   0.346
 7330NA+    NA+11383   5.681   4.176   0.896
 7331NA+    NA+11384   6.091   1.281  10.916
 7332NA+    NA+11385   2.788   8.432   9.927
 7333NA+    NA+11386   2.792   4.568  10.351
 7334NA+    NA+11387   1.885   2.290  10.869
 7335NA+    NA+11388   9.852   5.021  11.472
 7336NA+    NA+11389   2.793   0.256  10.345
 7337NA+    NA+11390   0.438   8.839   9.441
 7338NA+    NA+11391   5.215   4.700   2.642
 7339NA+    NA+11392   4.068   8.504   0.286
 7340NA+    NA+11393   7.551   4.273   2.195
 7341NA+    NA+11394   1.356   7.579   2.393
 7342NA+    NA+11395   8.943   0.423   9.446
 7343NA+    NA+11396   3.755   2.628   9.895
 7344NA+    NA+11397   7.464   1.340   1.788
 7345NA+    NA+11398   5.067   3.146   0.879
 7346NA+    NA+11399   4.283   5.568   0.952
 7347NA+    NA+11400   0.455   8.900  10.969
 7348NA+    NA+11401   0.803   2.705   0.864
 7349NA+    NA+11402   7.879   1.427   1.771
 7350NA+    NA+11403   0.781   2.704   9.932
 7351NA+    NA+11404   1.225   2.646  11.764
 7352NA+    NA+11405   7.079   8.885  10.052
 7353NA+    NA+11406   8.484   6.167   3.155
 7354NA+    NA+11407   2.779   9.414   2.691
 7355NA+    NA+11408   8.963   9.064   2.655
 7356NA+    NA+11409   2.317   2.190  10.832
 7357NA+    NA+11410   0.835   5.099  11.827
 7358NA+    NA+11411   9.445   1.738  11.785
 7359NA+    NA+11412   6.949   7.149   0.270
 7360NA+    NA+11413   2.171   1.261   9.903
 7361NA+    NA+11414   4.589   4.192  11.991
 7362NA+    NA+11415   6.675   7.558   8.967
 7363NA+    NA+11416   8.432   8.452  11.490
 7364NA+    NA+11417   2.764   6.637   0.343
 7365NA+    NA+11418   1.760   5.012   2.876
 7366NA+    NA+11419   5.185   7.954   0.823
 7367NA+    NA+11420   5.669   6.071  11.456
 7368NA+    NA+11421   3.180   7.060   9.496
 7369NA+    NA+11422   7.133   9.478   3.293
 7370NA+    NA+11423   1.701   7.037  10.999
 7371NA+    NA+11424  10.325   1.695   9.093
 7372NA+    NA+11425   1.755   8.511   0.816
 7373NA+    NA+11426   7.923   8.980   9.524
 7374NA+    NA+11427   8.458   8.950  10.954
 7375NA+    NA+11428   4.097   1.290  11.496
 7376NA+    NA+11429   3.183   2.804  11.491
 7377NA+    NA+11430   3.745   4.130   0.944
 7378NA+    NA+11431   7.570   8.006   1.840
 7379NA+    NA+11432   8.848   5.240   2.857
 7380NA+    NA+11433   6.656   1.774   3.200
 7381NA+    NA+11434   3.619   8.446  11.356
 7382NA+    NA+11435   9.967   9.428   1.422
 7383NA+    NA+11436   6.951   3.336   2.379
 7384NA+    NA+11437   6.160   2.742   1.247
 7385NA+    NA+11438   4.073   2.238   0.796
 7386NA+    NA+11439   6.020   9.383   9.563
 7387NA+    NA+11440  10.006   9.890  10.973
 7388NA+    NA+11441   8.948  10.394  10.419
 7389NA+    NA+11442   1.197   8.884   0.928
 7390NA+    NA+11443   8.054   7.022   2.779
 7391NA+    NA+11444   3.716   1.747   3.133
 7392NA+    NA+11445   6.055   7.122   8.613
 7393NA+    NA+11446   6.633   0.736   0.844
 7394NA+    NA+11447   8.524   7.048   0.401
 7395NA+    NA+11448   7.104   6.537  11.851
 7396NA+    NA+11449   1.344   4.734   8.937
 7397NA+    NA+11450   1.754   0.456  10.518
 7398NA+    NA+11451   2.757   4.192   0.469
 7399NA+    NA+11452   2.231  10.346  11.499
 7400NA+    NA+11453   3.743   9.994   0.468
 7401CL-    CL-11454   5.674   5.604   2.787
 7402CL-    CL-11455   8.064   9.914   1.380
 7403CL-    CL-11456   6.008   0.431   0.380
 7404CL-    CL-11457   6.622   1.867  10.899
 7405CL-    CL-11458   7.509   7.150   9.460
 7406CL-    CL-11459  10.281   8.400   0.855
 7407CL-    CL-11460   4.121   5.179   9.391
 7408CL-    CL-11461   1.775   7.487   2.298
 7409CL-    CL-11462   1.905   5.584   9.887
 7410CL-    CL-11463   9.368   7.482   3.286
 7411CL-    CL-11464   5.549   2.725  11.374
 7412CL-    CL-11465   2.728   9.957   8.492
 7413CL-    CL-11466   4.179   6.508   9.959
 7414CL-    CL-11467   2.256   3.748   2.652
 7415CL-    CL-11468   0.923   8.490   0.263
 7416CL-    CL-11469  10.362   5.164   9.436
 7417CL-    CL-11470   9.420   9.919   2.317
 7418CL-    CL-11471   2.274   8.562   3.603
 7419CL-    CL-11472  10.291   7.960  11.856
 7420CL-    CL-11473   0.406   1.715   0.385
 7421CL-    CL-11474   7.456   7.527   1.208
 7422CL-    CL-11475   7.415   8.034   9.436
 7423CL-    CL-11476   2.764   2.786  11.816
 7424CL-    CL-11477   4.232   5.025  11.907
 7425CL-    CL-11478   0.938   9.023   8.966
 7426CL-    CL-11479   1.806   6.492   1.284
 7427CL-    CL-11480   8.036   6.530   9.109
 7428CL-    CL-11481   7.631   6.534  11.819
 7429CL-    CL-11482   5.554   7.617  11.424
 7430CL-    CL-11483   2.833   2.213   3.149
 7431CL-    CL-11484   0.949   4.726  11.776
 7432CL-    CL-11485   0.390   4.279   0.857
 7433CL-    CL-11486   8.834   6.506   2.758
 7434CL-    CL-11487   1.235   8.478  11.352
 7435CL-    CL-11488  10.496   9.785  11.787
 7436CL-    CL-11489   7.098   6.180   1.297
 7437CL-    CL-11490   9.891   6.188   3.355
 7438CL-    CL-11491   3.664   1.778   1.327
 7439CL-    CL-11492   2.820   3.254   2.804
 7440CL-    CL-11493   6.095   4.578   9.078
 7441CL-    CL-11494   4.599   1.710  11.990
 7442CL-    CL-11495   1.718   0.841  11.797
 7443CL-    CL-11496   7.923   2.263  10.835
 7444CL-    CL-11497   9.827   8.093   9.597
 7445CL-    CL-11498   9.530   9.461  10.801
 7446CL-    CL-11499   6.645   9.386   2.716
 7447CL-    CL-11500  10.287   2.348  11.772
 7448CL-    CL-11501   3.817   3.690   0.367
 7449CL-    CL-11502   2.361   3.640   2.257
 7450CL-    CL-11503   8.961   8.071  11.434
 7451CL-    CL-11504   3.685   1.216   2.270
 7452CL-    CL-11505  10.319   3.728  10.828
 7453CL-    CL-11506   7.433   7.967   1.346
 7454CL-    CL-11507   6.488   1.282   9.468
 7455CL-    CL-11508   4.193   4.731   1.880
 7456CL-    CL-11509   9.431   6.160   1.866
 7457CL-    CL-11510  10.313   7.944  11.321
 7458CL-    CL-11511   6.678   6.508   1.370
 7459CL-    CL-11512   8.526   0.922   9.949
 7460CL-    CL-11513   8.871   3.188  11.501
 7461CL-    CL-11514   9.308   0.841  11.343
 7462CL-    CL-11515   4.772   8.524   9.534
 7463CL-    CL-11516  10.438   0.338   0.417
 7464CL-    CL-11517   5.054   4.583  11.911
 7465CL-    CL-11518   3.781   9.805   9.445
 7466CL-    CL-11519   1.408   4.110   2.248
 7467CL-    CL-11520   7.944   7.033  11.906
 7468CL-    CL-11521   9.012   1.868   3.276
 7469CL-    CL-11522   3.185   7.434  10.865
 7470CL-    CL-11523   9.466   6.522  10.444
 7471CL-    CL-11524   4.640   9.001   0.297
 7472CL-    CL-11525   7.531   5.974   2.203
 7473CL-    CL-11526   1.349   4.069  10.530
 7474CL-    CL-11527   0.875   6.592   2.222
 7475CL-    CL-11528   8.476   5.239   8.924
 7476CL-    CL-11529   9.982   3.796   9.017
 7477CL-    CL-11530   5.070   3.666  11.280
  10.50000  10.50000  12.00000   0.00000   0.00000   0.00000   0.00000   0.00000   0.00000
