Protein in INSANE! Membrane UpperLeaflet>POPC=1.0 LowerLeaflet>POPC=1.0
12676
    1AU     AUC    1   5.747   5.864   6.012
    1AU     AUC    2   6.010   5.859   5.854
    1AU     AUC    3   5.995   5.844   6.167
    1AU     AUC    4   5.498   5.871   5.848
    1AU     AUC    5   5.485   5.889   6.163
    1AU     AUC    6   5.605   6.125   6.011
    1AU     AUC    7   5.915   6.113   5.999
    1AU     AUC    8   5.580   5.623   6.022
    1AU     AUC    9   5.876   5.594   6.027
    1AU     AUC   10   5.742   5.710   6.270
    1AU     AUC   11   5.768   6.022   6.268
    1AU     AUC   12   5.744   5.705   5.750
    1AU     AUC   13   5.742   6.002   5.749
    1AU     AUC   14   6.261   5.851   5.693
    1AU     AUC   15   6.266   5.863   5.992
    1AU     AUC   16   6.253   5.847   6.313
    1AU     AUC   17   5.238   5.863   5.692
    1AU     AUC   18   5.228   5.897   5.996
    1AU     AUC   19   5.236   5.922   6.324
    1AU     AUC   20   5.466   6.394   6.012
    1AU     AUC   21   5.773   6.386   6.009
    1AU     AUC   22   6.065   6.374   6.008
    1AU     AUC   23   5.392   5.376   6.031
    1AU     AUC   24   5.704   5.342   6.014
    1AU     AUC   25   6.024   5.330   6.026
    1AU     AUC   26   5.743   5.559   6.521
    1AU     AUC   27   5.767   5.865   6.542
    1AU     AUC   28   5.776   6.173   6.533
    1AU     AUC   29   5.744   5.527   5.512
    1AU     AUC   30   5.760   5.843   5.486
    1AU     AUC   31   5.747   6.154   5.486
    1AU     AUC   32   6.010   5.696   6.432
    1AU     AUC   33   6.027   5.999   6.434
    1AU     AUC   34   6.019   5.690   5.593
    1AU     AUC   35   6.024   5.999   5.583
    1AU     AUC   36   5.482   5.748   6.440
    1AU     AUC   37   5.499   6.049   6.441
    1AU     AUC   38   5.498   5.702   5.580
    1AU     AUC   39   5.493   6.011   5.585
    1AU     AUC   40   6.169   6.121   5.837
    1AU     AUC   41   6.187   6.093   6.163
    1AU     AUC   42   5.338   6.133   5.855
    1AU     AUC   43   5.347   6.159   6.176
    1AU     AUC   44   6.157   5.584   5.865
    1AU     AUC   45   6.137   5.566   6.168
    1AU     AUC   46   5.318   5.617   5.858
    1AU     AUC   47   5.317   5.648   6.198
    1AU     AUC   48   5.610   6.287   6.283
    1AU     AUC   49   5.929   6.283   6.256
    1AU     AUC   50   5.547   5.458   6.272
    1AU     AUC   51   5.868   5.435   6.278
    1AU     AUC   52   5.598   6.279   5.746
    1AU     AUC   53   5.916   6.264   5.737
    1AU     AUC   54   5.564   5.457   5.753
    1AU     AUC   55   5.894   5.437   5.769
    1AU    AUSL   56   6.276   5.723   6.707
    1AU    AUSL   57   6.023   5.367   6.629
    1AU     AUL   58   6.177   5.295   6.988
    1AU       S   59   6.381   5.098   6.603
    1AU     LIG   60   6.182   4.748   6.821
    1AU     LIG   61   6.350   4.510   7.178
    1AU     LIG   62   6.574   4.199   7.450
    1AU     LIG   63   6.705   3.981   7.849
    1AU     LIG   64   6.711   3.837   8.307
    1AU     LIG   65   6.896   3.620   8.685
    1AU       S   66   6.334   5.664   6.788
    1AU     LIG   67   6.315   5.674   7.288
    1AU     LIG   68   6.537   5.567   7.709
    1AU     LIG   69   6.874   5.533   8.066
    1AU     LIG   70   7.259   5.557   8.372
    1AU     LIG   71   7.640   5.621   8.664
    1AU     LIG   72   7.899   5.562   9.057
    1AU    AUSL   73   5.870   5.695   6.838
    1AU    AUSL   74   5.680   6.067   6.797
    1AU     AUL   75   5.833   6.024   7.212
    1AU       S   76   5.910   5.661   6.972
    1AU     LIG   77   5.847   5.505   7.389
    1AU     LIG   78   6.077   5.304   7.762
    1AU     LIG   79   6.199   5.066   8.179
    1AU     LIG   80   6.221   4.818   8.607
    1AU     LIG   81   6.368   4.676   9.045
    1AU     LIG   82   6.495   4.789   9.493
    1AU       S   83   5.437   5.805   7.156
    1AU     LIG   84   5.300   5.713   7.613
    1AU     LIG   85   5.081   5.636   8.033
    1AU     LIG   86   4.993   5.717   8.490
    1AU     LIG   87   5.055   6.012   8.877
    1AU     LIG   88   4.963   6.293   9.254
    1AU     LIG   89   4.708   6.494   9.609
    1AU    AUSL   90   6.087   6.093   6.792
    1AU    AUSL   91   6.398   6.053   6.488
    1AU     AUL   92   6.515   6.000   6.988
    1AU       S   93   6.117   6.172   6.890
    1AU     LIG   94   6.269   6.299   7.311
    1AU     LIG   95   6.425   6.432   7.759
    1AU     LIG   96   6.515   6.643   8.198
    1AU     LIG   97   6.553   6.816   8.672
    1AU     LIG   98   6.674   6.884   9.153
    1AU     LIG   99   6.642   6.820   9.634
    1AU       S  100   6.641   6.081   6.537
    1AU     LIG  101   6.989   6.124   6.843
    1AU     LIG  102   7.220   6.346   7.205
    1AU     LIG  103   7.477   6.641   7.492
    1AU     LIG  104   7.764   6.756   7.874
    1AU     LIG  105   8.187   6.813   8.136
    1AU     LIG  106   8.592   6.948   8.383
    1AU    AUSL  107   6.293   5.889   5.382
    1AU    AUSL  108   6.068   6.287   5.342
    1AU     AUL  109   6.437   6.246   4.977
    1AU       S  110   6.334   5.918   5.232
    1AU     LIG  111   6.618   5.814   4.832
    1AU     LIG  112   6.633   5.615   4.422
    1AU     LIG  113   6.794   5.507   3.987
    1AU     LIG  114   7.199   5.552   3.713
    1AU     LIG  115   7.598   5.656   3.448
    1AU     LIG  116   7.705   5.724   2.987
    1AU       S  117   6.060   6.336   5.176
    1AU     LIG  118   6.316   6.712   5.083
    1AU     LIG  119   6.688   6.723   4.795
    1AU     LIG  120   6.988   6.885   4.443
    1AU     LIG  121   7.197   7.040   4.031
    1AU     LIG  122   7.335   7.389   3.715
    1AU     LIG  123   7.480   7.848   3.661
    1AU    AUSL  124   6.032   5.580   5.206
    1AU    AUSL  125   6.368   5.508   5.520
    1AU     AUL  126   6.453   5.506   5.179
    1AU       S  127   6.434   5.078   5.360
    1AU     LIG  128   6.552   4.920   4.937
    1AU     LIG  129   6.806   4.565   4.750
    1AU     LIG  130   7.062   4.311   4.433
    1AU     LIG  131   7.459   4.342   4.154
    1AU     LIG  132   7.818   4.455   3.854
    1AU     LIG  133   8.194   4.314   3.600
    1AU       S  134   6.137   5.801   4.952
    1AU     LIG  135   6.234   5.411   4.733
    1AU     LIG  136   6.324   5.222   4.302
    1AU     LIG  137   6.395   5.190   3.825
    1AU     LIG  138   6.409   5.171   3.330
    1AU     LIG  139   6.385   5.049   2.841
    1AU     LIG  140   6.575   4.997   2.389
    1AU    AUSL  141   5.878   5.930   5.391
    1AU    AUSL  142   5.622   5.671   5.182
    1AU     AUL  143   5.812   5.478   5.062
    1AU       S  144   5.488   5.768   4.850
    1AU     LIG  145   5.479   5.383   4.623
    1AU     LIG  146   5.291   5.192   4.216
    1AU     LIG  147   5.106   4.962   3.813
    1AU     LIG  148   4.989   4.803   3.354
    1AU     LIG  149   4.837   4.896   2.897
    1AU     LIG  150   4.698   5.127   2.486
    1AU       S  151   6.027   5.905   5.005
    1AU     LIG  152   6.152   5.856   4.476
    1AU     LIG  153   6.287   5.675   4.042
    1AU     LIG  154   6.457   5.643   3.593
    1AU     LIG  155   6.529   5.815   3.159
    1AU     LIG  156   6.728   6.178   2.916
    1AU     LIG  157   6.863   6.390   2.518
    1AU    AUSL  158   5.295   5.942   6.730
    1AU    AUSL  159   5.435   6.357   6.649
    1AU     AUL  160   5.517   6.262   6.960
    1AU       S  161   5.226   5.945   7.156
    1AU     LIG  162   4.961   5.581   7.243
    1AU     LIG  163   4.802   5.408   7.664
    1AU     LIG  164   4.604   5.388   8.122
    1AU     LIG  165   4.279   5.315   8.497
    1AU     LIG  166   4.039   5.436   8.914
    1AU     LIG  167   3.712   5.683   9.200
    1AU       S  168   5.058   6.338   6.877
    1AU     LIG  169   5.038   6.640   7.248
    1AU     LIG  170   4.965   6.929   7.616
    1AU     LIG  171   4.820   6.978   8.061
    1AU     LIG  172   4.735   7.219   8.455
    1AU     LIG  173   4.570   7.602   8.686
    1AU     LIG  174   4.331   8.023   8.698
    1AU    AUSL  175   5.590   5.730   6.543
    1AU    AUSL  176   5.019   5.730   6.505
    1AU     AUL  177   5.153   5.726   6.756
    1AU       S  178   4.859   5.366   6.781
    1AU     LIG  179   4.498   5.152   6.588
    1AU     LIG  180   4.105   4.889   6.616
    1AU     LIG  181   3.895   4.607   6.946
    1AU     LIG  182   3.726   4.327   7.299
    1AU     LIG  183   3.515   4.131   7.671
    1AU     LIG  184   3.208   4.230   8.031
    1AU       S  185   5.460   5.675   7.097
    1AU     LIG  186   5.380   5.294   7.334
    1AU     LIG  187   5.266   5.209   7.782
    1AU     LIG  188   5.051   5.138   8.203
    1AU     LIG  189   4.883   4.899   8.584
    1AU     LIG  190   4.828   4.750   9.036
    1AU     LIG  191   4.748   4.907   9.469
    1AU    AUSL  192   5.342   5.823   5.441
    1AU    AUSL  193   5.483   5.387   5.442
    1AU     AUL  194   5.318   5.479   5.169
    1AU       S  195   5.242   5.784   4.829
    1AU     LIG  196   4.981   5.495   4.567
    1AU     LIG  197   4.841   5.424   4.129
    1AU     LIG  198   4.638   5.202   3.771
    1AU     LIG  199   4.281   5.099   3.472
    1AU     LIG  200   3.988   5.171   3.105
    1AU     LIG  201   3.817   5.524   2.827
    1AU       S  202   5.051   5.094   5.339
    1AU     LIG  203   4.766   4.748   5.277
    1AU     LIG  204   4.422   4.539   5.048
    1AU     LIG  205   4.176   4.313   4.708
    1AU     LIG  206   4.232   4.083   4.271
    1AU     LIG  207   4.309   3.801   3.871
    1AU     LIG  208   4.150   3.452   3.575
    1AU    AUSL  209   5.573   6.105   5.178
    1AU    AUSL  210   5.113   6.167   5.461
    1AU     AUL  211   5.185   6.019   5.211
    1AU       S  212   4.979   6.447   5.239
    1AU     LIG  213   4.627   6.649   4.967
    1AU     LIG  214   4.495   6.710   4.500
    1AU     LIG  215   4.435   6.882   4.053
    1AU     LIG  216   4.114   7.047   3.749
    1AU     LIG  217   3.660   7.171   3.723
    1AU     LIG  218   3.414   7.554   3.653
    1AU       S  219   5.566   5.938   4.943
    1AU     LIG  220   5.624   5.845   4.409
    1AU     LIG  221   5.291   5.714   4.087
    1AU     LIG  222   5.094   5.870   3.659
    1AU     LIG  223   5.090   6.123   3.227
    1AU     LIG  224   5.107   6.265   2.749
    1AU     LIG  225   4.937   6.306   2.292
    1AU    AUSL  226   6.377   6.472   5.947
    1AU    AUSL  227   6.406   6.217   5.605
    1AU     AUL  228   6.535   6.679   5.756
    1AU       S  229   6.549   6.325   5.418
    1AU     LIG  230   6.913   6.323   5.099
    1AU     LIG  231   7.146   6.466   4.699
    1AU     LIG  232   7.456   6.635   4.364
    1AU     LIG  233   7.909   6.583   4.176
    1AU     LIG  234   8.288   6.807   3.988
    1AU     LIG  235   8.488   7.030   3.596
    1AU       S  236   6.819   6.325   5.894
    1AU     LIG  237   7.273   6.434   6.067
    1AU     LIG  238   7.782   6.497   6.041
    1AU     LIG  239   8.284   6.586   6.009
    1AU     LIG  240   8.721   6.868   6.012
    1AU     LIG  241   9.003   7.297   6.003
    1AU     LIG  242   9.216   7.714   6.166
    1AU    AUSL  243   6.601   5.890   5.760
    1AU    AUSL  244   6.575   5.732   6.201
    1AU     AUL  245   6.855   5.663   5.971
    1AU       S  246   6.823   6.100   5.806
    1AU     LIG  247   7.287   5.981   5.836
    1AU     LIG  248   7.786   6.048   5.781
    1AU     LIG  249   8.277   6.131   5.714
    1AU     LIG  250   8.767   6.075   5.661
    1AU     LIG  251   9.210   6.277   5.631
    1AU     LIG  252   9.559   6.610   5.481
    1AU       S  253   6.862   5.244   6.223
    1AU     LIG  254   7.277   5.038   6.201
    1AU     LIG  255   7.699   4.816   6.197
    1AU     LIG  256   8.094   4.569   6.215
    1AU     LIG  257   8.514   4.402   6.211
    1AU     LIG  258   8.875   4.331   6.478
    1AU     LIG  259   9.200   4.404   6.820
    1AU    AUSL  260   6.385   6.077   6.077
    1AU    AUSL  261   6.274   6.422   6.345
    1AU     AUL  262   6.510   6.462   6.220
    1AU       S  263   6.507   6.200   6.574
    1AU     LIG  264   6.942   6.487   6.495
    1AU     LIG  265   7.137   6.735   6.876
    1AU     LIG  266   7.338   7.069   7.185
    1AU     LIG  267   7.540   7.529   7.256
    1AU     LIG  268   7.826   7.930   7.325
    1AU     LIG  269   8.059   8.342   7.451
    1AU       S  270   6.809   6.141   6.093
    1AU     LIG  271   7.131   6.008   6.335
    1AU     LIG  272   7.612   6.060   6.272
    1AU     LIG  273   8.111   6.110   6.199
    1AU     LIG  274   8.605   6.185   6.136
    1AU     LIG  275   9.084   6.323   6.137
    1AU     LIG  276   9.436   6.560   6.392
    1AU    AUSL  277   5.110   6.436   6.081
    1AU    AUSL  278   5.140   6.172   6.427
    1AU     AUL  279   5.103   6.611   6.360
    1AU       S  280   4.927   6.238   6.634
    1AU     LIG  281   4.604   6.422   7.019
    1AU     LIG  282   4.549   6.663   7.446
    1AU     LIG  283   4.379   6.741   7.909
    1AU     LIG  284   4.048   6.825   8.278
    1AU     LIG  285   3.614   7.027   8.414
    1AU     LIG  286   3.223   7.279   8.552
    1AU       S  287   4.738   6.494   6.109
    1AU     LIG  288   4.607   6.933   6.181
    1AU     LIG  289   4.337   7.353   6.110
    1AU     LIG  290   3.981   7.692   6.090
    1AU     LIG  291   3.543   7.909   6.020
    1AU     LIG  292   3.109   8.140   6.127
    1AU     LIG  293   2.697   8.157   6.418
    1AU    AUSL  294   5.172   6.094   5.854
    1AU    AUSL  295   5.270   6.507   5.701
    1AU     AUL  296   5.001   6.428   5.718
    1AU       S  297   4.608   6.403   5.969
    1AU     LIG  298   4.540   6.660   5.543
    1AU     LIG  299   4.137   6.932   5.349
    1AU     LIG  300   3.615   6.962   5.299
    1AU     LIG  301   3.087   6.917   5.239
    1AU     LIG  302   2.594   6.739   5.191
    1AU     LIG  303   2.118   6.889   5.095
    1AU       S  304   5.103   6.685   5.330
    1AU     LIG  305   4.944   7.034   5.073
    1AU     LIG  306   4.864   7.412   4.818
    1AU     LIG  307   4.511   7.684   4.809
    1AU     LIG  308   4.382   8.084   4.622
    1AU     LIG  309   4.063   8.357   4.417
    1AU     LIG  310   3.815   8.730   4.259
    1AU    AUSL  311   4.882   6.036   6.151
    1AU    AUSL  312   4.926   5.765   5.821
    1AU     AUL  313   4.774   6.030   5.757
    1AU       S  314   4.592   5.593   5.963
    1AU     LIG  315   4.227   5.477   6.282
    1AU     LIG  316   3.751   5.337   6.368
    1AU     LIG  317   3.307   5.154   6.257
    1AU     LIG  318   2.910   5.014   5.955
    1AU     LIG  319   2.411   5.007   5.904
    1AU     LIG  320   2.004   4.915   5.652
    1AU       S  321   4.694   6.119   6.225
    1AU     LIG  322   4.477   6.460   6.520
    1AU     LIG  323   4.050   6.639   6.670
    1AU     LIG  324   3.549   6.701   6.694
    1AU     LIG  325   3.057   6.777   6.639
    1AU     LIG  326   2.652   7.036   6.709
    1AU     LIG  327   2.211   6.900   6.797
    1AU    AUSL  328   6.435   5.364   6.058
    1AU    AUSL  329   6.200   5.615   6.328
    1AU     AUL  330   6.627   5.590   6.418
    1AU       S  331   6.602   5.096   6.054
    1AU     LIG  332   6.872   4.738   6.077
    1AU     LIG  333   7.292   4.524   6.061
    1AU     LIG  334   7.718   4.331   5.952
    1AU     LIG  335   8.157   4.123   5.947
    1AU     LIG  336   8.482   3.879   6.193
    1AU     LIG  337   8.864   3.808   6.504
    1AU       S  338   6.412   5.229   6.585
    1AU     LIG  339   6.666   4.888   6.932
    1AU     LIG  340   6.880   4.548   7.212
    1AU     LIG  341   7.094   4.255   7.537
    1AU     LIG  342   7.470   4.187   7.838
    1AU     LIG  343   7.813   4.266   8.182
    1AU     LIG  344   8.254   4.262   8.406
    1AU    AUSL  345   6.270   5.692   5.874
    1AU    AUSL  346   6.198   5.204   5.760
    1AU     AUL  347   6.554   5.421   5.692
    1AU       S  348   6.583   5.248   6.107
    1AU     LIG  349   6.995   5.129   5.759
    1AU     LIG  350   7.462   4.896   5.735
    1AU     LIG  351   7.957   4.744   5.746
    1AU     LIG  352   8.402   4.517   5.709
    1AU     LIG  353   8.823   4.416   5.503
    1AU     LIG  354   9.206   4.685   5.538
    1AU       S  355   6.460   4.973   5.557
    1AU     LIG  356   6.512   4.561   5.306
    1AU     LIG  357   6.677   4.170   5.068
    1AU     LIG  358   6.859   3.766   4.854
    1AU     LIG  359   7.083   3.308   4.848
    1AU     LIG  360   7.509   3.078   4.762
    1AU     LIG  361   7.995   3.105   4.660
    1AU    AUSL  362   5.036   5.392   6.016
    1AU    AUSL  363   5.107   5.509   5.567
    1AU     AUL  364   4.836   5.593   5.552
    1AU       S  365   5.044   5.180   5.576
    1AU     LIG  366   4.566   5.156   5.526
    1AU     LIG  367   4.239   5.021   5.236
    1AU     LIG  368   3.987   4.783   4.932
    1AU     LIG  369   3.698   4.515   4.701
    1AU     LIG  370   3.432   4.453   4.322
    1AU     LIG  371   3.170   4.478   3.925
    1AU       S  372   4.747   5.363   5.941
    1AU     LIG  373   4.470   5.077   6.067
    1AU     LIG  374   4.036   5.007   6.110
    1AU     LIG  375   3.656   4.788   6.276
    1AU     LIG  376   3.185   4.643   6.197
    1AU     LIG  377   2.757   4.413   6.081
    1AU     LIG  378   2.503   4.021   5.947
    1AU    AUSL  379   5.195   5.768   6.145
    1AU    AUSL  380   5.270   5.421   6.385
    1AU     AUL  381   4.907   5.521   6.336
    1AU       S  382   5.030   5.257   6.691
    1AU     LIG  383   4.914   4.995   6.335
    1AU     LIG  384   4.537   4.671   6.396
    1AU     LIG  385   4.191   4.362   6.604
    1AU     LIG  386   3.899   4.066   6.891
    1AU     LIG  387   3.692   3.744   7.216
    1AU     LIG  388   3.592   3.270   7.368
    1AU       S  389   4.636   5.653   5.996
    1AU     LIG  390   4.184   5.405   5.782
    1AU     LIG  391   3.700   5.346   5.852
    1AU     LIG  392   3.207   5.452   5.872
    1AU     LIG  393   2.867   5.417   6.243
    1AU     LIG  394   2.385   5.363   6.320
    1AU     LIG  395   1.952   5.262   6.512
    1AU    AUSL  396   5.800   6.529   6.557
    1AU    AUSL  397   5.475   6.333   6.242
    1AU     AUL  398   5.507   6.636   6.620
    1AU       S  399   5.119   6.452   6.789
    1AU     LIG  400   4.847   6.813   6.792
    1AU     LIG  401   4.745   7.103   7.168
    1AU     LIG  402   4.711   7.550   7.390
    1AU     LIG  403   4.637   8.047   7.403
    1AU     LIG  404   4.354   8.422   7.488
    1AU     LIG  405   3.923   8.557   7.626
    1AU       S  406   5.877   6.933   6.534
    1AU     LIG  407   5.968   7.298   6.810
    1AU     LIG  408   6.069   7.704   7.018
    1AU     LIG  409   6.139   7.932   7.434
    1AU     LIG  410   6.080   8.179   7.845
    1AU     LIG  411   5.910   8.515   8.142
    1AU     LIG  412   5.841   8.973   8.249
    1AU    AUSL  413   5.543   6.726   6.177
    1AU    AUSL  414   5.997   6.700   5.787
    1AU     AUL  415   5.642   6.953   5.944
    1AU       S  416   5.747   6.989   6.390
    1AU     LIG  417   5.746   7.444   6.372
    1AU     LIG  418   5.671   7.818   6.659
    1AU     LIG  419   5.484   8.240   6.809
    1AU     LIG  420   5.369   8.709   6.907
    1AU     LIG  421   5.334   9.196   7.046
    1AU     LIG  422   5.166   9.650   7.084
    1AU       S  423   6.065   7.003   5.735
    1AU     LIG  424   6.380   7.110   5.451
    1AU     LIG  425   6.446   7.565   5.289
    1AU     LIG  426   6.653   8.023   5.300
    1AU     LIG  427   6.806   8.489   5.234
    1AU     LIG  428   6.912   8.960   5.226
    1AU     LIG  429   6.808   9.421   5.150
    1AU    AUSL  430   5.936   6.555   6.167
    1AU    AUSL  431   5.951   6.176   6.424
    1AU     AUL  432   6.115   6.540   6.583
    1AU       S  433   6.528   6.360   6.711
    1AU     LIG  434   6.720   6.488   7.100
    1AU     LIG  435   6.969   6.752   7.416
    1AU     LIG  436   7.174   6.891   7.839
    1AU     LIG  437   7.233   7.093   8.282
    1AU     LIG  438   7.276   7.484   8.571
    1AU     LIG  439   7.427   7.838   8.869
    1AU       S  440   6.025   6.857   6.240
    1AU     LIG  441   6.243   7.271   6.375
    1AU     LIG  442   6.399   7.708   6.590
    1AU     LIG  443   6.696   8.138   6.659
    1AU     LIG  444   6.854   8.628   6.700
    1AU     LIG  445   6.704   9.084   6.646
    1AU     LIG  446   6.830   9.549   6.709
    1AU    AUSL  447   5.701   5.307   6.377
    1AU    AUSL  448   6.109   5.206   6.249
    1AU     AUL  449   5.892   5.102   6.627
    1AU       S  450   5.693   4.704   6.515
    1AU     LIG  451   5.787   4.300   6.660
    1AU     LIG  452   5.534   3.949   6.807
    1AU     LIG  453   5.342   3.544   6.904
    1AU     LIG  454   5.318   3.221   7.248
    1AU     LIG  455   5.379   3.059   7.698
    1AU     LIG  456   5.492   2.751   8.045
    1AU       S  457   6.254   4.995   6.357
    1AU     LIG  458   6.549   4.644   6.476
    1AU     LIG  459   6.658   4.316   6.811
    1AU     LIG  460   6.922   4.016   7.103
    1AU     LIG  461   7.237   3.670   7.288
    1AU     LIG  462   7.532   3.259   7.337
    1AU     LIG  463   7.933   2.985   7.382
    1AU    AUSL  464   5.400   5.112   6.161
    1AU    AUSL  465   5.505   5.386   6.735
    1AU     AUL  466   5.423   5.093   6.509
    1AU       S  467   5.506   4.650   6.394
    1AU     LIG  468   5.320   4.247   6.410
    1AU     LIG  469   5.205   3.789   6.445
    1AU     LIG  470   5.002   3.379   6.536
    1AU     LIG  471   4.730   2.993   6.544
    1AU     LIG  472   4.596   2.621   6.789
    1AU     LIG  473   4.664   2.205   6.952
    1AU       S  474   5.189   5.273   6.866
    1AU     LIG  475   4.871   4.836   6.845
    1AU     LIG  476   4.451   4.652   6.937
    1AU     LIG  477   4.243   4.302   7.188
    1AU     LIG  478   4.055   3.979   7.498
    1AU     LIG  479   4.006   3.672   7.866
    1AU     LIG  480   4.028   3.623   8.341
    1AU    AUSL  481   5.797   4.965   6.143
    1AU    AUSL  482   5.508   5.053   5.768
    1AU     AUL  483   5.330   4.879   6.036
    1AU       S  484   5.482   4.695   5.633
    1AU     LIG  485   5.148   4.452   5.536
    1AU     LIG  486   5.086   3.986   5.594
    1AU     LIG  487   5.080   3.510   5.498
    1AU     LIG  488   4.845   3.078   5.450
    1AU     LIG  489   4.626   2.682   5.265
    1AU     LIG  490   4.544   2.234   5.145
    1AU       S  491   5.759   4.821   6.241
    1AU     LIG  492   5.780   4.349   6.123
    1AU     LIG  493   5.698   3.907   6.311
    1AU     LIG  494   5.695   3.461   6.513
    1AU     LIG  495   5.949   3.015   6.530
    1AU     LIG  496   6.110   2.585   6.712
    1AU     LIG  497   6.246   2.213   6.969
    1AU    AUSL  498   5.753   6.524   5.463
    1AU    AUSL  499   6.049   6.292   5.779
    1AU     AUL  500   6.139   6.599   5.525
    1AU       S  501   5.833   6.886   5.326
    1AU     LIG  502   6.069   7.166   5.055
    1AU     LIG  503   6.144   7.569   4.855
    1AU     LIG  504   6.080   7.787   4.442
    1AU     LIG  505   6.029   8.111   4.105
    1AU     LIG  506   6.029   8.548   3.952
    1AU     LIG  507   6.042   8.878   3.619
    1AU       S  508   6.497   6.301   5.493
    1AU     LIG  509   6.764   6.749   5.322
    1AU     LIG  510   7.119   6.872   5.022
    1AU     LIG  511   7.377   7.122   4.706
    1AU     LIG  512   7.600   7.554   4.640
    1AU     LIG  513   7.801   7.981   4.514
    1AU     LIG  514   7.827   8.418   4.312
    1AU    AUSL  515   5.645   6.483   5.863
    1AU    AUSL  516   5.522   6.205   5.566
    1AU     AUL  517   5.493   6.685   5.591
    1AU       S  518   5.875   6.982   5.555
    1AU     LIG  519   5.961   7.446   5.466
    1AU     LIG  520   5.958   7.882   5.238
    1AU     LIG  521   5.764   8.329   5.097
    1AU     LIG  522   5.451   8.722   4.989
    1AU     LIG  523   5.418   9.197   4.847
    1AU     LIG  524   5.015   9.411   4.723
    1AU       S  525   5.324   6.502   5.194
    1AU     LIG  526   5.113   6.647   4.777
    1AU     LIG  527   4.947   6.926   4.402
    1AU     LIG  528   4.913   7.031   3.920
    1AU     LIG  529   4.866   7.376   3.593
    1AU     LIG  530   4.550   7.685   3.432
    1AU     LIG  531   4.226   7.869   3.128
    1AU    AUSL  532   5.820   5.153   5.495
    1AU    AUSL  533   5.404   5.441   5.848
    1AU     AUL  534   5.496   5.122   5.454
    1AU       S  535   5.052   5.051   5.682
    1AU     LIG  536   4.735   4.746   5.785
    1AU     LIG  537   4.312   4.624   5.553
    1AU     LIG  538   3.973   4.382   5.251
    1AU     LIG  539   3.702   4.063   4.985
    1AU     LIG  540   3.412   3.651   4.906
    1AU     LIG  541   3.238   3.317   4.614
    1AU       S  542   5.721   4.719   5.493
    1AU     LIG  543   5.560   4.471   5.181
    1AU     LIG  544   5.365   4.066   5.172
    1AU     LIG  545   5.364   3.608   5.070
    1AU     LIG  546   5.351   3.295   4.709
    1AU     LIG  547   5.342   3.130   4.253
    1AU     LIG  548   5.455   2.838   3.897
    1AU    AUSL  549   5.826   5.286   5.910
    1AU    AUSL  550   5.949   5.523   5.592
    1AU     AUL  551   6.017   5.018   5.685
    1AU       S  552   5.671   4.730   5.750
    1AU     LIG  553   5.612   4.220   5.645
    1AU     LIG  554   5.551   3.756   5.547
    1AU     LIG  555   5.662   3.314   5.419
    1AU     LIG  556   6.020   2.973   5.447
    1AU     LIG  557   6.280   2.600   5.314
    1AU     LIG  558   6.492   2.224   5.108
    1AU       S  559   6.211   5.123   5.266
    1AU     LIG  560   6.073   4.750   5.104
    1AU     LIG  561   6.303   4.446   4.826
    1AU     LIG  562   6.567   4.145   4.555
    1AU     LIG  563   6.744   3.957   4.163
    1AU     LIG  564   6.941   3.738   3.800
    1AU     LIG  565   7.219   3.575   3.467
    2POPC   NC3  566   1.406   2.512   7.950
    2POPC   PO4  567   1.117   3.079   8.155
    2POPC   GL1  568   1.216   2.963   7.738
    2POPC   GL2  569   0.887   2.816   7.682
    2POPC   C1A  570   1.264   2.710   7.336
    2POPC   D2A  571   1.502   2.700   6.959
    2POPC   C3A  572   1.363   2.752   6.559
    2POPC   C4A  573   1.654   2.965   6.298
    2POPC   C1B  574   0.906   3.063   7.286
    2POPC   C2B  575   0.999   3.059   6.846
    2POPC   C3B  576   0.865   2.858   6.465
    2POPC   C4B  577   1.128   2.745   6.093
    3POPC   NC3  578   2.746   1.954   8.113
    3POPC   PO4  579   3.222   2.296   7.718
    3POPC   GL1  580   3.013   1.901   7.592
    3POPC   GL2  581   2.682   1.745   7.653
    3POPC   C1A  582   3.064   1.895   7.163
    3POPC   D2A  583   3.187   1.980   6.771
    3POPC   C3A  584   2.991   1.878   6.464
    3POPC   C4A  585   3.037   1.958   6.084
    3POPC   C1B  586   2.581   1.959   7.280
    3POPC   C2B  587   2.612   2.113   6.851
    3POPC   C3B  588   2.499   2.041   6.432
    3POPC   C4B  589   2.586   2.178   5.996
    4POPC   NC3  590   8.564   5.238   8.200
    4POPC   PO4  591   9.054   5.489   8.262
    4POPC   GL1  592   8.944   5.293   7.830
    4POPC   GL2  593   8.952   4.930   7.708
    4POPC   C1A  594   8.977   5.294   7.337
    4POPC   D2A  595   9.214   5.173   6.924
    4POPC   C3A  596   9.088   5.231   6.461
    4POPC   C4A  597   8.822   5.284   6.073
    4POPC   C1B  598   8.989   4.788   7.224
    4POPC   C2B  599   8.885   4.812   6.751
    4POPC   C3B  600   8.844   4.808   6.301
    4POPC   C4B  601   8.935   4.540   5.973
    5POPC   NC3  602   1.390   0.514   8.116
    5POPC   PO4  603   0.820   0.808   7.992
    5POPC   GL1  604   0.984   0.432   7.749
    5POPC   GL2  605   1.216   0.151   7.805
    5POPC   C1A  606   0.911   0.282   7.325
    5POPC   D2A  607   0.827   0.477   6.923
    5POPC   C3A  608   0.842   0.171   6.599
    5POPC   C4A  609   0.864  11.480   6.226
    5POPC   C1B  610   1.422   0.370   7.433
    5POPC   C2B  611   1.346   0.512   6.985
    5POPC   C3B  612   1.214   0.513   6.545
    5POPC   C4B  613   1.286   0.261   6.189
    6POPC   NC3  614   7.987   2.514   7.973
    6POPC   PO4  615   7.604   3.075   7.981
    6POPC   GL1  616   7.540   2.746   7.654
    6POPC   GL2  617   7.220   2.582   7.753
    6POPC   C1A  618   7.527   2.719   7.177
    6POPC   D2A  619   7.381   2.851   6.737
    6POPC   C3A  620   7.593   2.757   6.324
    6POPC   C4A  621   7.638   2.889   5.873
    6POPC   C1B  622   7.178   2.393   7.364
    6POPC   C2B  623   7.175   2.401   6.910
    6POPC   C3B  624   7.101   2.496   6.461
    6POPC   C4B  625   7.267   2.465   6.042
    7POPC   NC3  626   2.140   5.676   8.162
    7POPC   PO4  627   1.668   6.089   8.074
    7POPC   GL1  628   1.665   5.915   7.676
    7POPC   GL2  629   2.018   5.906   7.672
    7POPC   C1A  630   1.631   6.096   7.256
    7POPC   D2A  631   1.848   6.057   6.871
    7POPC   C3A  632   1.678   6.053   6.457
    7POPC   C4A  633   1.741   5.677   6.239
    7POPC   C1B  634   1.923   5.683   7.288
    7POPC   C2B  635   2.074   5.607   6.875
    7POPC   C3B  636   2.142   5.826   6.492
    7POPC   C4B  637   2.206   5.761   6.044
    8POPC   NC3  638   0.383   5.473   8.197
    8POPC   PO4  639   0.035   4.875   8.151
    8POPC   GL1  640   0.197   5.005   7.815
    8POPC   GL2  641   0.529   5.083   7.870
    8POPC   C1A  642   0.092   4.806   7.403
    8POPC   D2A  643   0.161   4.593   6.998
    8POPC   C3A  644   0.017   4.774   6.605
    8POPC   C4A  645   0.215   4.843   6.237
    8POPC   C1B  646   0.498   5.152   7.442
    8POPC   C2B  647   0.453   5.007   7.028
    8POPC   C3B  648   0.439   5.141   6.567
    8POPC   C4B  649   0.628   5.138   6.143
    9POPC   NC3  650  11.175   5.296   8.140
    9POPC   PO4  651  11.007   4.759   8.412
    9POPC   GL1  652  11.086   4.864   7.875
    9POPC   GL2  653  11.240   5.152   7.680
    9POPC   C1A  654  11.039   4.835   7.379
    9POPC   D2A  655  11.024   5.104   6.987
    9POPC   C3A  656  10.967   4.951   6.574
    9POPC   C4A  657  11.089   4.833   6.172
    9POPC   C1B  658  11.413   5.265   7.295
    9POPC   C2B  659   0.023   5.211   6.857
    9POPC   C3B  660  11.410   5.247   6.376
    9POPC   C4B  661  11.191   5.292   5.939
   10POPC   NC3  662  11.383   8.048   8.062
   10POPC   PO4  663  10.670   8.308   8.106
   10POPC   GL1  664  10.944   8.300   7.717
   10POPC   GL2  665  11.308   8.381   7.671
   10POPC   C1A  666  10.811   8.400   7.287
   10POPC   D2A  667  10.904   8.524   6.864
   10POPC   C3A  668  11.042   8.203   6.617
   10POPC   C4A  669  10.981   8.061   6.214
   10POPC   C1B  670  11.259   8.111   7.295
   10POPC   C2B  671  11.472   8.086   6.883
   10POPC   C3B  672  11.469   7.985   6.465
   10POPC   C4B  673  11.404   8.320   6.190
   11POPC   NC3  674   3.517   2.421   8.052
   11POPC   PO4  675   4.171   2.533   8.312
   11POPC   GL1  676   3.950   2.530   7.833
   11POPC   GL2  677   3.617   2.759   7.682
   11POPC   C1A  678   3.843   2.435   7.386
   11POPC   D2A  679   3.643   2.682   7.098
   11POPC   C3A  680   3.761   2.529   6.707
   11POPC   C4A  681   3.741   2.793   6.374
   11POPC   C1B  682   3.232   2.856   7.375
   11POPC   C2B  683   3.112   2.944   6.927
   11POPC   C3B  684   3.195   2.843   6.468
   11POPC   C4B  685   3.413   3.163   6.199
   12POPC   NC3  686   4.797   7.988   8.045
   12POPC   PO4  687   5.160   7.579   7.981
   12POPC   GL1  688   5.080   7.863   7.602
   12POPC   GL2  689   5.104   8.214   7.694
   12POPC   C1A  690   5.026   7.859   7.112
   12POPC   D2A  691   5.135   7.876   6.657
   12POPC   C3A  692   4.781   7.960   6.362
   12POPC   C4A  693   4.401   8.093   6.126
   12POPC   C1B  694   5.175   8.317   7.246
   12POPC   C2B  695   4.984   8.360   6.821
   12POPC   C3B  696   5.164   8.311   6.383
   12POPC   C4B  697   5.239   7.937   6.112
   13POPC   NC3  698   8.455   0.937   8.004
   13POPC   PO4  699   7.756   1.073   8.144
   13POPC   GL1  700   7.996   1.091   7.767
   13POPC   GL2  701   7.826   1.345   7.557
   13POPC   C1A  702   8.061   0.902   7.360
   13POPC   D2A  703   7.927   1.028   6.922
   13POPC   C3A  704   8.236   0.956   6.587
   13POPC   C4A  705   8.281   1.091   6.169
   13POPC   C1B  706   8.166   1.395   7.230
   13POPC   C2B  707   8.229   1.440   6.787
   13POPC   C3B  708   7.931   1.352   6.447
   13POPC   C4B  709   7.748   1.658   6.159
   14POPC   NC3  710   1.126   9.581   8.123
   14POPC   PO4  711   0.861  10.190   8.153
   14POPC   GL1  712   1.040   9.944   7.774
   14POPC   GL2  713   1.408   9.869   7.782
   14POPC   C1A  714   0.893   9.968   7.352
   14POPC   D2A  715   1.140   9.941   6.978
   14POPC   C3A  716   1.073   9.666   6.619
   14POPC   C4A  717   1.150   9.878   6.239
   14POPC   C1B  718   1.336   9.677   7.387
   14POPC   C2B  719   1.509   9.553   6.988
   14POPC   C3B  720   1.582   9.642   6.577
   14POPC   C4B  721   1.464   9.487   6.181
   15POPC   NC3  722   1.272  10.566   8.215
   15POPC   PO4  723   0.741  10.690   7.843
   15POPC   GL1  724   0.985  10.433   7.656
   15POPC   GL2  725   1.347  10.398   7.713
   15POPC   C1A  726   1.082  10.429   7.242
   15POPC   D2A  727   1.356  10.474   6.923
   15POPC   C3A  728   1.147  10.288   6.573
   15POPC   C4A  729   0.923  10.338   6.200
   15POPC   C1B  730   1.516  10.167   7.330
   15POPC   C2B  731   1.631  10.043   6.885
   15POPC   C3B  732   1.615  10.129   6.417
   15POPC   C4B  733   1.412  10.364   6.092
   16POPC   NC3  734   3.597   9.373   8.270
   16POPC   PO4  735   3.061   9.217   7.976
   16POPC   GL1  736   3.434   9.472   7.774
   16POPC   GL2  737   3.660   9.776   7.833
   16POPC   C1A  738   3.458   9.569   7.326
   16POPC   D2A  739   3.334   9.748   6.912
   16POPC   C3A  740   3.306   9.577   6.458
   16POPC   C4A  741   3.193   9.524   6.017
   16POPC   C1B  742   3.726   9.995   7.395
   16POPC   C2B  743   3.817   9.965   6.921
   16POPC   C3B  744   3.800   9.738   6.491
   16POPC   C4B  745   3.665   9.733   6.030
   17POPC   NC3  746  10.456   1.263   8.355
   17POPC   PO4  747  10.353   1.781   7.978
   17POPC   GL1  748  10.280   1.487   7.662
   17POPC   GL2  749  10.384   1.145   7.738
   17POPC   C1A  750  10.539   1.373   7.280
   17POPC   D2A  751  10.692   1.232   6.877
   17POPC   C3A  752  10.630   1.568   6.621
   17POPC   C4A  753  10.529   1.570   6.214
   17POPC   C1B  754  10.094   1.120   7.359
   17POPC   C2B  755  10.221   1.058   6.946
   17POPC   C3B  756  10.242   1.216   6.529
   17POPC   C4B  757  10.243   1.054   6.088
   18POPC   NC3  758   3.820  11.331   8.168
   18POPC   PO4  759   3.280   0.046   7.854
   18POPC   GL1  760   3.638  11.397   7.683
   18POPC   GL2  761   3.566  11.054   7.684
   18POPC   C1A  762   3.780  11.343   7.274
   18POPC   D2A  763   3.724  11.035   6.961
   18POPC   C3A  764   3.667  11.182   6.582
   18POPC   C4A  765   3.731  11.499   6.288
   18POPC   C1B  766   3.298  11.065   7.290
   18POPC   C2B  767   3.232  10.929   6.842
   18POPC   C3B  768   3.267  10.975   6.384
   18POPC   C4B  769   3.583  10.999   6.045
   19POPC   NC3  770  11.360   6.279   8.135
   19POPC   PO4  771  11.216   6.930   7.961
   19POPC   GL1  772  11.255   6.709   7.623
   19POPC   GL2  773  11.263   6.368   7.660
   19POPC   C1A  774  11.211   6.795   7.203
   19POPC   D2A  775  11.098   6.989   6.790
   19POPC   C3A  776  11.199   6.816   6.320
   19POPC   C4A  777  10.889   6.962   5.937
   19POPC   C1B  778  11.267   6.289   7.225
   19POPC   C2B  779  11.033   6.477   6.864
   19POPC   C3B  780  11.060   6.326   6.450
   19POPC   C4B  781  11.473   6.208   6.275
   20POPC   NC3  782  10.377   0.270   8.443
   20POPC   PO4  783  10.908   0.137   8.082
   20POPC   GL1  784  10.680   0.244   7.705
   20POPC   GL2  785  10.316   0.321   7.745
   20POPC   C1A  786  10.524   0.210   7.268
   20POPC   D2A  787  10.481  11.468   6.909
   20POPC   C3A  788  10.530   0.224   6.552
   20POPC   C4A  789  10.686   0.178   6.132
   20POPC   C1B  790  10.315   0.647   7.385
   20POPC   C2B  791  10.447   0.603   6.932
   20POPC   C3B  792  10.259   0.688   6.524
   20POPC   C4B  793  10.233   0.427   6.180
   21POPC   NC3  794   6.940   1.137   7.987
   21POPC   PO4  795   6.248   1.178   8.068
   21POPC   GL1  796   6.498   0.975   7.710
   21POPC   GL2  797   6.283   0.744   7.513
   21POPC   C1A  798   6.854   1.045   7.373
   21POPC   D2A  799   6.814   1.214   6.975
   21POPC   C3A  800   6.567   0.964   6.714
   21POPC   C4A  801   6.535   1.175   6.336
   21POPC   C1B  802   6.349   1.081   7.200
   21POPC   C2B  803   6.313   1.436   6.898
   21POPC   C3B  804   6.369   1.661   6.487
   21POPC   C4B  805   6.220   1.493   6.093
   22POPC   NC3  806   8.924  11.016   7.927
   22POPC   PO4  807   9.326  10.499   7.924
   22POPC   GL1  808   9.217  10.816   7.565
   22POPC   GL2  809   9.117  11.224   7.529
   22POPC   C1A  810   8.953  10.870   7.201
   22POPC   D2A  811   8.660  10.781   6.861
   22POPC   C3A  812   8.670  11.002   6.495
   22POPC   C4A  813   8.988  10.983   6.242
   22POPC   C1B  814   8.691  11.268   7.344
   22POPC   C2B  815   8.787  11.301   6.913
   22POPC   C3B  816   8.681   0.021   6.540
   22POPC   C4B  817   8.741  11.429   6.115
   23POPC   NC3  818   0.459   1.054   7.837
   23POPC   PO4  819   0.785   1.623   7.988
   23POPC   GL1  820   0.627   1.486   7.624
   23POPC   GL2  821   0.246   1.499   7.672
   23POPC   C1A  822   0.579   1.557   7.196
   23POPC   D2A  823   0.485   1.313   6.840
   23POPC   C3A  824   0.468   1.592   6.500
   23POPC   C4A  825   0.273   1.536   6.100
   23POPC   C1B  826   0.131   1.272   7.285
   23POPC   C2B  827  11.465   1.090   6.927
   23POPC   C3B  828   0.074   1.236   6.517
   23POPC   C4B  829   0.457   1.071   6.321
   24POPC   NC3  830   4.226   8.598   8.213
   24POPC   PO4  831   4.040   9.220   8.183
   24POPC   GL1  832   4.062   9.034   7.792
   24POPC   GL2  833   4.360   8.859   7.757
   24POPC   C1A  834   4.046   8.958   7.330
   24POPC   D2A  835   4.165   8.614   7.034
   24POPC   C3A  836   4.147   8.696   6.561
   24POPC   C4A  837   4.073   8.501   6.155
   24POPC   C1B  838   4.541   8.882   7.309
   24POPC   C2B  839   4.418   9.020   6.864
   24POPC   C3B  840   4.539   8.985   6.408
   24POPC   C4B  841   4.708   9.169   6.038
   25POPC   NC3  842   3.536   1.346   8.191
   25POPC   PO4  843   3.212   0.694   8.063
   25POPC   GL1  844   3.257   0.877   7.657
   25POPC   GL2  845   3.528   1.117   7.572
   25POPC   C1A  846   3.148   1.023   7.246
   25POPC   D2A  847   3.343   1.092   6.843
   25POPC   C3A  848   3.133   1.112   6.441
   25POPC   C4A  849   3.151   1.469   6.135
   25POPC   C1B  850   3.831   1.385   7.298
   25POPC   C2B  851   4.002   1.504   6.875
   25POPC   C3B  852   3.889   1.446   6.442
   25POPC   C4B  853   3.600   1.174   6.318
   26POPC   NC3  854   5.632   9.724   8.262
   26POPC   PO4  855   6.080  10.167   8.249
   26POPC   GL1  856   6.114   9.881   7.846
   26POPC   GL2  857   5.804   9.679   7.769
   26POPC   C1A  858   6.020   9.909   7.357
   26POPC   D2A  859   6.187   9.787   6.930
   26POPC   C3A  860   5.983   9.877   6.529
   26POPC   C4A  861   6.009   9.892   6.076
   26POPC   C1B  862   5.629   9.563   7.340
   26POPC   C2B  863   5.649   9.652   6.881
   26POPC   C3B  864   5.534   9.571   6.432
   26POPC   C4B  865   5.696   9.490   5.992
   27POPC   NC3  866  11.088  10.450   8.048
   27POPC   PO4  867  10.758   9.925   7.799
   27POPC   GL1  868  11.113  10.120   7.631
   27POPC   GL2  869  11.120  10.491   7.548
   27POPC   C1A  870  11.193  10.050   7.207
   27POPC   D2A  871  10.928  10.087   6.841
   27POPC   C3A  872  11.171  10.278   6.543
   27POPC   C4A  873  11.233  10.103   6.128
   27POPC   C1B  874  10.838  10.764   7.307
   27POPC   C2B  875  11.006  10.683   6.918
   27POPC   C3B  876  11.109  10.842   6.528
   27POPC   C4B  877  11.327  10.628   6.224
   28POPC   NC3  878   5.452   0.129   7.943
   28POPC   PO4  879   5.007   0.583   8.252
   28POPC   GL1  880   5.208   0.543   7.794
   28POPC   GL2  881   5.133   0.269   7.562
   28POPC   C1A  882   5.370   0.614   7.307
   28POPC   D2A  883   5.101   0.364   7.019
   28POPC   C3A  884   5.136   0.370   6.581
   28POPC   C4A  885   5.293   0.646   6.287
   28POPC   C1B  886   4.879   0.650   7.415
   28POPC   C2B  887   4.640   0.691   7.049
   28POPC   C3B  888   4.738   0.717   6.605
   28POPC   C4B  889   4.804   0.969   6.247
   29POPC   NC3  890   8.715   2.617   8.062
   29POPC   PO4  891   8.230   2.913   8.016
   29POPC   GL1  892   8.539   2.889   7.641
   29POPC   GL2  893   8.784   2.587   7.546
   29POPC   C1A  894   8.849   3.046   7.322
   29POPC   D2A  895   8.973   3.333   6.968
   29POPC   C3A  896   8.994   3.172   6.535
   29POPC   C4A  897   8.697   3.018   6.178
   29POPC   C1B  898   9.107   2.620   7.188
   29POPC   C2B  899   9.030   2.646   6.739
   29POPC   C3B  900   9.071   2.701   6.305
   29POPC   C4B  901   9.054   2.578   5.870
   30POPC   NC3  902   7.379  10.620   8.239
   30POPC   PO4  903   7.707  10.788   7.697
   30POPC   GL1  904   7.347  10.572   7.596
   30POPC   GL2  905   7.397  10.267   7.799
   30POPC   C1A  906   7.279  10.416   7.182
   30POPC   D2A  907   7.002  10.436   6.845
   30POPC   C3A  908   7.140  10.624   6.476
   30POPC   C4A  909   7.495  10.656   6.216
   30POPC   C1B  910   7.675  10.174   7.445
   30POPC   C2B  911   7.616  10.076   7.015
   30POPC   C3B  912   7.511  10.252   6.608
   30POPC   C4B  913   7.474  10.132   6.175
   31POPC   NC3  914  10.308   4.507   7.605
   31POPC   PO4  915  10.231   4.024   7.956
   31POPC   GL1  916  10.077   4.058   7.536
   31POPC   GL2  917   9.740   4.093   7.551
   31POPC   C1A  918  10.074   4.218   7.069
   31POPC   D2A  919  10.184   4.612   6.786
   31POPC   C3A  920  10.076   4.578   6.342
   31POPC   C4A  921   9.786   4.253   6.209
   31POPC   C1B  922   9.551   4.077   7.132
   31POPC   C2B  923   9.328   3.896   6.770
   31POPC   C3B  924   9.323   4.121   6.394
   31POPC   C4B  925   9.327   4.585   6.343
   32POPC   NC3  926   0.413   2.038   8.011
   32POPC   PO4  927   0.981   2.365   7.922
   32POPC   GL1  928   0.804   2.019   7.634
   32POPC   GL2  929   0.455   1.945   7.532
   32POPC   C1A  930   0.772   2.133   7.209
   32POPC   D2A  931   0.483   1.987   6.903
   32POPC   C3A  932   0.722   2.054   6.560
   32POPC   C4A  933   0.851   1.920   6.165
   32POPC   C1B  934   0.140   1.816   7.280
   32POPC   C2B  935   0.086   1.625   6.888
   32POPC   C3B  936  11.489   1.784   6.473
   32POPC   C4B  937   0.313   2.034   6.260
   33POPC   NC3  938   9.465   5.659   8.305
   33POPC   PO4  939   9.918   6.066   8.162
   33POPC   GL1  940   9.971   5.827   7.761
   33POPC   GL2  941  10.109   6.086   7.592
   33POPC   C1A  942   9.893   5.715   7.309
   33POPC   D2A  943   9.863   5.824   6.857
   33POPC   C3A  944   9.742   5.615   6.482
   33POPC   C4A  945   9.873   5.680   6.070
   33POPC   C1B  946  10.041   6.209   7.151
   33POPC   C2B  947   9.845   6.324   6.729
   33POPC   C3B  948   9.719   6.111   6.339
   33POPC   C4B  949   9.445   5.943   6.023
   34POPC   NC3  950   5.063   1.069   8.191
   34POPC   PO4  951   5.650   0.705   8.141
   34POPC   GL1  952   5.422   0.987   7.782
   34POPC   GL2  953   5.145   1.242   7.724
   34POPC   C1A  954   5.392   1.106   7.314
   34POPC   D2A  955   5.094   0.932   6.991
   34POPC   C3A  956   5.190   1.047   6.578
   34POPC   C4A  957   5.262   1.176   6.133
   34POPC   C1B  958   4.893   1.268   7.328
   34POPC   C2B  959   4.776   1.376   6.889
   34POPC   C3B  960   4.897   1.439   6.445
   34POPC   C4B  961   5.033   1.654   6.062
   35POPC   NC3  962   7.760   9.253   8.104
   35POPC   PO4  963   8.460   9.266   8.072
   35POPC   GL1  964   8.345   9.182   7.649
   35POPC   GL2  965   8.035   9.144   7.691
   35POPC   C1A  966   8.224   8.853   7.309
   35POPC   D2A  967   8.103   8.725   6.842
   35POPC   C3A  968   8.354   8.688   6.405
   35POPC   C4A  969   8.340   8.768   5.939
   35POPC   C1B  970   7.853   9.198   7.286
   35POPC   C2B  971   8.012   9.226   6.873
   35POPC   C3B  972   7.989   9.056   6.429
   35POPC   C4B  973   7.864   8.990   5.958
   36POPC   NC3  974   8.926  10.403   8.139
   36POPC   PO4  975   8.468  11.005   8.009
   36POPC   GL1  976   8.619  10.677   7.655
   36POPC   GL2  977   8.896  10.395   7.629
   36POPC   C1A  978   8.589  10.461   7.235
   36POPC   D2A  979   8.612  10.269   6.818
   36POPC   C3A  980   8.388  10.549   6.477
   36POPC   C4A  981   8.558  10.726   6.068
   36POPC   C1B  982   9.126  10.389   7.221
   36POPC   C2B  983   9.139  10.624   6.805
   36POPC   C3B  984   8.906  10.511   6.433
   36POPC   C4B  985   8.998  10.120   6.263
   37POPC   NC3  986   7.157   8.847   7.951
   37POPC   PO4  987   7.840   8.658   8.182
   37POPC   GL1  988   7.801   8.690   7.734
   37POPC   GL2  989   7.586   8.925   7.694
   37POPC   C1A  990   7.735   8.696   7.258
   37POPC   D2A  991   7.602   8.932   6.892
   37POPC   C3A  992   7.386   8.720   6.573
   37POPC   C4A  993   7.690   8.641   6.280
   37POPC   C1B  994   7.343   9.030   7.324
   37POPC   C2B  995   7.137   9.130   6.928
   37POPC   C3B  996   7.173   9.176   6.487
   37POPC   C4B  997   7.389   9.055   6.132
   38POPC   NC3  998   0.587  11.035   8.092
   38POPC   PO4  999   1.144  10.972   8.481
   38POPC   GL1 1000   1.191  10.980   7.941
   38POPC   GL2 1001   0.954  11.197   7.761
   38POPC   C1A 1002   1.270  10.862   7.458
   38POPC   D2A 1003   1.229  11.038   7.008
   38POPC   C3A 1004   1.197  10.831   6.588
   38POPC   C4A 1005   0.956  10.869   6.213
   38POPC   C1B 1006   1.214  11.365   7.405
   38POPC   C2B 1007   1.457   0.012   7.059
   38POPC   C3B 1008   1.334   0.019   6.649
   38POPC   C4B 1009   1.305  11.260   6.311
   39POPC   NC3 1010   9.336   8.515   8.101
   39POPC   PO4 1011   9.282   7.837   8.114
   39POPC   GL1 1012   9.547   8.045   7.752
   39POPC   GL2 1013   9.726   8.364   7.759
   39POPC   C1A 1014   9.695   8.036   7.291
   39POPC   D2A 1015   9.844   7.770   6.916
   39POPC   C3A 1016   9.655   7.806   6.464
   39POPC   C4A 1017   9.701   7.809   6.010
   39POPC   C1B 1018   9.667   8.546   7.364
   39POPC   C2B 1019   9.523   8.452   6.942
   39POPC   C3B 1020   9.695   8.463   6.519
   39POPC   C4B 1021   9.552   8.261   6.147
   40POPC   NC3 1022   1.135   1.289   8.002
   40POPC   PO4 1023   1.712   0.855   8.108
   40POPC   GL1 1024   1.522   0.873   7.735
   40POPC   GL2 1025   1.586   1.207   7.666
   40POPC   C1A 1026   1.619   0.837   7.286
   40POPC   D2A 1027   1.756   0.810   6.837
   40POPC   C3A 1028   1.422   0.971   6.546
   40POPC   C4A 1029   1.032   0.960   6.288
   40POPC   C1B 1030   1.414   1.346   7.273
   40POPC   C2B 1031   1.318   1.379   6.828
   40POPC   C3B 1032   0.934   1.369   6.575
   40POPC   C4B 1033   0.797   1.410   6.146
   41POPC   NC3 1034   7.989   3.304   8.038
   41POPC   PO4 1035   8.279   3.812   7.959
   41POPC   GL1 1036   8.330   3.419   7.690
   41POPC   GL2 1037   7.995   3.460   7.539
   41POPC   C1A 1038   8.393   3.264   7.270
   41POPC   D2A 1039   8.471   3.538   6.910
   41POPC   C3A 1040   8.535   3.405   6.499
   41POPC   C4A 1041   8.317   3.353   6.121
   41POPC   C1B 1042   7.953   3.420   7.069
   41POPC   C2B 1043   8.048   3.287   6.628
   41POPC   C3B 1044   7.818   3.231   6.231
   41POPC   C4B 1045   7.478   3.373   5.950
   42POPC   NC3 1046  11.145   9.784   8.036
   42POPC   PO4 1047  10.854   9.217   7.856
   42POPC   GL1 1048  11.011   9.543   7.573
   42POPC   GL2 1049  11.360   9.666   7.577
   42POPC   C1A 1050  10.807   9.680   7.188
   42POPC   D2A 1051  10.622   9.469   6.825
   42POPC   C3A 1052  10.667   9.680   6.443
   42POPC   C4A 1053  10.856   9.762   6.041
   42POPC   C1B 1054  11.366   9.571   7.152
   42POPC   C2B 1055  11.127   9.578   6.793
   42POPC   C3B 1056  11.201   9.628   6.385
   42POPC   C4B 1057  11.337   9.584   5.982
   43POPC   NC3 1058  10.966   7.163   8.271
   43POPC   PO4 1059  11.093   7.711   7.881
   43POPC   GL1 1060  11.172   7.294   7.603
   43POPC   GL2 1061  10.911   7.082   7.520
   43POPC   C1A 1062  11.454   7.228   7.246
   43POPC   D2A 1063   0.102   6.951   6.907
   43POPC   C3A 1064  11.492   7.174   6.525
   43POPC   C4A 1065  11.341   7.537   6.280
   43POPC   C1B 1066  10.926   7.462   7.220
   43POPC   C2B 1067  11.035   7.772   6.914
   43POPC   C3B 1068  10.883   7.674   6.514
   43POPC   C4B 1069  10.934   7.244   6.372
   44POPC   NC3 1070   1.482   8.043   8.200
   44POPC   PO4 1071   0.815   8.100   8.204
   44POPC   GL1 1072   1.126   8.197   7.837
   44POPC   GL2 1073   1.108   8.560   7.715
   44POPC   C1A 1074   1.383   8.166   7.432
   44POPC   D2A 1075   1.493   8.332   6.994
   44POPC   C3A 1076   1.590   8.220   6.578
   44POPC   C4A 1077   1.370   8.101   6.210
   44POPC   C1B 1078   0.932   8.395   7.342
   44POPC   C2B 1079   1.032   8.142   7.040
   44POPC   C3B 1080   1.081   8.191   6.640
   44POPC   C4B 1081   0.881   8.281   6.258
   45POPC   NC3 1082   3.312   3.400   8.059
   45POPC   PO4 1083   2.666   3.236   8.080
   45POPC   GL1 1084   2.652   3.176   7.660
   45POPC   GL2 1085   2.432   3.460   7.629
   45POPC   C1A 1086   2.856   3.277   7.242
   45POPC   D2A 1087   2.760   3.353   6.784
   45POPC   C3A 1088   2.945   3.367   6.363
   45POPC   C4A 1089   2.977   3.821   6.170
   45POPC   C1B 1090   2.309   3.258   7.267
   45POPC   C2B 1091   2.120   3.477   6.952
   45POPC   C3B 1092   2.335   3.611   6.623
   45POPC   C4B 1093   2.411   3.275   6.373
   46POPC   NC3 1094  10.821   8.841   8.110
   46POPC   PO4 1095  11.324   9.376   8.210
   46POPC   GL1 1096  11.355   9.192   7.774
   46POPC   GL2 1097  11.252   8.868   7.826
   46POPC   C1A 1098  11.496   9.116   7.352
   46POPC   D2A 1099  11.260   9.075   6.945
   46POPC   C3A 1100  11.449   9.156   6.523
   46POPC   C4A 1101  11.212   9.096   6.139
   46POPC   C1B 1102  11.121   8.778   7.396
   46POPC   C2B 1103  11.379   8.579   7.063
   46POPC   C3B 1104  11.351   8.625   6.599
   46POPC   C4B 1105  10.986   8.606   6.285
   47POPC   NC3 1106   0.622   2.998   8.105
   47POPC   PO4 1107   0.189   2.430   8.113
   47POPC   GL1 1108   0.365   2.682   7.795
   47POPC   GL2 1109   0.527   2.435   7.671
   47POPC   C1A 1110   0.466   2.827   7.359
   47POPC   D2A 1111   0.504   3.002   6.957
   47POPC   C3A 1112   0.209   2.983   6.635
   47POPC   C4A 1113   0.403   2.952   6.230
   47POPC   C1B 1114   0.307   2.346   7.287
   47POPC   C2B 1115   0.329   2.513   6.894
   47POPC   C3B 1116   0.353   2.499   6.479
   47POPC   C4B 1117   0.682   2.439   6.216
   48POPC   NC3 1118   5.407   0.392   8.379
   48POPC   PO4 1119   5.957   0.229   7.948
   48POPC   GL1 1120   5.695   0.362   7.609
   48POPC   GL2 1121   5.764   0.626   7.629
   48POPC   C1A 1122   5.542   0.152   7.232
   48POPC   D2A 1123   5.632   0.372   6.858
   48POPC   C3A 1124   5.601   0.152   6.506
   48POPC   C4A 1125   5.378  11.431   6.212
   48POPC   C1B 1126   6.002   0.412   7.243
   48POPC   C2B 1127   6.198   0.637   6.968
   48POPC   C3B 1128   6.100   0.733   6.589
   48POPC   C4B 1129   5.872   0.499   6.236
   49POPC   NC3 1130  10.642   4.903   8.195
   49POPC   PO4 1131  10.769   5.544   8.109
   49POPC   GL1 1132  10.724   5.237   7.757
   49POPC   GL2 1133  10.422   5.034   7.754
   49POPC   C1A 1134  10.616   5.083   7.294
   49POPC   D2A 1135  10.497   5.055   6.860
   49POPC   C3A 1136  10.447   4.937   6.444
   49POPC   C4A 1137  10.659   5.092   6.126
   49POPC   C1B 1138  10.273   5.394   7.485
   49POPC   C2B 1139  10.201   5.435   7.010
   49POPC   C3B 1140  10.190   5.375   6.537
   49POPC   C4B 1141   9.887   5.175   6.213
   50POPC   NC3 1142   8.092  10.704   7.939
   50POPC   PO4 1143   8.533  10.257   7.968
   50POPC   GL1 1144   8.351  10.207   7.588
   50POPC   GL2 1145   8.121  10.505   7.475
   50POPC   C1A 1146   8.179  10.102   7.187
   50POPC   D2A 1147   8.045  10.252   6.800
   50POPC   C3A 1148   8.262  10.028   6.555
   50POPC   C4A 1149   8.485  10.117   6.220
   50POPC   C1B 1150   7.800  10.555   7.129
   50POPC   C2B 1151   7.548  10.719   6.830
   50POPC   C3B 1152   7.865  10.686   6.548
   50POPC   C4B 1153   7.948  10.335   6.286
   51POPC   NC3 1154   9.907   1.701   8.041
   51POPC   PO4 1155   9.280   1.578   8.296
   51POPC   GL1 1156   9.432   1.890   7.862
   51POPC   GL2 1157   9.736   2.139   7.766
   51POPC   C1A 1158   9.436   1.941   7.368
   51POPC   D2A 1159   9.696   1.880   6.955
   51POPC   C3A 1160   9.516   1.939   6.531
   51POPC   C4A 1161   9.327   1.789   6.135
   51POPC   C1B 1162   9.832   2.251   7.309
   51POPC   C2B 1163   9.521   2.377   6.970
   51POPC   C3B 1164   9.506   2.461   6.514
   51POPC   C4B 1165   9.841   2.250   6.251
   52POPC   NC3 1166  10.482   2.212   8.172
   52POPC   PO4 1167  10.771   1.641   8.354
   52POPC   GL1 1168  10.824   1.989   7.873
   52POPC   GL2 1169  10.467   2.114   7.655
   52POPC   C1A 1170  10.843   2.130   7.368
   52POPC   D2A 1171  10.610   1.915   7.003
   52POPC   C3A 1172  10.550   2.079   6.547
   52POPC   C4A 1173  10.575   2.075   6.077
   52POPC   C1B 1174  10.191   1.870   7.340
   52POPC   C2B 1175  10.141   1.573   6.988
   52POPC   C3B 1176  10.115   1.722   6.568
   52POPC   C4B 1177  10.126   1.849   6.142
   53POPC   NC3 1178   2.866   5.803   8.339
   53POPC   PO4 1179   3.260   6.184   8.176
   53POPC   GL1 1180   2.909   5.989   7.851
   53POPC   GL2 1181   2.609   5.695   7.758
   53POPC   C1A 1182   2.900   5.900   7.401
   53POPC   D2A 1183   2.938   6.031   6.977
   53POPC   C3A 1184   3.048   5.759   6.617
   53POPC   C4A 1185   3.104   5.875   6.172
   53POPC   C1B 1186   2.460   5.660   7.258
   53POPC   C2B 1187   2.577   5.594   6.767
   53POPC   C3B 1188   2.617   5.825   6.347
   53POPC   C4B 1189   2.456   6.188   6.216
   54POPC   NC3 1190   8.956   9.259   8.125
   54POPC   PO4 1191   8.959   9.954   8.249
   54POPC   GL1 1192   8.829   9.878   7.760
   54POPC   GL2 1193   8.766   9.518   7.721
   54POPC   C1A 1194   8.765   9.976   7.296
   54POPC   D2A 1195   8.969   9.856   6.865
   54POPC   C3A 1196   8.712   9.729   6.477
   54POPC   C4A 1197   8.684   9.636   5.996
   54POPC   C1B 1198   9.061   9.552   7.357
   54POPC   C2B 1199   9.161   9.323   6.975
   54POPC   C3B 1200   9.154   9.334   6.532
   54POPC   C4B 1201   9.139   9.628   6.195
   55POPC   NC3 1202   9.706   0.217   7.972
   55POPC   PO4 1203   9.177  11.388   8.040
   55POPC   GL1 1204   9.258   0.182   7.717
   55POPC   GL2 1205   9.414   0.522   7.647
   55POPC   C1A 1206   9.481   0.111   7.325
   55POPC   D2A 1207   9.476   0.356   6.953
   55POPC   C3A 1208   9.342   0.145   6.588
   55POPC   C4A 1209   9.319   0.343   6.192
   55POPC   C1B 1210   9.802   0.527   7.342
   55POPC   C2B 1211   9.887   0.665   6.882
   55POPC   C3B 1212   9.768   0.459   6.479
   55POPC   C4B 1213   9.773   0.505   6.016
   56POPC   NC3 1214   0.404   8.273   8.281
   56POPC   PO4 1215   0.267   7.783   7.909
   56POPC   GL1 1216   0.282   8.168   7.717
   56POPC   GL2 1217   0.615   8.281   7.725
   56POPC   C1A 1218   0.287   8.157   7.274
   56POPC   D2A 1219   0.549   8.181   6.915
   56POPC   C3A 1220   0.393   8.281   6.526
   56POPC   C4A 1221   0.355   8.087   6.150
   56POPC   C1B 1222   0.725   7.917   7.396
   56POPC   C2B 1223   0.763   7.715   6.932
   56POPC   C3B 1224   0.727   7.854   6.465
   56POPC   C4B 1225   0.745   7.872   5.941
   57POPC   NC3 1226   0.565   4.097   7.967
   57POPC   PO4 1227   0.387   3.410   8.102
   57POPC   GL1 1228   0.480   3.584   7.732
   57POPC   GL2 1229   0.613   3.267   7.638
   57POPC   C1A 1230   0.441   3.784   7.338
   57POPC   D2A 1231   0.673   3.842   6.940
   57POPC   C3A 1232   0.493   3.850   6.550
   57POPC   C4A 1233   0.644   3.712   6.131
   57POPC   C1B 1234   0.264   3.301   7.329
   57POPC   C2B 1235   0.321   3.471   6.910
   57POPC   C3B 1236   0.559   3.351   6.533
   57POPC   C4B 1237   0.211   3.456   6.234
   58POPC   NC3 1238   5.175  10.946   8.151
   58POPC   PO4 1239   4.974   0.053   7.999
   58POPC   GL1 1240   4.844  11.346   7.632
   58POPC   GL2 1241   4.958  11.046   7.690
   58POPC   C1A 1242   5.095  11.362   7.253
   58POPC   D2A 1243   5.278  11.385   6.835
   58POPC   C3A 1244   4.932  11.404   6.529
   58POPC   C4A 1245   4.884  11.480   6.096
   58POPC   C1B 1246   5.099  10.849   7.305
   58POPC   C2B 1247   5.252  10.826   6.882
   58POPC   C3B 1248   5.232  10.998   6.457
   58POPC   C4B 1249   5.213  10.988   5.982
   59POPC   NC3 1250   2.929   0.279   8.089
   59POPC   PO4 1251   2.461   0.805   7.944
   59POPC   GL1 1252   2.777   0.627   7.699
   59POPC   GL2 1253   2.573   0.333   7.695
   59POPC   C1A 1254   3.000   0.534   7.325
   59POPC   D2A 1255   2.906   0.301   6.956
   59POPC   C3A 1256   2.922   0.450   6.547
   59POPC   C4A 1257   2.869   0.248   6.163
   59POPC   C1B 1258   2.473   0.440   7.261
   59POPC   C2B 1259   2.291   0.694   6.910
   59POPC   C3B 1260   2.197   0.757   6.470
   59POPC   C4B 1261   2.492   0.723   6.064
   60POPC   NC3 1262   8.974   1.250   8.148
   60POPC   PO4 1263   8.327   1.363   8.082
   60POPC   GL1 1264   8.658   1.339   7.720
   60POPC   GL2 1265   8.894   1.079   7.661
   60POPC   C1A 1266   8.673   1.318   7.242
   60POPC   D2A 1267   8.875   1.267   6.815
   60POPC   C3A 1268   8.614   1.383   6.450
   60POPC   C4A 1269   8.663   1.335   5.965
   60POPC   C1B 1270   9.137   1.120   7.256
   60POPC   C2B 1271   9.202   0.833   6.934
   60POPC   C3B 1272   9.240   1.005   6.564
   60POPC   C4B 1273   9.082   1.300   6.258
   61POPC   NC3 1274   2.328  10.413   7.952
   61POPC   PO4 1275   1.725  10.692   8.138
   61POPC   GL1 1276   1.854  10.530   7.734
   61POPC   GL2 1277   1.860  10.148   7.745
   61POPC   C1A 1278   1.731  10.643   7.314
   61POPC   D2A 1279   1.694  10.867   6.935
   61POPC   C3A 1280   1.922  10.735   6.589
   61POPC   C4A 1281   1.817  10.668   6.189
   61POPC   C1B 1282   2.055  10.242   7.346
   61POPC   C2B 1283   1.991  10.383   6.939
   61POPC   C3B 1284   2.114  10.207   6.520
   61POPC   C4B 1285   2.014  10.237   6.064
   62POPC   NC3 1286   0.323   4.561   8.338
   62POPC   PO4 1287   0.070   4.107   8.037
   62POPC   GL1 1288   0.103   4.417   7.751
   62POPC   GL2 1289   0.376   4.545   7.787
   62POPC   C1A 1290   0.267   4.265   7.360
   62POPC   D2A 1291   0.225   4.067   6.971
   62POPC   C3A 1292   0.152   4.258   6.589
   62POPC   C4A 1293   0.207   4.043   6.196
   62POPC   C1B 1294   0.580   4.648   7.416
   62POPC   C2B 1295   0.672   4.498   6.999
   62POPC   C3B 1296   0.513   4.620   6.613
   62POPC   C4B 1297   0.534   4.434   6.208
   63POPC   NC3 1298   1.176   8.884   8.105
   63POPC   PO4 1299   1.566   9.482   8.120
   63POPC   GL1 1300   1.394   9.298   7.734
   63POPC   GL2 1301   1.063   9.122   7.679
   63POPC   C1A 1302   1.353   9.174   7.286
   63POPC   D2A 1303   1.107   9.233   6.936
   63POPC   C3A 1304   1.345   9.172   6.599
   63POPC   C4A 1305   1.217   9.066   6.214
   63POPC   C1B 1306   0.938   8.896   7.309
   63POPC   C2B 1307   1.161   8.715   6.951
   63POPC   C3B 1308   1.096   8.686   6.520
   63POPC   C4B 1309   0.796   8.768   6.170
   64POPC   NC3 1310   9.823  10.845   8.111
   64POPC   PO4 1311  10.118   0.036   8.139
   64POPC   GL1 1312   9.962  11.240   7.826
   64POPC   GL2 1313   9.604  11.248   7.713
   64POPC   C1A 1314   9.984  11.006   7.431
   64POPC   D2A 1315   9.982  11.203   7.000
   64POPC   C3A 1316   9.870  11.027   6.609
   64POPC   C4A 1317   9.863  10.841   6.207
   64POPC   C1B 1318   9.518  11.093   7.257
   64POPC   C2B 1319   9.318  11.132   6.843
   64POPC   C3B 1320   9.424  11.177   6.394
   64POPC   C4B 1321   9.234  11.355   6.005
   65POPC   NC3 1322   0.712   7.629   8.017
   65POPC   PO4 1323   1.380   7.648   7.977
   65POPC   GL1 1324   1.102   7.569   7.688
   65POPC   GL2 1325   1.108   7.223   7.812
   65POPC   C1A 1326   1.173   7.694   7.273
   65POPC   D2A 1327   1.413   7.824   6.941
   65POPC   C3A 1328   1.215   7.697   6.598
   65POPC   C4A 1329   1.118   7.645   6.205
   65POPC   C1B 1330   1.188   7.181   7.360
   65POPC   C2B 1331   0.968   7.114   6.944
   65POPC   C3B 1332   1.009   7.199   6.487
   65POPC   C4B 1333   1.450   7.268   6.330
   66POPC   NC3 1334   8.888   0.254   8.144
   66POPC   PO4 1335   9.169   0.825   8.096
   66POPC   GL1 1336   8.894   0.581   7.745
   66POPC   GL2 1337   8.696   0.247   7.680
   66POPC   C1A 1338   8.851   0.701   7.296
   66POPC   D2A 1339   8.652   0.823   6.881
   66POPC   C3A 1340   8.726   0.901   6.388
   66POPC   C4A 1341   8.616   0.797   5.910
   66POPC   C1B 1342   8.951   0.198   7.318
   66POPC   C2B 1343   8.863   0.331   6.928
   66POPC   C3B 1344   8.986   0.514   6.582
   66POPC   C4B 1345   8.793   0.429   6.218
   67POPC   NC3 1346   4.274   2.993   8.265
   67POPC   PO4 1347   3.659   3.117   8.085
   67POPC   GL1 1348   4.024   3.062   7.783
   67POPC   GL2 1349   4.337   2.827   7.722
   67POPC   C1A 1350   4.013   2.944   7.343
   67POPC   D2A 1351   4.138   2.766   6.947
   67POPC   C3A 1352   4.219   2.900   6.512
   67POPC   C4A 1353   4.405   3.064   6.126
   67POPC   C1B 1354   4.340   2.483   7.347
   67POPC   C2B 1355   4.156   2.267   6.953
   67POPC   C3B 1356   4.223   2.384   6.523
   67POPC   C4B 1357   4.563   2.557   6.271
   68POPC   NC3 1358   9.954   9.320   8.134
   68POPC   PO4 1359   9.757   8.717   8.112
   68POPC   GL1 1360   9.717   8.930   7.733
   68POPC   GL2 1361   9.348   8.918   7.681
   68POPC   C1A 1362   9.953   9.005   7.344
   68POPC   D2A 1363   9.910   8.772   6.927
   68POPC   C3A 1364   9.888   8.943   6.463
   68POPC   C4A 1365  10.000   9.162   6.024
   68POPC   C1B 1366   9.364   8.911   7.205
   68POPC   C2B 1367   9.432   8.933   6.742
   68POPC   C3B 1368   9.386   8.852   6.356
   68POPC   C4B 1369   9.165   8.460   6.398
   69POPC   NC3 1370  11.467   3.650   8.129
   69POPC   PO4 1371  10.796   3.479   7.961
   69POPC   GL1 1372  10.870   3.550   7.553
   69POPC   GL2 1373  11.209   3.445   7.605
   69POPC   C1A 1374  10.917   3.758   7.175
   69POPC   D2A 1375  10.933   3.641   6.746
   69POPC   C3A 1376  10.739   3.875   6.425
   69POPC   C4A 1377  10.976   3.731   6.044
   69POPC   C1B 1378  11.246   3.147   7.281
   69POPC   C2B 1379  11.314   3.255   6.849
   69POPC   C3B 1380  11.257   3.249   6.389
   69POPC   C4B 1381  11.012   2.978   6.114
   70POPC   NC3 1382   1.228   5.951   7.953
   70POPC   PO4 1383   0.851   5.452   8.123
   70POPC   GL1 1384   0.983   5.580   7.705
   70POPC   GL2 1385   1.332   5.509   7.715
   70POPC   C1A 1386   0.858   5.454   7.268
   70POPC   D2A 1387   0.653   5.471   6.877
   70POPC   C3A 1388   0.910   5.374   6.486
   70POPC   C4A 1389   1.058   5.445   6.046
   70POPC   C1B 1390   1.279   5.734   7.303
   70POPC   C2B 1391   1.196   5.578   6.877
   70POPC   C3B 1392   1.256   5.739   6.451
   70POPC   C4B 1393   1.336   5.902   6.053
   71POPC   NC3 1394   9.836   6.551   8.067
   71POPC   PO4 1395  10.448   6.387   7.826
   71POPC   GL1 1396  10.545   6.328   7.464
   71POPC   GL2 1397  10.839   6.471   7.428
   71POPC   C1A 1398  10.544   6.296   7.064
   71POPC   D2A 1399  10.580   6.330   6.690
   71POPC   C3A 1400  10.265   6.546   6.518
   71POPC   C4A 1401   9.958   6.560   6.246
   71POPC   C1B 1402  10.707   6.766   7.175
   71POPC   C2B 1403  10.620   6.816   6.784
   71POPC   C3B 1404  10.709   6.731   6.367
   71POPC   C4B 1405  10.405   6.767   6.052
   72POPC   NC3 1406   2.867   1.012   8.027
   72POPC   PO4 1407   3.062   1.591   8.089
   72POPC   GL1 1408   3.008   1.352   7.677
   72POPC   GL2 1409   2.685   1.174   7.604
   72POPC   C1A 1410   2.872   1.435   7.228
   72POPC   D2A 1411   2.730   1.634   6.881
   72POPC   C3A 1412   2.760   1.442   6.516
   72POPC   C4A 1413   2.622   1.642   6.160
   72POPC   C1B 1414   2.622   0.943   7.255
   72POPC   C2B 1415   2.833   0.829   6.888
   72POPC   C3B 1416   2.678   0.918   6.495
   72POPC   C4B 1417   2.390   1.191   6.294
   73POPC   NC3 1418   9.679   7.603   8.067
   73POPC   PO4 1419   9.661   6.972   8.024
   73POPC   GL1 1420   9.604   7.310   7.645
   73POPC   GL2 1421   9.805   7.634   7.572
   73POPC   C1A 1422   9.476   7.466   7.198
   73POPC   D2A 1423   9.526   7.388   6.722
   73POPC   C3A 1424   9.343   7.089   6.382
   73POPC   C4A 1425   9.327   6.857   5.958
   73POPC   C1B 1426   9.968   7.354   7.233
   73POPC   C2B 1427  10.045   7.308   6.780
   73POPC   C3B 1428   9.862   7.202   6.365
   73POPC   C4B 1429   9.848   6.977   5.969
   74POPC   NC3 1430  10.678   3.910   8.081
   74POPC   PO4 1431  10.671   4.577   7.872
   74POPC   GL1 1432  10.773   4.372   7.500
   74POPC   GL2 1433  10.672   4.055   7.597
   74POPC   C1A 1434  10.790   4.281   7.096
   74POPC   D2A 1435  10.685   4.582   6.812
   74POPC   C3A 1436  10.627   4.471   6.422
   74POPC   C4A 1437  10.641   4.610   6.007
   74POPC   C1B 1438  10.456   3.920   7.260
   74POPC   C2B 1439  10.493   3.924   6.865
   74POPC   C3B 1440  10.268   4.133   6.585
   74POPC   C4B 1441  10.320   4.148   6.186
   75POPC   NC3 1442   4.907  10.352   8.174
   75POPC   PO4 1443   5.485  10.046   7.980
   75POPC   GL1 1444   5.294  10.286   7.659
   75POPC   GL2 1445   5.064  10.552   7.733
   75POPC   C1A 1446   5.180  10.264   7.204
   75POPC   D2A 1447   5.025  10.220   6.767
   75POPC   C3A 1448   4.974   9.950   6.373
   75POPC   C4A 1449   4.967   9.974   5.879
   75POPC   C1B 1450   4.742  10.489   7.389
   75POPC   C2B 1451   4.650  10.628   6.940
   75POPC   C3B 1452   4.874  10.642   6.543
   75POPC   C4B 1453   5.017  10.421   6.154
   76POPC   NC3 1454   7.663   8.263   8.000
   76POPC   PO4 1455   7.082   8.405   7.867
   76POPC   GL1 1456   7.289   8.550   7.523
   76POPC   GL2 1457   7.524   8.316   7.512
   76POPC   C1A 1458   7.262   8.567   7.070
   76POPC   D2A 1459   7.213   8.247   6.751
   76POPC   C3A 1460   7.086   8.336   6.351
   76POPC   C4A 1461   7.078   8.642   6.040
   76POPC   C1B 1462   7.342   8.047   7.213
   76POPC   C2B 1463   7.507   7.844   6.832
   76POPC   C3B 1464   7.401   7.901   6.372
   76POPC   C4B 1465   7.501   7.782   5.916
   77POPC   NC3 1466   2.426  11.240   8.506
   77POPC   PO4 1467   3.049  11.388   8.319
   77POPC   GL1 1468   2.768  11.384   7.836
   77POPC   GL2 1469   2.526  11.116   7.816
   77POPC   C1A 1470   2.800   0.005   7.370
   77POPC   D2A 1471   2.898  11.301   6.953
   77POPC   C3A 1472   2.708  11.464   6.557
   77POPC   C4A 1473   2.448  11.435   6.181
   77POPC   C1B 1474   2.687  11.008   7.388
   77POPC   C2B 1475   2.686  10.855   6.969
   77POPC   C3B 1476   2.787  10.966   6.545
   77POPC   C4B 1477   2.616  10.931   6.126
   78POPC   NC3 1478   7.800   0.628   8.023
   78POPC   PO4 1479   8.481   0.493   8.117
   78POPC   GL1 1480   8.271   0.552   7.742
   78POPC   GL2 1481   8.117   0.272   7.778
   78POPC   C1A 1482   8.390   0.494   7.331
   78POPC   D2A 1483   8.200   0.582   6.956
   78POPC   C3A 1484   8.424   0.471   6.587
   78POPC   C4A 1485   8.242   0.569   6.205
   78POPC   C1B 1486   7.878   0.393   7.406
   78POPC   C2B 1487   7.851   0.208   7.016
   78POPC   C3B 1488   7.842   0.429   6.604
   78POPC   C4B 1489   7.718   0.172   6.275
   79POPC   NC3 1490   2.026   0.502   7.996
   79POPC   PO4 1491   2.445   0.065   8.191
   79POPC   GL1 1492   2.173   0.015   7.806
   79POPC   GL2 1493   1.924   0.205   7.582
   79POPC   C1A 1494   2.277  11.401   7.379
   79POPC   D2A 1495   2.430   0.011   6.975
   79POPC   C3A 1496   2.185   0.098   6.593
   79POPC   C4A 1497   2.153   0.344   6.205
   79POPC   C1B 1498   1.898   0.359   7.147
   79POPC   C2B 1499   1.747   0.312   6.722
   79POPC   C3B 1500   1.702   0.565   6.353
   79POPC   C4B 1501   1.694   0.421   5.938
   80POPC   NC3 1502  10.817   3.396   8.404
   80POPC   PO4 1503  10.181   3.336   8.262
   80POPC   GL1 1504  10.332   3.336   7.760
   80POPC   GL2 1505  10.377   3.633   7.658
   80POPC   C1A 1506  10.635   3.086   7.455
   80POPC   D2A 1507  10.797   3.268   7.079
   80POPC   C3A 1508  10.813   3.118   6.655
   80POPC   C4A 1509  10.740   3.380   6.319
   80POPC   C1B 1510  10.318   3.428   7.244
   80POPC   C2B 1511  10.223   3.497   6.810
   80POPC   C3B 1512  10.282   3.642   6.384
   80POPC   C4B 1513  10.486   3.716   5.992
   81POPC   NC3 1514  10.787   6.707   7.870
   81POPC   PO4 1515  10.589   7.338   8.100
   81POPC   GL1 1516  10.442   7.173   7.712
   81POPC   GL2 1517  10.110   7.289   7.780
   81POPC   C1A 1518  10.470   7.205   7.236
   81POPC   D2A 1519  10.653   7.311   6.817
   81POPC   C3A 1520  10.417   7.159   6.460
   81POPC   C4A 1521  10.526   7.283   6.088
   81POPC   C1B 1522  10.310   7.622   7.489
   81POPC   C2B 1523  10.347   7.657   7.020
   81POPC   C3B 1524  10.361   7.671   6.563
   81POPC   C4B 1525  10.126   7.583   6.168
   82POPC   NC3 1526   0.556   9.930   7.926
   82POPC   PO4 1527   0.808   9.240   8.103
   82POPC   GL1 1528   0.708   9.478   7.745
   82POPC   GL2 1529   0.329   9.493   7.745
   82POPC   C1A 1530   0.858   9.469   7.312
   82POPC   D2A 1531   0.668   9.712   6.937
   82POPC   C3A 1532   0.546   9.561   6.515
   82POPC   C4A 1533   0.843   9.454   6.191
   82POPC   C1B 1534   0.361   9.643   7.346
   82POPC   C2B 1535   0.219   9.965   7.075
   82POPC   C3B 1536   0.009   9.922   6.697
   82POPC   C4B 1537   0.171   9.872   6.278
   83POPC   NC3 1538   3.322   1.955   7.994
   83POPC   PO4 1539   3.913   1.635   8.247
   83POPC   GL1 1540   3.639   1.600   7.759
   83POPC   GL2 1541   3.530   1.934   7.520
   83POPC   C1A 1542   3.350   1.518   7.367
   83POPC   D2A 1543   3.492   1.622   6.986
   83POPC   C3A 1544   3.387   1.553   6.586
   83POPC   C4A 1545   3.512   1.826   6.259
   83POPC   C1B 1546   3.467   2.202   7.135
   83POPC   C2B 1547   3.274   2.459   6.823
   83POPC   C3B 1548   3.392   2.329   6.410
   83POPC   C4B 1549   3.802   2.303   6.233
   84POPC   NC3 1550   6.655  10.715   7.989
   84POPC   PO4 1551   7.074  10.262   8.201
   84POPC   GL1 1552   6.870  10.298   7.766
   84POPC   GL2 1553   6.472  10.297   7.727
   84POPC   C1A 1554   6.798  10.510   7.353
   84POPC   D2A 1555   6.518  10.566   6.988
   84POPC   C3A 1556   6.592  10.479   6.543
   84POPC   C4A 1557   6.677  10.824   6.326
   84POPC   C1B 1558   6.479  10.126   7.285
   84POPC   C2B 1559   6.619  10.062   6.837
   84POPC   C3B 1560   6.488   9.977   6.390
   84POPC   C4B 1561   6.501   9.963   5.910
   85POPC   NC3 1562   9.710   2.678   7.992
   85POPC   PO4 1563   9.110   2.447   7.924
   85POPC   GL1 1564   9.267   2.791   7.656
   85POPC   GL2 1565   9.482   2.546   7.536
   85POPC   C1A 1566   9.355   3.072   7.261
   85POPC   D2A 1567   9.457   2.887   6.846
   85POPC   C3A 1568   9.491   3.002   6.419
   85POPC   C4A 1569   9.498   2.777   6.054
   85POPC   C1B 1570   9.730   2.750   7.243
   85POPC   C2B 1571   9.966   2.646   6.881
   85POPC   C3B 1572   9.957   2.707   6.443
   85POPC   C4B 1573   9.962   2.988   6.121
   86POPC   NC3 1574   0.217   9.168   8.114
   86POPC   PO4 1575   0.072   8.554   8.126
   86POPC   GL1 1576   0.263   8.714   7.732
   86POPC   GL2 1577   0.628   8.830   7.783
   86POPC   C1A 1578   0.468   8.626   7.318
   86POPC   D2A 1579   0.661   8.682   6.901
   86POPC   C3A 1580   0.359   8.787   6.578
   86POPC   C4A 1581   0.286   8.641   6.148
   86POPC   C1B 1582   0.500   9.119   7.440
   86POPC   C2B 1583   0.583   9.188   6.984
   86POPC   C3B 1584   0.767   9.103   6.566
   86POPC   C4B 1585   0.446   9.136   6.210
   87POPC   NC3 1586   6.225   2.417   8.184
   87POPC   PO4 1587   6.817   2.395   8.030
   87POPC   GL1 1588   6.759   2.250   7.617
   87POPC   GL2 1589   6.465   2.438   7.560
   87POPC   C1A 1590   6.728   2.252   7.146
   87POPC   D2A 1591   6.651   2.458   6.744
   87POPC   C3A 1592   6.581   2.334   6.326
   87POPC   C4A 1593   6.787   2.612   6.020
   87POPC   C1B 1594   6.430   2.688   7.153
   87POPC   C2B 1595   6.470   2.937   6.750
   87POPC   C3B 1596   6.388   2.804   6.323
   87POPC   C4B 1597   6.141   2.927   5.960
   88POPC   NC3 1598   5.859  10.307   7.872
   88POPC   PO4 1599   5.360  10.541   8.298
   88POPC   GL1 1600   5.542  10.715   7.838
   88POPC   GL2 1601   5.852  10.865   7.647
   88POPC   C1A 1602   5.551  10.608   7.340
   88POPC   D2A 1603   5.594  10.409   6.901
   88POPC   C3A 1604   5.379  10.504   6.488
   88POPC   C4A 1605   5.478  10.556   6.007
   88POPC   C1B 1606   6.114  10.572   7.335
   88POPC   C2B 1607   6.093  10.296   6.987
   88POPC   C3B 1608   6.076  10.404   6.591
   88POPC   C4B 1609   5.790  10.296   6.298
   89POPC   NC3 1610   1.137   1.920   7.998
   89POPC   PO4 1611   1.578   2.326   8.346
   89POPC   GL1 1612   1.597   2.074   7.860
   89POPC   GL2 1613   1.295   2.186   7.588
   89POPC   C1A 1614   1.669   1.989   7.384
   89POPC   D2A 1615   1.378   2.187   7.073
   89POPC   C3A 1616   1.482   2.196   6.639
   89POPC   C4A 1617   1.151   2.304   6.353
   89POPC   C1B 1618   1.168   1.803   7.346
   89POPC   C2B 1619   0.993   1.767   6.930
   89POPC   C3B 1620   1.183   1.810   6.543
   89POPC   C4B 1621   1.273   1.560   6.216
   90POPC   NC3 1622   6.106   0.733   8.014
   90POPC   PO4 1623   6.860   0.659   7.979
   90POPC   GL1 1624   6.764   0.544   7.574
   90POPC   GL2 1625   6.899   0.243   7.460
   90POPC   C1A 1626   6.687   0.636   7.141
   90POPC   D2A 1627   6.613   0.423   6.779
   90POPC   C3A 1628   6.837   0.585   6.456
   90POPC   C4A 1629   6.694   0.773   6.062
   90POPC   C1B 1630   6.479   0.186   7.279
   90POPC   C2B 1631   6.353  11.482   6.904
   90POPC   C3B 1632   6.158   0.220   6.598
   90POPC   C4B 1633   6.383   0.430   6.288
   91POPC   NC3 1634   4.215   2.069   8.317
   91POPC   PO4 1635   3.771   2.046   7.938
   91POPC   GL1 1636   4.027   2.014   7.592
   91POPC   GL2 1637   4.132   1.689   7.568
   91POPC   C1A 1638   3.879   1.907   7.163
   91POPC   D2A 1639   3.738   1.995   6.717
   91POPC   C3A 1640   4.064   1.913   6.401
   91POPC   C4A 1641   4.284   2.156   6.055
   91POPC   C1B 1642   4.378   1.851   7.218
   91POPC   C2B 1643   4.409   1.799   6.772
   91POPC   C3B 1644   4.566   1.817   6.339
   91POPC   C4B 1645   4.553   1.738   5.891
   92POPC   NC3 1646   7.542  11.171   7.891
   92POPC   PO4 1647   6.826  11.177   7.965
   92POPC   GL1 1648   6.956  10.947   7.585
   92POPC   GL2 1649   7.252  11.156   7.482
   92POPC   C1A 1650   7.062  10.876   7.114
   92POPC   D2A 1651   7.238  11.119   6.794
   92POPC   C3A 1652   7.055  11.142   6.417
   92POPC   C4A 1653   7.068  10.870   6.011
   92POPC   C1B 1654   7.590  11.147   7.165
   92POPC   C2B 1655   7.792  11.187   6.777
   92POPC   C3B 1656   7.611  11.138   6.379
   92POPC   C4B 1657   7.350  11.321   6.052
   93POPC   NC3 1658   0.485  10.482   8.160
   93POPC   PO4 1659   0.101   9.929   7.944
   93POPC   GL1 1660   0.145  10.123   7.565
   93POPC   GL2 1661   0.450  10.322   7.607
   93POPC   C1A 1662   0.043  10.426   7.238
   93POPC   D2A 1663   0.192  10.607   6.833
   93POPC   C3A 1664   0.246  10.337   6.502
   93POPC   C4A 1665   0.628  10.066   6.522
   93POPC   C1B 1666   0.551  10.586   7.247
   93POPC   C2B 1667   0.805  10.738   6.928
   93POPC   C3B 1668   0.696  10.600   6.565
   93POPC   C4B 1669   0.516  10.633   6.177
   94POPC   NC3 1670   4.561   0.555   8.099
   94POPC   PO4 1671   4.039   0.157   7.896
   94POPC   GL1 1672   4.288   0.353   7.574
   94POPC   GL2 1673   4.619   0.303   7.669
   94POPC   C1A 1674   4.171   0.452   7.118
   94POPC   D2A 1675   3.859   0.314   6.747
   94POPC   C3A 1676   4.007   0.441   6.302
   94POPC   C4A 1677   4.374   0.701   6.168
   94POPC   C1B 1678   4.665   0.183   7.245
   94POPC   C2B 1679   4.629   0.236   6.801
   94POPC   C3B 1680   4.491   0.190   6.385
   94POPC   C4B 1681   4.406  11.332   6.109
   95POPC   NC3 1682   7.105   2.043   7.955
   95POPC   PO4 1683   7.764   2.098   8.123
   95POPC   GL1 1684   7.560   2.157   7.673
   95POPC   GL2 1685   7.408   1.831   7.545
   95POPC   C1A 1686   7.589   2.154   7.182
   95POPC   D2A 1687   7.430   1.967   6.780
   95POPC   C3A 1688   7.508   2.124   6.366
   95POPC   C4A 1689   7.440   1.994   5.943
   95POPC   C1B 1690   7.111   1.915   7.174
   95POPC   C2B 1691   6.922   1.998   6.715
   95POPC   C3B 1692   6.997   2.041   6.246
   95POPC   C4B 1693   6.743   2.118   5.882
   96POPC   NC3 1694  11.260   4.478   8.147
   96POPC   PO4 1695  11.066   3.790   8.346
   96POPC   GL1 1696  11.129   3.889   7.844
   96POPC   GL2 1697  11.149   4.189   7.752
   96POPC   C1A 1698  11.361   3.893   7.379
   96POPC   D2A 1699  11.228   4.075   6.914
   96POPC   C3A 1700  11.241   3.972   6.436
   96POPC   C4A 1701  10.945   4.214   6.130
   96POPC   C1B 1702  11.268   4.390   7.345
   96POPC   C2B 1703  11.168   4.598   6.950
   96POPC   C3B 1704  11.129   4.455   6.544
   96POPC   C4B 1705  11.400   4.442   6.181
   97POPC   NC3 1706   8.025   1.710   8.091
   97POPC   PO4 1707   8.531   2.197   8.060
   97POPC   GL1 1708   8.532   1.846   7.765
   97POPC   GL2 1709   8.250   1.634   7.662
   97POPC   C1A 1710   8.533   1.816   7.311
   97POPC   D2A 1711   8.273   1.926   6.958
   97POPC   C3A 1712   8.421   1.866   6.515
   97POPC   C4A 1713   8.264   1.631   6.176
   97POPC   C1B 1714   7.941   1.831   7.411
   97POPC   C2B 1715   7.797   1.687   7.014
   97POPC   C3B 1716   7.898   1.832   6.607
   97POPC   C4B 1717   8.036   2.091   6.261
   98POPC   NC3 1718  11.038   5.895   8.228
   98POPC   PO4 1719   0.107   6.018   7.840
   98POPC   GL1 1720  11.309   5.862   7.568
   98POPC   GL2 1721  11.127   5.642   7.756
   98POPC   C1A 1722  11.324   5.748   7.129
   98POPC   D2A 1723  11.171   5.544   6.749
   98POPC   C3A 1724  11.233   5.752   6.366
   98POPC   C4A 1725  11.028   5.989   6.037
   98POPC   C1B 1726  10.947   5.476   7.369
   98POPC   C2B 1727  10.714   5.526   6.989
   98POPC   C3B 1728  10.711   5.405   6.549
   98POPC   C4B 1729  10.803   5.561   6.142
   99POPC   NC3 1730   1.521   6.479   8.283
   99POPC   PO4 1731   0.920   6.300   8.001
   99POPC   GL1 1732   1.180   6.384   7.681
   99POPC   GL2 1733   1.252   6.723   7.763
   99POPC   C1A 1734   1.147   6.243   7.257
   99POPC   D2A 1735   1.306   6.094   6.845
   99POPC   C3A 1736   1.175   6.261   6.433
   99POPC   C4A 1737   1.473   6.390   6.118
   99POPC   C1B 1738   0.996   6.720   7.340
   99POPC   C2B 1739   1.152   6.622   6.897
   99POPC   C3B 1740   1.292   6.767   6.468
   99POPC   C4B 1741   1.068   6.698   6.091
  100POPC   NC3 1742   1.359   4.391   8.065
  100POPC   PO4 1743   0.721   4.611   8.129
  100POPC   GL1 1744   0.915   4.418   7.707
  100POPC   GL2 1745   1.259   4.192   7.613
  100POPC   C1A 1746   0.843   4.144   7.337
  100POPC   D2A 1747   1.108   4.070   6.967
  100POPC   C3A 1748   0.863   4.212   6.598
  100POPC   C4A 1749   0.981   4.134   6.171
  100POPC   C1B 1750   1.291   4.451   7.271
  100POPC   C2B 1751   1.207   4.547   6.842
  100POPC   C3B 1752   1.326   4.368   6.462
  100POPC   C4B 1753   1.396   4.543   6.084
  101POPC   NC3 1754   7.184   9.832   8.119
  101POPC   PO4 1755   7.320   9.282   7.941
  101POPC   GL1 1756   7.559   9.437   7.624
  101POPC   GL2 1757   7.485   9.761   7.685
  101POPC   C1A 1758   7.459   9.507   7.152
  101POPC   D2A 1759   7.557   9.434   6.720
  101POPC   C3A 1760   7.309   9.674   6.415
  101POPC   C4A 1761   7.085   9.491   6.083
  101POPC   C1B 1762   7.222   9.929   7.334
  101POPC   C2B 1763   7.147   9.943   6.854
  101POPC   C3B 1764   7.003  10.108   6.423
  101POPC   C4B 1765   7.021   9.980   5.965
  102POPC   NC3 1766   2.119   8.571   7.994
  102POPC   PO4 1767   1.474   8.516   8.126
  102POPC   GL1 1768   1.637   8.530   7.738
  102POPC   GL2 1769   1.713   8.883   7.773
  102POPC   C1A 1770   1.492   8.689   7.343
  102POPC   D2A 1771   1.660   8.905   6.941
  102POPC   C3A 1772   1.641   8.733   6.494
  102POPC   C4A 1773   1.770   8.450   6.128
  102POPC   C1B 1774   1.985   8.803   7.413
  102POPC   C2B 1775   2.175   8.856   7.045
  102POPC   C3B 1776   2.131   8.885   6.643
  102POPC   C4B 1777   2.119   8.832   6.227
  103POPC   NC3 1778   2.983   6.507   8.056
  103POPC   PO4 1779   2.467   6.004   8.147
  103POPC   GL1 1780   2.455   6.169   7.682
  103POPC   GL2 1781   2.636   6.449   7.666
  103POPC   C1A 1782   2.495   6.162   7.219
  103POPC   D2A 1783   2.475   6.085   6.768
  103POPC   C3A 1784   2.870   6.230   6.516
  103POPC   C4A 1785   2.934   6.386   6.093
  103POPC   C1B 1786   2.545   6.664   7.264
  103POPC   C2B 1787   2.621   6.550   6.843
  103POPC   C3B 1788   2.599   6.634   6.410
  103POPC   C4B 1789   2.817   6.902   6.123
  104POPC   NC3 1790   7.696   1.409   8.454
  104POPC   PO4 1791   7.164   1.567   7.969
  104POPC   GL1 1792   7.294   1.314   7.599
  104POPC   GL2 1793   7.456   0.994   7.730
  104POPC   C1A 1794   7.344   1.448   7.135
  104POPC   D2A 1795   7.471   1.464   6.665
  104POPC   C3A 1796   7.250   1.591   6.243
  104POPC   C4A 1797   7.429   1.486   5.795
  104POPC   C1B 1798   7.550   0.988   7.287
  104POPC   C2B 1799   7.260   0.977   6.933
  104POPC   C3B 1800   7.110   1.087   6.524
  104POPC   C4B 1801   7.485   1.140   6.254
  105POPC   NC3 1802   3.718  10.275   8.029
  105POPC   PO4 1803   3.260   9.841   8.162
  105POPC   GL1 1804   3.262  10.102   7.792
  105POPC   GL2 1805   3.250  10.486   7.811
  105POPC   C1A 1806   3.213  10.045   7.350
  105POPC   D2A 1807   3.353  10.251   6.968
  105POPC   C3A 1808   3.215  10.102   6.561
  105POPC   C4A 1809   3.509  10.153   6.262
  105POPC   C1B 1810   3.507  10.500   7.415
  105POPC   C2B 1811   3.769  10.533   7.032
  105POPC   C3B 1812   3.612  10.621   6.596
  105POPC   C4B 1813   3.838  10.563   6.201
  106POPC   NC3 1814   0.644   6.691   7.984
  106POPC   PO4 1815   0.279   6.287   8.343
  106POPC   GL1 1816   0.210   6.510   7.855
  106POPC   GL2 1817   0.482   6.333   7.653
  106POPC   C1A 1818   0.173   6.614   7.364
  106POPC   D2A 1819   0.166   6.420   6.932
  106POPC   C3A 1820   0.245   6.630   6.526
  106POPC   C4A 1821   0.256   6.607   6.077
  106POPC   C1B 1822   0.617   6.388   7.223
  106POPC   C2B 1823   0.617   6.723   6.914
  106POPC   C3B 1824   0.788   6.677   6.523
  106POPC   C4B 1825   0.685   6.359   6.243
  107POPC   NC3 1826   5.845  10.563   8.333
  107POPC   PO4 1827   5.613  11.206   8.092
  107POPC   GL1 1828   5.438  11.200   7.668
  107POPC   GL2 1829   5.719  11.364   7.601
  107POPC   C1A 1830   5.547  11.107   7.219
  107POPC   D2A 1831   5.887  10.895   7.012
  107POPC   C3A 1832   5.757  10.809   6.614
  107POPC   C4A 1833   5.673  10.977   6.220
  107POPC   C1B 1834   6.003  11.381   7.287
  107POPC   C2B 1835   5.844  11.397   6.897
  107POPC   C3B 1836   5.962  11.261   6.539
  107POPC   C4B 1837   5.944  11.462   6.191
  108POPC   NC3 1838   9.980   3.640   7.981
  108POPC   PO4 1839   9.904   3.048   7.827
  108POPC   GL1 1840   9.879   3.255   7.483
  108POPC   GL2 1841   9.878   3.595   7.470
  108POPC   C1A 1842   9.848   3.227   7.071
  108POPC   D2A 1843   9.888   3.125   6.703
  108POPC   C3A 1844   9.821   3.417   6.381
  108POPC   C4A 1845   9.637   3.380   5.977
  108POPC   C1B 1846   9.497   3.565   7.183
  108POPC   C2B 1847   9.434   3.396   6.751
  108POPC   C3B 1848   9.307   3.580   6.334
  108POPC   C4B 1849   9.465   3.857   5.990
  109POPC   NC3 1850   2.034   4.599   8.068
  109POPC   PO4 1851   2.022   3.997   8.157
  109POPC   GL1 1852   1.775   4.148   7.796
  109POPC   GL2 1853   2.097   4.174   7.651
  109POPC   C1A 1854   1.703   4.135   7.316
  109POPC   D2A 1855   1.605   4.188   6.850
  109POPC   C3A 1856   1.830   4.404   6.477
  109POPC   C4A 1857   1.888   4.758   6.159
  109POPC   C1B 1858   2.174   3.895   7.286
  109POPC   C2B 1859   2.105   4.005   6.855
  109POPC   C3B 1860   2.269   4.116   6.422
  109POPC   C4B 1861   1.997   4.140   6.052
  110POPC   NC3 1862  10.149   8.426   8.084
  110POPC   PO4 1863  10.364   9.094   8.192
  110POPC   GL1 1864  10.236   8.848   7.803
  110POPC   GL2 1865  10.524   8.633   7.750
  110POPC   C1A 1866  10.171   8.554   7.407
  110POPC   D2A 1867  10.404   8.553   6.995
  110POPC   C3A 1868  10.232   8.578   6.571
  110POPC   C4A 1869  10.289   8.763   6.162
  110POPC   C1B 1870  10.582   8.857   7.386
  110POPC   C2B 1871  10.731   8.989   7.008
  110POPC   C3B 1872  10.648   8.886   6.587
  110POPC   C4B 1873  10.717   9.080   6.197
  111POPC   NC3 1874   0.458   0.570   8.163
  111POPC   PO4 1875   0.322  11.412   8.120
  111POPC   GL1 1876   0.523   0.075   7.722
  111POPC   GL2 1877   0.486   0.451   7.614
  111POPC   C1A 1878   0.453   0.015   7.265
  111POPC   D2A 1879   0.370   0.253   6.868
  111POPC   C3A 1880   0.367   0.051   6.429
  111POPC   C4A 1881   0.463   0.141   5.961
  111POPC   C1B 1882   0.333   0.763   7.256
  111POPC   C2B 1883   0.365   0.800   6.803
  111POPC   C3B 1884   0.558   0.577   6.491
  111POPC   C4B 1885   0.829   0.502   6.165
  112POPC   NC3 1886  10.629   9.561   8.054
  112POPC   PO4 1887   9.942   9.773   8.228
  112POPC   GL1 1888  10.198   9.733   7.855
  112POPC   GL2 1889  10.315   9.362   7.727
  112POPC   C1A 1890  10.215   9.774   7.416
  112POPC   D2A 1891  10.019   9.627   7.046
  112POPC   C3A 1892  10.175   9.654   6.639
  112POPC   C4A 1893   9.979   9.671   6.203
  112POPC   C1B 1894  10.378   9.311   7.269
  112POPC   C2B 1895  10.223   9.157   6.858
  112POPC   C3B 1896  10.302   9.236   6.417
  112POPC   C4B 1897  10.420   9.484   6.027
  113POPC   NC3 1898   9.571   9.998   8.400
  113POPC   PO4 1899   9.273   9.584   7.994
  113POPC   GL1 1900   9.654   9.677   7.796
  113POPC   GL2 1901   9.825   9.434   7.656
  113POPC   C1A 1902   9.665   9.838   7.362
  113POPC   D2A 1903   9.504   9.727   6.955
  113POPC   C3A 1904   9.730   9.905   6.604
  113POPC   C4A 1905   9.527   9.939   6.205
  113POPC   C1B 1906   9.548   9.346   7.368
  113POPC   C2B 1907   9.702   9.252   6.988
  113POPC   C3B 1908   9.735   9.396   6.607
  113POPC   C4B 1909   9.568   9.335   6.231
  114POPC   NC3 1910  10.220  10.293   8.128
  114POPC   PO4 1911  10.866  10.122   8.283
  114POPC   GL1 1912  10.654  10.399   7.809
  114POPC   GL2 1913  10.367  10.228   7.652
  114POPC   C1A 1914  10.718  10.284   7.293
  114POPC   D2A 1915  10.524  10.446   6.930
  114POPC   C3A 1916  10.695  10.523   6.531
  114POPC   C4A 1917  10.735  10.172   6.300
  114POPC   C1B 1918  10.303  10.587   7.381
  114POPC   C2B 1919  10.076  10.687   6.989
  114POPC   C3B 1920  10.190  10.618   6.545
  114POPC   C4B 1921  10.363  10.460   6.118
  115POPC   NC3 1922  10.654   7.822   8.025
  115POPC   PO4 1923   9.975   7.976   8.039
  115POPC   GL1 1924  10.126   8.070   7.653
  115POPC   GL2 1925  10.461   8.129   7.661
  115POPC   C1A 1926  10.203   8.086   7.224
  115POPC   D2A 1927   9.995   8.260   6.910
  115POPC   C3A 1928  10.063   8.085   6.525
  115POPC   C4A 1929  10.081   8.287   6.153
  115POPC   C1B 1930  10.691   7.919   7.314
  115POPC   C2B 1931  10.614   8.076   6.888
  115POPC   C3B 1932  10.554   8.185   6.468
  115POPC   C4B 1933  10.513   7.903   6.124
  116POPC   NC3 1934  11.471   7.430   7.961
  116POPC   PO4 1935   0.628   7.147   7.969
  116POPC   GL1 1936   0.385   7.346   7.666
  116POPC   GL2 1937   0.167   7.036   7.665
  116POPC   C1A 1938   0.325   7.590   7.255
  116POPC   D2A 1939   0.065   7.579   6.848
  116POPC   C3A 1940   0.313   7.574   6.452
  116POPC   C4A 1941   0.654   7.437   6.169
  116POPC   C1B 1942   0.460   7.050   7.278
  116POPC   C2B 1943   0.489   7.269   6.873
  116POPC   C3B 1944   0.491   7.082   6.490
  116POPC   C4B 1945   0.652   6.950   6.088
  117POPC   NC3 1946   8.510   9.819   8.142
  117POPC   PO4 1947   7.854   9.646   8.313
  117POPC   GL1 1948   8.096   9.610   7.886
  117POPC   GL2 1949   7.984   9.892   7.746
  117POPC   C1A 1950   8.361   9.665   7.449
  117POPC   D2A 1951   8.461   9.697   6.954
  117POPC   C3A 1952   8.244   9.524   6.537
  117POPC   C4A 1953   8.191   9.716   6.166
  117POPC   C1B 1954   7.877   9.715   7.337
  117POPC   C2B 1955   7.950   9.736   6.895
  117POPC   C3B 1956   7.798   9.825   6.477
  117POPC   C4B 1957   7.750   9.446   6.212
  118POPC   NC3 1958   3.594   0.381   7.932
  118POPC   PO4 1959   3.801   1.029   7.981
  118POPC   GL1 1960   3.822   0.702   7.619
  118POPC   GL2 1961   3.794   0.349   7.470
  118POPC   C1A 1962   3.558   0.721   7.224
  118POPC   D2A 1963   3.344   0.563   6.856
  118POPC   C3A 1964   3.578   0.714   6.514
  118POPC   C4A 1965   3.628   0.742   6.048
  118POPC   C1B 1966   3.423   0.220   7.247
  118POPC   C2B 1967   3.379  11.447   6.923
  118POPC   C3B 1968   3.231   0.009   6.526
  118POPC   C4B 1969   3.356   0.356   6.255
  119POPC   NC3 1970  11.259   2.300   8.197
  119POPC   PO4 1971  10.716   2.631   8.229
  119POPC   GL1 1972  10.910   2.503   7.828
  119POPC   GL2 1973  11.267   2.651   7.839
  119POPC   C1A 1974  10.992   2.683   7.412
  119POPC   D2A 1975  10.831   2.756   7.028
  119POPC   C3A 1976  10.907   2.411   6.777
  119POPC   C4A 1977  10.920   2.394   6.320
  119POPC   C1B 1978  11.488   2.715   7.463
  119POPC   C2B 1979  11.381   2.714   7.028
  119POPC   C3B 1980  11.212   2.792   6.641
  119POPC   C4B 1981  11.421   2.730   6.291
  120POPC   NC3 1982   8.072  11.414   8.156
  120POPC   PO4 1983   7.754  10.896   8.210
  120POPC   GL1 1984   8.027  11.156   7.737
  120POPC   GL2 1985   7.831  11.394   7.541
  120POPC   C1A 1986   8.103  11.028   7.253
  120POPC   D2A 1987   8.300  11.119   6.846
  120POPC   C3A 1988   8.163  11.070   6.394
  120POPC   C4A 1989   8.004  10.817   6.054
  120POPC   C1B 1990   8.235   0.005   7.378
  120POPC   C2B 1991   8.384   0.106   6.988
  120POPC   C3B 1992   8.154   0.040   6.618
  120POPC   C4B 1993   8.237   0.056   6.219
  121POPC   NC3 1994   5.990   1.556   8.110
  121POPC   PO4 1995   5.328   1.570   8.087
  121POPC   GL1 1996   5.671   1.417   7.739
  121POPC   GL2 1997   5.910   1.107   7.699
  121POPC   C1A 1998   5.911   1.434   7.331
  121POPC   D2A 1999   5.786   1.337   6.919
  121POPC   C3A 2000   5.971   1.340   6.510
  121POPC   C4A 2001   5.744   1.321   6.086
  121POPC   C1B 2002   5.858   0.925   7.248
  121POPC   C2B 2003   5.598   0.874   6.868
  121POPC   C3B 2004   5.674   0.948   6.425
  121POPC   C4B 2005   6.091   0.977   6.156
  122POPC   NC3 2006  10.721   1.499   7.921
  122POPC   PO4 2007  11.332   1.854   8.102
  122POPC   GL1 2008  11.356   2.127   7.726
  122POPC   GL2 2009  11.222   1.827   7.569
  122POPC   C1A 2010  11.313   2.264   7.289
  122POPC   D2A 2011  11.484   2.130   6.910
  122POPC   C3A 2012  11.381   2.304   6.568
  122POPC   C4A 2013  11.379   2.241   6.155
  122POPC   C1B 2014  11.137   1.795   7.117
  122POPC   C2B 2015  11.036   1.931   6.695
  122POPC   C3B 2016  10.999   1.837   6.265
  122POPC   C4B 2017  10.898   1.658   5.847
  123POPC   NC3 2018   1.282   3.497   8.057
  123POPC   PO4 2019   1.030   4.070   8.046
  123POPC   GL1 2020   0.975   3.759   7.708
  123POPC   GL2 2021   1.328   3.651   7.570
  123POPC   C1A 2022   0.904   3.573   7.304
  123POPC   D2A 2023   1.138   3.553   6.922
  123POPC   C3A 2024   0.993   3.702   6.536
  123POPC   C4A 2025   1.143   3.650   6.128
  123POPC   C1B 2026   1.368   3.265   7.285
  123POPC   C2B 2027   1.492   3.195   6.817
  123POPC   C3B 2028   1.258   3.245   6.420
  123POPC   C4B 2029   1.335   3.182   5.933
  124POPC   NC3 2030   9.293  10.032   7.897
  124POPC   PO4 2031   9.783  10.397   8.271
  124POPC   GL1 2032   9.849  10.465   7.784
  124POPC   GL2 2033   9.868  10.131   7.737
  124POPC   C1A 2034   9.652  10.572   7.341
  124POPC   D2A 2035   9.585  10.243   6.984
  124POPC   C3A 2036   9.426  10.306   6.547
  124POPC   C4A 2037   9.385  10.670   6.315
  124POPC   C1B 2038   9.996  10.210   7.295
  124POPC   C2B 2039  10.143  10.106   6.896
  124POPC   C3B 2040  10.213  10.114   6.456
  124POPC   C4B 2041   9.881  10.309   6.243
  125POPC   NC3 2042  11.023   0.598   7.976
  125POPC   PO4 2043   0.119   0.883   8.082
  125POPC   GL1 2044   0.003   0.550   7.745
  125POPC   GL2 2045  11.301   0.219   7.739
  125POPC   C1A 2046   0.057   0.351   7.314
  125POPC   D2A 2047  11.419   0.550   6.933
  125POPC   C3A 2048   0.050   0.486   6.520
  125POPC   C4A 2049  11.486   0.254   6.171
  125POPC   C1B 2050  11.049   0.308   7.351
  125POPC   C2B 2051  10.931   0.238   6.928
  125POPC   C3B 2052  11.056   0.288   6.508
  125POPC   C4B 2053  11.060   0.538   6.189
  126POPC   NC3 2054   0.515   6.025   8.058
  126POPC   PO4 2055  11.446   5.650   8.238
  126POPC   GL1 2056   0.129   5.508   7.763
  126POPC   GL2 2057   0.482   5.619   7.735
  126POPC   C1A 2058   0.293   5.596   7.291
  126POPC   D2A 2059   0.317   5.887   6.974
  126POPC   C3A 2060   0.199   5.649   6.624
  126POPC   C4A 2061   0.378   5.600   6.239
  126POPC   C1B 2062   0.697   5.912   7.427
  126POPC   C2B 2063   0.835   5.938   7.000
  126POPC   C3B 2064   0.747   5.880   6.564
  126POPC   C4B 2065   0.819   5.875   6.133
  127POPC   NC3 2066  10.370   5.986   8.034
  127POPC   PO4 2067  10.901   6.356   8.180
  127POPC   GL1 2068  10.851   6.066   7.778
  127POPC   GL2 2069  10.618   5.763   7.669
  127POPC   C1A 2070  10.882   5.976   7.308
  127POPC   D2A 2071  10.956   5.986   6.871
  127POPC   C3A 2072  10.755   5.910   6.502
  127POPC   C4A 2073  10.583   6.218   6.208
  127POPC   C1B 2074  10.403   5.837   7.277
  127POPC   C2B 2075  10.368   5.885   6.849
  127POPC   C3B 2076  10.197   6.024   6.502
  127POPC   C4B 2077  10.339   5.769   6.249
  128POPC   NC3 2078   2.083   6.317   7.990
  128POPC   PO4 2079   1.753   6.841   8.114
  128POPC   GL1 2080   1.765   6.730   7.656
  128POPC   GL2 2081   1.691   6.413   7.668
  128POPC   C1A 2082   1.613   6.609   7.194
  128POPC   D2A 2083   1.639   6.495   6.727
  128POPC   C3A 2084   1.821   6.783   6.401
  128POPC   C4A 2085   2.245   6.964   6.294
  128POPC   C1B 2086   2.045   6.355   7.369
  128POPC   C2B 2087   2.139   6.444   6.980
  128POPC   C3B 2088   2.143   6.411   6.552
  128POPC   C4B 2089   1.984   6.359   6.141
  129POPC   NC3 2090  10.368   2.958   8.065
  129POPC   PO4 2091  10.032   2.355   8.138
  129POPC   GL1 2092  10.269   2.543   7.820
  129POPC   GL2 2093  10.042   2.610   7.600
  129POPC   C1A 2094  10.512   2.548   7.412
  129POPC   D2A 2095  10.429   2.411   6.977
  129POPC   C3A 2096  10.481   2.622   6.554
  129POPC   C4A 2097  10.306   2.513   6.132
  129POPC   C1B 2098  10.201   2.910   7.272
  129POPC   C2B 2099  10.369   3.005   6.902
  129POPC   C3B 2100  10.325   3.117   6.470
  129POPC   C4B 2101  10.493   2.991   6.105
  130POPC   NC3 2102   4.350  10.514   7.940
  130POPC   PO4 2103   3.719  10.723   8.055
  130POPC   GL1 2104   3.922  10.679   7.699
  130POPC   GL2 2105   3.985  10.373   7.599
  130POPC   C1A 2106   4.018  10.896   7.362
  130POPC   D2A 2107   4.226  10.959   6.991
  130POPC   C3A 2108   4.118  10.736   6.654
  130POPC   C4A 2109   4.365  10.650   6.290
  130POPC   C1B 2110   4.235  10.448   7.243
  130POPC   C2B 2111   4.233  10.281   6.842
  130POPC   C3B 2112   4.554  10.258   6.546
  130POPC   C4B 2113   4.573  10.185   6.125
  131POPC   NC3 2114   0.978   4.996   8.115
  131POPC   PO4 2115   1.614   4.778   8.036
  131POPC   GL1 2116   1.246   4.810   7.665
  131POPC   GL2 2117   0.995   5.089   7.631
  131POPC   C1A 2118   0.988   4.844   7.210
  131POPC   D2A 2119   0.888   4.960   6.789
  131POPC   C3A 2120   0.962   4.728   6.421
  131POPC   C4A 2121   1.111   4.960   6.131
  131POPC   C1B 2122   1.311   5.213   7.310
  131POPC   C2B 2123   1.394   5.020   6.915
  131POPC   C3B 2124   1.471   4.882   6.499
  131POPC   C4B 2125   1.481   5.259   6.281
  132POPC   NC3 2126   5.318   2.022   8.039
  132POPC   PO4 2127   5.957   2.042   8.145
  132POPC   GL1 2128   5.932   1.880   7.697
  132POPC   GL2 2129   5.586   1.904   7.623
  132POPC   C1A 2130   5.880   1.919   7.207
  132POPC   D2A 2131   5.942   1.803   6.758
  132POPC   C3A 2132   6.124   2.122   6.481
  132POPC   C4A 2133   6.018   2.469   6.211
  132POPC   C1B 2134   5.406   1.607   7.327
  132POPC   C2B 2135   5.287   1.432   6.909
  132POPC   C3B 2136   5.478   1.504   6.485
  132POPC   C4B 2137   5.811   1.791   6.239
  133POPC   NC3 2138   0.017  11.244   7.813
  133POPC   PO4 2139   0.209  10.854   8.309
  133POPC   GL1 2140   0.246  10.792   7.767
  133POPC   GL2 2141   0.457  11.061   7.613
  133POPC   C1A 2142   0.144  10.923   7.258
  133POPC   D2A 2143  11.475  11.057   6.825
  133POPC   C3A 2144   0.175  10.941   6.395
  133POPC   C4A 2145   0.154  10.809   5.890
  133POPC   C1B 2146   0.771  11.089   7.303
  133POPC   C2B 2147   0.786  11.280   6.916
  133POPC   C3B 2148   0.648  11.121   6.527
  133POPC   C4B 2149   0.532  11.137   6.075
  134POPC   NC3 2150   2.274   3.614   8.106
  134POPC   PO4 2151   1.669   3.263   8.008
  134POPC   GL1 2152   1.893   3.308   7.617
  134POPC   GL2 2153   1.938   3.662   7.672
  134POPC   C1A 2154   1.832   3.092   7.194
  134POPC   D2A 2155   1.969   2.995   6.772
  134POPC   C3A 2156   1.910   3.347   6.492
  134POPC   C4A 2157   1.638   3.507   6.163
  134POPC   C1B 2158   1.729   3.623   7.249
  134POPC   C2B 2159   1.648   3.682   6.812
  134POPC   C3B 2160   1.832   3.861   6.451
  134POPC   C4B 2161   2.165   3.679   6.159
  135POPC   NC3 2162   1.605   2.885   8.252
  135POPC   PO4 2163   2.190   2.467   8.061
  135POPC   GL1 2164   1.891   2.475   7.771
  135POPC   GL2 2165   1.769   2.821   7.736
  135POPC   C1A 2166   1.724   2.484   7.359
  135POPC   D2A 2167   1.860   2.332   6.974
  135POPC   C3A 2168   1.830   2.545   6.575
  135POPC   C4A 2169   1.605   2.464   6.184
  135POPC   C1B 2170   2.138   2.765   7.422
  135POPC   C2B 2171   2.327   2.498   7.062
  135POPC   C3B 2172   2.335   2.508   6.608
  135POPC   C4B 2173   2.160   2.822   6.301
  136POPC   NC3 2174   2.761   8.880   8.030
  136POPC   PO4 2175   2.491   8.417   7.790
  136POPC   GL1 2176   2.440   8.882   7.614
  136POPC   GL2 2177   2.740   9.115   7.572
  136POPC   C1A 2178   2.352   9.239   7.290
  136POPC   D2A 2179   2.477   9.260   6.840
  136POPC   C3A 2180   2.561   9.074   6.422
  136POPC   C4A 2181   2.573   8.872   5.987
  136POPC   C1B 2182   2.672   8.847   7.168
  136POPC   C2B 2183   2.570   8.639   6.745
  136POPC   C3B 2184   2.842   8.654   6.372
  136POPC   C4B 2185   3.065   9.051   6.230
  137POPC   NC3 2186   2.000   2.058   8.200
  137POPC   PO4 2187   1.497   1.592   8.013
  137POPC   GL1 2188   1.833   1.651   7.724
  137POPC   GL2 2189   2.081   1.926   7.724
  137POPC   C1A 2190   1.882   1.549   7.302
  137POPC   D2A 2191   1.640   1.756   6.942
  137POPC   C3A 2192   1.683   1.653   6.522
  137POPC   C4A 2193   1.732   1.949   6.177
  137POPC   C1B 2194   2.135   2.156   7.384
  137POPC   C2B 2195   2.148   1.911   6.990
  137POPC   C3B 2196   2.014   2.052   6.585
  137POPC   C4B 2197   2.106   2.293   6.203
  138POPC   NC3 2198   1.748  11.115   8.364
  138POPC   PO4 2199   1.681   0.185   8.030
  138POPC   GL1 2200   1.639  11.294   7.794
  138POPC   GL2 2201   1.929  11.063   7.840
  138POPC   C1A 2202   1.721  11.174   7.361
  138POPC   D2A 2203   1.941  11.330   6.990
  138POPC   C3A 2204   1.777  11.249   6.592
  138POPC   C4A 2205   1.753   0.019   6.256
  138POPC   C1B 2206   2.163  10.902   7.484
  138POPC   C2B 2207   2.191  10.869   7.038
  138POPC   C3B 2208   2.299  11.097   6.662
  138POPC   C4B 2209   2.133  11.062   6.248
  139POPC   NC3 2210   4.500  11.479   8.063
  139POPC   PO4 2211   4.716  10.773   8.075
  139POPC   GL1 2212   4.451  10.979   7.741
  139POPC   GL2 2213   4.129  11.157   7.790
  139POPC   C1A 2214   4.600  10.979   7.328
  139POPC   D2A 2215   4.677  11.231   6.970
  139POPC   C3A 2216   4.544  11.052   6.588
  139POPC   C4A 2217   4.760  10.996   6.225
  139POPC   C1B 2218   4.287  11.357   7.393
  139POPC   C2B 2219   4.206  11.469   6.978
  139POPC   C3B 2220   4.142  11.364   6.568
  139POPC   C4B 2221   4.034  11.042   6.263
  140POPC   NC3 2222   9.467   1.182   8.082
  140POPC   PO4 2223  10.062   1.275   8.129
  140POPC   GL1 2224   9.777   1.324   7.705
  140POPC   GL2 2225   9.509   1.051   7.605
  140POPC   C1A 2226   9.658   1.471   7.266
  140POPC   D2A 2227   9.354   1.464   6.883
  140POPC   C3A 2228   9.523   1.435   6.459
  140POPC   C4A 2229   9.888   1.418   6.214
  140POPC   C1B 2230   9.626   0.977   7.188
  140POPC   C2B 2231   9.754   1.152   6.803
  140POPC   C3B 2232   9.783   0.960   6.395
  140POPC   C4B 2233   9.428   0.857   6.134
  141POPC   NC3 2234   2.865  10.055   8.289
  141POPC   PO4 2235   2.720  10.676   8.056
  141POPC   GL1 2236   2.735  10.584   7.665
  141POPC   GL2 2237   2.790  10.237   7.626
  141POPC   C1A 2238   2.472  10.526   7.310
  141POPC   D2A 2239   2.486  10.368   6.915
  141POPC   C3A 2240   2.437  10.603   6.567
  141POPC   C4A 2241   2.484  10.422   6.184
  141POPC   C1B 2242   2.971  10.485   7.227
  141POPC   C2B 2243   2.961  10.505   6.751
  141POPC   C3B 2244   2.982  10.545   6.321
  141POPC   C4B 2245   2.940  10.196   6.104
  142POPC   NC3 2246   6.934   0.175   7.963
  142POPC   PO4 2247   7.684   0.128   7.995
  142POPC   GL1 2248   7.391   0.157   7.649
  142POPC   GL2 2249   7.294   0.493   7.731
  142POPC   C1A 2250   7.321   0.096   7.184
  142POPC   D2A 2251   7.445   0.079   6.723
  142POPC   C3A 2252   7.203   0.197   6.358
  142POPC   C4A 2253   7.383   0.305   5.906
  142POPC   C1B 2254   7.196   0.618   7.313
  142POPC   C2B 2255   7.139   0.484   6.884
  142POPC   C3B 2256   7.374   0.638   6.534
  142POPC   C4B 2257   7.207   0.719   6.148
  143POPC   NC3 2258   2.958   9.641   7.860
  143POPC   PO4 2259   2.432   9.983   8.108
  143POPC   GL1 2260   2.337   9.922   7.677
  143POPC   GL2 2261   2.490   9.598   7.612
  143POPC   C1A 2262   2.521   9.994   7.267
  143POPC   D2A 2263   2.866  10.038   6.961
  143POPC   C3A 2264   2.678  10.070   6.530
  143POPC   C4A 2265   2.409   9.902   6.164
  143POPC   C1B 2266   2.779   9.548   7.220
  143POPC   C2B 2267   2.870   9.576   6.762
  143POPC   C3B 2268   2.776   9.584   6.339
  143POPC   C4B 2269   2.713   9.341   5.996
  144POPC   NC3 2270   1.651   7.286   8.025
  144POPC   PO4 2271   1.914   7.831   8.359
  144POPC   GL1 2272   1.841   7.855   7.872
  144POPC   GL2 2273   2.007   8.140   7.740
  144POPC   C1A 2274   1.752   7.816   7.381
  144POPC   D2A 2275   1.897   7.946   6.924
  144POPC   C3A 2276   1.731   7.744   6.501
  144POPC   C4A 2277   1.778   7.851   6.041
  144POPC   C1B 2278   1.889   8.315   7.318
  144POPC   C2B 2279   1.960   8.451   6.863
  144POPC   C3B 2280   2.164   8.375   6.463
  144POPC   C4B 2281   2.215   8.125   6.074
  145POPC   NC3 2282   2.579   2.767   8.058
  145POPC   PO4 2283   3.081   2.312   8.222
  145POPC   GL1 2284   2.795   2.484   7.722
  145POPC   GL2 2285   2.489   2.458   7.601
  145POPC   C1A 2286   2.861   2.393   7.218
  145POPC   D2A 2287   2.789   2.580   6.827
  145POPC   C3A 2288   2.881   2.378   6.469
  145POPC   C4A 2289   3.028   2.463   6.082
  145POPC   C1B 2290   2.624   2.829   7.286
  145POPC   C2B 2291   2.474   2.957   6.835
  145POPC   C3B 2292   2.671   2.853   6.379
  145POPC   C4B 2293   2.509   3.015   5.931
  146POPC   NC3 2294  11.201   1.476   8.334
  146POPC   PO4 2295  10.784   1.017   8.097
  146POPC   GL1 2296  10.992   1.122   7.674
  146POPC   GL2 2297  11.369   1.105   7.694
  146POPC   C1A 2298  11.084   1.285   7.218
  146POPC   D2A 2299  11.145   1.441   6.748
  146POPC   C3A 2300  10.979   1.291   6.384
  146POPC   C4A 2301  10.678   0.965   6.410
  146POPC   C1B 2302  11.275   0.813   7.354
  146POPC   C2B 2303  10.986   0.802   6.990
  146POPC   C3B 2304  11.163   0.852   6.576
  146POPC   C4B 2305  11.434   0.872   6.201
  147POPC   NC3 2306   1.905   1.284   8.068
  147POPC   PO4 2307   2.331   1.728   8.137
  147POPC   GL1 2308   2.283   1.442   7.736
  147POPC   GL2 2309   2.132   1.106   7.652
  147POPC   C1A 2310   2.378   1.458   7.277
  147POPC   D2A 2311   2.403   1.247   6.849
  147POPC   C3A 2312   2.228   1.581   6.556
  147POPC   C4A 2313   2.000   1.527   6.140
  147POPC   C1B 2314   2.068   1.062   7.212
  147POPC   C2B 2315   1.892   1.299   6.863
  147POPC   C3B 2316   1.886   1.163   6.461
  147POPC   C4B 2317   1.609   1.181   6.116
  148POPC   NC3 2318  11.489  11.243   8.413
  148POPC   PO4 2319  11.259  10.867   7.898
  148POPC   GL1 2320  11.191  11.048   7.501
  148POPC   GL2 2321  10.977  11.301   7.682
  148POPC   C1A 2322  11.351  11.390   7.210
  148POPC   D2A 2323  11.404   0.057   6.789
  148POPC   C3A 2324  11.332  11.323   6.394
  148POPC   C4A 2325   0.065  11.288   5.995
  148POPC   C1B 2326  10.835  11.320   7.286
  148POPC   C2B 2327  10.983  11.214   6.914
  148POPC   C3B 2328  10.848  11.322   6.554
  148POPC   C4B 2329  10.853  11.136   6.194
  149POPC   NC3 2330   5.171   8.850   8.107
  149POPC   PO4 2331   4.642   8.426   8.105
  149POPC   GL1 2332   4.833   8.653   7.721
  149POPC   GL2 2333   4.845   9.030   7.733
  149POPC   C1A 2334   5.048   8.796   7.320
  149POPC   D2A 2335   4.914   8.948   6.912
  149POPC   C3A 2336   4.986   8.775   6.518
  149POPC   C4A 2337   4.672   8.470   6.384
  149POPC   C1B 2338   4.867   9.282   7.336
  149POPC   C2B 2339   4.729   9.417   6.926
  149POPC   C3B 2340   4.830   9.419   6.487
  149POPC   C4B 2341   5.106   9.523   6.112
  150POPC   NC3 2342   4.372   9.520   8.083
  150POPC   PO4 2343   4.491  10.105   8.066
  150POPC   GL1 2344   4.178   9.913   7.740
  150POPC   GL2 2345   4.085   9.542   7.664
  150POPC   C1A 2346   4.228   9.906   7.265
  150POPC   D2A 2347   4.545   9.885   6.908
  150POPC   C3A 2348   4.331   9.818   6.496
  150POPC   C4A 2349   4.074  10.085   6.231
  150POPC   C1B 2350   4.339   9.388   7.307
  150POPC   C2B 2351   4.207   9.489   6.883
  150POPC   C3B 2352   4.165   9.336   6.459
  150POPC   C4B 2353   4.126   9.538   6.057
  151POPC   NC3 2354   8.959   2.016   8.033
  151POPC   PO4 2355   9.208   1.444   7.801
  151POPC   GL1 2356   8.995   1.720   7.578
  151POPC   GL2 2357   8.975   2.094   7.545
  151POPC   C1A 2358   9.017   1.702   7.171
  151POPC   D2A 2359   8.765   1.749   6.863
  151POPC   C3A 2360   9.007   1.711   6.537
  151POPC   C4A 2361   8.811   1.771   6.165
  151POPC   C1B 2362   8.857   2.186   7.137
  151POPC   C2B 2363   9.116   2.139   6.783
  151POPC   C3B 2364   9.084   2.194   6.335
  151POPC   C4B 2365   8.694   2.315   6.136
  152POPC   NC3 2366  10.571  11.305   8.021
  152POPC   PO4 2367  10.274  10.754   8.028
  152POPC   GL1 2368  10.469  10.980   7.645
  152POPC   GL2 2369  10.389  11.331   7.568
  152POPC   C1A 2370  10.428  11.034   7.182
  152POPC   D2A 2371  10.571  10.936   6.834
  152POPC   C3A 2372  10.379  11.110   6.556
  152POPC   C4A 2373  10.379  10.949   6.190
  152POPC   C1B 2374  10.038   0.040   7.396
  152POPC   C2B 2375  10.034   0.208   6.991
  152POPC   C3B 2376  10.045   0.034   6.577
  152POPC   C4B 2377  10.226  11.424   6.191
  153POPC   NC3 2378   2.019   9.532   8.186
  153POPC   PO4 2379   2.324   8.989   8.089
  153POPC   GL1 2380   2.078   9.253   7.734
  153POPC   GL2 2381   1.873   9.591   7.709
  153POPC   C1A 2382   1.842   9.269   7.315
  153POPC   D2A 2383   1.967   9.335   6.888
  153POPC   C3A 2384   1.857   9.246   6.442
  153POPC   C4A 2385   2.205   9.333   6.170
  153POPC   C1B 2386   1.856   9.778   7.312
  153POPC   C2B 2387   2.118   9.861   6.960
  153POPC   C3B 2388   2.174   9.681   6.565
  153POPC   C4B 2389   1.919   9.748   6.209
  154POPC   NC3 2390   6.068  11.282   7.942
  154POPC   PO4 2391   6.188  10.663   7.971
  154POPC   GL1 2392   6.377  10.926   7.615
  154POPC   GL2 2393   6.495  11.285   7.599
  154POPC   C1A 2394   6.399  11.030   7.179
  154POPC   D2A 2395   6.648  11.050   6.807
  154POPC   C3A 2396   6.286  10.887   6.638
  154POPC   C4A 2397   6.148  10.835   6.236
  154POPC   C1B 2398   6.822  11.308   7.238
  154POPC   C2B 2399   6.918   0.015   6.843
  154POPC   C3B 2400   6.708   0.044   6.446
  154POPC   C4B 2401   6.412  11.271   6.273
  155POPC   NC3 2402   8.292   8.843   8.161
  155POPC   PO4 2403   8.955   8.781   8.155
  155POPC   GL1 2404   8.796   8.953   7.770
  155POPC   GL2 2405   8.564   8.714   7.676
  155POPC   C1A 2406   8.770   9.110   7.350
  155POPC   D2A 2407   8.612   8.877   6.997
  155POPC   C3A 2408   8.478   9.105   6.667
  155POPC   C4A 2409   8.690   9.236   6.300
  155POPC   C1B 2410   8.953   8.632   7.392
  155POPC   C2B 2411   9.047   8.631   6.927
  155POPC   C3B 2412   8.920   8.867   6.567
  155POPC   C4B 2413   8.814   8.759   6.128
  156POPC   NC3 2414   4.119   1.353   7.945
  156POPC   PO4 2415   4.642   0.997   7.984
  156POPC   GL1 2416   4.477   1.167   7.626
  156POPC   GL2 2417   4.405   0.850   7.487
  156POPC   C1A 2418   4.364   1.328   7.232
  156POPC   D2A 2419   4.355   1.084   6.870
  156POPC   C3A 2420   4.386   1.336   6.545
  156POPC   C4A 2421   4.444   1.321   6.151
  156POPC   C1B 2422   4.040   0.933   7.249
  156POPC   C2B 2423   3.846   1.005   6.861
  156POPC   C3B 2424   4.041   0.948   6.466
  156POPC   C4B 2425   4.021   1.064   6.037
  157POPC   NC3 2426   0.882   8.158   3.979
  157POPC   PO4 2427   1.426   7.775   3.927
  157POPC   GL1 2428   1.394   7.977   4.297
  157POPC   GL2 2429   1.297   8.301   4.230
  157POPC   C1A 2430   1.266   7.831   4.692
  157POPC   D2A 2431   1.190   7.565   5.036
  157POPC   C3A 2432   1.272   7.851   5.371
  157POPC   C4A 2433   1.345   7.754   5.783
  157POPC   C1B 2434   1.011   8.278   4.599
  157POPC   C2B 2435   0.962   8.127   5.009
  157POPC   C3B 2436   0.878   8.178   5.432
  157POPC   C4B 2437   1.093   8.191   5.797
  158POPC   NC3 2438   3.606   1.783   4.082
  158POPC   PO4 2439   4.139   2.261   3.898
  158POPC   GL1 2440   3.826   2.194   4.349
  158POPC   GL2 2441   3.503   2.026   4.519
  158POPC   C1A 2442   3.844   2.246   4.791
  158POPC   D2A 2443   3.534   2.038   5.068
  158POPC   C3A 2444   3.553   2.189   5.482
  158POPC   C4A 2445   3.450   2.210   5.902
  158POPC   C1B 2446   3.460   1.621   4.732
  158POPC   C2B 2447   3.573   1.425   5.119
  158POPC   C3B 2448   3.711   1.667   5.453
  158POPC   C4B 2449   3.349   1.758   5.723
  159POPC   NC3 2450   0.708   5.690   3.923
  159POPC   PO4 2451   0.899   6.294   3.926
  159POPC   GL1 2452   0.592   6.159   4.231
  159POPC   GL2 2453   0.383   5.883   4.240
  159POPC   C1A 2454   0.630   5.973   4.667
  159POPC   D2A 2455   0.787   5.866   5.098
  159POPC   C3A 2456   0.514   5.787   5.446
  159POPC   C4A 2457   0.617   5.545   5.798
  159POPC   C1B 2458   0.318   5.580   4.621
  159POPC   C2B 2459   0.174   5.714   5.047
  159POPC   C3B 2460   0.036   5.561   5.473
  159POPC   C4B 2461  11.480   5.736   5.905
  160POPC   NC3 2462   2.053   4.557   4.119
  160POPC   PO4 2463   1.724   4.090   3.810
  160POPC   GL1 2464   1.593   4.043   4.241
  160POPC   GL2 2465   1.911   4.036   4.451
  160POPC   C1A 2466   1.474   4.263   4.625
  160POPC   D2A 2467   1.728   4.460   4.919
  160POPC   C3A 2468   1.653   4.332   5.340
  160POPC   C4A 2469   1.751   4.456   5.746
  160POPC   C1B 2470   2.172   3.737   4.756
  160POPC   C2B 2471   2.267   3.769   5.222
  160POPC   C3B 2472   2.146   4.096   5.563
  160POPC   C4B 2473   2.274   4.495   5.824
  161POPC   NC3 2474   0.470   1.498   4.179
  161POPC   PO4 2475   0.407   1.015   3.696
  161POPC   GL1 2476   0.452   0.975   4.233
  161POPC   GL2 2477   0.567   1.158   4.546
  161POPC   C1A 2478   0.159   0.903   4.668
  161POPC   D2A 2479   0.277   1.186   5.017
  161POPC   C3A 2480   0.415   1.062   5.420
  161POPC   C4A 2481   0.229   1.083   5.848
  161POPC   C1B 2482   0.635   1.526   4.837
  161POPC   C2B 2483   0.584   1.548   5.287
  161POPC   C3B 2484   0.572   1.438   5.703
  161POPC   C4B 2485   0.721   0.982   5.861
  162POPC   NC3 2486   2.266   1.529   4.082
  162POPC   PO4 2487   2.550   0.903   3.909
  162POPC   GL1 2488   2.395   1.066   4.316
  162POPC   GL2 2489   2.036   1.124   4.335
  162POPC   C1A 2490   2.324   0.899   4.751
  162POPC   D2A 2491   2.039   0.906   5.129
  162POPC   C3A 2492   2.199   1.008   5.526
  162POPC   C4A 2493   2.063   1.000   5.983
  162POPC   C1B 2494   1.953   1.286   4.760
  162POPC   C2B 2495   1.850   1.361   5.216
  162POPC   C3B 2496   1.841   1.354   5.654
  162POPC   C4B 2497   1.560   1.619   5.817
  163POPC   NC3 2498   1.255   3.287   4.043
  163POPC   PO4 2499   0.816   3.685   3.709
  163POPC   GL1 2500   0.861   3.496   4.298
  163POPC   GL2 2501   1.171   3.488   4.484
  163POPC   C1A 2502   0.840   3.389   4.808
  163POPC   D2A 2503   0.979   3.562   5.228
  163POPC   C3A 2504   0.935   3.422   5.683
  163POPC   C4A 2505   0.856   3.221   6.110
  163POPC   C1B 2506   1.443   3.270   4.711
  163POPC   C2B 2507   1.492   3.444   5.077
  163POPC   C3B 2508   1.499   3.366   5.476
  163POPC   C4B 2509   1.379   3.698   5.701
  164POPC   NC3 2510   9.631   7.524   3.791
  164POPC   PO4 2511   9.826   7.000   4.004
  164POPC   GL1 2512   9.756   7.290   4.333
  164POPC   GL2 2513   9.996   7.527   4.344
  164POPC   C1A 2514   9.643   7.275   4.787
  164POPC   D2A 2515   9.358   7.510   5.100
  164POPC   C3A 2516   9.385   7.355   5.548
  164POPC   C4A 2517   9.515   7.348   5.976
  164POPC   C1B 2518  10.174   7.384   4.754
  164POPC   C2B 2519  10.119   7.069   5.086
  164POPC   C3B 2520   9.843   7.111   5.438
  164POPC   C4B 2521   9.924   7.484   5.689
  165POPC   NC3 2522  11.213   3.054   3.971
  165POPC   PO4 2523  10.864   2.421   3.958
  165POPC   GL1 2524  11.031   2.495   4.345
  165POPC   GL2 2525  11.329   2.712   4.350
  165POPC   C1A 2526  11.155   2.432   4.764
  165POPC   D2A 2527  10.902   2.567   5.091
  165POPC   C3A 2528  11.107   2.454   5.437
  165POPC   C4A 2529  11.241   2.621   5.827
  165POPC   C1B 2530  11.497   2.835   4.771
  165POPC   C2B 2531  11.298   2.915   5.167
  165POPC   C3B 2532  11.274   3.075   5.563
  165POPC   C4B 2533   0.012   3.056   5.930
  166POPC   NC3 2534  11.133   8.796   3.716
  166POPC   PO4 2535  10.937   9.100   4.312
  166POPC   GL1 2536  11.017   8.710   4.466
  166POPC   GL2 2537  11.220   8.631   4.209
  166POPC   C1A 2538  11.167   8.691   4.880
  166POPC   D2A 2539  11.256   9.036   5.129
  166POPC   C3A 2540  10.967   8.975   5.437
  166POPC   C4A 2541  10.881   8.790   5.819
  166POPC   C1B 2542  11.408   8.378   4.559
  166POPC   C2B 2543  11.477   8.314   5.029
  166POPC   C3B 2544  11.480   8.626   5.386
  166POPC   C4B 2545  11.377   8.713   5.834
  167POPC   NC3 2546   8.838   5.431   3.915
  167POPC   PO4 2547   8.539   5.981   3.933
  167POPC   GL1 2548   8.695   5.729   4.311
  167POPC   GL2 2549   9.057   5.653   4.321
  167POPC   C1A 2550   8.775   5.603   4.759
  167POPC   D2A 2551   8.712   5.394   5.179
  167POPC   C3A 2552   8.735   5.538   5.609
  167POPC   C4A 2553   8.472   5.710   5.956
  167POPC   C1B 2554   9.266   5.796   4.711
  167POPC   C2B 2555   9.117   5.743   5.156
  167POPC   C3B 2556   9.198   5.755   5.612
  167POPC   C4B 2557   8.977   5.774   6.027
  168POPC   NC3 2558   8.348   3.541   4.039
  168POPC   PO4 2559   8.052   3.957   4.240
  168POPC   GL1 2560   8.178   3.586   4.533
  168POPC   GL2 2561   8.461   3.336   4.496
  168POPC   C1A 2562   8.295   3.437   4.965
  168POPC   D2A 2563   8.564   3.549   5.311
  168POPC   C3A 2564   8.356   3.651   5.714
  168POPC   C4A 2565   7.943   3.652   5.943
  168POPC   C1B 2566   8.526   2.998   4.817
  168POPC   C2B 2567   8.512   3.013   5.288
  168POPC   C3B 2568   8.238   3.108   5.671
  168POPC   C4B 2569   8.141   2.863   6.063
  169POPC   NC3 2570   8.976   9.033   4.094
  169POPC   PO4 2571   8.435   9.155   3.711
  169POPC   GL1 2572   8.521   8.844   4.197
  169POPC   GL2 2573   8.763   8.617   4.311
  169POPC   C1A 2574   8.592   8.903   4.698
  169POPC   D2A 2575   8.709   8.656   5.083
  169POPC   C3A 2576   8.644   8.763   5.518
  169POPC   C4A 2577   8.680   9.121   5.768
  169POPC   C1B 2578   9.054   8.677   4.692
  169POPC   C2B 2579   9.213   8.633   5.121
  169POPC   C3B 2580   9.148   8.836   5.519
  169POPC   C4B 2581   9.264   8.666   5.914
  170POPC   NC3 2582  10.503   1.357   3.884
  170POPC   PO4 2583  10.000   0.800   3.931
  170POPC   GL1 2584  10.060   1.222   4.115
  170POPC   GL2 2585  10.350   1.128   4.316
  170POPC   C1A 2586  10.039   1.502   4.493
  170POPC   D2A 2587  10.183   1.370   4.883
  170POPC   C3A 2588  10.157   1.482   5.308
  170POPC   C4A 2589  10.003   1.414   5.722
  170POPC   C1B 2590  10.606   1.174   4.694
  170POPC   C2B 2591  10.514   1.101   5.160
  170POPC   C3B 2592  10.464   1.195   5.607
  170POPC   C4B 2593  10.720   1.199   5.946
  171POPC   NC3 2594   8.197   8.760   3.837
  171POPC   PO4 2595   8.516   9.335   4.185
  171POPC   GL1 2596   8.185   9.156   4.412
  171POPC   GL2 2597   8.014   8.908   4.274
  171POPC   C1A 2598   8.131   9.091   4.820
  171POPC   D2A 2599   8.294   8.940   5.194
  171POPC   C3A 2600   8.189   9.104   5.580
  171POPC   C4A 2601   8.273   9.260   6.025
  171POPC   C1B 2602   8.187   8.624   4.601
  171POPC   C2B 2603   8.231   8.472   5.026
  171POPC   C3B 2604   8.243   8.439   5.501
  171POPC   C4B 2605   7.966   8.440   5.894
  172POPC   NC3 2606   6.572   0.353   3.682
  172POPC   PO4 2607   7.137   0.630   3.839
  172POPC   GL1 2608   6.947   0.310   4.137
  172POPC   GL2 2609   6.583   0.302   4.177
  172POPC   C1A 2610   6.863   0.246   4.605
  172POPC   D2A 2611   6.879   0.391   5.066
  172POPC   C3A 2612   6.761   0.313   5.525
  172POPC   C4A 2613   6.869   0.313   5.991
  172POPC   C1B 2614   6.353   0.433   4.549
  172POPC   C2B 2615   6.358   0.510   5.002
  172POPC   C3B 2616   6.271   0.423   5.452
  172POPC   C4B 2617   6.227   0.621   5.840
  173POPC   NC3 2618   3.382   8.259   3.495
  173POPC   PO4 2619   2.962   8.076   3.933
  173POPC   GL1 2620   3.006   8.292   4.358
  173POPC   GL2 2621   3.375   8.255   4.382
  173POPC   C1A 2622   3.144   8.355   4.821
  173POPC   D2A 2623   3.346   8.139   5.215
  173POPC   C3A 2624   3.423   8.272   5.664
  173POPC   C4A 2625   3.561   8.426   6.079
  173POPC   C1B 2626   3.440   7.939   4.727
  173POPC   C2B 2627   3.678   7.758   5.096
  173POPC   C3B 2628   3.777   7.815   5.546
  173POPC   C4B 2629   3.991   8.122   5.804
  174POPC   NC3 2630   9.517   9.745   3.903
  174POPC   PO4 2631  10.013   9.322   4.001
  174POPC   GL1 2632   9.917   9.659   4.244
  174POPC   GL2 2633   9.607   9.493   4.355
  174POPC   C1A 2634   9.855   9.842   4.652
  174POPC   D2A 2635   9.839  10.036   5.060
  174POPC   C3A 2636   9.614   9.977   5.440
  174POPC   C4A 2637   9.827  10.010   5.815
  174POPC   C1B 2638   9.644   9.405   4.810
  174POPC   C2B 2639   9.946   9.431   5.167
  174POPC   C3B 2640   9.896   9.489   5.625
  174POPC   C4B 2641   9.491   9.596   5.804
  175POPC   NC3 2642   9.033   0.352   3.840
  175POPC   PO4 2643   8.522   0.724   3.752
  175POPC   GL1 2644   8.761   0.453   4.226
  175POPC   GL2 2645   8.724   0.081   4.229
  175POPC   C1A 2646   8.875   0.633   4.692
  175POPC   D2A 2647   8.681   0.761   5.114
  175POPC   C3A 2648   8.921   0.643   5.482
  175POPC   C4A 2649   9.378   0.695   5.659
  175POPC   C1B 2650   8.790   0.067   4.685
  175POPC   C2B 2651   8.866   0.246   5.087
  175POPC   C3B 2652   8.660   0.181   5.463
  175POPC   C4B 2653   8.489   0.279   5.848
  176POPC   NC3 2654   8.126   9.435   3.912
  176POPC   PO4 2655   7.723   8.900   3.835
  176POPC   GL1 2656   7.714   9.301   4.174
  176POPC   GL2 2657   7.982   9.604   4.344
  176POPC   C1A 2658   7.713   9.330   4.642
  176POPC   D2A 2659   7.736   9.289   5.070
  176POPC   C3A 2660   7.780   9.647   5.335
  176POPC   C4A 2661   7.972   9.550   5.726
  176POPC   C1B 2662   8.129   9.626   4.773
  176POPC   C2B 2663   8.239   9.448   5.174
  176POPC   C3B 2664   8.470   9.532   5.528
  176POPC   C4B 2665   8.369   9.910   5.733
  177POPC   NC3 2666   2.927   0.322   4.059
  177POPC   PO4 2667   2.389   0.109   3.830
  177POPC   GL1 2668   2.471   0.255   4.262
  177POPC   GL2 2669   2.615   0.607   4.330
  177POPC   C1A 2670   2.389   0.348   4.694
  177POPC   D2A 2671   2.217   0.446   5.060
  177POPC   C3A 2672   2.496   0.485   5.395
  177POPC   C4A 2673   2.526   0.276   5.796
  177POPC   C1B 2674   2.823   0.669   4.758
  177POPC   C2B 2675   2.967   0.640   5.215
  177POPC   C3B 2676   2.886   0.743   5.669
  177POPC   C4B 2677   3.020   0.727   6.119
  178POPC   NC3 2678   2.093  11.260   3.938
  178POPC   PO4 2679   1.526  10.958   3.642
  178POPC   GL1 2680   1.606  11.146   4.138
  178POPC   GL2 2681   1.882  10.998   4.356
  178POPC   C1A 2682   1.604  11.319   4.608
  178POPC   D2A 2683   1.882  11.155   4.978
  178POPC   C3A 2684   1.756  11.252   5.433
  178POPC   C4A 2685   1.836  11.076   5.845
  178POPC   C1B 2686   2.175  11.323   4.559
  178POPC   C2B 2687   2.351  11.397   4.947
  178POPC   C3B 2688   2.408  11.109   5.264
  178POPC   C4B 2689   2.364  11.155   5.718
  179POPC   NC3 2690  10.679   8.777   4.085
  179POPC   PO4 2691  10.062   8.518   3.918
  179POPC   GL1 2692  10.145   8.873   4.214
  179POPC   GL2 2693  10.329   8.740   4.447
  179POPC   C1A 2694   9.985   9.057   4.633
  179POPC   D2A 2695  10.173   8.933   5.046
  179POPC   C3A 2696  10.031   8.938   5.484
  179POPC   C4A 2697  10.117   8.511   5.693
  179POPC   C1B 2698  10.605   8.797   4.763
  179POPC   C2B 2699  10.704   8.682   5.113
  179POPC   C3B 2700  10.513   8.745   5.477
  179POPC   C4B 2701  10.439   9.052   5.767
  180POPC   NC3 2702   2.371  10.297   3.988
  180POPC   PO4 2703   3.030   9.969   3.892
  180POPC   GL1 2704   2.825  10.128   4.247
  180POPC   GL2 2705   2.719  10.448   4.320
  180POPC   C1A 2706   2.759  10.036   4.682
  180POPC   D2A 2707   3.018  10.153   5.050
  180POPC   C3A 2708   2.834  10.159   5.464
  180POPC   C4A 2709   2.444  10.174   5.727
  180POPC   C1B 2710   2.877  10.515   4.697
  180POPC   C2B 2711   2.574  10.428   5.032
  180POPC   C3B 2712   2.496  10.594   5.429
  180POPC   C4B 2713   2.780  10.568   5.790
  181POPC   NC3 2714  11.361   4.273   3.992
  181POPC   PO4 2715  11.259   4.930   3.787
  181POPC   GL1 2716  11.285   4.717   4.236
  181POPC   GL2 2717  11.049   4.432   4.348
  181POPC   C1A 2718  11.437   4.601   4.656
  181POPC   D2A 2719  11.179   4.441   5.015
  181POPC   C3A 2720  11.358   4.487   5.434
  181POPC   C4A 2721  11.086   4.504   5.762
  181POPC   C1B 2722  11.226   4.129   4.622
  181POPC   C2B 2723  11.362   3.925   5.019
  181POPC   C3B 2724  11.224   3.993   5.432
  181POPC   C4B 2725  11.332   4.041   5.845
  182POPC   NC3 2726   2.743  11.101   3.524
  182POPC   PO4 2727   2.959  10.530   3.882
  182POPC   GL1 2728   2.862  10.927   4.237
  182POPC   GL2 2729   2.670  11.264   4.179
  182POPC   C1A 2730   2.783  11.010   4.688
  182POPC   D2A 2731   2.869  10.825   5.109
  182POPC   C3A 2732   2.846  10.994   5.514
  182POPC   C4A 2733   3.083  10.953   5.919
  182POPC   C1B 2734   2.734  11.494   4.591
  182POPC   C2B 2735   2.791   0.179   5.003
  182POPC   C3B 2736   2.723  11.497   5.415
  182POPC   C4B 2737   2.813  11.365   5.848
  183POPC   NC3 2738   9.019   8.204   3.959
  183POPC   PO4 2739   8.440   8.369   3.940
  183POPC   GL1 2740   8.651   8.131   4.320
  183POPC   GL2 2741   8.982   7.932   4.377
  183POPC   C1A 2742   8.777   8.252   4.755
  183POPC   D2A 2743   8.606   8.154   5.177
  183POPC   C3A 2744   8.733   8.252   5.593
  183POPC   C4A 2745   8.558   8.313   6.015
  183POPC   C1B 2746   9.194   7.935   4.787
  183POPC   C2B 2747   9.085   7.937   5.228
  183POPC   C3B 2748   9.101   7.792   5.656
  183POPC   C4B 2749   8.747   7.795   5.958
  184POPC   NC3 2750   1.201  10.303   3.898
  184POPC   PO4 2751   1.704  10.641   4.040
  184POPC   GL1 2752   1.519  10.334   4.301
  184POPC   GL2 2753   1.262  10.578   4.305
  184POPC   C1A 2754   1.609  10.126   4.707
  184POPC   D2A 2755   1.649  10.325   5.133
  184POPC   C3A 2756   1.551  10.082   5.504
  184POPC   C4A 2757   1.544   9.904   5.906
  184POPC   C1B 2758   1.160  10.374   4.661
  184POPC   C2B 2759   1.146  10.547   5.046
  184POPC   C3B 2760   1.222  10.465   5.433
  184POPC   C4B 2761   1.062  10.615   5.787
  185POPC   NC3 2762   4.437   8.818   3.654
  185POPC   PO4 2763   4.217   9.234   4.003
  185POPC   GL1 2764   4.232   9.189   4.435
  185POPC   GL2 2765   4.269   8.837   4.487
  185POPC   C1A 2766   4.073   9.218   4.857
  185POPC   D2A 2767   4.205   9.422   5.244
  185POPC   C3A 2768   4.056   9.243   5.643
  185POPC   C4A 2769   4.156   9.016   6.052
  185POPC   C1B 2770   4.537   8.983   4.830
  185POPC   C2B 2771   4.541   9.020   5.248
  185POPC   C3B 2772   4.474   8.958   5.647
  185POPC   C4B 2773   4.510   8.635   5.938
  186POPC   NC3 2774  11.142   9.406   4.039
  186POPC   PO4 2775  10.728  10.021   3.983
  186POPC   GL1 2776  10.898   9.972   4.406
  186POPC   GL2 2777  11.143   9.732   4.428
  186POPC   C1A 2778  10.798   9.708   4.810
  186POPC   D2A 2779  10.903   9.561   5.238
  186POPC   C3A 2780  11.091   9.836   5.557
  186POPC   C4A 2781  11.486   9.964   5.675
  186POPC   C1B 2782  11.285   9.498   4.801
  186POPC   C2B 2783  11.455   9.557   5.217
  186POPC   C3B 2784  11.265   9.363   5.539
  186POPC   C4B 2785  10.880   9.337   5.778
  187POPC   NC3 2786   2.345   5.983   3.738
  187POPC   PO4 2787   3.030   6.166   3.837
  187POPC   GL1 2788   2.721   6.076   4.163
  187POPC   GL2 2789   2.510   5.754   4.167
  187POPC   C1A 2790   2.898   5.973   4.586
  187POPC   D2A 2791   3.143   6.012   4.988
  187POPC   C3A 2792   2.920   5.920   5.406
  187POPC   C4A 2793   2.731   5.988   5.834
  187POPC   C1B 2794   2.421   5.797   4.617
  187POPC   C2B 2795   2.297   5.867   5.066
  187POPC   C3B 2796   2.411   5.763   5.487
  187POPC   C4B 2797   2.582   5.493   5.828
  188POPC   NC3 2798  11.394   8.037   3.980
  188POPC   PO4 2799  10.711   8.256   3.854
  188POPC   GL1 2800  10.929   8.220   4.240
  188POPC   GL2 2801  11.052   7.912   4.350
  188POPC   C1A 2802  10.921   8.257   4.694
  188POPC   D2A 2803  10.777   8.173   5.093
  188POPC   C3A 2804  11.016   8.404   5.387
  188POPC   C4A 2805  11.071   8.315   5.794
  188POPC   C1B 2806  11.342   7.905   4.695
  188POPC   C2B 2807  11.195   7.872   5.088
  188POPC   C3B 2808  11.336   8.001   5.464
  188POPC   C4B 2809  11.337   7.888   5.895
  189POPC   NC3 2810   1.743   9.779   4.032
  189POPC   PO4 2811   1.135   9.876   3.738
  189POPC   GL1 2812   1.231   9.874   4.192
  189POPC   GL2 2813   1.303   9.552   4.238
  189POPC   C1A 2814   1.125   9.860   4.644
  189POPC   D2A 2815   1.238  10.012   5.058
  189POPC   C3A 2816   0.970   9.959   5.393
  189POPC   C4A 2817   1.089  10.103   5.778
  189POPC   C1B 2818   1.547   9.555   4.638
  189POPC   C2B 2819   1.463   9.432   5.067
  189POPC   C3B 2820   1.428   9.590   5.477
  189POPC   C4B 2821   1.114   9.600   5.790
  190POPC   NC3 2822   1.261   7.330   3.874
  190POPC   PO4 2823   1.548   6.811   3.692
  190POPC   GL1 2824   1.468   6.940   4.133
  190POPC   GL2 2825   1.156   6.844   4.282
  190POPC   C1A 2826   1.487   7.057   4.605
  190POPC   D2A 2827   1.643   7.142   5.043
  190POPC   C3A 2828   1.453   7.337   5.439
  190POPC   C4A 2829   1.654   7.356   5.859
  190POPC   C1B 2830   0.962   6.982   4.694
  190POPC   C2B 2831   0.828   7.045   5.139
  190POPC   C3B 2832   0.898   6.983   5.599
  190POPC   C4B 2833   1.110   7.202   5.942
  191POPC   NC3 2834   9.832   5.526   3.871
  191POPC   PO4 2835   9.272   5.279   3.976
  191POPC   GL1 2836   9.524   5.441   4.381
  191POPC   GL2 2837   9.808   5.687   4.383
  191POPC   C1A 2838   9.672   5.487   4.850
  191POPC   D2A 2839   9.613   5.695   5.276
  191POPC   C3A 2840   9.628   5.473   5.679
  191POPC   C4A 2841   9.408   5.436   6.096
  191POPC   C1B 2842   9.892   5.951   4.783
  191POPC   C2B 2843   9.899   6.117   5.214
  191POPC   C3B 2844   9.708   6.113   5.618
  191POPC   C4B 2845   9.597   6.413   5.939
  192POPC   NC3 2846   2.813   2.239   3.884
  192POPC   PO4 2847   3.433   2.207   4.049
  192POPC   GL1 2848   3.100   1.910   4.231
  192POPC   GL2 2849   2.814   2.102   4.360
  192POPC   C1A 2850   2.991   1.745   4.647
  192POPC   D2A 2851   2.917   2.055   4.936
  192POPC   C3A 2852   3.071   1.948   5.314
  192POPC   C4A 2853   3.016   2.186   5.643
  192POPC   C1B 2854   2.521   1.923   4.652
  192POPC   C2B 2855   2.492   1.814   5.075
  192POPC   C3B 2856   2.572   1.950   5.499
  192POPC   C4B 2857   2.842   1.653   5.711
  193POPC   NC3 2858   1.941   2.353   3.743
  193POPC   PO4 2859   1.824   1.657   4.037
  193POPC   GL1 2860   1.905   2.097   4.212
  193POPC   GL2 2861   2.267   2.094   4.258
  193POPC   C1A 2862   1.996   2.317   4.655
  193POPC   D2A 2863   2.262   2.262   5.021
  193POPC   C3A 2864   2.151   2.285   5.442
  193POPC   C4A 2865   1.818   2.273   5.760
  193POPC   C1B 2866   2.041   1.814   4.630
  193POPC   C2B 2867   1.976   1.833   5.068
  193POPC   C3B 2868   1.898   1.843   5.498
  193POPC   C4B 2869   2.180   1.901   5.853
  194POPC   NC3 2870   8.193   1.900   3.878
  194POPC   PO4 2871   7.686   2.348   3.848
  194POPC   GL1 2872   7.940   2.229   4.237
  194POPC   GL2 2873   8.088   1.910   4.362
  194POPC   C1A 2874   8.087   2.293   4.687
  194POPC   D2A 2875   7.979   2.161   5.116
  194POPC   C3A 2876   8.105   2.395   5.481
  194POPC   C4A 2877   8.259   2.391   5.892
  194POPC   C1B 2878   8.132   1.767   4.809
  194POPC   C2B 2879   8.103   1.519   5.182
  194POPC   C3B 2880   7.834   1.635   5.513
  194POPC   C4B 2881   7.939   1.968   5.773
  195POPC   NC3 2882   0.851   1.097   3.663
  195POPC   PO4 2883   0.871   1.676   4.022
  195POPC   GL1 2884   0.951   1.306   4.240
  195POPC   GL2 2885   1.290   1.250   4.211
  195POPC   C1A 2886   1.050   1.243   4.687
  195POPC   D2A 2887   1.088   1.480   5.090
  195POPC   C3A 2888   0.979   1.244   5.461
  195POPC   C4A 2889   1.191   1.195   5.842
  195POPC   C1B 2890   1.516   1.082   4.521
  195POPC   C2B 2891   1.484   1.101   4.954
  195POPC   C3B 2892   1.449   1.045   5.386
  195POPC   C4B 2893   1.664   0.874   5.707
  196POPC   NC3 2894  11.016  10.369   4.080
  196POPC   PO4 2895  10.914  10.918   3.786
  196POPC   GL1 2896  10.976  10.848   4.228
  196POPC   GL2 2897  11.362  10.724   4.246
  196POPC   C1A 2898  10.861  10.690   4.651
  196POPC   D2A 2899  10.815  10.841   5.079
  196POPC   C3A 2900  10.880  10.669   5.511
  196POPC   C4A 2901  10.844  10.650   6.032
  196POPC   C1B 2902  11.343  10.500   4.635
  196POPC   C2B 2903  11.090  10.369   4.983
  196POPC   C3B 2904  11.207  10.299   5.379
  196POPC   C4B 2905  11.264  10.458   5.766
  197POPC   NC3 2906   7.259   1.016   4.043
  197POPC   PO4 2907   7.818   1.474   3.869
  197POPC   GL1 2908   7.667   1.250   4.235
  197POPC   GL2 2909   7.383   1.388   4.386
  197POPC   C1A 2910   7.568   0.993   4.640
  197POPC   D2A 2911   7.204   1.031   4.912
  197POPC   C3A 2912   7.310   0.980   5.347
  197POPC   C4A 2913   7.422   0.990   5.778
  197POPC   C1B 2914   7.297   1.516   4.811
  197POPC   C2B 2915   7.223   1.498   5.275
  197POPC   C3B 2916   6.962   1.262   5.596
  197POPC   C4B 2917   6.992   1.187   6.027
  198POPC   NC3 2918   9.707   8.977   3.964
  198POPC   PO4 2919   9.200   8.616   4.063
  198POPC   GL1 2920   9.475   8.725   4.358
  198POPC   GL2 2921   9.777   8.556   4.341
  198POPC   C1A 2922   9.507   8.901   4.745
  198POPC   D2A 2923   9.282   9.129   5.063
  198POPC   C3A 2924   9.554   9.155   5.381
  198POPC   C4A 2925   9.560   9.089   5.789
  198POPC   C1B 2926   9.946   8.561   4.751
  198POPC   C2B 2927   9.746   8.665   5.138
  198POPC   C3B 2928   9.624   8.650   5.555
  198POPC   C4B 2929   9.773   8.693   6.020
  199POPC   NC3 2930   8.863  10.561   4.037
  199POPC   PO4 2931   9.071   9.900   3.914
  199POPC   GL1 2932   9.075  10.175   4.279
  199POPC   GL2 2933   8.700  10.233   4.395
  199POPC   C1A 2934   9.076  10.369   4.702
  199POPC   D2A 2935   8.916  10.184   5.089
  199POPC   C3A 2936   9.068  10.379   5.472
  199POPC   C4A 2937   9.066  10.625   5.886
  199POPC   C1B 2938   8.554   9.944   4.729
  199POPC   C2B 2939   8.461   9.919   5.170
  199POPC   C3B 2940   8.536  10.273   5.432
  199POPC   C4B 2941   8.731  10.273   5.828
  200POPC   NC3 2942   1.484   8.929   3.812
  200POPC   PO4 2943   0.903   8.627   3.967
  200POPC   GL1 2944   1.188   8.778   4.341
  200POPC   GL2 2945   1.118   9.102   4.421
  200POPC   C1A 2946   1.317   8.632   4.801
  200POPC   D2A 2947   1.321   8.439   5.244
  200POPC   C3A 2948   1.101   8.650   5.595
  200POPC   C4A 2949   1.281   8.606   6.024
  200POPC   C1B 2950   1.092   9.110   4.876
  200POPC   C2B 2951   1.322   8.969   5.241
  200POPC   C3B 2952   1.322   9.117   5.667
  200POPC   C4B 2953   0.930   9.120   5.821
  201POPC   NC3 2954   9.739   4.097   3.864
  201POPC   PO4 2955   9.794   3.449   3.910
  201POPC   GL1 2956   9.782   3.685   4.300
  201POPC   GL2 2957   9.445   3.811   4.373
  201POPC   C1A 2958   9.756   3.793   4.770
  201POPC   D2A 2959   9.549   3.855   5.178
  201POPC   C3A 2960   9.769   3.982   5.579
  201POPC   C4A 2961   9.971   3.825   5.987
  201POPC   C1B 2962   9.408   3.413   4.654
  201POPC   C2B 2963   9.450   3.270   5.073
  201POPC   C3B 2964   9.473   3.442   5.483
  201POPC   C4B 2965   9.163   3.562   5.730
  202POPC   NC3 2966   5.894   1.043   3.937
  202POPC   PO4 2967   5.412   1.541   3.862
  202POPC   GL1 2968   5.441   1.535   4.277
  202POPC   GL2 2969   5.515   1.192   4.281
  202POPC   C1A 2970   5.631   1.428   4.691
  202POPC   D2A 2971   5.460   1.348   5.067
  202POPC   C3A 2972   5.752   1.488   5.352
  202POPC   C4A 2973   5.961   1.667   5.709
  202POPC   C1B 2974   5.442   0.947   4.688
  202POPC   C2B 2975   5.491   0.836   5.112
  202POPC   C3B 2976   5.491   1.061   5.504
  202POPC   C4B 2977   5.953   1.128   5.672
  203POPC   NC3 2978   9.544   2.717   3.842
  203POPC   PO4 2979  10.138   2.519   3.788
  203POPC   GL1 2980   9.915   2.462   4.198
  203POPC   GL2 2981   9.629   2.676   4.345
  203POPC   C1A 2982   9.989   2.497   4.657
  203POPC   D2A 2983   9.877   2.268   5.030
  203POPC   C3A 2984   9.930   2.500   5.404
  203POPC   C4A 2985   9.886   2.558   5.844
  203POPC   C1B 2986   9.527   2.794   4.778
  203POPC   C2B 2987   9.421   2.546   5.142
  203POPC   C3B 2988   9.466   2.646   5.553
  203POPC   C4B 2989   9.732   3.007   5.649
  204POPC   NC3 2990  11.360   5.208   4.142
  204POPC   PO4 2991  10.786   4.824   4.184
  204POPC   GL1 2992  10.838   4.883   4.531
  204POPC   GL2 2993  10.961   5.234   4.467
  204POPC   C1A 2994  10.745   4.721   4.947
  204POPC   D2A 2995  10.985   4.801   5.312
  204POPC   C3A 2996  10.877   4.965   5.672
  204POPC   C4A 2997  10.718   5.347   5.697
  204POPC   C1B 2998  11.191   5.033   4.830
  204POPC   C2B 2999  11.478   4.892   5.108
  204POPC   C3B 3000  11.421   5.040   5.496
  204POPC   C4B 3001  11.453   4.824   5.823
  205POPC   NC3 3002  10.276   3.652   3.849
  205POPC   PO4 3003  10.928   3.993   3.901
  205POPC   GL1 3004  10.653   3.672   4.235
  205POPC   GL2 3005  10.301   3.523   4.322
  205POPC   C1A 3006  10.618   3.409   4.687
  205POPC   D2A 3007  10.545   3.595   5.113
  205POPC   C3A 3008  10.516   3.320   5.472
  205POPC   C4A 3009  10.777   3.309   5.813
  205POPC   C1B 3010  10.273   3.798   4.693
  205POPC   C2B 3011  10.116   3.888   5.123
  205POPC   C3B 3012  10.233   3.748   5.548
  205POPC   C4B 3013  10.163   3.363   5.852
  206POPC   NC3 3014   3.687   1.046   3.769
  206POPC   PO4 3015   3.552   1.585   3.672
  206POPC   GL1 3016   3.412   1.382   4.280
  206POPC   GL2 3017   3.447   1.013   4.241
  206POPC   C1A 3018   3.670   1.167   4.680
  206POPC   D2A 3019   3.825   0.930   5.088
  206POPC   C3A 3020   3.706   1.104   5.534
  206POPC   C4A 3021   3.663   1.412   5.895
  206POPC   C1B 3022   3.323   0.805   4.619
  206POPC   C2B 3023   3.315   0.981   5.036
  206POPC   C3B 3024   3.203   1.146   5.434
  206POPC   C4B 3025   3.287   1.065   5.860
  207POPC   NC3 3026   5.648   9.828   3.889
  207POPC   PO4 3027   5.445   9.279   4.170
  207POPC   GL1 3028   5.645   9.529   4.480
  207POPC   GL2 3029   5.631   9.870   4.405
  207POPC   C1A 3030   5.768   9.582   4.936
  207POPC   D2A 3031   5.742   9.472   5.404
  207POPC   C3A 3032   6.133   9.546   5.710
  207POPC   C4A 3033   6.345   9.515   6.152
  207POPC   C1B 3034   5.335   9.803   4.778
  207POPC   C2B 3035   5.250   9.574   5.200
  207POPC   C3B 3036   5.338   9.674   5.664
  207POPC   C4B 3037   5.456   9.938   6.080
  208POPC   NC3 3038   0.472  11.403   3.939
  208POPC   PO4 3039   0.752  10.791   3.861
  208POPC   GL1 3040   0.669  11.034   4.225
  208POPC   GL2 3041   0.293  11.080   4.306
  208POPC   C1A 3042   0.695  11.119   4.659
  208POPC   D2A 3043   0.781  11.240   5.085
  208POPC   C3A 3044   0.900  10.908   5.359
  208POPC   C4A 3045   0.618  10.829   5.684
  208POPC   C1B 3046   0.255  10.831   4.715
  208POPC   C2B 3047   0.376  10.855   5.191
  208POPC   C3B 3048   0.298  11.192   5.530
  208POPC   C4B 3049   0.119   0.121   5.585
  209POPC   NC3 3050   3.310  10.286   3.645
  209POPC   PO4 3051   3.711   9.906   4.037
  209POPC   GL1 3052   3.672   9.831   4.418
  209POPC   GL2 3053   3.815   9.499   4.378
  209POPC   C1A 3054   3.291   9.849   4.703
  209POPC   D2A 3055   3.257   9.676   5.107
  209POPC   C3A 3056   3.457   9.782   5.496
  209POPC   C4A 3057   3.281   9.998   5.811
  209POPC   C1B 3058   3.608   9.453   4.801
  209POPC   C2B 3059   3.673   9.374   5.261
  209POPC   C3B 3060   3.555   9.328   5.715
  209POPC   C4B 3061   3.680   9.250   6.171
  210POPC   NC3 3062   0.198   8.036   3.394
  210POPC   PO4 3063   0.302   7.833   4.056
  210POPC   GL1 3064   0.241   8.029   4.383
  210POPC   GL2 3065   0.559   8.169   4.369
  210POPC   C1A 3066   0.386   7.888   4.774
  210POPC   D2A 3067   0.217   7.791   5.142
  210POPC   C3A 3068   0.364   7.990   5.529
  210POPC   C4A 3069   0.140   8.296   5.747
  210POPC   C1B 3070   0.413   8.387   4.713
  210POPC   C2B 3071   0.480   8.292   5.104
  210POPC   C3B 3072   0.492   8.505   5.440
  210POPC   C4B 3073   0.634   8.402   5.838
  211POPC   NC3 3074   7.816  10.385   3.924
  211POPC   PO4 3075   8.441  10.733   3.864
  211POPC   GL1 3076   8.221  10.549   4.249
  211POPC   GL2 3077   8.197  10.172   4.223
  211POPC   C1A 3078   8.123  10.686   4.704
  211POPC   D2A 3079   7.910  10.760   5.124
  211POPC   C3A 3080   8.166  10.646   5.493
  211POPC   C4A 3081   8.238  10.394   5.860
  211POPC   C1B 3082   8.085  10.164   4.648
  211POPC   C2B 3083   8.157  10.308   5.070
  211POPC   C3B 3084   7.995  10.140   5.469
  211POPC   C4B 3085   7.893  10.010   5.904
  212POPC   NC3 3086   1.623   5.354   4.008
  212POPC   PO4 3087   1.845   5.998   3.795
  212POPC   GL1 3088   1.770   5.967   4.222
  212POPC   GL2 3089   1.984   5.739   4.343
  212POPC   C1A 3090   1.603   5.988   4.620
  212POPC   D2A 3091   1.662   5.991   5.049
  212POPC   C3A 3092   1.919   6.041   5.385
  212POPC   C4A 3093   1.783   5.952   5.816
  212POPC   C1B 3094   1.928   5.627   4.768
  212POPC   C2B 3095   1.948   5.532   5.201
  212POPC   C3B 3096   2.001   5.509   5.644
  212POPC   C4B 3097   1.959   5.273   6.012
  213POPC   NC3 3098   5.534  11.455   3.452
  213POPC   PO4 3099   6.144   0.182   3.785
  213POPC   GL1 3100   6.101   0.088   4.232
  213POPC   GL2 3101   5.902  11.302   4.243
  213POPC   C1A 3102   5.990   0.069   4.697
  213POPC   D2A 3103   6.089  11.260   5.036
  213POPC   C3A 3104   6.081  11.438   5.421
  213POPC   C4A 3105   6.132  11.225   5.803
  213POPC   C1B 3106   5.821  11.082   4.624
  213POPC   C2B 3107   5.683  10.934   5.036
  213POPC   C3B 3108   5.728  11.093   5.428
  213POPC   C4B 3109   5.636  11.252   5.813
  214POPC   NC3 3110   0.231   4.952   3.780
  214POPC   PO4 3111   0.908   4.585   3.877
  214POPC   GL1 3112   0.690   4.746   4.285
  214POPC   GL2 3113   0.402   4.978   4.272
  214POPC   C1A 3114   0.745   4.975   4.680
  214POPC   D2A 3115   0.762   4.821   5.101
  214POPC   C3A 3116   0.395   4.691   5.365
  214POPC   C4A 3117   0.468   4.793   5.801
  214POPC   C1B 3118   0.231   5.048   4.678
  214POPC   C2B 3119   0.413   5.233   5.044
  214POPC   C3B 3120   0.416   5.200   5.486
  214POPC   C4B 3121   0.199   5.259   5.895
  215POPC   NC3 3122   5.632   0.122   3.932
  215POPC   PO4 3123   5.452   0.830   3.943
  215POPC   GL1 3124   5.672   0.674   4.306
  215POPC   GL2 3125   5.676   0.321   4.372
  215POPC   C1A 3126   5.827   0.594   4.755
  215POPC   D2A 3127   5.866   0.379   5.139
  215POPC   C3A 3128   5.793   0.644   5.522
  215POPC   C4A 3129   5.624   0.821   5.927
  215POPC   C1B 3130   5.480   0.014   4.627
  215POPC   C2B 3131   5.607  11.432   5.052
  215POPC   C3B 3132   5.597   0.109   5.461
  215POPC   C4B 3133   5.891   0.231   5.785
  216POPC   NC3 3134   2.914   7.604   4.055
  216POPC   PO4 3135   2.315   7.927   4.033
  216POPC   GL1 3136   2.630   7.942   4.329
  216POPC   GL2 3137   2.410   7.959   4.572
  216POPC   C1A 3138   2.903   7.917   4.720
  216POPC   D2A 3139   2.842   8.101   5.162
  216POPC   C3A 3140   2.957   8.058   5.617
  216POPC   C4A 3141   2.691   7.870   5.965
  216POPC   C1B 3142   2.590   8.329   4.764
  216POPC   C2B 3143   2.435   8.395   5.194
  216POPC   C3B 3144   2.477   8.216   5.594
  216POPC   C4B 3145   2.648   8.374   5.972
  217POPC   NC3 3146   1.813   6.489   3.895
  217POPC   PO4 3147   2.421   6.406   3.860
  217POPC   GL1 3148   2.215   6.199   4.220
  217POPC   GL2 3149   2.015   6.472   4.352
  217POPC   C1A 3150   2.065   6.136   4.701
  217POPC   D2A 3151   2.206   6.386   5.054
  217POPC   C3A 3152   2.116   6.544   5.466
  217POPC   C4A 3153   1.755   6.437   5.697
  217POPC   C1B 3154   1.799   6.571   4.761
  217POPC   C2B 3155   1.687   6.554   5.195
  217POPC   C3B 3156   1.741   6.903   5.502
  217POPC   C4B 3157   2.005   6.864   5.867
  218POPC   NC3 3158   0.543   3.372   3.947
  218POPC   PO4 3159   0.163   3.926   3.966
  218POPC   GL1 3160   0.413   3.763   4.296
  218POPC   GL2 3161   0.388   3.435   4.417
  218POPC   C1A 3162   0.628   3.824   4.678
  218POPC   D2A 3163   0.395   3.794   5.063
  218POPC   C3A 3164   0.519   3.668   5.475
  218POPC   C4A 3165   0.276   3.768   5.794
  218POPC   C1B 3166   0.381   3.198   4.751
  218POPC   C2B 3167   0.487   3.285   5.146
  218POPC   C3B 3168   0.284   3.185   5.484
  218POPC   C4B 3169   0.455   3.284   5.831
  219POPC   NC3 3170  10.285   7.054   4.031
  219POPC   PO4 3171  10.930   7.353   3.963
  219POPC   GL1 3172  10.820   7.124   4.291
  219POPC   GL2 3173  10.532   7.309   4.386
  219POPC   C1A 3174  10.830   7.054   4.720
  219POPC   D2A 3175  10.692   6.912   5.120
  219POPC   C3A 3176  10.646   7.133   5.501
  219POPC   C4A 3177  10.265   7.114   5.708
  219POPC   C1B 3178  10.631   7.681   4.629
  219POPC   C2B 3179  10.448   7.774   5.032
  219POPC   C3B 3180  10.313   7.493   5.327
  219POPC   C4B 3181  10.477   7.592   5.702
  220POPC   NC3 3182  10.601   4.489   3.938
  220POPC   PO4 3183  10.133   4.025   4.077
  220POPC   GL1 3184  10.252   4.360   4.326
  220POPC   GL2 3185  10.550   4.465   4.447
  220POPC   C1A 3186  10.197   4.297   4.758
  220POPC   D2A 3187  10.435   4.299   5.080
  220POPC   C3A 3188  10.186   4.273   5.439
  220POPC   C4A 3189  10.088   4.402   5.829
  220POPC   C1B 3190  10.692   4.101   4.630
  220POPC   C2B 3191  10.861   4.016   5.037
  220POPC   C3B 3192  10.816   4.290   5.400
  220POPC   C4B 3193  10.572   4.191   5.757
  221POPC   NC3 3194   5.033   8.233   3.871
  221POPC   PO4 3195   4.785   7.709   4.138
  221POPC   GL1 3196   4.878   7.921   4.509
  221POPC   GL2 3197   4.894   8.230   4.358
  221POPC   C1A 3198   4.807   8.091   4.926
  221POPC   D2A 3199   4.537   8.280   5.237
  221POPC   C3A 3200   4.514   8.066   5.630
  221POPC   C4A 3201   4.701   7.727   5.898
  221POPC   C1B 3202   5.173   8.377   4.678
  221POPC   C2B 3203   5.264   8.228   5.109
  221POPC   C3B 3204   5.009   8.163   5.491
  221POPC   C4B 3205   4.872   8.260   5.936
  222POPC   NC3 3206   1.322   4.319   3.886
  222POPC   PO4 3207   1.202   3.749   4.072
  222POPC   GL1 3208   1.057   4.001   4.403
  222POPC   GL2 3209   1.076   4.360   4.322
  222POPC   C1A 3210   1.078   3.991   4.868
  222POPC   D2A 3211   1.315   3.951   5.250
  222POPC   C3A 3212   1.263   4.198   5.670
  222POPC   C4A 3213   1.494   4.043   6.073
  222POPC   C1B 3214   1.016   4.501   4.740
  222POPC   C2B 3215   1.127   4.423   5.171
  222POPC   C3B 3216   0.866   4.534   5.511
  222POPC   C4B 3217   0.920   4.563   5.909
  223POPC   NC3 3218   2.527   8.338   4.007
  223POPC   PO4 3219   2.706   9.042   3.965
  223POPC   GL1 3220   2.735   8.748   4.311
  223POPC   GL2 3221   2.429   8.675   4.424
  223POPC   C1A 3222   2.830   8.781   4.771
  223POPC   D2A 3223   2.897   8.617   5.172
  223POPC   C3A 3224   2.771   8.658   5.568
  223POPC   C4A 3225   3.087   8.618   5.917
  223POPC   C1B 3226   2.494   9.109   4.621
  223POPC   C2B 3227   2.514   9.227   5.074
  223POPC   C3B 3228   2.637   9.161   5.517
  223POPC   C4B 3229   3.059   9.089   5.714
  224POPC   NC3 3230  10.284   0.404   3.881
  224POPC   PO4 3231  10.695   0.144   4.227
  224POPC   GL1 3232  10.320   0.277   4.425
  224POPC   GL2 3233  10.219   0.625   4.376
  224POPC   C1A 3234  10.207   0.326   4.852
  224POPC   D2A 3235  10.367   0.507   5.219
  224POPC   C3A 3236  10.441   0.237   5.581
  224POPC   C4A 3237  10.051   0.140   5.770
  224POPC   C1B 3238  10.543   0.681   4.713
  224POPC   C2B 3239  10.836   0.706   5.077
  224POPC   C3B 3240  10.687   0.753   5.517
  224POPC   C4B 3241  10.621   0.694   5.983
  225POPC   NC3 3242   2.222   3.033   4.030
  225POPC   PO4 3243   1.807   2.784   3.660
  225POPC   GL1 3244   1.778   2.632   4.140
  225POPC   GL2 3245   2.086   2.591   4.248
  225POPC   C1A 3246   1.674   2.737   4.622
  225POPC   D2A 3247   1.618   2.926   5.053
  225POPC   C3A 3248   1.780   2.691   5.417
  225POPC   C4A 3249   1.744   2.823   5.832
  225POPC   C1B 3250   2.180   2.822   4.635
  225POPC   C2B 3251   2.120   2.853   5.069
  225POPC   C3B 3252   2.327   2.783   5.442
  225POPC   C4B 3253   2.212   2.613   5.833
  226POPC   NC3 3254   6.868   7.910   3.948
  226POPC   PO4 3255   6.974   8.449   3.826
  226POPC   GL1 3256   7.075   8.464   4.294
  226POPC   GL2 3257   7.357   8.269   4.399
  226POPC   C1A 3258   7.112   8.513   4.788
  226POPC   D2A 3259   7.331   8.504   5.219
  226POPC   C3A 3260   7.126   8.340   5.615
  226POPC   C4A 3261   7.031   8.020   5.947
  226POPC   C1B 3262   7.610   8.364   4.791
  226POPC   C2B 3263   7.793   8.279   5.200
  226POPC   C3B 3264   7.621   8.214   5.600
  226POPC   C4B 3265   7.470   8.274   6.024
  227POPC   NC3 3266   1.305   0.283   4.026
  227POPC   PO4 3267   1.063   0.870   3.982
  227POPC   GL1 3268   1.141   0.712   4.388
  227POPC   GL2 3269   0.986   0.381   4.441
  227POPC   C1A 3270   1.101   0.746   4.831
  227POPC   D2A 3271   0.826   0.875   5.140
  227POPC   C3A 3272   0.983   0.685   5.523
  227POPC   C4A 3273   1.237   0.679   5.902
  227POPC   C1B 3274   1.386   0.348   4.705
  227POPC   C2B 3275   1.259   0.294   5.140
  227POPC   C3B 3276   1.409   0.289   5.544
  227POPC   C4B 3277   1.464  11.432   5.835
  228POPC   NC3 3278  10.862   7.812   3.895
  228POPC   PO4 3279  11.461   7.710   3.652
  228POPC   GL1 3280  11.363   7.555   4.161
  228POPC   GL2 3281  11.335   7.214   4.245
  228POPC   C1A 3282  11.098   7.476   4.616
  228POPC   D2A 3283  10.857   7.432   5.065
  228POPC   C3A 3284  10.992   7.584   5.503
  228POPC   C4A 3285  10.909   7.610   5.979
  228POPC   C1B 3286  11.346   7.034   4.660
  228POPC   C2B 3287  11.201   6.893   5.049
  228POPC   C3B 3288  11.156   7.086   5.456
  228POPC   C4B 3289  11.260   7.281   5.857
  229POPC   NC3 3290   4.427   2.624   3.960
  229POPC   PO4 3291   3.982   2.951   4.015
  229POPC   GL1 3292   4.024   2.675   4.400
  229POPC   GL2 3293   4.282   2.386   4.380
  229POPC   C1A 3294   3.848   2.752   4.827
  229POPC   D2A 3295   3.633   2.641   5.227
  229POPC   C3A 3296   3.838   2.638   5.645
  229POPC   C4A 3297   4.116   2.645   6.032
  229POPC   C1B 3298   4.297   2.501   4.797
  229POPC   C2B 3299   4.125   2.519   5.207
  229POPC   C3B 3300   4.310   2.426   5.596
  229POPC   C4B 3301   4.596   2.718   5.788
  230POPC   NC3 3302   4.809  10.124   3.890
  230POPC   PO4 3303   5.453  10.246   3.916
  230POPC   GL1 3304   5.397  10.325   4.299
  230POPC   GL2 3305   5.284  10.668   4.282
  230POPC   C1A 3306   5.218  10.305   4.695
  230POPC   D2A 3307   4.956  10.403   5.055
  230POPC   C3A 3308   5.076  10.116   5.371
  230POPC   C4A 3309   5.386  10.184   5.655
  230POPC   C1B 3310   4.914  10.724   4.566
  230POPC   C2B 3311   4.808  10.902   4.979
  230POPC   C3B 3312   4.767  10.768   5.386
  230POPC   C4B 3313   5.099  10.601   5.639
  231POPC   NC3 3314  10.497   2.691   4.017
  231POPC   PO4 3315  10.780   3.281   3.909
  231POPC   GL1 3316  10.822   3.014   4.287
  231POPC   GL2 3317  10.503   2.986   4.436
  231POPC   C1A 3318  10.971   2.939   4.712
  231POPC   D2A 3319  10.810   3.092   5.119
  231POPC   C3A 3320  10.808   2.871   5.527
  231POPC   C4A 3321  10.734   2.591   5.876
  231POPC   C1B 3322  10.557   2.589   4.674
  231POPC   C2B 3323  10.407   2.369   5.053
  231POPC   C3B 3324  10.433   2.509   5.473
  231POPC   C4B 3325  10.261   2.873   5.680
  232POPC   NC3 3326   7.231  10.816   4.035
  232POPC   PO4 3327   6.854  11.392   3.819
  232POPC   GL1 3328   7.007  11.242   4.266
  232POPC   GL2 3329   7.340  11.109   4.427
  232POPC   C1A 3330   6.929  11.243   4.739
  232POPC   D2A 3331   6.987  11.408   5.184
  232POPC   C3A 3332   7.034  11.174   5.583
  232POPC   C4A 3333   6.835  11.312   5.985
  232POPC   C1B 3334   7.358  10.947   4.856
  232POPC   C2B 3335   7.478  11.283   5.151
  232POPC   C3B 3336   7.520  11.374   5.571
  232POPC   C4B 3337   7.525  10.937   5.784
  233POPC   NC3 3338   1.532   3.677   3.767
  233POPC   PO4 3339   1.693   3.127   4.080
  233POPC   GL1 3340   1.647   3.522   4.280
  233POPC   GL2 3341   1.981   3.552   4.295
  233POPC   C1A 3342   1.554   3.757   4.667
  233POPC   D2A 3343   1.766   3.955   4.981
  233POPC   C3A 3344   1.777   3.784   5.368
  233POPC   C4A 3345   1.887   3.667   5.750
  233POPC   C1B 3346   1.941   3.287   4.691
  233POPC   C2B 3347   1.983   3.349   5.131
  233POPC   C3B 3348   1.983   3.171   5.534
  233POPC   C4B 3349   2.035   3.215   5.991
  234POPC   NC3 3350   8.991   1.885   3.864
  234POPC   PO4 3351   8.440   2.309   3.994
  234POPC   GL1 3352   8.818   2.178   4.243
  234POPC   GL2 3353   8.737   1.852   4.296
  234POPC   C1A 3354   9.019   2.095   4.672
  234POPC   D2A 3355   8.979   2.300   5.062
  234POPC   C3A 3356   9.008   2.018   5.393
  234POPC   C4A 3357   9.002   2.071   5.813
  234POPC   C1B 3358   8.528   2.011   4.638
  234POPC   C2B 3359   8.571   1.863   5.054
  234POPC   C3B 3360   8.330   1.927   5.416
  234POPC   C4B 3361   8.481   1.940   5.825
  235POPC   NC3 3362   9.574   0.227   3.593
  235POPC   PO4 3363   9.258   0.742   3.949
  235POPC   GL1 3364   9.411   0.415   4.233
  235POPC   GL2 3365   9.791   0.364   4.153
  235POPC   C1A 3366   9.277   0.334   4.681
  235POPC   D2A 3367   9.239   0.601   5.055
  235POPC   C3A 3368   9.322   0.316   5.351
  235POPC   C4A 3369   9.514   0.195   5.724
  235POPC   C1B 3370   9.779   0.481   4.599
  235POPC   C2B 3371   9.725   0.412   5.041
  235POPC   C3B 3372   9.845   0.512   5.470
  235POPC   C4B 3373  10.199   0.654   5.725
  236POPC   NC3 3374   8.825   0.943   4.021
  236POPC   PO4 3375   8.550   1.604   3.854
  236POPC   GL1 3376   8.630   1.366   4.214
  236POPC   GL2 3377   9.013   1.413   4.198
  236POPC   C1A 3378   8.557   1.480   4.659
  236POPC   D2A 3379   8.590   1.323   5.094
  236POPC   C3A 3380   8.710   1.586   5.472
  236POPC   C4A 3381   9.071   1.567   5.743
  236POPC   C1B 3382   8.981   1.182   4.606
  236POPC   C2B 3383   9.099   1.104   5.029
  236POPC   C3B 3384   8.951   1.142   5.439
  236POPC   C4B 3385   9.056   1.036   5.837
  237POPC   NC3 3386   0.262   7.378   3.885
  237POPC   PO4 3387   0.887   7.037   3.898
  237POPC   GL1 3388   0.657   7.141   4.323
  237POPC   GL2 3389   0.326   7.261   4.360
  237POPC   C1A 3390   0.600   7.343   4.782
  237POPC   D2A 3391   0.351   7.250   5.188
  237POPC   C3A 3392   0.462   7.256   5.666
  237POPC   C4A 3393   0.200   7.152   6.058
  237POPC   C1B 3394   0.106   7.463   4.689
  237POPC   C2B 3395  11.375   7.396   5.084
  237POPC   C3B 3396   0.025   7.521   5.520
  237POPC   C4B 3397   0.261   7.643   5.920
  238POPC   NC3 3398   5.528   1.973   3.954
  238POPC   PO4 3399   5.911   2.385   4.059
  238POPC   GL1 3400   5.846   2.048   4.349
  238POPC   GL2 3401   5.928   1.716   4.245
  238POPC   C1A 3402   5.534   1.918   4.674
  238POPC   D2A 3403   5.362   1.842   5.113
  238POPC   C3A 3404   5.593   1.957   5.493
  238POPC   C4A 3405   5.841   2.156   5.835
  238POPC   C1B 3406   6.031   1.752   4.729
  238POPC   C2B 3407   6.039   1.901   5.188
  238POPC   C3B 3408   6.281   2.056   5.556
  238POPC   C4B 3409   6.285   1.985   6.022
  239POPC   NC3 3410   0.702   6.671   4.119
  239POPC   PO4 3411   0.116   6.920   3.949
  239POPC   GL1 3412   0.223   6.751   4.313
  239POPC   GL2 3413   0.136   6.397   4.252
  239POPC   C1A 3414   0.331   6.903   4.725
  239POPC   D2A 3415   0.429   6.737   5.092
  239POPC   C3A 3416   0.364   6.785   5.521
  239POPC   C4A 3417   0.654   6.566   5.772
  239POPC   C1B 3418   0.366   6.393   4.657
  239POPC   C2B 3419   0.439   6.222   5.078
  239POPC   C3B 3420   0.325   6.276   5.496
  239POPC   C4B 3421   0.391   6.081   5.908
  240POPC   NC3 3422  10.337   9.656   3.907
  240POPC   PO4 3423  10.833   9.142   3.790
  240POPC   GL1 3424  10.497   9.255   4.168
  240POPC   GL2 3425  10.662   9.547   4.283
  240POPC   C1A 3426  10.432   9.295   4.666
  240POPC   D2A 3427  10.595   9.190   5.099
  240POPC   C3A 3428  10.405   9.424   5.418
  240POPC   C4A 3429  10.605   9.754   5.609
  240POPC   C1B 3430  10.371   9.811   4.544
  240POPC   C2B 3431  10.290   9.792   5.001
  240POPC   C3B 3432  10.163   9.901   5.449
  240POPC   C4B 3433  10.314   9.991   5.936
  241POPC   NC3 3434   4.867  11.132   3.821
  241POPC   PO4 3435   5.598  11.165   3.809
  241POPC   GL1 3436   5.387  11.184   4.225
  241POPC   GL2 3437   5.028  11.237   4.305
  241POPC   C1A 3438   5.305  11.036   4.672
  241POPC   D2A 3439   5.123  11.299   4.989
  241POPC   C3A 3440   5.199  11.119   5.397
  241POPC   C4A 3441   5.181  11.431   5.700
  241POPC   C1B 3442   4.711  11.287   4.658
  241POPC   C2B 3443   4.604  11.441   5.090
  241POPC   C3B 3444   4.539  11.329   5.519
  241POPC   C4B 3445   4.782  11.116   5.749
  242POPC   NC3 3446  11.309   5.978   3.592
  242POPC   PO4 3447  10.960   5.620   4.040
  242POPC   GL1 3448  11.128   5.718   4.411
  242POPC   GL2 3449  11.436   5.678   4.284
  242POPC   C1A 3450  11.211   5.547   4.835
  242POPC   D2A 3451  11.064   5.360   5.265
  242POPC   C3A 3452  11.050   5.706   5.590
  242POPC   C4A 3453  10.906   6.130   5.545
  242POPC   C1B 3454   0.014   6.002   4.596
  242POPC   C2B 3455  11.259   6.065   4.939
  242POPC   C3B 3456  11.381   6.049   5.366
  242POPC   C4B 3457  11.393   6.234   5.779
  243POPC   NC3 3458   8.076  11.113   3.857
  243POPC   PO4 3459   7.669  10.761   4.198
  243POPC   GL1 3460   7.959  11.049   4.364
  243POPC   GL2 3461   8.351  11.056   4.283
  243POPC   C1A 3462   7.834  11.127   4.774
  243POPC   D2A 3463   7.982  11.265   5.158
  243POPC   C3A 3464   7.952  11.100   5.561
  243POPC   C4A 3465   7.863  11.300   5.959
  243POPC   C1B 3466   8.351  11.162   4.707
  243POPC   C2B 3467   8.411  10.965   5.099
  243POPC   C3B 3468   8.450  11.186   5.470
  243POPC   C4B 3469   8.352  11.174   5.900
  244POPC   NC3 3470   2.263   8.972   4.039
  244POPC   PO4 3471   1.730   9.328   3.820
  244POPC   GL1 3472   1.637   9.167   4.269
  244POPC   GL2 3473   1.754   8.847   4.259
  244POPC   C1A 3474   1.591   9.049   4.753
  244POPC   D2A 3475   1.774   8.749   5.117
  244POPC   C3A 3476   1.655   8.730   5.596
  244POPC   C4A 3477   1.679   8.961   6.010
  244POPC   C1B 3478   1.975   8.757   4.625
  244POPC   C2B 3479   2.269   8.783   4.930
  244POPC   C3B 3480   2.248   8.847   5.370
  244POPC   C4B 3481   2.146   9.056   5.748
  245POPC   NC3 3482   4.357   0.488   3.802
  245POPC   PO4 3483   4.136  11.377   3.885
  245POPC   GL1 3484   4.220   0.198   4.237
  245POPC   GL2 3485   4.226   0.538   4.341
  245POPC   C1A 3486   4.353   0.202   4.692
  245POPC   D2A 3487   4.141   0.289   5.078
  245POPC   C3A 3488   4.373   0.301   5.442
  245POPC   C4A 3489   4.371   0.272   5.884
  245POPC   C1B 3490   4.325   0.732   4.773
  245POPC   C2B 3491   4.543   0.728   5.193
  245POPC   C3B 3492   4.516   0.741   5.662
  245POPC   C4B 3493   4.054   0.650   5.749
  246POPC   NC3 3494   8.732   9.585   3.862
  246POPC   PO4 3495   9.350   9.286   3.945
  246POPC   GL1 3496   9.084   9.476   4.313
  246POPC   GL2 3497   8.821   9.729   4.337
  246POPC   C1A 3498   8.908   9.316   4.747
  246POPC   D2A 3499   8.782   9.181   5.210
  246POPC   C3A 3500   9.078   9.348   5.563
  246POPC   C4A 3501   9.121   9.163   6.013
  246POPC   C1B 3502   9.056   9.822   4.714
  246POPC   C2B 3503   8.921   9.673   5.135
  246POPC   C3B 3504   8.869   9.861   5.534
  246POPC   C4B 3505   9.185  10.004   5.809
  247POPC   NC3 3506   2.250   0.545   3.907
  247POPC   PO4 3507   1.745   0.140   4.017
  247POPC   GL1 3508   1.974   0.262   4.339
  247POPC   GL2 3509   2.089   0.608   4.381
  247POPC   C1A 3510   1.894   0.218   4.741
  247POPC   D2A 3511   1.772   0.132   5.111
  247POPC   C3A 3512   2.149   0.069   5.404
  247POPC   C4A 3513   2.043   0.040   5.825
  247POPC   C1B 3514   1.811   0.721   4.705
  247POPC   C2B 3515   1.625   0.628   5.093
  247POPC   C3B 3516   1.861   0.502   5.437
  247POPC   C4B 3517   2.127   0.560   5.741
  248POPC   NC3 3518  10.485   6.135   3.714
  248POPC   PO4 3519  10.632   6.743   3.957
  248POPC   GL1 3520  10.548   6.688   4.332
  248POPC   GL2 3521  10.413   6.365   4.242
  248POPC   C1A 3522  10.394   6.786   4.721
  248POPC   D2A 3523  10.244   6.537   5.047
  248POPC   C3A 3524  10.318   6.702   5.418
  248POPC   C4A 3525  10.035   6.578   5.724
  248POPC   C1B 3526  10.466   6.261   4.675
  248POPC   C2B 3527  10.369   6.014   5.013
  248POPC   C3B 3528  10.352   6.171   5.432
  248POPC   C4B 3529  10.511   6.377   5.752
  249POPC   NC3 3530   0.439   2.001   3.763
  249POPC   PO4 3531   0.088   2.281   4.170
  249POPC   GL1 3532   0.240   1.944   4.326
  249POPC   GL2 3533   0.566   1.998   4.266
  249POPC   C1A 3534   0.212   1.796   4.733
  249POPC   D2A 3535   0.363   1.951   5.095
  249POPC   C3A 3536   0.182   1.863   5.448
  249POPC   C4A 3537   0.010   2.215   5.645
  249POPC   C1B 3538   0.656   2.075   4.684
  249POPC   C2B 3539   0.682   2.332   5.044
  249POPC   C3B 3540   0.498   2.313   5.473
  249POPC   C4B 3541   0.507   1.980   5.801
  250POPC   NC3 3542   0.488   8.873   3.888
  250POPC   PO4 3543  11.437   8.449   3.778
  250POPC   GL1 3544   0.220   8.537   4.188
  250POPC   GL2 3545   0.556   8.672   4.328
  250POPC   C1A 3546   0.162   8.822   4.597
  250POPC   D2A 3547   0.338   8.800   5.036
  250POPC   C3A 3548   0.216   9.105   5.374
  250POPC   C4A 3549   0.099   9.154   5.827
  250POPC   C1B 3550   0.795   8.734   4.674
  250POPC   C2B 3551   0.872   8.664   5.089
  250POPC   C3B 3552   0.739   8.961   5.370
  250POPC   C4B 3553   0.501   8.889   5.753
  251POPC   NC3 3554  11.203  11.258   3.661
  251POPC   PO4 3555  10.748   0.182   3.715
  251POPC   GL1 3556  11.158   0.043   4.089
  251POPC   GL2 3557  11.314  11.234   4.169
  251POPC   C1A 3558  11.216   0.038   4.597
  251POPC   D2A 3559  11.049  11.298   5.003
  251POPC   C3A 3560  11.183  11.368   5.465
  251POPC   C4A 3561  11.114  11.478   5.926
  251POPC   C1B 3562  11.259  11.033   4.614
  251POPC   C2B 3563  11.332  10.834   5.021
  251POPC   C3B 3564  11.384  10.847   5.447
  251POPC   C4B 3565  11.173  10.979   5.826
  252POPC   NC3 3566   4.163   1.009   4.164
  252POPC   PO4 3567   4.643   1.408   3.838
  252POPC   GL1 3568   4.647   1.237   4.234
  252POPC   GL2 3569   4.386   1.420   4.368
  252POPC   C1A 3570   4.663   1.146   4.691
  252POPC   D2A 3571   4.540   1.213   5.098
  252POPC   C3A 3572   4.621   1.397   5.472
  252POPC   C4A 3573   4.825   1.254   5.828
  252POPC   C1B 3574   4.164   1.309   4.760
  252POPC   C2B 3575   4.075   1.358   5.201
  252POPC   C3B 3576   4.206   1.122   5.528
  252POPC   C4B 3577   4.149   1.465   5.767
  253POPC   NC3 3578   5.697  10.624   3.932
  253POPC   PO4 3579   6.032  10.059   3.956
  253POPC   GL1 3580   5.912  10.298   4.351
  253POPC   GL2 3581   6.020  10.665   4.351
  253POPC   C1A 3582   5.768  10.141   4.803
  253POPC   D2A 3583   5.569   9.972   5.206
  253POPC   C3A 3584   5.823   9.945   5.569
  253POPC   C4A 3585   5.873  10.286   5.799
  253POPC   C1B 3586   5.639  10.606   4.652
  253POPC   C2B 3587   5.490  10.471   5.096
  253POPC   C3B 3588   5.591  10.620   5.503
  253POPC   C4B 3589   5.920  10.778   5.785
  254POPC   NC3 3590   1.872  10.617   3.608
  254POPC   PO4 3591   2.440  10.944   3.836
  254POPC   GL1 3592   2.365  10.845   4.299
  254POPC   GL2 3593   2.172  10.545   4.399
  254POPC   C1A 3594   2.302  10.861   4.775
  254POPC   D2A 3595   2.065  10.635   5.073
  254POPC   C3A 3596   2.033  10.829   5.454
  254POPC   C4A 3597   2.207  10.690   5.857
  254POPC   C1B 3598   2.208  10.215   4.747
  254POPC   C2B 3599   2.186  10.116   5.198
  254POPC   C3B 3600   2.005  10.337   5.523
  254POPC   C4B 3601   1.670  10.555   5.697
  255POPC   NC3 3602   9.716  11.090   3.759
  255POPC   PO4 3603   9.178  11.481   3.620
  255POPC   GL1 3604   9.498  11.431   4.066
  255POPC   GL2 3605   9.641  11.089   4.247
  255POPC   C1A 3606   9.593  11.457   4.584
  255POPC   D2A 3607   9.436  11.396   5.074
  255POPC   C3A 3608   9.655  11.265   5.519
  255POPC   C4A 3609   9.733  11.358   6.037
  255POPC   C1B 3610   9.674  10.928   4.681
  255POPC   C2B 3611   9.415  10.852   5.064
  255POPC   C3B 3612   9.236  10.914   5.474
  255POPC   C4B 3613   9.481  10.921   5.870
  256POPC   NC3 3614   9.159   4.805   4.031
  256POPC   PO4 3615   8.619   5.031   3.922
  256POPC   GL1 3616   8.737   5.196   4.355
  256POPC   GL2 3617   9.076   5.150   4.424
  256POPC   C1A 3618   8.746   5.055   4.807
  256POPC   D2A 3619   8.798   4.866   5.243
  256POPC   C3A 3620   8.745   4.936   5.695
  256POPC   C4A 3621   8.426   4.921   6.029
  256POPC   C1B 3622   9.190   5.309   4.823
  256POPC   C2B 3623   9.191   5.242   5.263
  256POPC   C3B 3624   9.159   5.239   5.683
  256POPC   C4B 3625   9.238   4.955   6.004
  257POPC   NC3 3626   2.892   3.774   4.003
  257POPC   PO4 3627   2.684   3.164   3.953
  257POPC   GL1 3628   2.685   3.372   4.310
  257POPC   GL2 3629   2.392   3.283   4.452
  257POPC   C1A 3630   2.778   3.543   4.709
  257POPC   D2A 3631   2.947   3.376   5.080
  257POPC   C3A 3632   2.866   3.546   5.499
  257POPC   C4A 3633   3.122   3.433   5.861
  257POPC   C1B 3634   2.434   3.207   4.884
  257POPC   C2B 3635   2.467   3.256   5.308
  257POPC   C3B 3636   2.365   3.491   5.665
  257POPC   C4B 3637   2.625   3.514   5.986
  258POPC   NC3 3638   4.159  10.684   4.069
  258POPC   PO4 3639   4.409  10.094   4.109
  258POPC   GL1 3640   4.094  10.193   4.433
  258POPC   GL2 3641   3.814  10.352   4.316
  258POPC   C1A 3642   4.190  10.193   4.898
  258POPC   D2A 3643   4.540  10.081   5.201
  258POPC   C3A 3644   4.641  10.299   5.593
  258POPC   C4A 3645   4.664  10.640   5.880
  258POPC   C1B 3646   3.882  10.618   4.714
  258POPC   C2B 3647   3.871  10.515   5.151
  258POPC   C3B 3648   4.108  10.300   5.442
  258POPC   C4B 3649   4.212  10.429   5.858
  259POPC   NC3 3650   5.030   0.657   3.956
  259POPC   PO4 3651   5.158   0.028   3.724
  259POPC   GL1 3652   5.176   0.215   4.173
  259POPC   GL2 3653   4.814   0.236   4.298
  259POPC   C1A 3654   5.255   0.480   4.559
  259POPC   D2A 3655   5.342   0.361   5.005
  259POPC   C3A 3656   5.297   0.520   5.457
  259POPC   C4A 3657   5.395   0.354   5.888
  259POPC   C1B 3658   4.856   0.266   4.773
  259POPC   C2B 3659   4.874   0.354   5.230
  259POPC   C3B 3660   4.855   0.333   5.690
  259POPC   C4B 3661   4.833   0.474   6.130
  260POPC   NC3 3662   1.860   7.952   4.010
  260POPC   PO4 3663   2.086   8.554   3.994
  260POPC   GL1 3664   2.100   8.298   4.341
  260POPC   GL2 3665   1.769   8.322   4.415
  260POPC   C1A 3666   2.085   8.296   4.806
  260POPC   D2A 3667   1.781   8.224   5.119
  260POPC   C3A 3668   1.995   8.372   5.465
  260POPC   C4A 3669   2.179   8.562   5.810
  260POPC   C1B 3670   1.773   7.919   4.667
  260POPC   C2B 3671   1.696   7.699   5.078
  260POPC   C3B 3672   1.769   7.859   5.506
  260POPC   C4B 3673   1.578   8.225   5.708
  261POPC   NC3 3674   8.819   2.659   4.056
  261POPC   PO4 3675   9.331   3.015   4.107
  261POPC   GL1 3676   9.122   2.854   4.472
  261POPC   GL2 3677   9.114   2.540   4.461
  261POPC   C1A 3678   9.018   2.830   4.927
  261POPC   D2A 3679   8.973   2.735   5.376
  261POPC   C3A 3680   9.188   3.033   5.676
  261POPC   C4A 3681   9.174   3.167   6.061
  261POPC   C1B 3682   8.687   2.502   4.681
  261POPC   C2B 3683   8.470   2.361   5.075
  261POPC   C3B 3684   8.628   2.362   5.514
  261POPC   C4B 3685   8.599   2.755   5.754
  262POPC   NC3 3686   3.249  10.869   3.943
  262POPC   PO4 3687   3.258   0.027   3.957
  262POPC   GL1 3688   3.160  11.371   4.339
  262POPC   GL2 3689   3.429  11.173   4.345
  262POPC   C1A 3690   3.188  11.339   4.805
  262POPC   D2A 3691   3.264  11.134   5.198
  262POPC   C3A 3692   3.245  11.338   5.585
  262POPC   C4A 3693   3.294  11.413   6.025
  262POPC   C1B 3694   3.710  11.114   4.682
  262POPC   C2B 3695   3.741  11.005   5.104
  262POPC   C3B 3696   3.675  11.039   5.522
  262POPC   C4B 3697   3.805  10.685   5.705
  263POPC   NC3 3698  11.226   2.127   3.955
  263POPC   PO4 3699   0.134   1.632   3.899
  263POPC   GL1 3700  11.282   1.712   4.273
  263POPC   GL2 3701  10.950   1.956   4.321
  263POPC   C1A 3702  11.209   1.874   4.732
  263POPC   D2A 3703  11.335   2.066   5.108
  263POPC   C3A 3704  11.176   1.854   5.471
  263POPC   C4A 3705  11.389   1.802   5.900
  263POPC   C1B 3706  10.748   2.122   4.704
  263POPC   C2B 3707  10.820   2.063   5.131
  263POPC   C3B 3708  10.710   2.091   5.545
  263POPC   C4B 3709  11.008   2.161   5.847
  264POPC   NC3 3710   4.361   1.779   3.774
  264POPC   PO4 3711   3.859   1.362   4.081
  264POPC   GL1 3712   3.927   1.654   4.442
  264POPC   GL2 3713   4.179   1.865   4.256
  264POPC   C1A 3714   3.918   1.736   4.897
  264POPC   D2A 3715   4.043   2.027   5.199
  264POPC   C3A 3716   4.177   1.930   5.577
  264POPC   C4A 3717   3.874   1.886   5.910
  264POPC   C1B 3718   4.310   1.963   4.695
  264POPC   C2B 3719   4.446   1.731   5.095
  264POPC   C3B 3720   4.737   1.885   5.448
  264POPC   C4B 3721   4.738   2.209   5.804
  265POPC   NC3 3722   1.129   6.653   3.745
  265POPC   PO4 3723   1.481   6.440   4.201
  265POPC   GL1 3724   1.310   6.413   4.551
  265POPC   GL2 3725   0.989   6.386   4.446
  265POPC   C1A 3726   1.304   6.671   4.889
  265POPC   D2A 3727   1.275   6.861   5.264
  265POPC   C3A 3728   1.298   6.648   5.638
  265POPC   C4A 3729   1.519   6.874   5.983
  265POPC   C1B 3730   0.826   6.502   4.836
  265POPC   C2B 3731   0.852   6.536   5.271
  265POPC   C3B 3732   0.842   6.193   5.500
  265POPC   C4B 3733   1.034   6.247   5.876
  266POPC   NC3 3734   1.372   6.083   3.945
  266POPC   PO4 3735   1.136   5.458   3.944
  266POPC   GL1 3736   1.309   5.680   4.284
  266POPC   GL2 3737   1.027   5.886   4.298
  266POPC   C1A 3738   1.393   5.537   4.710
  266POPC   D2A 3739   1.257   5.683   5.127
  266POPC   C3A 3740   1.535   5.658   5.449
  266POPC   C4A 3741   1.515   5.483   5.822
  266POPC   C1B 3742   1.121   5.976   4.724
  266POPC   C2B 3743   1.211   6.219   5.089
  266POPC   C3B 3744   1.356   6.124   5.496
  266POPC   C4B 3745   1.071   5.759   5.639
  267POPC   NC3 3746   7.240   2.201   3.913
  267POPC   PO4 3747   7.075   1.596   3.601
  267POPC   GL1 3748   7.226   1.713   4.041
  267POPC   GL2 3749   7.574   1.845   4.154
  267POPC   C1A 3750   7.150   1.909   4.500
  267POPC   D2A 3751   7.176   1.977   4.983
  267POPC   C3A 3752   6.881   1.936   5.335
  267POPC   C4A 3753   7.032   1.758   5.719
  267POPC   C1B 3754   7.651   1.926   4.619
  267POPC   C2B 3755   7.648   1.788   5.060
  267POPC   C3B 3756   7.441   1.942   5.439
  267POPC   C4B 3757   7.162   2.253   5.601
  268POPC   NC3 3758  10.302   8.247   3.627
  268POPC   PO4 3759  10.048   7.720   3.865
  268POPC   GL1 3760  10.368   7.858   4.200
  268POPC   GL2 3761  10.400   8.236   4.277
  268POPC   C1A 3762  10.172   7.901   4.636
  268POPC   D2A 3763   9.950   8.096   4.978
  268POPC   C3A 3764  10.098   7.967   5.381
  268POPC   C4A 3765  10.144   7.953   5.792
  268POPC   C1B 3766  10.409   8.328   4.743
  268POPC   C2B 3767  10.302   8.389   5.183
  268POPC   C3B 3768  10.536   8.227   5.564
  268POPC   C4B 3769  10.592   8.391   5.987
  269POPC   NC3 3770   2.861   9.491   3.893
  269POPC   PO4 3771   2.255   9.820   3.888
  269POPC   GL1 3772   2.546   9.683   4.249
  269POPC   GL2 3773   2.894   9.636   4.388
  269POPC   C1A 3774   2.489   9.606   4.700
  269POPC   D2A 3775   2.745   9.696   5.071
  269POPC   C3A 3776   2.495   9.749   5.412
  269POPC   C4A 3777   2.341   9.525   5.730
  269POPC   C1B 3778   2.960   9.339   4.748
  269POPC   C2B 3779   3.025   9.239   5.195
  269POPC   C3B 3780   2.985   9.561   5.535
  269POPC   C4B 3781   2.788   9.806   5.837
  270POPC   NC3 3782   3.879  11.015   3.717
  270POPC   PO4 3783   4.553  10.773   3.826
  270POPC   GL1 3784   4.571  10.955   4.247
  270POPC   GL2 3785   4.530  11.295   4.190
  270POPC   C1A 3786   4.403  10.826   4.674
  270POPC   D2A 3787   4.378  10.623   5.079
  270POPC   C3A 3788   4.195  10.866   5.395
  270POPC   C4A 3789   4.265  10.943   5.818
  270POPC   C1B 3790   4.190  11.254   4.517
  270POPC   C2B 3791   4.166  11.234   4.964
  270POPC   C3B 3792   4.049  11.372   5.385
  270POPC   C4B 3793   3.956  11.349   5.839
  271POPC   NC3 3794   2.836   6.585   3.889
  271POPC   PO4 3795   2.936   7.144   4.032
  271POPC   GL1 3796   2.854   6.790   4.374
  271POPC   GL2 3797   2.537   6.616   4.310
  271POPC   C1A 3798   2.936   6.581   4.820
  271POPC   D2A 3799   3.026   6.422   5.281
  271POPC   C3A 3800   2.827   6.631   5.646
  271POPC   C4A 3801   2.447   6.602   5.909
  271POPC   C1B 3802   2.529   6.318   4.617
  271POPC   C2B 3803   2.668   6.190   5.013
  271POPC   C3B 3804   2.540   6.263   5.433
  271POPC   C4B 3805   2.248   6.162   5.753
  272POPC   NC3 3806   6.927   3.090   4.086
  272POPC   PO4 3807   6.792   2.416   3.960
  272POPC   GL1 3808   7.068   2.562   4.322
  272POPC   GL2 3809   7.441   2.494   4.287
  272POPC   C1A 3810   7.079   2.773   4.763
  272POPC   D2A 3811   7.294   2.832   5.192
  272POPC   C3A 3812   7.121   2.776   5.639
  272POPC   C4A 3813   7.163   2.960   6.089
  272POPC   C1B 3814   7.386   2.359   4.708
  272POPC   C2B 3815   7.491   2.353   5.143
  272POPC   C3B 3816   7.600   2.483   5.560
  272POPC   C4B 3817   7.763   2.408   5.975
  273POPC   NC3 3818   1.965   9.764   3.543
  273POPC   PO4 3819   1.964  10.152   4.149
  273POPC   GL1 3820   2.076   9.777   4.399
  273POPC   GL2 3821   2.091   9.439   4.193
  273POPC   C1A 3822   2.004   9.739   4.811
  273POPC   D2A 3823   1.752   9.829   5.100
  273POPC   C3A 3824   1.952   9.674   5.394
  273POPC   C4A 3825   2.015   9.884   5.725
  273POPC   C1B 3826   2.020   9.279   4.595
  273POPC   C2B 3827   1.993   9.237   5.037
  273POPC   C3B 3828   1.777   9.194   5.419
  273POPC   C4B 3829   1.797   9.423   5.816
  274POPC   NC3 3830   7.251   8.828   3.847
  274POPC   PO4 3831   7.061   9.407   4.100
  274POPC   GL1 3832   7.292   9.127   4.428
  274POPC   GL2 3833   7.468   8.818   4.307
  274POPC   C1A 3834   7.314   9.012   4.898
  274POPC   D2A 3835   7.413   8.980   5.354
  274POPC   C3A 3836   7.103   9.109   5.700
  274POPC   C4A 3837   6.810   9.074   6.096
  274POPC   C1B 3838   7.713   8.831   4.651
  274POPC   C2B 3839   7.807   8.775   5.060
  274POPC   C3B 3840   7.831   8.730   5.484
  274POPC   C4B 3841   7.495   8.698   5.764
  275POPC   NC3 3842   2.778   1.253   3.721
  275POPC   PO4 3843   2.633   1.794   3.970
  275POPC   GL1 3844   2.732   1.509   4.291
  275POPC   GL2 3845   2.900   1.207   4.228
  275POPC   C1A 3846   2.546   1.408   4.699
  275POPC   D2A 3847   2.348   1.305   5.086
  275POPC   C3A 3848   2.292   1.528   5.440
  275POPC   C4A 3849   2.355   1.401   5.820
  275POPC   C1B 3850   3.036   1.226   4.658
  275POPC   C2B 3851   2.822   1.121   5.058
  275POPC   C3B 3852   2.693   1.189   5.499
  275POPC   C4B 3853   2.782   1.162   5.969
  276POPC   NC3 3854   3.759   2.549   3.989
  276POPC   PO4 3855   3.187   2.458   3.661
  276POPC   GL1 3856   3.108   2.562   4.185
  276POPC   GL2 3857   3.447   2.566   4.427
  276POPC   C1A 3858   3.004   2.492   4.670
  276POPC   D2A 3859   3.188   2.428   5.132
  276POPC   C3A 3860   3.231   2.645   5.561
  276POPC   C4A 3861   3.459   2.700   5.978
  276POPC   C1B 3862   3.344   2.842   4.823
  276POPC   C2B 3863   3.381   3.100   5.216
  276POPC   C3B 3864   3.481   3.095   5.664
  276POPC   C4B 3865   3.859   3.077   5.953
  277POPC   NC3 3866   9.017  11.029   3.528
  277POPC   PO4 3867   9.268  10.755   4.136
  277POPC   GL1 3868   8.915  11.004   4.307
  277POPC   GL2 3869   9.125  11.306   4.378
  277POPC   C1A 3870   8.705  10.799   4.677
  277POPC   D2A 3871   8.901  10.696   5.088
  277POPC   C3A 3872   8.713  10.752   5.499
  277POPC   C4A 3873   8.838  11.068   5.774
  277POPC   C1B 3874   9.082  11.136   4.786
  277POPC   C2B 3875   8.894  11.213   5.183
  277POPC   C3B 3876   9.094  11.412   5.518
  277POPC   C4B 3877   9.019   0.268   5.798
  278POPC   NC3 3878   6.320   2.581   4.006
  278POPC   PO4 3879   6.498   3.193   4.114
  278POPC   GL1 3880   6.609   2.801   4.408
  278POPC   GL2 3881   6.559   2.421   4.424
  278POPC   C1A 3882   6.581   2.699   4.874
  278POPC   D2A 3883   6.774   2.887   5.240
  278POPC   C3A 3884   6.566   2.923   5.648
  278POPC   C4A 3885   6.662   3.125   6.045
  278POPC   C1B 3886   6.870   2.299   4.726
  278POPC   C2B 3887   6.973   2.423   5.149
  278POPC   C3B 3888   6.712   2.454   5.520
  278POPC   C4B 3889   6.348   2.475   5.826
  279POPC   NC3 3890   0.402   2.813   3.690
  279POPC   PO4 3891   0.146   3.090   4.153
  279POPC   GL1 3892   0.525   2.892   4.339
  279POPC   GL2 3893   0.505   2.501   4.381
  279POPC   C1A 3894   0.634   2.766   4.779
  279POPC   D2A 3895   0.505   2.786   5.183
  279POPC   C3A 3896   0.759   2.980   5.475
  279POPC   C4A 3897   0.690   2.793   5.840
  279POPC   C1B 3898   0.241   2.370   4.782
  279POPC   C2B 3899   0.088   2.490   5.184
  279POPC   C3B 3900   0.167   2.702   5.565
  279POPC   C4B 3901   0.258   2.530   5.960
  280POPC   NC3 3902  11.103   3.595   3.776
  280POPC   PO4 3903   0.003   3.110   3.617
  280POPC   GL1 3904  11.451   3.510   4.096
  280POPC   GL2 3905  11.135   3.461   4.265
  280POPC   C1A 3906  11.494   3.639   4.600
  280POPC   D2A 3907   0.008   3.394   5.012
  280POPC   C3A 3908   0.016   3.593   5.391
  280POPC   C4A 3909  11.348   3.514   5.806
  280POPC   C1B 3910  11.004   3.692   4.598
  280POPC   C2B 3911  11.036   3.529   4.980
  280POPC   C3B 3912  11.013   3.497   5.390
  280POPC   C4B 3913  10.766   3.778   5.567
  281POPC   NC3 3914   3.352  10.185   4.143
  281POPC   PO4 3915   3.700  10.799   4.096
  281POPC   GL1 3916   3.367  10.660   4.383
  281POPC   GL2 3917   3.379  10.375   4.602
  281POPC   C1A 3918   3.275  10.841   4.760
  281POPC   D2A 3919   3.364  10.612   5.105
  281POPC   C3A 3920   3.272  10.707   5.522
  281POPC   C4A 3921   3.357  10.520   5.940
  281POPC   C1B 3922   3.690  10.157   4.792
  281POPC   C2B 3923   3.512  10.127   5.131
  281POPC   C3B 3924   3.559  10.289   5.495
  281POPC   C4B 3925   3.777  10.180   5.828
  282POPC   NC3 3926   3.727   0.085   4.042
  282POPC   PO4 3927   3.946   0.693   3.895
  282POPC   GL1 3928   3.723   0.570   4.268
  282POPC   GL2 3929   3.391   0.459   4.223
  282POPC   C1A 3930   3.835   0.338   4.662
  282POPC   D2A 3931   3.690   0.019   4.993
  282POPC   C3A 3932   3.619   0.154   5.430
  282POPC   C4A 3933   3.693   0.281   5.858
  282POPC   C1B 3934   3.321   0.303   4.654
  282POPC   C2B 3935   3.490   0.503   5.050
  282POPC   C3B 3936   3.416   0.646   5.496
  282POPC   C4B 3937   3.184   0.344   5.762
  283POPC   NC3 3938   4.140   9.698   4.021
  283POPC   PO4 3939   4.828   9.620   3.845
  283POPC   GL1 3940   4.595   9.534   4.296
  283POPC   GL2 3941   4.324   9.738   4.466
  283POPC   C1A 3942   4.522   9.478   4.814
  283POPC   D2A 3943   4.731   9.500   5.226
  283POPC   C3A 3944   4.532   9.485   5.657
  283POPC   C4A 3945   4.611   9.668   6.091
  283POPC   C1B 3946   4.034   9.728   4.781
  283POPC   C2B 3947   3.899   9.830   5.177
  283POPC   C3B 3948   3.964   9.753   5.592
  283POPC   C4B 3949   4.303   9.935   5.777
  284POPC   NC3 3950  10.382  10.313   3.843
  284POPC   PO4 3951  10.066  10.840   3.945
  284POPC   GL1 3952  10.426  10.689   4.230
  284POPC   GL2 3953  10.545  10.364   4.342
  284POPC   C1A 3954  10.352  10.712   4.681
  284POPC   D2A 3955  10.422  10.517   5.071
  284POPC   C3A 3956  10.351  10.799   5.350
  284POPC   C4A 3957  10.455  10.779   5.733
  284POPC   C1B 3958  10.650  10.207   4.755
  284POPC   C2B 3959  10.672  10.079   5.187
  284POPC   C3B 3960  10.517  10.283   5.541
  284POPC   C4B 3961  10.819  10.208   5.805
  285POPC   NC3 3962   0.922   5.033   3.952
  285POPC   PO4 3963   0.346   5.401   3.960
  285POPC   GL1 3964   0.718   5.387   4.321
  285POPC   GL2 3965   1.078   5.223   4.392
  285POPC   C1A 3966   0.853   5.498   4.743
  285POPC   D2A 3967   1.104   5.212   4.989
  285POPC   C3A 3968   1.192   5.244   5.436
  285POPC   C4A 3969   0.887   5.067   5.695
  285POPC   C1B 3970   1.319   4.904   4.631
  285POPC   C2B 3971   1.413   4.820   5.092
  285POPC   C3B 3972   1.341   4.733   5.545
  285POPC   C4B 3973   1.533   4.978   5.854
  286POPC   NC3 3974   7.218   9.818   3.984
  286POPC   PO4 3975   7.920   9.878   3.904
  286POPC   GL1 3976   7.687   9.994   4.328
  286POPC   GL2 3977   7.461   9.694   4.402
  286POPC   C1A 3978   7.676   9.885   4.813
  286POPC   D2A 3979   7.351   9.926   5.139
  286POPC   C3A 3980   7.493  10.014   5.571
  286POPC   C4A 3981   7.488   9.708   5.878
  286POPC   C1B 3982   7.277   9.531   4.804
  286POPC   C2B 3983   7.297   9.449   5.257
  286POPC   C3B 3984   7.076   9.636   5.574
  286POPC   C4B 3985   6.686   9.494   5.762
  287POPC   NC3 3986   7.422   0.270   3.829
  287POPC   PO4 3987   7.681   0.903   3.872
  287POPC   GL1 3988   7.721   0.696   4.268
  287POPC   GL2 3989   7.420   0.543   4.262
  287POPC   C1A 3990   7.779   0.511   4.724
  287POPC   D2A 3991   7.759   0.274   5.186
  287POPC   C3A 3992   7.682   0.599   5.562
  287POPC   C4A 3993   7.714   0.680   6.072
  287POPC   C1B 3994   7.245   0.588   4.644
  287POPC   C2B 3995   7.368   0.561   5.051
  287POPC   C3B 3996   7.260   0.353   5.413
  287POPC   C4B 3997   7.059   0.672   5.674
  288POPC   NC3 3998   5.020   9.224   4.005
  288POPC   PO4 3999   4.837   8.625   3.740
  288POPC   GL1 4000   4.706   8.689   4.205
  288POPC   GL2 4001   4.727   9.018   4.353
  288POPC   C1A 4002   4.659   8.529   4.674
  288POPC   D2A 4003   4.909   8.588   5.076
  288POPC   C3A 4004   4.860   8.654   5.534
  288POPC   C4A 4005   5.004   8.756   5.984
  288POPC   C1B 4006   5.024   8.900   4.684
  288POPC   C2B 4007   5.026   9.074   5.131
  288POPC   C3B 4008   4.970   9.178   5.572
  288POPC   C4B 4009   5.326   9.152   5.851
  289POPC   NC3 4010   5.072   1.241   3.920
  289POPC   PO4 4011   4.601   0.748   4.082
  289POPC   GL1 4012   4.814   0.731   4.436
  289POPC   GL2 4013   5.066   0.963   4.365
  289POPC   C1A 4014   4.962   0.762   4.854
  289POPC   D2A 4015   5.038   1.066   5.090
  289POPC   C3A 4016   4.956   0.935   5.454
  289POPC   C4A 4017   5.095   0.796   5.836
  289POPC   C1B 4018   5.117   1.350   4.636
  289POPC   C2B 4019   4.943   1.552   5.031
  289POPC   C3B 4020   5.122   1.471   5.447
  289POPC   C4B 4021   5.434   1.527   5.757
  290POPC   NC3 4022   4.366   7.556   4.180
  290POPC   PO4 4023   3.795   7.613   4.236
  290POPC   GL1 4024   4.042   7.419   4.564
  290POPC   GL2 4025   4.177   7.118   4.425
  290POPC   C1A 4026   4.089   7.462   5.002
  290POPC   D2A 4027   4.262   7.794   5.261
  290POPC   C3A 4028   4.247   7.628   5.657
  290POPC   C4A 4029   3.960   7.295   5.734
  290POPC   C1B 4030   4.441   7.133   4.806
  290POPC   C2B 4031   4.523   7.312   5.230
  290POPC   C3B 4032   4.481   7.164   5.660
  290POPC   C4B 4033   4.201   6.860   5.884
  291POPC   NC3 4034   0.447   0.563   3.849
  291POPC   PO4 4035   0.069   0.005   3.773
  291POPC   GL1 4036   0.173   0.128   4.266
  291POPC   GL2 4037   0.373   0.453   4.332
  291POPC   C1A 4038   0.542   0.097   4.620
  291POPC   D2A 4039   0.772   0.275   4.991
  291POPC   C3A 4040   0.686   0.142   5.429
  291POPC   C4A 4041   0.960   0.213   5.779
  291POPC   C1B 4042   0.588   0.643   4.690
  291POPC   C2B 4043   0.366   0.645   5.119
  291POPC   C3B 4044   0.435   0.577   5.592
  291POPC   C4B 4045   0.354   0.632   6.040
  292POPC   NC3 4046  10.361   2.256   3.470
  292POPC   PO4 4047  10.174   1.702   3.872
  292POPC   GL1 4048  10.184   2.009   4.211
  292POPC   GL2 4049  10.483   2.197   4.263
  292POPC   C1A 4050  10.183   2.031   4.667
  292POPC   D2A 4051  10.345   1.865   5.032
  292POPC   C3A 4052  10.114   1.991   5.388
  292POPC   C4A 4053  10.175   2.168   5.762
  292POPC   C1B 4054  10.528   1.725   4.467
  292POPC   C2B 4055  10.753   1.628   4.862
  292POPC   C3B 4056  10.695   1.590   5.337
  292POPC   C4B 4057  10.415   1.706   5.713
  293POPC   NC3 4058   1.360   1.715   4.029
  293POPC   PO4 4059   1.481   2.250   3.720
  293POPC   GL1 4060   1.396   2.279   4.186
  293POPC   GL2 4061   1.070   2.127   4.224
  293POPC   C1A 4062   1.491   2.246   4.668
  293POPC   D2A 4063   1.661   2.257   5.133
  293POPC   C3A 4064   1.405   2.045   5.488
  293POPC   C4A 4065   1.311   2.050   5.945
  293POPC   C1B 4066   1.121   1.887   4.626
  293POPC   C2B 4067   1.106   2.050   5.041
  293POPC   C3B 4068   0.880   1.957   5.413
  293POPC   C4B 4069   1.021   1.682   5.745
  294POPC   NC3 4070   0.439  10.498   3.717
  294POPC   PO4 4071   0.816  10.151   4.085
  294POPC   GL1 4072   0.752  10.526   4.294
  294POPC   GL2 4073   0.402  10.580   4.249
  294POPC   C1A 4074   0.726  10.618   4.716
  294POPC   D2A 4075   0.734  10.261   4.980
  294POPC   C3A 4076   0.706  10.414   5.368
  294POPC   C4A 4077   0.644  10.346   5.781
  294POPC   C1B 4078   0.328  10.313   4.636
  294POPC   C2B 4079   0.156  10.401   5.066
  294POPC   C3B 4080   0.211  10.429   5.524
  294POPC   C4B 4081   0.192  10.296   5.989
  295POPC   NC3 4082   2.924   2.834   3.739
  295POPC   PO4 4083   2.399   2.455   3.858
  295POPC   GL1 4084   2.588   2.542   4.212
  295POPC   GL2 4085   2.633   2.841   4.336
  295POPC   C1A 4086   2.501   2.427   4.598
  295POPC   D2A 4087   2.563   2.649   4.942
  295POPC   C3A 4088   2.694   2.424   5.300
  295POPC   C4A 4089   2.715   2.591   5.715
  295POPC   C1B 4090   2.855   2.991   4.700
  295POPC   C2B 4091   2.936   2.879   5.158
  295POPC   C3B 4092   2.897   3.045   5.560
  295POPC   C4B 4093   3.007   2.956   5.985
  296POPC   NC3 4094   1.176  10.981   3.935
  296POPC   PO4 4095   0.864   0.125   3.984
  296POPC   GL1 4096   1.072  11.380   4.304
  296POPC   GL2 4097   1.157  11.046   4.440
  296POPC   C1A 4098   1.106  11.437   4.745
  296POPC   D2A 4099   1.358  11.284   5.077
  296POPC   C3A 4100   1.138  11.370   5.437
  296POPC   C4A 4101   0.986  11.187   5.818
  296POPC   C1B 4102   1.460  10.837   4.741
  296POPC   C2B 4103   1.561  10.819   5.201
  296POPC   C3B 4104   1.381  10.951   5.576
  296POPC   C4B 4105   1.409  10.887   6.010
  297POPC   NC3 4106   9.928   8.111   4.092
  297POPC   PO4 4107   9.317   7.852   3.878
  297POPC   GL1 4108   9.523   7.836   4.267
  297POPC   GL2 4109   9.431   8.184   4.320
  297POPC   C1A 4110   9.679   7.771   4.698
  297POPC   D2A 4111   9.851   7.602   5.122
  297POPC   C3A 4112   9.608   7.810   5.465
  297POPC   C4A 4113   9.715   8.183   5.674
  297POPC   C1B 4114   9.484   8.352   4.747
  297POPC   C2B 4115   9.501   8.223   5.187
  297POPC   C3B 4116   9.239   8.301   5.555
  297POPC   C4B 4117   9.072   8.195   5.975
  298POPC   NC3 4118   6.411  11.323   3.912
  298POPC   PO4 4119   6.486  10.724   3.935
  298POPC   GL1 4120   6.538  10.973   4.309
  298POPC   GL2 4121   6.526  11.335   4.394
  298POPC   C1A 4122   6.402  10.974   4.728
  298POPC   D2A 4123   6.587  11.069   5.107
  298POPC   C3A 4124   6.349  10.919   5.444
  298POPC   C4A 4125   6.512  10.913   5.871
  298POPC   C1B 4126   6.476  11.488   4.785
  298POPC   C2B 4127   6.501   0.055   5.172
  298POPC   C3B 4128   6.560  11.364   5.557
  298POPC   C4B 4129   6.408   0.126   5.890
  299POPC   NC3 4130  11.096   6.902   3.907
  299POPC   PO4 4131  10.947   6.214   3.749
  299POPC   GL1 4132  10.995   6.475   4.205
  299POPC   GL2 4133  11.208   6.699   4.331
  299POPC   C1A 4134  10.883   6.546   4.696
  299POPC   D2A 4135  10.742   6.397   5.126
  299POPC   C3A 4136  10.873   6.641   5.520
  299POPC   C4A 4137  10.970   6.478   5.961
  299POPC   C1B 4138  11.385   6.519   4.677
  299POPC   C2B 4139   0.007   6.477   5.074
  299POPC   C3B 4140  11.380   6.599   5.440
  299POPC   C4B 4141  11.364   6.784   5.827
  300POPC   NC3 4142  11.484   1.168   3.836
  300POPC   PO4 4143  10.833   1.033   3.916
  300POPC   GL1 4144  11.131   0.937   4.227
  300POPC   GL2 4145  11.414   1.164   4.322
  300POPC   C1A 4146  11.091   0.948   4.679
  300POPC   D2A 4147  11.003   1.238   5.038
  300POPC   C3A 4148  11.001   1.164   5.478
  300POPC   C4A 4149  11.077   0.885   5.821
  300POPC   C1B 4150  11.394   1.380   4.705
  300POPC   C2B 4151  11.422   1.550   5.120
  300POPC   C3B 4152  11.466   1.399   5.548
  300POPC   C4B 4153  11.284   1.319   5.976
  301POPC   NC3 4154  10.777   5.205   3.938
  301POPC   PO4 4155  10.265   4.817   3.783
  301POPC   GL1 4156  10.274   4.873   4.246
  301POPC   GL2 4157  10.443   5.175   4.390
  301POPC   C1A 4158  10.293   4.810   4.716
  301POPC   D2A 4159  10.154   4.716   5.148
  301POPC   C3A 4160  10.419   4.723   5.540
  301POPC   C4A 4161  10.226   4.884   5.943
  301POPC   C1B 4162  10.609   5.219   4.831
  301POPC   C2B 4163  10.564   5.133   5.248
  301POPC   C3B 4164  10.243   5.233   5.542
  301POPC   C4B 4165  10.274   5.391   5.947
  302POPC   NC3 4166   9.623   1.064   3.910
  302POPC   PO4 4167   9.396   1.651   3.878
  302POPC   GL1 4168   9.548   1.432   4.275
  302POPC   GL2 4169   9.428   1.067   4.372
  302POPC   C1A 4170   9.513   1.411   4.736
  302POPC   D2A 4171   9.716   1.234   5.090
  302POPC   C3A 4172   9.477   1.192   5.489
  302POPC   C4A 4173   9.484   1.339   5.926
  302POPC   C1B 4174   9.858   1.017   4.579
  302POPC   C2B 4175  10.078   0.853   4.949
  302POPC   C3B 4176  10.040   0.988   5.392
  302POPC   C4B 4177   9.811   0.962   5.810
  303POPC   NC3 4178   9.662  10.605   3.951
  303POPC   PO4 4179  10.018  10.026   3.862
  303POPC   GL1 4180  10.060  10.199   4.280
  303POPC   GL2 4181   9.942  10.560   4.375
  303POPC   C1A 4182  10.142  10.256   4.716
  303POPC   D2A 4183   9.921  10.546   5.000
  303POPC   C3A 4184  10.027  10.392   5.402
  303POPC   C4A 4185   9.981  10.553   5.797
  303POPC   C1B 4186   9.616  10.333   4.639
  303POPC   C2B 4187   9.430  10.341   5.080
  303POPC   C3B 4188   9.550  10.510   5.490
  303POPC   C4B 4189   9.504  10.385   5.915
  304POPC   NC3 4190   6.618   1.683   3.680
  304POPC   PO4 4191   6.334   1.159   3.883
  304POPC   GL1 4192   6.567   1.041   4.331
  304POPC   GL2 4193   6.890   0.793   4.331
  304POPC   C1A 4194   6.576   1.216   4.807
  304POPC   D2A 4195   6.706   1.475   5.197
  304POPC   C3A 4196   6.544   1.624   5.641
  304POPC   C4A 4197   6.710   1.626   6.090
  304POPC   C1B 4198   6.756   0.748   4.740
  304POPC   C2B 4199   6.800   0.880   5.181
  304POPC   C3B 4200   6.597   0.842   5.552
  304POPC   C4B 4201   6.469   1.154   5.824
  305POPC   NC3 4202  10.963   0.485   4.003
  305POPC   PO4 4203   0.074   0.735   4.038
  305POPC   GL1 4204  11.339   0.501   4.394
  305POPC   GL2 4205  10.965   0.481   4.505
  305POPC   C1A 4206  11.319   0.514   4.864
  305POPC   D2A 4207  11.361   0.889   5.109
  305POPC   C3A 4208  11.460   0.844   5.489
  305POPC   C4A 4209  11.435   0.546   5.782
  305POPC   C1B 4210  10.736   0.222   4.842
  305POPC   C2B 4211  10.812   0.189   5.230
  305POPC   C3B 4212  11.144   0.403   5.380
  305POPC   C4B 4213  10.942   0.389   5.731
  306POPC   NC3 4214   0.750   9.727   3.929
  306POPC   PO4 4215   0.310   9.301   3.932
  306POPC   GL1 4216   0.599   9.200   4.308
  306POPC   GL2 4217   0.800   9.512   4.415
  306POPC   C1A 4218   0.586   9.199   4.788
  306POPC   D2A 4219   0.715   9.486   5.147
  306POPC   C3A 4220   0.590   9.416   5.587
  306POPC   C4A 4221   0.354   9.557   5.935
  306POPC   C1B 4222   0.597   9.814   4.729
  306POPC   C2B 4223   0.384   9.922   5.147
  306POPC   C3B 4224   0.483   9.922   5.589
  306POPC   C4B 4225   0.675   9.916   6.031
  307POPC   NC3 4226  10.791   6.031   4.149
  307POPC   PO4 4227  10.196   5.809   3.881
  307POPC   GL1 4228  10.464   5.659   4.235
  307POPC   GL2 4229  10.293   5.876   4.413
  307POPC   C1A 4230  10.694   5.695   4.680
  307POPC   D2A 4231  10.841   5.819   5.092
  307POPC   C3A 4232  10.564   5.707   5.391
  307POPC   C4A 4233  10.555   5.856   5.807
  307POPC   C1B 4234  10.204   5.550   4.724
  307POPC   C2B 4235  10.107   5.588   5.173
  307POPC   C3B 4236  10.083   5.764   5.608
  307POPC   C4B 4237  10.105   6.122   5.954
  308POPC   NC3 4238  10.627  11.278   3.931
  308POPC   PO4 4239   9.924   0.012   3.781
  308POPC   GL1 4240  10.039  11.407   4.211
  308POPC   GL2 4241  10.291  11.173   4.282
  308POPC   C1A 4242  10.086  11.346   4.694
  308POPC   D2A 4243   9.962  11.460   5.119
  308POPC   C3A 4244  10.189  11.280   5.442
  308POPC   C4A 4245  10.064  11.076   5.800
  308POPC   C1B 4246  10.604  11.153   4.633
  308POPC   C2B 4247  10.524  11.273   5.046
  308POPC   C3B 4248  10.703  11.189   5.445
  308POPC   C4B 4249  10.551  11.289   5.825
  309POPC   NC3 4250   0.624   4.056   3.941
  309POPC   PO4 4251   0.234   4.572   4.025
  309POPC   GL1 4252   0.267   4.280   4.318
  309POPC   GL2 4253   0.589   4.259   4.394
  309POPC   C1A 4254   0.216   4.111   4.699
  309POPC   D2A 4255   0.161   4.335   5.056
  309POPC   C3A 4256   0.254   4.138   5.426
  309POPC   C4A 4257   0.220   4.363   5.793
  309POPC   C1B 4258   0.495   4.536   4.725
  309POPC   C2B 4259   0.654   4.289   5.058
  309POPC   C3B 4260   0.822   4.049   5.371
  309POPC   C4B 4261   0.667   4.107   5.783
  310POPC   NC3 4262   9.935   4.564   3.620
  310POPC   PO4 4263   9.381   4.384   3.957
  310POPC   GL1 4264   9.753   4.482   4.227
  310POPC   GL2 4265   9.792   4.183   4.426
  310POPC   C1A 4266   9.803   4.600   4.702
  310POPC   D2A 4267   9.798   4.314   5.096
  310POPC   C3A 4268   9.697   4.501   5.512
  310POPC   C4A 4269   9.714   4.740   5.942
  310POPC   C1B 4270   9.449   4.211   4.723
  310POPC   C2B 4271   9.236   4.257   5.140
  310POPC   C3B 4272   9.266   4.126   5.565
  310POPC   C4B 4273   9.393   4.345   5.902
  311POPC   NC3 4274   6.364  10.323   4.106
  311POPC   PO4 4275   6.978  10.213   3.900
  311POPC   GL1 4276   6.831  10.532   4.279
  311POPC   GL2 4277   6.497  10.502   4.541
  311POPC   C1A 4278   6.880  10.736   4.729
  311POPC   D2A 4279   6.660  10.573   5.129
  311POPC   C3A 4280   6.823  10.661   5.570
  311POPC   C4A 4281   6.764  10.437   6.006
  311POPC   C1B 4282   6.128  10.548   4.849
  311POPC   C2B 4283   6.056  10.511   5.309
  311POPC   C3B 4284   6.339  10.454   5.684
  311POPC   C4B 4285   6.274  10.365   6.125
  312POPC   NC3 4286   8.134   0.614   3.982
  312POPC   PO4 4287   7.830   0.018   3.871
  312POPC   GL1 4288   7.922   0.196   4.296
  312POPC   GL2 4289   8.273   0.297   4.343
  312POPC   C1A 4290   8.055   0.080   4.748
  312POPC   D2A 4291   8.396   0.013   5.073
  312POPC   C3A 4292   8.155   0.098   5.493
  312POPC   C4A 4293   7.969   0.294   5.843
  312POPC   C1B 4294   8.422   0.419   4.758
  312POPC   C2B 4295   8.219   0.482   5.110
  312POPC   C3B 4296   8.334   0.594   5.498
  312POPC   C4B 4297   8.107   0.810   5.776
  313POPC   NC3 4298   8.220   1.247   3.888
  313POPC   PO4 4299   8.446   0.807   4.267
  313POPC   GL1 4300   8.116   1.045   4.391
  313POPC   GL2 4301   8.134   1.409   4.367
  313POPC   C1A 4302   8.170   1.154   4.821
  313POPC   D2A 4303   8.197   0.978   5.206
  313POPC   C3A 4304   8.430   1.128   5.538
  313POPC   C4A 4305   8.263   1.486   5.700
  313POPC   C1B 4306   7.789   1.441   4.682
  313POPC   C2B 4307   7.667   1.260   5.083
  313POPC   C3B 4308   7.809   1.130   5.487
  313POPC   C4B 4309   7.866   1.233   5.919
  314POPC   NC3 4310   9.343   3.457   4.021
  314POPC   PO4 4311   8.621   3.166   4.018
  314POPC   GL1 4312   8.942   3.303   4.342
  314POPC   GL2 4313   8.960   3.643   4.409
  314POPC   C1A 4314   8.907   3.343   4.828
  314POPC   D2A 4315   8.980   3.246   5.277
  314POPC   C3A 4316   8.737   3.273   5.701
  314POPC   C4A 4317   8.810   3.519   6.081
  314POPC   C1B 4318   9.140   3.807   4.825
  314POPC   C2B 4319   9.040   3.762   5.265
  314POPC   C3B 4320   8.800   3.901   5.645
  314POPC   C4B 4321   8.966   4.028   6.039
  315POPC   NC3 4322   6.786  10.541   3.649
  315POPC   PO4 4323   7.462  10.603   3.706
  315POPC   GL1 4324   7.365  10.348   4.179
  315POPC   GL2 4325   7.301  10.583   4.483
  315POPC   C1A 4326   7.245  10.115   4.615
  315POPC   D2A 4327   7.156  10.386   5.000
  315POPC   C3A 4328   7.063  10.237   5.438
  315POPC   C4A 4329   7.233  10.421   5.827
  315POPC   C1B 4330   7.642  10.420   4.733
  315POPC   C2B 4331   7.657  10.312   5.120
  315POPC   C3B 4332   7.552  10.528   5.442
  315POPC   C4B 4333   7.737  10.469   5.811
  316POPC   NC3 4334   1.388   2.687   3.797
  316POPC   PO4 4335   0.876   3.029   3.934
  316POPC   GL1 4336   0.990   2.665   4.198
  316POPC   GL2 4337   1.302   2.798   4.287
  316POPC   C1A 4338   1.020   2.447   4.621
  316POPC   D2A 4339   1.227   2.563   5.024
  316POPC   C3A 4340   0.974   2.510   5.403
  316POPC   C4A 4341   0.908   2.307   5.796
  316POPC   C1B 4342   1.076   2.954   4.644
  316POPC   C2B 4343   1.115   3.067   5.103
  316POPC   C3B 4344   1.294   2.899   5.495
  316POPC   C4B 4345   1.373   2.508   5.712
  317POPC   NC3 4346   9.763   1.934   3.933
  317POPC   PO4 4347   9.202   2.360   3.906
  317POPC   GL1 4348   9.438   2.211   4.232
  317POPC   GL2 4349   9.298   1.901   4.307
  317POPC   C1A 4350   9.491   2.296   4.685
  317POPC   D2A 4351   9.418   2.019   5.050
  317POPC   C3A 4352   9.543   2.154   5.476
  317POPC   C4A 4353   9.455   2.267   5.932
  317POPC   C1B 4354   9.692   1.862   4.569
  317POPC   C2B 4355   9.846   1.745   4.976
  317POPC   C3B 4356   9.682   1.669   5.399
  317POPC   C4B 4357   9.731   1.832   5.830
  318POPC   NC3 4358   3.332   5.827   3.770
  318POPC   PO4 4359   3.591   5.340   3.798
  318POPC   GL1 4360   3.475   5.080   4.200
  318POPC   GL2 4361   3.150   4.891   4.254
  318POPC   C1A 4362   3.638   5.050   4.654
  318POPC   D2A 4363   3.754   5.221   5.090
  318POPC   C3A 4364   3.438   5.183   5.438
  318POPC   C4A 4365   3.422   4.913   5.814
  318POPC   C1B 4366   3.228   4.754   4.701
  318POPC   C2B 4367   3.494   4.774   5.100
  318POPC   C3B 4368   3.807   4.828   5.445
  318POPC   C4B 4369   3.873   4.612   5.834
  319W        W 4370  11.223  10.770   8.510
  320W        W 4371   8.589   4.374   3.138
  321W        W 4372   5.761   3.536   8.142
  322W        W 4373   6.761   6.821  11.799
  323W        W 4374   7.646   8.423   9.830
  324W        W 4375   2.181   9.600   8.688
  325W        W 4376   5.966   3.852   8.593
  326W        W 4377   0.937   5.086   2.217
  327W        W 4378   3.694   0.791   3.112
  328W        W 4379   9.275   0.746  11.241
  329W        W 4380   7.623   6.084   8.398
  330W        W 4381   8.701   5.496   8.660
  331W        W 4382  10.974   9.110   9.102
  332W        W 4383   9.782   9.394   9.111
  333W        W 4384  10.455   6.556   2.958
  334W        W 4385   7.778  10.891   2.307
  335W        W 4386  10.246   6.672  10.844
  336W        W 4387   7.490   1.367   0.140
  337W        W 4388   5.131   6.455   0.820
  338W        W 4389   0.741   4.358  11.633
  339W        W 4390   0.125   8.129  10.789
  340W        W 4391   8.003   2.311   2.930
  341W        W 4392   4.077  10.759  11.521
  342W        W 4393   3.159   7.633  10.007
  343W        W 4394   1.449   0.914   1.879
  344W        W 4395   9.695   6.588   9.997
  345W        W 4396   7.226   8.048   0.761
  346W        W 4397  11.004   5.445  10.567
  347W        W 4398   6.675   0.754   1.756
  348W        W 4399   3.254   7.042   1.767
  349W        W 4400   5.526   3.588   9.484
  350W        W 4401   1.852   9.484  11.788
  351W        W 4402   4.765   2.834   0.531
  352W        W 4403   9.929  11.413   3.216
  353W        W 4404   8.637   3.433   2.119
  354W        W 4405   1.521   7.588  10.013
  355W        W 4406   0.404   8.519  11.538
  356W        W 4407   1.052   6.909   8.240
  357W        W 4408   2.469   9.928   0.341
  358W        W 4409   6.393   3.600   8.774
  359W        W 4410   7.502   9.550   9.023
  360W        W 4411  10.638   5.096  11.981
  361W        W 4412   6.149   8.460  10.413
  362W        W 4413   1.089   1.386   9.799
  363W        W 4414   6.513   2.927  11.638
  364W        W 4415   2.307  10.847   1.384
  365W        W 4416   1.828   5.527   2.484
  366W        W 4417   9.420   8.847   3.022
  367W        W 4418   4.621  10.786   2.807
  368W        W 4419   5.200   5.462   1.809
  369W        W 4420   8.478   6.944   3.059
  370W        W 4421   7.621   6.569   9.483
  371W        W 4422   5.542   2.608   1.484
  372W        W 4423  11.122  10.526   2.895
  373W        W 4424   7.709   9.421   3.614
  374W        W 4425   5.574   6.648  10.532
  375W        W 4426   1.369   9.922   0.472
  376W        W 4427   9.834   4.705   0.745
  377W        W 4428   7.597   5.191  10.107
  378W        W 4429   2.232   3.691   2.327
  379W        W 4430   1.472   8.122   2.722
  380W        W 4431   3.756   3.736   1.266
  381W        W 4432   9.297   2.463   2.476
  382W        W 4433   5.141   3.225   1.343
  383W        W 4434   5.660   0.351  11.105
  384W        W 4435   5.397   6.078   9.837
  385W        W 4436   4.843   1.153   3.121
  386W        W 4437   9.406   4.614  11.935
  387W        W 4438   4.964  10.551  10.438
  388W        W 4439   8.637   9.878   2.578
  389W        W 4440  11.231   2.678   8.827
  390W        W 4441   2.670   5.914   1.840
  391W        W 4442   2.956   8.036   9.267
  392W        W 4443   2.719   1.972  11.777
  393W        W 4444   0.864   9.336   2.622
  394W        W 4445   5.377   4.440   3.925
  395W        W 4446   2.741   8.563   3.213
  396W        W 4447   1.709   7.931   3.532
  397W        W 4448   5.163   3.666   1.836
  398W        W 4449   6.928   7.548   1.318
  399W        W 4450   3.073   7.475   2.496
  400W        W 4451   3.785   0.464  10.688
  401W        W 4452  11.413   2.586  10.888
  402W        W 4453   5.375  10.841  10.592
  403W        W 4454   1.474   9.194   0.641
  404W        W 4455   8.685  10.525  11.720
  405W        W 4456   4.948   2.391   8.158
  406W        W 4457   3.121   6.612   1.468
  407W        W 4458   0.207   6.568  11.486
  408W        W 4459   3.310   4.763  11.050
  409W        W 4460  10.355   4.103   1.214
  410W        W 4461   3.580   5.545  11.288
  411W        W 4462   5.945  10.439  10.963
  412W        W 4463   7.603   5.085  11.925
  413W        W 4464   2.733   9.219   3.469
  414W        W 4465   6.484  10.129   3.633
  415W        W 4466   3.291   3.398   0.458
  416W        W 4467   8.215   9.057  11.276
  417W        W 4468   2.317   2.277   9.137
  418W        W 4469   9.010   5.402  11.560
  419W        W 4470   5.263   2.634  10.776
  420W        W 4471   9.995   6.645   2.748
  421W        W 4472   6.951   4.630  10.753
  422W        W 4473   4.281   7.000   0.730
  423W        W 4474  11.312   6.068  10.390
  424W        W 4475   1.299   6.452   0.176
  425W        W 4476   9.067   8.873   0.510
  426W        W 4477   6.446   4.032   9.152
  427W        W 4478   2.311   9.663  11.931
  428W        W 4479  11.004   7.451   1.398
  429W        W 4480  10.021  10.740  10.405
  430W        W 4481   3.938   0.152  11.117
  431W        W 4482   7.065   7.503   0.304
  432W        W 4483   7.812   0.842   2.597
  433W        W 4484   7.055   0.263  11.529
  434W        W 4485   8.620   2.233  11.878
  435W        W 4486   4.225   5.714   0.344
  436W        W 4487   4.262   3.759   1.386
  437W        W 4488   5.531   1.955   9.466
  438W        W 4489   8.447   7.139   1.660
  439W        W 4490   7.607   1.693   3.403
  440W        W 4491  10.020  10.814   1.323
  441W        W 4492   8.018   4.089   1.176
  442W        W 4493   5.595   9.689   9.411
  443W        W 4494   1.280   6.510   1.131
  444W        W 4495   9.437   7.920   2.874
  445W        W 4496   6.999  11.279   2.795
  446W        W 4497   5.427   4.135   2.232
  447W        W 4498   2.238   2.802   8.944
  448W        W 4499   0.938  10.870   9.843
  449W        W 4500   2.862   7.638   1.729
  450W        W 4501   4.297  11.130   3.453
  451W        W 4502   4.732   0.777  11.941
  452W        W 4503   7.662   3.644  10.456
  453W        W 4504  10.895   8.846   1.472
  454W        W 4505  10.408   0.579   1.399
  455W        W 4506   3.185   8.109   9.757
  456W        W 4507   3.150   1.654   2.474
  457W        W 4508   9.313   7.542  10.791
  458W        W 4509   2.969  11.198   2.213
  459W        W 4510   7.775   9.280  11.718
  460W        W 4511   9.547   2.580   0.462
  461W        W 4512   7.053   1.696   0.199
  462W        W 4513   4.147   8.748   8.960
  463W        W 4514   0.916   1.403   0.049
  464W        W 4515   7.189   8.900   3.151
  465W        W 4516   3.123   5.660   9.450
  466W        W 4517  10.023   7.100   0.482
  467W        W 4518   5.528   8.398   9.964
  468W        W 4519   0.647   0.939   0.233
  469W        W 4520   1.102   9.492   0.377
  470W        W 4521   7.095   4.316   0.870
  471W        W 4522   2.773  10.803   1.973
  472W        W 4523   4.331  10.780   0.030
  473W        W 4524   9.237  10.063  11.060
  474W        W 4525   3.187   6.463   8.901
  475W        W 4526   5.974   5.732  11.372
  476W        W 4527   5.919   6.040   9.801
  477W        W 4528   2.154   4.838   3.272
  478W        W 4529   9.579   1.062   9.608
  479W        W 4530  10.719   0.895  11.393
  480W        W 4531   4.712   0.637  11.049
  481W        W 4532   2.281   7.630   8.055
  482W        W 4533   2.452   4.842   8.322
  483W        W 4534   7.975   9.582   9.310
  484W        W 4535   3.751   2.558   8.692
  485W        W 4536   4.555   7.144  11.791
  486W        W 4537   3.829   9.033   8.600
  487W        W 4538   0.916   8.429   1.763
  488W        W 4539   9.451   6.509  10.431
  489W        W 4540   3.059   7.123   9.521
  490W        W 4541   5.071  10.722   9.947
  491W        W 4542   7.037   1.814  10.831
  492W        W 4543   5.107   2.307   3.203
  493W        W 4544   2.287   7.173   9.879
  494W        W 4545   3.074   1.752   3.753
  495W        W 4546   7.961   6.093   3.230
  496W        W 4547  11.482   3.431   2.732
  497W        W 4548   5.958   6.466   0.431
  498W        W 4549   4.063  11.314   2.146
  499W        W 4550   0.928   2.730   1.199
  500W        W 4551   5.508   2.719   3.274
  501W        W 4552   4.856   4.344   0.864
  502W        W 4553   9.722   3.350  10.697
  503W        W 4554   5.127   9.830   2.210
  504W        W 4555   6.108  10.810  10.023
  505W        W 4556   1.439   3.338   1.494
  506W        W 4557   7.251   0.873   9.298
  507W        W 4558   0.848   6.530   1.398
  508W        W 4559   9.877   8.462   0.660
  509W        W 4560   1.663   4.036   9.670
  510W        W 4561   4.483   5.314  11.224
  511W        W 4562  10.534  10.057   2.229
  512W        W 4563  11.407   4.712  11.875
  513W        W 4564   8.204   5.491   8.487
  514W        W 4565  10.853   9.365   1.537
  515W        W 4566   1.246   2.821   2.897
  516W        W 4567   7.433   6.573   8.507
  517W        W 4568   0.047   4.821   0.348
  518W        W 4569   2.744   8.566   0.354
  519W        W 4570   2.628   4.663   1.943
  520W        W 4571   4.647  10.231   0.930
  521W        W 4572   3.894   1.741   2.158
  522W        W 4573   7.576   2.401   2.674
  523W        W 4574   2.327   6.957  10.807
  524W        W 4575   6.356   9.530   9.686
  525W        W 4576   6.175   5.067  10.849
  526W        W 4577   3.160   8.639   9.879
  527W        W 4578   8.265   4.820   3.611
  528W        W 4579   8.871   8.554  11.249
  529W        W 4580   3.290   8.102   0.345
  530W        W 4581   7.444   2.642   1.846
  531W        W 4582   6.758   0.816   9.239
  532W        W 4583   9.742   7.558   1.315
  533W        W 4584   8.460   6.091   3.426
  534W        W 4585   0.896   5.598   9.576
  535W        W 4586   1.807  10.997  10.284
  536W        W 4587   4.952   0.081  10.320
  537W        W 4588   8.540   6.637   2.171
  538W        W 4589   1.300   7.470  10.885
  539W        W 4590   0.338   1.677   0.785
  540W        W 4591   5.674   2.812  11.019
  541W        W 4592   5.540   2.310   3.579
  542W        W 4593   6.665   8.763  11.219
  543W        W 4594   3.533   1.012   1.255
  544W        W 4595   7.397   1.318   0.908
  545W        W 4596   7.378   6.172   0.328
  546W        W 4597   0.944   8.540   8.454
  547W        W 4598  11.439   5.183   3.357
  548W        W 4599   9.088   6.032   8.270
  549W        W 4600   3.904  10.783  11.016
  550W        W 4601   0.837   7.889   1.973
  551W        W 4602  10.536   9.916   1.249
  552W        W 4603   5.582   7.158   1.666
  553W        W 4604   7.608  10.080   0.107
  554W        W 4605   2.641   7.559   0.270
  555W        W 4606   9.888   6.485   2.280
  556W        W 4607  10.958   6.484   9.623
  557W        W 4608  10.049   3.291   1.369
  558W        W 4609   1.504  11.351  11.993
  559W        W 4610   7.740   1.929   2.544
  560W        W 4611   9.435   7.031  10.737
  561W        W 4612   0.404   1.174   0.689
  562W        W 4613   5.662   7.940   2.790
  563W        W 4614   6.098  11.322   2.689
  564W        W 4615   1.185   6.570   0.647
  565W        W 4616  10.806  11.294   1.161
  566W        W 4617   4.600   7.107   9.848
  567W        W 4618  11.484   2.580   3.190
  568W        W 4619   5.555   4.167   8.691
  569W        W 4620   2.261   9.211   2.767
  570W        W 4621   2.503   8.153  11.835
  571W        W 4622   9.057  10.511  10.829
  572W        W 4623   1.016   1.895   0.014
  573W        W 4624   1.348   8.680   1.945
  574W        W 4625   6.483   7.204   3.067
  575W        W 4626   4.876   2.018   1.388
  576W        W 4627   9.893   9.759  10.347
  577W        W 4628   9.614   6.784   9.217
  578W        W 4629   1.131   5.670   0.491
  579W        W 4630   5.828  10.464   9.446
  580W        W 4631   7.993   0.587  11.434
  581W        W 4632   9.263   2.133   3.463
  582W        W 4633   6.406   5.750   2.224
  583W        W 4634   1.815   2.201   9.283
  584W        W 4635   9.470   3.203   3.570
  585W        W 4636   4.337   2.595  11.121
  586W        W 4637   5.689   8.685   9.570
  587W        W 4638  10.866   6.762  11.961
  588W        W 4639   8.209  10.963   0.757
  589W        W 4640   1.310   9.004  11.491
  590W        W 4641   2.160   1.806   2.657
  591W        W 4642   2.637   0.343   2.833
  592W        W 4643   3.243   3.729   0.049
  593W        W 4644   4.596   6.180   3.478
  594W        W 4645   9.403   4.358   9.889
  595W        W 4646   4.290   7.947  10.343
  596W        W 4647   0.842   8.933   1.351
  597W        W 4648   7.385   3.130   9.475
  598W        W 4649   5.117   9.499   9.452
  599W        W 4650   3.029   6.054  11.941
  600W        W 4651   0.523   8.602   2.010
  601W        W 4652   4.282   7.200   8.873
  602W        W 4653   9.920   1.949   1.659
  603W        W 4654   0.819   3.528   3.115
  604W        W 4655   2.742   9.330   9.903
  605W        W 4656   7.386   4.846  10.498
  606W        W 4657   4.810   6.603   1.216
  607W        W 4658   7.384   1.697  11.776
  608W        W 4659   9.409   3.178  11.501
  609W        W 4660   8.695   9.902   0.295
  610W        W 4661  10.290   9.466  10.023
  611W        W 4662   2.432   2.329  10.126
  612W        W 4663  10.771   9.530   8.819
  613W        W 4664   7.062   9.958   3.230
  614W        W 4665   3.508   5.114   3.334
  615W        W 4666   5.577   9.718   1.916
  616W        W 4667   5.560   2.450   9.234
  617W        W 4668   8.656  11.393   2.192
  618W        W 4669   6.293   7.047  10.470
  619W        W 4670   2.325   7.673  11.838
  620W        W 4671   1.391   2.847   1.927
  621W        W 4672   0.202   2.208   1.460
  622W        W 4673   4.113   6.361   8.611
  623W        W 4674   6.684   7.197  11.422
  624W        W 4675   0.230   5.348   1.483
  625W        W 4676   0.306   4.285   3.087
  626W        W 4677   3.783  10.218   0.179
  627W        W 4678   8.836   4.342   0.112
  628W        W 4679   1.363   1.054   2.765
  629W        W 4680   2.401   9.587  10.152
  630W        W 4681   7.836   9.315   0.722
  631W        W 4682  11.419   5.643  11.711
  632W        W 4683   5.686   8.501   1.369
  633W        W 4684   7.181  10.206   1.424
  634W        W 4685   2.785   9.568  11.549
  635W        W 4686   6.015   6.893   1.793
  636W        W 4687  10.992   7.422  11.377
  637W        W 4688   1.395   6.675   2.175
  638W        W 4689   3.594  10.378  10.475
  639W        W 4690   3.652   9.505   3.280
  640W        W 4691   0.718   6.742   9.052
  641W        W 4692   9.000   6.836   9.543
  642W        W 4693   8.683   6.671   1.658
  643W        W 4694  11.430   5.776   1.100
  644W        W 4695   3.613   1.837   2.644
  645W        W 4696  10.479   0.732   0.925
  646W        W 4697   1.814  10.175  11.279
  647W        W 4698   4.145   5.683  11.840
  648W        W 4699  11.295   7.448  11.787
  649W        W 4700   8.571   0.552  10.213
  650W        W 4701   6.241   9.745   0.366
  651W        W 4702   1.770   7.301   0.257
  652W        W 4703   4.070   0.449   1.409
  653W        W 4704   5.199   1.670  11.734
  654W        W 4705   8.114   7.117   9.954
  655W        W 4706   8.415   1.178  10.863
  656W        W 4707   5.097   4.465  11.213
  657W        W 4708   7.147   7.132   1.119
  658W        W 4709   0.817   1.814   2.386
  659W        W 4710   7.976   0.317   0.258
  660W        W 4711   5.182  10.030   3.124
  661W        W 4712   0.689   8.897  11.097
  662W        W 4713   5.178   1.821   3.114
  663W        W 4714   2.625   5.225   3.675
  664W        W 4715   5.740   3.155   2.138
  665W        W 4716   3.614   4.837   0.620
  666W        W 4717   8.932   3.764   0.739
  667W        W 4718   7.639   9.192   3.113
  668W        W 4719   7.450   8.179   2.064
  669W        W 4720   1.305  11.364  11.006
  670W        W 4721   0.994   3.052   9.677
  671W        W 4722   9.056   0.272  11.455
  672W        W 4723   5.813   5.789  11.870
  673W        W 4724   4.963  10.227  10.042
  674W        W 4725   3.570   7.022   9.614
  675W        W 4726   6.571  11.074  10.973
  676W        W 4727   9.613   5.519   9.467
  677W        W 4728   2.107   4.194  10.575
  678W        W 4729   7.456   4.225   1.926
  679W        W 4730   0.891   7.622   9.367
  680W        W 4731   2.475  10.359  10.078
  681W        W 4732   7.071  10.550   8.672
  682W        W 4733   7.179  11.121   0.394
  683W        W 4734   0.800   3.369  10.044
  684W        W 4735   4.701   6.176   0.807
  685W        W 4736   3.650   2.361  11.808
  686W        W 4737   2.191   6.246   2.972
  687W        W 4738   8.337   5.283   2.800
  688W        W 4739   8.821   3.773   9.120
  689W        W 4740  10.756   4.840   3.607
  690W        W 4741   5.852  10.548   0.181
  691W        W 4742   2.352  11.330   9.073
  692W        W 4743   5.707   1.787   1.012
  693W        W 4744   8.152   8.267   2.249
  694W        W 4745   2.295   1.725  11.920
  695W        W 4746   1.420   5.175   2.647
  696W        W 4747   5.492   2.656   0.954
  697W        W 4748   3.130   9.494   9.180
  698W        W 4749   2.994   4.141   0.227
  699W        W 4750   4.725   7.234   0.548
  700W        W 4751   9.953   0.814   3.440
  701W        W 4752  10.596   5.192   2.265
  702W        W 4753   8.082   4.601   9.465
  703W        W 4754   1.687   2.335   2.307
  704W        W 4755   9.279   3.256  10.943
  705W        W 4756   7.123   0.935  11.317
  706W        W 4757   9.597   8.992   0.887
  707W        W 4758   4.341   9.950  10.667
  708W        W 4759  10.657   3.224   0.683
  709W        W 4760   4.898   1.288   1.221
  710W        W 4761   1.254   9.781   9.833
  711W        W 4762   6.548   9.982   9.614
  712W        W 4763   2.179   8.638   1.619
  713W        W 4764   1.878   8.565  10.010
  714W        W 4765   9.333   9.411   2.275
  715W        W 4766   2.767   2.188   0.268
  716W        W 4767   3.130   3.183   1.795
  717W        W 4768  10.038   9.619   3.070
  718W        W 4769   0.232   0.586   0.114
  719W        W 4770   4.140   9.529  10.960
  720W        W 4771   5.095   9.390  11.092
  721W        W 4772   9.193   6.580  10.870
  722W        W 4773   8.174  10.041   9.070
  723W        W 4774   7.922   0.358  10.976
  724W        W 4775   8.104   1.446   1.879
  725W        W 4776   1.120   7.977  11.603
  726W        W 4777   7.165   3.658   1.239
  727W        W 4778   0.497   7.703   1.468
  728W        W 4779  10.326   0.234   1.008
  729W        W 4780   6.325   1.672   2.276
  730W        W 4781   2.579   5.564   3.300
  731W        W 4782   3.492   8.363  11.302
  732W        W 4783   0.694  10.377   1.335
  733W        W 4784   3.709   7.888  11.507
  734W        W 4785   5.196   3.063  11.584
  735W        W 4786   6.492   2.793   3.487
  736W        W 4787   0.781   0.616   3.175
  737W        W 4788   7.020   8.409   1.878
  738W        W 4789   5.643   7.797   9.891
  739W        W 4790   5.875  10.527   2.125
  740W        W 4791   0.502  11.038   0.661
  741W        W 4792   8.280   6.354  10.998
  742W        W 4793  11.439   7.635   9.642
  743W        W 4794   1.540   7.935  10.904
  744W        W 4795   2.202   1.270   1.006
  745W        W 4796   5.676   5.530   2.712
  746W        W 4797  10.013   8.170   1.082
  747W        W 4798   3.253  10.808   0.861
  748W        W 4799  10.837   8.687   8.825
  749W        W 4800   6.682   3.199   8.931
  750W        W 4801   2.740   4.209  11.204
  751W        W 4802  10.326   5.590   1.894
  752W        W 4803  11.456   4.537   1.679
  753W        W 4804   5.002   2.040   9.548
  754W        W 4805   8.554   7.211  11.171
  755W        W 4806  10.938   4.680   1.680
  756W        W 4807   4.807   2.677  10.974
  757W        W 4808   0.942   9.021   9.202
  758W        W 4809   7.134   4.259   9.995
  759W        W 4810   9.033   0.001   9.550
  760W        W 4811  11.443   5.688  10.745
  761W        W 4812   5.702   1.126   1.807
  762W        W 4813   0.691   0.313  10.954
  763W        W 4814  10.874   7.026   1.694
  764W        W 4815  10.142   4.484   9.899
  765W        W 4816   6.672   9.097  11.662
  766W        W 4817   2.085   6.842   3.641
  767W        W 4818   7.604   0.724   2.047
  768W        W 4819  10.025   5.691  10.645
  769W        W 4820   2.605   1.805   1.745
  770W        W 4821   4.209   1.750   3.074
  771W        W 4822   6.783   5.154   0.453
  772W        W 4823   1.953   0.685   0.198
  773W        W 4824   8.545   8.922   2.746
  774W        W 4825   5.070   6.696  10.331
  775W        W 4826   6.991   1.060   3.598
  776W        W 4827   9.710   4.975   3.892
  777W        W 4828   6.270   5.720   1.215
  778W        W 4829   0.842   5.069   1.704
  779W        W 4830   7.792   4.633  10.741
  780W        W 4831   0.045   8.588   9.474
  781W        W 4832   5.937  10.094  10.488
  782W        W 4833   4.803   5.672   2.086
  783W        W 4834  10.815   0.888   1.317
  784W        W 4835   6.676   2.604   9.356
  785W        W 4836   6.010   2.074   2.203
  786W        W 4837  10.302   0.220  10.706
  787W        W 4838  10.519   5.646  10.483
  788W        W 4839   9.316   7.644   3.388
  789W        W 4840   2.833   8.655   2.715
  790W        W 4841   1.214   9.661   1.749
  791W        W 4842   5.799  10.051   0.343
  792W        W 4843   6.595   3.181  11.164
  793W        W 4844   7.447   7.626   1.260
  794W        W 4845   5.571   1.797   3.441
  795W        W 4846   6.374  10.607  11.188
  796W        W 4847   7.423   7.718   2.297
  797W        W 4848   7.555   6.729  11.431
  798W        W 4849  10.547   6.581  10.372
  799W        W 4850   8.610   9.886   8.734
  800W        W 4851   9.126   8.974  11.143
  801W        W 4852  11.465   5.588   1.867
  802W        W 4853   0.886  10.065   0.368
  803W        W 4854   2.714   6.601  10.948
  804W        W 4855  10.361   5.083   3.141
  805W        W 4856   9.983   1.705  10.270
  806W        W 4857   6.426   3.773   9.598
  807W        W 4858   1.324   5.486   3.210
  808W        W 4859   0.057  11.350  10.661
  809W        W 4860   9.563   0.218   0.549
  810W        W 4861   5.076   0.462   0.788
  811W        W 4862   3.638   2.338   1.207
  812W        W 4863  10.006   0.255   0.277
  813W        W 4864   4.571   2.200   0.979
  814W        W 4865   2.544   8.326   0.804
  815W        W 4866   0.567   9.201   0.770
  816W        W 4867   5.917   7.824  11.974
  817W        W 4868   6.472   5.064   1.866
  818W        W 4869   4.774   8.318   1.532
  819W        W 4870   3.200   1.394   2.028
  820W        W 4871  10.418   0.607   9.400
  821W        W 4872   3.851   0.387   9.686
  822W        W 4873   6.356   7.213   9.499
  823W        W 4874   2.226   5.260   9.496
  824W        W 4875   5.458   0.799   9.862
  825W        W 4876   0.918   8.352   3.517
  826W        W 4877   5.635   9.924  11.826
  827W        W 4878   2.177   3.373   2.794
  828W        W 4879  11.380   7.023  10.522
  829W        W 4880   2.718   4.498   0.951
  830W        W 4881   1.457   9.913   9.376
  831W        W 4882   7.056   4.831   0.750
  832W        W 4883   1.815   8.152   1.372
  833W        W 4884   7.856   4.186   8.701
  834W        W 4885  10.963   2.074   2.239
  835W        W 4886  11.306   9.915   0.781
  836W        W 4887   1.202   0.579   2.869
  837W        W 4888   7.789  10.666   0.790
  838W        W 4889   0.675   8.882   2.748
  839W        W 4890  10.012   5.645   0.952
  840W        W 4891   8.064  10.759   1.224
  841W        W 4892   6.317   9.163   3.188
  842W        W 4893   1.519   6.252   9.884
  843W        W 4894   6.435   0.292  11.664
  844W        W 4895   0.960   8.407   9.864
  845W        W 4896   6.683   9.415   1.074
  846W        W 4897  10.832   2.148   1.744
  847W        W 4898   4.202  10.798   2.466
  848W        W 4899   2.661   3.681   2.047
  849W        W 4900   7.865   0.344   2.715
  850W        W 4901   6.524   8.112  11.352
  851W        W 4902   0.666   2.149   1.725
  852W        W 4903   0.796   0.829   0.711
  853W        W 4904   1.301   3.138  11.577
  854W        W 4905  11.342   4.014   3.532
  855W        W 4906   2.369   2.465   0.459
  856W        W 4907   8.373   7.495   2.317
  857W        W 4908   1.203   9.409   9.473
  858W        W 4909   4.274  11.273  11.378
  859W        W 4910   1.754   5.085   1.672
  860W        W 4911   3.820   9.265   0.446
  861W        W 4912   3.486  11.381  11.981
  862W        W 4913   7.506   5.007   0.941
  863W        W 4914   2.539   4.634  11.772
  864W        W 4915   7.738   1.419   0.562
  865W        W 4916   7.909   1.932   0.709
  866W        W 4917   0.928   2.697   8.438
  867W        W 4918   3.164   7.505   1.069
  868W        W 4919   2.711   4.094   1.261
  869W        W 4920   6.976   0.310   2.751
  870W        W 4921   2.535   8.058   8.200
  871W        W 4922   4.918   2.849   4.014
  872W        W 4923   4.294   3.362  11.475
  873W        W 4924   2.253   3.791   1.326
  874W        W 4925  11.182   7.694   0.793
  875W        W 4926   1.010   8.912   0.414
  876W        W 4927   8.468   1.784   3.177
  877W        W 4928   1.350  10.043  11.740
  878W        W 4929   9.946   8.958   9.353
  879W        W 4930   0.353   2.733   0.051
  880W        W 4931   9.841   7.437   8.541
  881W        W 4932   3.926   2.157   2.891
  882W        W 4933   6.955   5.847  10.357
  883W        W 4934   4.223   2.172   3.378
  884W        W 4935   4.327   0.846   2.196
  885W        W 4936   7.735  10.179   0.595
  886W        W 4937   0.487   6.265   1.642
  887W        W 4938   0.286   1.900  10.298
  888W        W 4939  11.420   4.670  10.567
  889W        W 4940   3.584   0.475   2.719
  890W        W 4941   5.703   1.323   0.771
  891W        W 4942   1.134  10.451   9.532
  892W        W 4943  10.862  10.424   9.273
  893W        W 4944   6.274  10.226   0.216
  894W        W 4945   4.533  11.150   9.192
  895W        W 4946   4.171   4.714   2.818
  896W        W 4947   6.639   9.491  10.479
  897W        W 4948  11.312   7.654   9.135
  898W        W 4949  10.311   9.557  10.552
  899W        W 4950   3.906   6.162  10.646
  900W        W 4951   4.100   4.133   9.306
  901W        W 4952   1.676   9.511   8.616
  902W        W 4953   1.326   8.692   1.066
  903W        W 4954   0.864   6.340   2.930
  904W        W 4955   3.607  11.438   9.549
  905W        W 4956   4.843   8.396   2.840
  906W        W 4957   8.314  10.219   2.788
  907W        W 4958   5.559  10.586   2.968
  908W        W 4959   7.580   8.448  10.361
  909W        W 4960   0.122   1.530  11.922
  910W        W 4961   5.973   3.152   0.091
  911W        W 4962   0.642   7.064   9.487
  912W        W 4963   3.418   8.879   1.948
  913W        W 4964  11.281   8.052   3.060
  914W        W 4965   1.710   7.352   2.930
  915W        W 4966   3.066   5.308   8.269
  916W        W 4967   8.143   2.814  11.298
  917W        W 4968   9.270   0.465   2.735
  918W        W 4969   8.621   1.059   2.616
  919W        W 4970   9.366   2.154   0.279
  920W        W 4971  10.968  10.585   0.776
  921W        W 4972   2.273   9.093   9.989
  922W        W 4973   6.654   2.016   1.467
  923W        W 4974   5.768   1.641   1.915
  924W        W 4975   4.286   0.721  11.371
  925W        W 4976   6.135   3.819   0.397
  926W        W 4977   4.746   6.279  10.314
  927W        W 4978   0.309   2.263  10.866
  928W        W 4979   8.021   7.999   1.357
  929W        W 4980   6.588  10.446  10.751
  930W        W 4981   2.126   4.298   0.517
  931W        W 4982   3.174   5.528  10.506
  932W        W 4983   4.489   8.845   9.341
  933W        W 4984  10.389   2.409  10.935
  934W        W 4985   9.712   4.121   1.858
  935W        W 4986   1.495   6.346   3.514
  936W        W 4987   5.125   1.992   3.611
  937W        W 4988   3.275  10.183   2.686
  938W        W 4989   8.551   3.353   3.078
  939W        W 4990   6.193   1.381   2.696
  940W        W 4991  11.019   3.640   1.419
  941W        W 4992   8.563   6.132   9.195
  942W        W 4993  11.110   8.100   3.536
  943W        W 4994   8.048  11.449   8.943
  944W        W 4995   5.933  10.406   2.630
  945W        W 4996   3.583   6.370   2.687
  946W        W 4997   3.666   3.716   3.049
  947W        W 4998   9.430  10.545  10.282
  948W        W 4999   0.437   7.027   2.559
  949W        W 5000   2.092   9.995   2.862
  950W        W 5001   9.768   3.276  11.856
  951W        W 5002   7.602   2.230  10.917
  952W        W 5003   9.022  11.078   0.392
  953W        W 5004   9.295   5.103   1.453
  954W        W 5005   6.760   8.902   9.203
  955W        W 5006   8.279   9.163  11.775
  956W        W 5007   5.713   3.778   1.625
  957W        W 5008   1.328   3.769   2.869
  958W        W 5009   5.247   8.020   9.696
  959W        W 5010   0.994   1.697   1.474
  960W        W 5011   0.269   9.494   1.481
  961W        W 5012  10.400   3.276   2.185
  962W        W 5013   2.640  10.914   8.963
  963W        W 5014   5.781   7.203  11.256
  964W        W 5015   1.348   0.437   3.365
  965W        W 5016   8.603   5.903  10.972
  966W        W 5017   5.167   4.636  11.754
  967W        W 5018   1.028   0.641   1.707
  968W        W 5019   5.564   7.547  10.941
  969W        W 5020   2.081   5.966  10.959
  970W        W 5021   9.484   5.192   3.424
  971W        W 5022   3.755   8.032   8.917
  972W        W 5023   4.142   7.675   9.043
  973W        W 5024   7.151   2.322   3.001
  974W        W 5025   8.736   4.951  10.783
  975W        W 5026   0.803   0.223   1.900
  976W        W 5027   4.362   1.319   1.362
  977W        W 5028   6.994   2.755   8.991
  978W        W 5029   7.647   3.845   3.270
  979W        W 5030   0.011   4.255   0.126
  980W        W 5031   2.667   8.526   1.718
  981W        W 5032  10.888  10.371   0.320
  982W        W 5033   3.136   2.908   9.158
  983W        W 5034   1.428   2.768  10.984
  984W        W 5035   3.267   9.867   8.843
  985W        W 5036   5.045   5.874  11.368
  986W        W 5037   5.127   9.638   8.079
  987W        W 5038  10.961   8.125   2.663
  988W        W 5039   6.474   9.118   1.862
  989W        W 5040   5.652  10.143   8.565
  990W        W 5041   7.048   8.407   9.069
  991W        W 5042   5.999   5.522   9.670
  992W        W 5043   8.877   5.513  10.581
  993W        W 5044   7.458   3.598   0.772
  994W        W 5045   6.297   2.636   2.831
  995W        W 5046   8.097   5.527   0.688
  996W        W 5047   1.428   6.266   9.002
  997W        W 5048   6.677   0.058  10.847
  998W        W 5049   8.092   6.439   0.290
  999W        W 5050  10.569   4.496   9.626
 1000W        W 5051   9.594   3.562   2.653
 1001W        W 5052   4.163   2.830  10.037
 1002W        W 5053   0.348   4.543   9.806
 1003W        W 5054  10.002   9.078  11.536
 1004W        W 5055   2.622   6.565   2.934
 1005W        W 5056   3.290  10.519   3.195
 1006W        W 5057   9.846   1.701   3.488
 1007W        W 5058   9.441   5.552  11.755
 1008W        W 5059   7.990   9.991   3.217
 1009W        W 5060   1.238   4.544   9.859
 1010W        W 5061   9.035   9.372  11.477
 1011W        W 5062   3.604   0.406   0.028
 1012W        W 5063   3.052   3.088   8.405
 1013W        W 5064   0.245   9.113   0.053
 1014W        W 5065   8.184   8.984   0.558
 1015W        W 5066   9.724   6.686   0.507
 1016W        W 5067   9.317   9.381   9.923
 1017W        W 5068   5.244   1.931   0.735
 1018W        W 5069   3.152   2.388   2.147
 1019W        W 5070   9.318   5.912   1.937
 1020W        W 5071   0.940   1.538  11.089
 1021W        W 5072   2.876   1.630  10.501
 1022W        W 5073   3.785   0.273   9.185
 1023W        W 5074   0.383   6.471   3.295
 1024W        W 5075   1.854   3.630   9.406
 1025W        W 5076   9.953  10.028   3.356
 1026W        W 5077   5.953   0.509   9.288
 1027W        W 5078  11.383   7.008   1.707
 1028W        W 5079   7.659   2.613  11.941
 1029W        W 5080   8.424   0.257   0.495
 1030W        W 5081   5.771  10.926   9.207
 1031W        W 5082   8.437   8.103   9.101
 1032W        W 5083   0.297   5.173   2.995
 1033W        W 5084   4.804   8.864   0.886
 1034W        W 5085   0.504   4.004  11.893
 1035W        W 5086   0.394   6.277   9.745
 1036W        W 5087   8.740   1.467  11.766
 1037W        W 5088  11.231  11.143  10.285
 1038W        W 5089   2.599   8.122   2.061
 1039W        W 5090   3.626   8.412   9.735
 1040W        W 5091   7.844   6.976   2.574
 1041W        W 5092   9.568   2.390  11.111
 1042W        W 5093   6.920   0.816   1.292
 1043W        W 5094   6.275   6.402   8.569
 1044W        W 5095   2.188   8.319  10.709
 1045W        W 5096   0.928   1.358   9.122
 1046W        W 5097   2.075   6.833   9.535
 1047W        W 5098   9.777  10.268   8.997
 1048W        W 5099  11.072   7.708  10.506
 1049W        W 5100   1.171   1.990   0.713
 1050W        W 5101   8.579   9.971   1.148
 1051W        W 5102   6.047   8.174   3.038
 1052W        W 5103  11.042   9.849   0.355
 1053W        W 5104   4.798   9.823   2.609
 1054W        W 5105   6.137   1.388   1.151
 1055W        W 5106   1.768  11.228  11.100
 1056W        W 5107   9.427   6.652   0.097
 1057W        W 5108   8.270   0.271   3.031
 1058W        W 5109   2.445   0.704   0.312
 1059W        W 5110   2.576   6.109  11.034
 1060W        W 5111   3.776   0.070   0.376
 1061W        W 5112   8.009   8.965   1.575
 1062W        W 5113   6.646   8.891   0.354
 1063W        W 5114   0.903   3.422  11.424
 1064W        W 5115   0.856   6.785  10.904
 1065W        W 5116   8.189   6.684   1.759
 1066W        W 5117   2.435   4.842   1.183
 1067W        W 5118   9.400   2.422  10.642
 1068W        W 5119   5.079   2.633   1.277
 1069W        W 5120   0.890   3.646  10.887
 1070W        W 5121   7.560   7.224   0.314
 1071W        W 5122  10.138   7.927   0.672
 1072W        W 5123   6.713   9.314   9.995
 1073W        W 5124   9.876  10.098   1.802
 1074W        W 5125   2.196   4.667   0.159
 1075W        W 5126   2.204   7.936   2.348
 1076W        W 5127  11.167   6.479  11.257
 1077W        W 5128  10.937  10.020  10.063
 1078W        W 5129   1.597   2.375   1.451
 1079W        W 5130   6.525   1.700   0.997
 1080W        W 5131   1.926   1.339   9.407
 1081W        W 5132  11.377   7.222   0.817
 1082W        W 5133   9.858  10.836   9.927
 1083W        W 5134   1.170   9.585   0.870
 1084W        W 5135   0.753   2.368  11.323
 1085W        W 5136   9.502  10.365   0.036
 1086W        W 5137   9.331   7.634   1.015
 1087W        W 5138  10.889   7.205   3.053
 1088W        W 5139   6.588   1.506   1.475
 1089W        W 5140   5.531   6.686   1.815
 1090W        W 5141   9.413   1.910  11.056
 1091W        W 5142   9.300   1.431  11.828
 1092W        W 5143   4.705   7.756   2.943
 1093W        W 5144   6.554   3.736  10.907
 1094W        W 5145   5.177   8.006   2.998
 1095W        W 5146   9.521   8.879  10.793
 1096W        W 5147   9.505   1.626   1.502
 1097W        W 5148   2.894   9.468   2.200
 1098W        W 5149  11.306   5.102   2.858
 1099W        W 5150   7.620   9.319  10.495
 1100W        W 5151   2.872   0.938  11.426
 1101W        W 5152   2.176   4.390   9.824
 1102W        W 5153   3.771   7.976  11.011
 1103W        W 5154   5.156   6.656  10.848
 1104W        W 5155   9.744   7.010   0.929
 1105W        W 5156   0.214   2.857   8.974
 1106W        W 5157   3.692  10.349   2.905
 1107W        W 5158   3.208  11.369  10.630
 1108W        W 5159  10.955  10.836   2.524
 1109W        W 5160  10.845   6.356   2.735
 1110W        W 5161  11.142  11.117  11.533
 1111W        W 5162   0.380   6.023  10.753
 1112W        W 5163   8.185   2.788   1.243
 1113W        W 5164   7.501   2.657   9.045
 1114W        W 5165   7.083   7.018   2.062
 1115W        W 5166   0.337   9.021   3.106
 1116W        W 5167   9.848   1.833   1.160
 1117W        W 5168   2.906   5.497   0.715
 1118W        W 5169   7.944   8.360  11.334
 1119W        W 5170   7.899   0.688   3.094
 1120W        W 5171   9.001   8.681   2.772
 1121W        W 5172   2.078   0.903   0.653
 1122W        W 5173   8.014   3.850  10.100
 1123W        W 5174   9.372   7.415   9.849
 1124W        W 5175   0.837   0.494   8.861
 1125W        W 5176   4.765   4.352   2.940
 1126W        W 5177   7.031   5.029  11.327
 1127W        W 5178  11.008   4.063   0.613
 1128W        W 5179   4.412   1.283   2.747
 1129W        W 5180   2.473   4.210  10.204
 1130W        W 5181   6.419   2.805   1.675
 1131W        W 5182   3.336   0.457   9.444
 1132W        W 5183   7.030   2.973   9.843
 1133W        W 5184   5.176   4.037   8.381
 1134W        W 5185   0.052   2.890  11.270
 1135W        W 5186   6.823  10.751   0.579
 1136W        W 5187   2.703  10.814   9.928
 1137W        W 5188   4.561   2.209  11.959
 1138W        W 5189   7.092   6.516  11.427
 1139W        W 5190  10.266   4.039  10.426
 1140W        W 5191   7.878   5.014   1.461
 1141W        W 5192   6.334   3.299   3.271
 1142W        W 5193   4.291   4.221   2.657
 1143W        W 5194  11.355   7.518   3.181
 1144W        W 5195   1.238   6.676   9.765
 1145W        W 5196   9.454   4.040   2.814
 1146W        W 5197   4.729   4.096   8.640
 1147W        W 5198  10.022   8.613   1.952
 1148W        W 5199   0.893   7.708  10.666
 1149W        W 5200   8.980   5.642   0.962
 1150W        W 5201   0.921   0.226  10.203
 1151W        W 5202   1.155  10.211   2.743
 1152W        W 5203  10.111   3.048  10.559
 1153W        W 5204  11.005   1.171   0.572
 1154W        W 5205   4.598   2.255   2.382
 1155W        W 5206   7.336   1.475   9.082
 1156W        W 5207   3.815   0.396  10.196
 1157W        W 5208   2.468   1.798   8.814
 1158W        W 5209   6.663  10.915   8.723
 1159W        W 5210   3.822   4.612  11.362
 1160W        W 5211   6.207   2.983  10.315
 1161W        W 5212   3.035   5.539   8.810
 1162W        W 5213   0.269   3.153  10.840
 1163W        W 5214   2.445   4.629  11.264
 1164W        W 5215   0.113   1.811   8.892
 1165W        W 5216   4.231   5.034   9.540
 1166W        W 5217  10.051   1.803   2.641
 1167W        W 5218   9.075   4.287   2.569
 1168W        W 5219  11.261   3.114  10.876
 1169W        W 5220   8.364   1.751   0.868
 1170W        W 5221   1.273   8.455  11.550
 1171W        W 5222   6.936   6.225   9.165
 1172W        W 5223  11.388   3.187   1.360
 1173W        W 5224  10.666   1.869   3.897
 1174W        W 5225   1.170  10.270  10.441
 1175W        W 5226   9.087   9.034   1.989
 1176W        W 5227   9.001   1.892  11.939
 1177W        W 5228   4.286   9.948   2.774
 1178W        W 5229   8.943   6.924   1.210
 1179W        W 5230   6.872   3.096   9.386
 1180W        W 5231   6.225   8.528  11.278
 1181W        W 5232   9.420   3.588   3.135
 1182W        W 5233   8.560   2.049   1.286
 1183W        W 5234   8.504   8.006   2.739
 1184W        W 5235   9.842   9.295  10.639
 1185W        W 5236   7.485   2.775   2.334
 1186W        W 5237   8.958   7.127  10.863
 1187W        W 5238  10.821   9.788   1.891
 1188W        W 5239   4.742   9.470   8.481
 1189W        W 5240   8.165   1.807   2.274
 1190W        W 5241   8.013   6.436  11.442
 1191W        W 5242   7.581   5.307  10.613
 1192W        W 5243   7.034   9.059   0.011
 1193W        W 5244   7.109  10.984   9.026
 1194W        W 5245   8.858   4.552   8.657
 1195W        W 5246   4.169   2.583   3.019
 1196W        W 5247   5.673   3.853   0.727
 1197W        W 5248   1.249   6.540  11.273
 1198W        W 5249   8.525   8.972   3.249
 1199W        W 5250   4.167   0.445   8.857
 1200W        W 5251   8.715  10.909   0.983
 1201W        W 5252   6.562   8.443   9.712
 1202W        W 5253   2.319   8.653  10.339
 1203W        W 5254   0.492   1.186  11.804
 1204W        W 5255   0.449   4.394   1.711
 1205W        W 5256   0.383   0.471   2.077
 1206W        W 5257  11.291  10.780   0.404
 1207W        W 5258  10.530   4.815  10.025
 1208W        W 5259   1.843   1.746  10.114
 1209W        W 5260   6.458   4.757   0.380
 1210W        W 5261   1.210   5.000   3.179
 1211W        W 5262  10.323   6.290  11.235
 1212W        W 5263   6.141   9.632  10.564
 1213W        W 5264  10.979   7.830   1.750
 1214W        W 5265   3.295   8.334   8.932
 1215W        W 5266   2.287   6.182   9.308
 1216W        W 5267   9.847   5.508   8.684
 1217W        W 5268  10.399   2.138   9.592
 1218W        W 5269   1.822   0.225   2.724
 1219W        W 5270   3.380   1.281   8.787
 1220W        W 5271   7.192   7.295  10.074
 1221W        W 5272   8.609  10.784   0.488
 1222W        W 5273   6.408   7.990   9.032
 1223W        W 5274   6.593   5.427   0.070
 1224W        W 5275   7.469   1.540   2.377
 1225W        W 5276   6.765   9.530   3.199
 1226W        W 5277   3.442   8.630  11.768
 1227W        W 5278   5.907   2.944   0.853
 1228W        W 5279  10.882   5.564  10.070
 1229W        W 5280   2.412   1.778  11.406
 1230W        W 5281   7.206  10.629   0.221
 1231W        W 5282   0.033  10.887   0.859
 1232W        W 5283   3.284   7.474   2.036
 1233W        W 5284   8.908   7.574  11.102
 1234W        W 5285   6.236  10.040  10.923
 1235W        W 5286   3.733  10.933  10.019
 1236W        W 5287  10.094   9.090   1.800
 1237W        W 5288   3.801   7.023   0.515
 1238W        W 5289   9.420   7.166   1.852
 1239W        W 5290   3.617   9.357   9.284
 1240W        W 5291   3.837   9.854   1.216
 1241W        W 5292   1.329   5.318   9.485
 1242W        W 5293  11.330   8.565   8.997
 1243W        W 5294   8.281   6.345   8.813
 1244W        W 5295   6.886  11.424   3.280
 1245W        W 5296   2.384   1.336   9.140
 1246W        W 5297   6.360   9.178  11.277
 1247W        W 5298   3.118   1.851   9.525
 1248W        W 5299   6.562   2.471  11.907
 1249W        W 5300   3.714   9.792   2.058
 1250W        W 5301   6.172  11.062  11.300
 1251W        W 5302   7.167   7.034   0.580
 1252W        W 5303   2.333   9.856   1.768
 1253W        W 5304   8.497   9.412  11.059
 1254W        W 5305   5.518   5.655   9.571
 1255W        W 5306   7.649   7.995  10.137
 1256W        W 5307   1.148   0.309  11.206
 1257W        W 5308   1.312   8.144   1.930
 1258W        W 5309   7.546  10.862  11.445
 1259W        W 5310   1.686   4.549   9.572
 1260W        W 5311   8.884   1.642   2.881
 1261W        W 5312   5.145   8.638   0.301
 1262W        W 5313   5.626  10.004   1.480
 1263W        W 5314   9.847  10.255  10.342
 1264W        W 5315   9.021   3.673   8.668
 1265W        W 5316   5.653   8.667   0.456
 1266W        W 5317   2.019  11.298  11.921
 1267W        W 5318   7.444   4.001  11.934
 1268W        W 5319   4.583   6.734   2.916
 1269W        W 5320   5.330   5.051   2.582
 1270W        W 5321   9.484   3.023   2.480
 1271W        W 5322   9.156   1.235  10.040
 1272W        W 5323   0.645   0.548  10.504
 1273W        W 5324   4.533  10.354   8.538
 1274W        W 5325   1.234   3.545   9.859
 1275W        W 5326   0.738   0.057  11.403
 1276W        W 5327   0.645   7.150   1.293
 1277W        W 5328  10.451  10.820  11.025
 1278W        W 5329   1.919   5.044   2.627
 1279W        W 5330   1.481   9.739   1.267
 1280W        W 5331   3.661   2.336   0.699
 1281W        W 5332   6.716   6.857   2.365
 1282W        W 5333   8.454   7.095   0.329
 1283W        W 5334   5.261   3.295   2.244
 1284W        W 5335   0.211   2.309   9.120
 1285W        W 5336   1.747   6.876   2.723
 1286W        W 5337   5.276   0.157   0.401
 1287W        W 5338   0.072  10.308   2.329
 1288W        W 5339   6.739  10.006  11.005
 1289W        W 5340   6.012   8.498  11.787
 1290W        W 5341   8.036   7.245  11.126
 1291W        W 5342   9.826   9.412   0.679
 1292W        W 5343   2.398  11.331   0.273
 1293W        W 5344   2.359   9.440   0.398
 1294W        W 5345   8.529   5.613   3.567
 1295W        W 5346   4.238   3.554   0.925
 1296W        W 5347   6.975   2.351  10.986
 1297W        W 5348   8.428   3.272   9.514
 1298W        W 5349   9.182  10.090   0.402
 1299W        W 5350  10.170   8.597  11.580
 1300W        W 5351  11.381   8.638   9.943
 1301W        W 5352   6.519   0.635   0.060
 1302W        W 5353   6.155  10.952   3.358
 1303W        W 5354   0.151   7.196   9.820
 1304W        W 5355   2.922   7.524   2.991
 1305W        W 5356   0.421   9.026   1.733
 1306W        W 5357  10.528   8.489  11.938
 1307W        W 5358   7.209   5.660   1.079
 1308W        W 5359   3.373   5.289   9.167
 1309W        W 5360   9.884   8.128   2.813
 1310W        W 5361   2.909   5.475   1.743
 1311W        W 5362   2.415   3.285   1.173
 1312W        W 5363   3.887   1.284   8.628
 1313W        W 5364   8.695   6.669  10.837
 1314W        W 5365  10.415   1.499  10.449
 1315W        W 5366   7.123   6.510   3.132
 1316W        W 5367  11.472   6.135   0.011
 1317W        W 5368   0.160   1.083   0.240
 1318W        W 5369  11.453   3.383  10.451
 1319W        W 5370   8.850   3.189   8.572
 1320W        W 5371   0.077   6.093   1.911
 1321W        W 5372   5.984   4.094   9.476
 1322W        W 5373   9.895   3.708   0.659
 1323W        W 5374   4.656   8.531   0.468
 1324W        W 5375  10.828   3.472   2.418
 1325W        W 5376   0.483  10.015   2.216
 1326W        W 5377   5.047  11.453   0.844
 1327W        W 5378   7.276   6.199  10.619
 1328W        W 5379   3.780  11.138  11.421
 1329W        W 5380   2.661   9.289  11.962
 1330W        W 5381  10.614   7.867   0.516
 1331W        W 5382   1.711   4.873  11.048
 1332W        W 5383   6.903  11.367   9.487
 1333W        W 5384   1.875   8.835   0.278
 1334W        W 5385   8.563   2.330   2.345
 1335W        W 5386   3.675   2.851   0.722
 1336W        W 5387  10.668  11.417   0.683
 1337W        W 5388   2.878   4.197   2.645
 1338W        W 5389   3.129   0.324   1.509
 1339W        W 5390   0.269   5.527   9.803
 1340W        W 5391   6.300  10.448  10.320
 1341W        W 5392   4.922   0.654   1.671
 1342W        W 5393   0.253   3.132   0.398
 1343W        W 5394   2.965   0.133  10.178
 1344W        W 5395   0.490   3.099  11.426
 1345W        W 5396   1.990   8.118  11.869
 1346W        W 5397   4.640   7.604  11.566
 1347W        W 5398   7.332   0.542   8.925
 1348W        W 5399   6.586   7.883   2.321
 1349W        W 5400   7.549   2.286   0.771
 1350W        W 5401   3.734   5.174   0.244
 1351W        W 5402   3.718   4.494   1.906
 1352W        W 5403   8.150   4.653   8.683
 1353W        W 5404   7.852   8.459  11.932
 1354W        W 5405   5.479   9.001   8.627
 1355W        W 5406   0.854   9.210   3.117
 1356W        W 5407   2.808   2.118  10.377
 1357W        W 5408   0.493   1.297   2.648
 1358W        W 5409   5.348  11.351   1.785
 1359W        W 5410  10.281   9.464  11.336
 1360W        W 5411  10.739  10.407   1.303
 1361W        W 5412   2.782   2.401   0.785
 1362W        W 5413   8.034   6.004   4.122
 1363W        W 5414   2.314  10.887  11.802
 1364W        W 5415   6.954   1.516   0.717
 1365W        W 5416   0.050   9.977   8.849
 1366W        W 5417   0.490   3.058   9.774
 1367W        W 5418  10.639   3.932   0.277
 1368W        W 5419   2.804   3.776   9.463
 1369W        W 5420   4.580   9.504  10.691
 1370W        W 5421   5.655   1.704   2.929
 1371W        W 5422   3.402   1.423   2.862
 1372W        W 5423   5.276   9.489   8.558
 1373W        W 5424   0.220   0.334  10.754
 1374W        W 5425  10.882  10.125  11.321
 1375W        W 5426   4.602  10.070   2.204
 1376W        W 5427   4.953   0.770   9.771
 1377W        W 5428   4.032   4.645   3.527
 1378W        W 5429  10.547   7.230  11.562
 1379W        W 5430   6.781   3.638   9.207
 1380W        W 5431   4.524   4.469   9.548
 1381W        W 5432   3.845   0.425  11.576
 1382W        W 5433  10.877   4.183   1.124
 1383W        W 5434   5.199   9.923   3.624
 1384W        W 5435   4.353   1.422   9.958
 1385W        W 5436   7.466   0.796   3.406
 1386W        W 5437   9.021   0.789   2.441
 1387W        W 5438   8.542   7.591   9.266
 1388W        W 5439   3.691   2.640   9.268
 1389W        W 5440   8.550   7.503   2.811
 1390W        W 5441   9.055   4.615   1.297
 1391W        W 5442   8.595   2.574   0.534
 1392W        W 5443   6.145   3.275   1.159
 1393W        W 5444   2.754   7.889   2.636
 1394W        W 5445   3.207  10.304   0.105
 1395W        W 5446  10.617   9.833  10.904
 1396W        W 5447   7.588   4.373   1.457
 1397W        W 5448   2.395   7.854  10.703
 1398W        W 5449   8.649   6.354  11.734
 1399W        W 5450   8.966   9.626  11.028
 1400W        W 5451   5.769   0.378   0.509
 1401W        W 5452   6.060   8.119   8.623
 1402W        W 5453   6.053   7.296   3.981
 1403W        W 5454   4.077  10.948   9.069
 1404W        W 5455   0.861   3.933  11.311
 1405W        W 5456   4.320   8.824   0.743
 1406W        W 5457   2.798   2.481  11.849
 1407W        W 5458   7.773   6.651   9.985
 1408W        W 5459   9.614   2.863   9.455
 1409W        W 5460  10.072   8.989   9.852
 1410W        W 5461   3.683   0.794   8.963
 1411W        W 5462   4.755   9.091  11.454
 1412W        W 5463   8.790  10.913   2.355
 1413W        W 5464   3.895   5.276  10.577
 1414W        W 5465   6.686   3.742   0.235
 1415W        W 5466   8.037   9.616   9.870
 1416W        W 5467   9.108   5.733   2.787
 1417W        W 5468   7.658   4.154  11.039
 1418W        W 5469  10.712   9.797  11.773
 1419W        W 5470   3.143   9.082  10.149
 1420W        W 5471   5.818   5.214  11.619
 1421W        W 5472   3.390   6.070  10.687
 1422W        W 5473   6.499   6.674   1.670
 1423W        W 5474   9.543   6.150  10.810
 1424W        W 5475   6.934  10.873  10.662
 1425W        W 5476   8.144   8.999   1.069
 1426W        W 5477   3.319   8.073  10.237
 1427W        W 5478   4.249   2.319  10.441
 1428W        W 5479  10.848   2.792   9.188
 1429W        W 5480   0.532  10.958   1.169
 1430W        W 5481   0.973  11.281   1.386
 1431W        W 5482   8.908   7.338   9.541
 1432W        W 5483   2.168   3.404   1.884
 1433W        W 5484   9.183   7.084  11.948
 1434W        W 5485   2.923   7.865  11.927
 1435W        W 5486   2.394   0.551   1.995
 1436W        W 5487   1.161   9.645   2.917
 1437W        W 5488   8.827   0.744  11.473
 1438W        W 5489   2.937   3.023   3.111
 1439W        W 5490   4.280   2.808   0.355
 1440W        W 5491   4.644   4.268   9.105
 1441W        W 5492   4.715   2.962   1.443
 1442W        W 5493   5.208   5.615  10.957
 1443W        W 5494   5.758  11.067   3.008
 1444W        W 5495  11.059   6.064   9.913
 1445W        W 5496   1.268   4.811   9.416
 1446W        W 5497   2.323   4.351   8.444
 1447W        W 5498   2.394   2.687  11.579
 1448W        W 5499   5.793   7.122  10.412
 1449W        W 5500   1.258   1.107  11.129
 1450W        W 5501   8.713   4.259   9.190
 1451W        W 5502   7.384   5.202   1.837
 1452W        W 5503   5.132   1.704  11.251
 1453W        W 5504   6.614   6.128  10.029
 1454W        W 5505   6.601   4.496   2.513
 1455W        W 5506   1.185   5.660   1.323
 1456W        W 5507  10.302   0.643   0.100
 1457W        W 5508   3.091   8.882   2.339
 1458W        W 5509   3.422  10.757  10.873
 1459W        W 5510   8.112   4.099   3.139
 1460W        W 5511   3.155   3.522   2.748
 1461W        W 5512   4.702  10.948   9.688
 1462W        W 5513   9.871   0.271  10.342
 1463W        W 5514   5.691   3.404   8.954
 1464W        W 5515   9.082   4.597  10.956
 1465W        W 5516  10.651   1.787   0.879
 1466W        W 5517   5.251   3.724   1.350
 1467W        W 5518   9.101   4.160   8.886
 1468W        W 5519   9.735   5.287   1.227
 1469W        W 5520   9.934   8.143   0.272
 1470W        W 5521  10.385  10.940   3.247
 1471W        W 5522  10.106   2.378   2.835
 1472W        W 5523   1.268   2.383   1.062
 1473W        W 5524   7.076   0.308   1.305
 1474W        W 5525   2.166   2.060  10.996
 1475W        W 5526   7.376   7.218   2.444
 1476W        W 5527   0.009   9.568   2.755
 1477W        W 5528   9.140   6.605   9.113
 1478W        W 5529   3.143   8.953   9.153
 1479W        W 5530   4.108   9.558  10.423
 1480W        W 5531   1.914   2.226   0.442
 1481W        W 5532   4.826  10.574   1.299
 1482W        W 5533   6.222   6.226   3.011
 1483W        W 5534   3.708   5.398  11.776
 1484W        W 5535   0.132   8.896   2.139
 1485W        W 5536   6.046   6.244  11.959
 1486W        W 5537   0.892   6.446   1.911
 1487W        W 5538   5.197   3.624  10.990
 1488W        W 5539   9.271   6.305  11.294
 1489W        W 5540   8.959   3.249  10.518
 1490W        W 5541   4.583   0.259  11.975
 1491W        W 5542   1.759   9.207  11.358
 1492W        W 5543   9.682   0.588   9.464
 1493W        W 5544   9.747   0.770  11.445
 1494W        W 5545  10.375  11.349   1.874
 1495W        W 5546  10.803   1.324  11.083
 1496W        W 5547   3.745   3.360  10.916
 1497W        W 5548   0.457   3.823   2.324
 1498W        W 5549   4.590   0.744   0.757
 1499W        W 5550   9.033   8.098  10.174
 1500W        W 5551  10.809   0.308   1.018
 1501W        W 5552  10.151  10.407   9.971
 1502W        W 5553   8.550  11.233   0.187
 1503W        W 5554   1.004  10.604   2.463
 1504W        W 5555   4.971  11.326   2.670
 1505W        W 5556   5.435   4.037   3.578
 1506W        W 5557   1.988   9.890   9.395
 1507W        W 5558   4.903   1.178   2.607
 1508W        W 5559   6.643   2.673  10.388
 1509W        W 5560   5.166   3.964   4.004
 1510W        W 5561   9.139   6.338   8.684
 1511W        W 5562   8.906   7.422   1.226
 1512W        W 5563  10.596   4.303  10.110
 1513W        W 5564   2.178   9.134  11.985
 1514W        W 5565   8.080   5.045   4.040
 1515W        W 5566   7.640   7.144   1.243
 1516W        W 5567   1.664   6.932   3.226
 1517W        W 5568   0.061   5.962   9.940
 1518W        W 5569   4.435  10.414  11.379
 1519W        W 5570   9.478   9.856   1.204
 1520W        W 5571   5.532   9.643  11.348
 1521W        W 5572   2.630   1.074   1.283
 1522W        W 5573   3.365   2.230   9.258
 1523W        W 5574  11.053   9.435  11.729
 1524W        W 5575   2.299   2.231   0.901
 1525W        W 5576   9.052   6.794   1.973
 1526W        W 5577   7.805   5.717   9.859
 1527W        W 5578  11.091   4.475  10.890
 1528W        W 5579   8.011   4.695   2.188
 1529W        W 5580   7.356   4.713  11.033
 1530W        W 5581   4.242  11.384   2.625
 1531W        W 5582   3.686   6.577   0.293
 1532W        W 5583   5.919   0.946   8.518
 1533W        W 5584  10.851   8.207   0.224
 1534W        W 5585  10.786   1.835  10.472
 1535W        W 5586   9.413   2.632   2.010
 1536W        W 5587   1.625   1.347   9.834
 1537W        W 5588   0.498  10.576   2.270
 1538W        W 5589   9.334  11.368  11.212
 1539W        W 5590   9.978  11.449   9.538
 1540W        W 5591   2.909   5.355   0.213
 1541W        W 5592   3.391   2.541  10.665
 1542W        W 5593   4.428   3.861  11.249
 1543W        W 5594   6.564   2.216   0.958
 1544W        W 5595   2.132   1.777   9.203
 1545W        W 5596   2.183  11.418  11.429
 1546W        W 5597   4.364   0.807   0.302
 1547W        W 5598   9.577   8.048  10.081
 1548W        W 5599   4.891   8.600  10.908
 1549W        W 5600   0.582   5.918   0.703
 1550W        W 5601   3.224   4.302  11.305
 1551W        W 5602   2.288   8.629   2.964
 1552W        W 5603   1.834   0.260   9.501
 1553W        W 5604   6.385   4.020  10.464
 1554W        W 5605   4.114  11.248  10.842
 1555W        W 5606   6.035   6.168   0.873
 1556W        W 5607   0.273   1.659   9.854
 1557W        W 5608   1.478  10.238   1.383
 1558W        W 5609   3.750   6.615   9.385
 1559W        W 5610   1.135   1.827   8.989
 1560W        W 5611   7.932   0.433   1.770
 1561W        W 5612   6.276   8.810   9.995
 1562W        W 5613   8.000   4.169  11.424
 1563W        W 5614   8.617   8.407   1.997
 1564W        W 5615   8.213   6.536   3.250
 1565W        W 5616   9.627   6.939   2.277
 1566W        W 5617   0.696  11.402   0.989
 1567W        W 5618   8.748   8.730   3.749
 1568W        W 5619  11.452   9.147  10.760
 1569W        W 5620   1.293   5.968   0.050
 1570W        W 5621   8.894   6.115   0.537
 1571W        W 5622   8.517   3.425   8.891
 1572W        W 5623   4.702   8.117  11.620
 1573W        W 5624  11.287   9.664   1.738
 1574W        W 5625   6.771   8.063   9.419
 1575W        W 5626   7.140  10.468   9.191
 1576W        W 5627  10.970  10.631  11.463
 1577W        W 5628   5.470   6.247   2.291
 1578W        W 5629   6.388   6.192   2.520
 1579W        W 5630   3.276   8.576  10.407
 1580W        W 5631   2.698   5.546   2.806
 1581W        W 5632   0.277   9.461  11.325
 1582W        W 5633   3.099   6.268   3.361
 1583W        W 5634   0.549   1.508   3.636
 1584W        W 5635   0.297   7.073  11.784
 1585W        W 5636   3.690   3.854  11.813
 1586W        W 5637   9.868   0.006   1.834
 1587W        W 5638  10.391   1.282  11.364
 1588W        W 5639   6.258   7.902   0.360
 1589W        W 5640  11.002  10.015   1.477
 1590W        W 5641  10.822   1.355   9.628
 1591W        W 5642  10.445   6.494  11.998
 1592W        W 5643   0.781   1.121   3.166
 1593W        W 5644   0.906   3.790   2.569
 1594W        W 5645   9.679   2.159   2.613
 1595W        W 5646   3.158   2.077  10.753
 1596W        W 5647   4.523   0.961  10.114
 1597W        W 5648   1.360   2.346   1.931
 1598W        W 5649   8.856   4.592   2.212
 1599W        W 5650   5.799   9.021   9.952
 1600W        W 5651  11.014   9.866   2.349
 1601W        W 5652   8.862   1.715   1.019
 1602W        W 5653   8.013   7.488   1.315
 1603W        W 5654   9.026   7.644   2.914
 1604W        W 5655  10.018   7.012   9.000
 1605W        W 5656   3.385   3.394   1.395
 1606W        W 5657   9.173   7.585  11.945
 1607W        W 5658  10.652   3.616   9.661
 1608W        W 5659   8.094  10.312  11.876
 1609W        W 5660  10.134   8.774   8.903
 1610W        W 5661   6.966   4.618  11.741
 1611W        W 5662   6.557   1.130   9.586
 1612W        W 5663   6.247   8.973   2.710
 1613W        W 5664  10.005   8.958  11.018
 1614W        W 5665   8.324   6.825   0.762
 1615W        W 5666   2.831  11.402   8.825
 1616W        W 5667   2.503   0.069  10.372
 1617W        W 5668   6.643  10.941   1.376
 1618W        W 5669   4.578   9.056  11.925
 1619W        W 5670   9.406   2.868   0.889
 1620W        W 5671   5.011   2.817   3.161
 1621W        W 5672   0.182  10.324   1.409
 1622W        W 5673   9.826   4.803   2.297
 1623W        W 5674  10.094   0.385   9.754
 1624W        W 5675   3.304   9.953   1.313
 1625W        W 5676  10.951   6.473   1.314
 1626W        W 5677   6.089   3.654   1.985
 1627W        W 5678   4.116   4.259  11.180
 1628W        W 5679   0.695  10.823   3.366
 1629W        W 5680   9.384   8.052   1.821
 1630W        W 5681   0.428   6.200  11.762
 1631W        W 5682   4.257  10.126   3.294
 1632W        W 5683   9.480   3.924   2.282
 1633W        W 5684   2.903   2.596  10.505
 1634W        W 5685   0.765   4.210   0.712
 1635W        W 5686   1.804   0.928   8.662
 1636W        W 5687   3.854   3.621  11.362
 1637W        W 5688   2.174   5.705   9.117
 1638W        W 5689   8.107   5.850  10.989
 1639W        W 5690   4.983   9.507   8.968
 1640W        W 5691   3.718   7.519   3.250
 1641W        W 5692   5.600   3.655   2.092
 1642W        W 5693   5.051   3.536   2.770
 1643W        W 5694   0.070   6.714   2.402
 1644W        W 5695  10.469   3.233   2.704
 1645W        W 5696   5.656   7.634   1.933
 1646W        W 5697   7.370   0.943   8.471
 1647W        W 5698   7.968   4.995  10.418
 1648W        W 5699   4.439   1.082  11.054
 1649W        W 5700   2.666   3.302   0.219
 1650W        W 5701   0.427   0.230   3.441
 1651W        W 5702   3.161   3.654  10.594
 1652W        W 5703   3.184   6.049   9.809
 1653W        W 5704   9.884   2.838   1.117
 1654W        W 5705   0.390   8.616  10.056
 1655W        W 5706   7.083   2.823   0.478
 1656W        W 5707   8.099  10.036   2.343
 1657W        W 5708   0.838   8.356  11.281
 1658W        W 5709   6.176   5.317   2.423
 1659W        W 5710   1.893   2.290   1.855
 1660W        W 5711   3.223   5.317   2.480
 1661W        W 5712   5.816   5.058   0.401
 1662W        W 5713   5.147   9.751  11.706
 1663W        W 5714   1.371   5.751   1.787
 1664W        W 5715   2.158   9.059   8.902
 1665W        W 5716  10.527   6.975   9.087
 1666W        W 5717   5.529   7.982   8.710
 1667W        W 5718   4.721   0.958   3.624
 1668W        W 5719   6.412   2.121   9.303
 1669W        W 5720   1.250   7.684   9.010
 1670W        W 5721  11.217   2.813   1.718
 1671W        W 5722   3.416   2.246   3.020
 1672W        W 5723  10.872   3.660   0.931
 1673W        W 5724  11.020   6.168   0.542
 1674W        W 5725   0.861   8.645  10.289
 1675W        W 5726   2.666   0.526  11.236
 1676W        W 5727  11.483   8.082   2.579
 1677W        W 5728   7.311  10.765   2.145
 1678W        W 5729  10.403   0.474   8.916
 1679W        W 5730   5.492   6.661   0.365
 1680W        W 5731   2.694   0.244   0.237
 1681W        W 5732   3.514   4.011   2.014
 1682W        W 5733   9.663   2.935  11.081
 1683W        W 5734   4.620   9.357   9.393
 1684W        W 5735   8.711   5.117   0.343
 1685W        W 5736   5.049   4.019   0.074
 1686W        W 5737   1.687   9.494   9.617
 1687W        W 5738   4.779   1.470  11.531
 1688W        W 5739   5.688   9.369  11.747
 1689W        W 5740   1.809   0.481   1.193
 1690W        W 5741   2.731   3.616   3.063
 1691W        W 5742  10.011   4.866   1.312
 1692W        W 5743   9.019   4.818   2.658
 1693W        W 5744   0.064   9.426   3.275
 1694W        W 5745   4.546   4.825   0.464
 1695W        W 5746  10.785   5.740   3.565
 1696W        W 5747   7.061   9.849   2.270
 1697W        W 5748   6.129   4.877  10.395
 1698W        W 5749  10.987   0.754   0.855
 1699W        W 5750   8.462  10.034  10.362
 1700W        W 5751   2.706   3.659   1.541
 1701W        W 5752   3.829  10.255   0.690
 1702W        W 5753  11.141   0.044  11.806
 1703W        W 5754   4.451   9.313   1.276
 1704W        W 5755   4.659  10.800   1.741
 1705W        W 5756   9.066  11.374  10.561
 1706W        W 5757   4.230   7.761  10.939
 1707W        W 5758   5.473  10.757   1.170
 1708W        W 5759   7.909   3.203  11.627
 1709W        W 5760   5.524   6.806  10.053
 1710W        W 5761  10.139   5.188  10.521
 1711W        W 5762   6.245   3.173   2.131
 1712W        W 5763   8.447   5.192   3.318
 1713W        W 5764  10.804   0.756   0.358
 1714W        W 5765  10.104   6.306  11.687
 1715W        W 5766   8.923   3.557   9.972
 1716W        W 5767   4.832   6.962   2.485
 1717W        W 5768   3.364   8.126  11.797
 1718W        W 5769   1.084   7.923  11.096
 1719W        W 5770   2.261   0.937   3.125
 1720W        W 5771   4.206   8.417   9.478
 1721W        W 5772   8.115   7.834   3.043
 1722W        W 5773   7.872  11.478  10.382
 1723W        W 5774   1.460   3.764   1.198
 1724W        W 5775   7.288   4.466   8.235
 1725W        W 5776   6.190  11.219   9.095
 1726W        W 5777   7.860   5.465   1.735
 1727W        W 5778   5.565   1.694   8.968
 1728W        W 5779   2.756   2.674   1.991
 1729W        W 5780   0.423   4.083   0.378
 1730W        W 5781   2.410   8.580   8.813
 1731W        W 5782   3.856  11.129   8.634
 1732W        W 5783   8.404  10.940  11.781
 1733W        W 5784   9.512   0.102   9.370
 1734W        W 5785   5.543   8.016   3.645
 1735W        W 5786   8.991   9.977   2.995
 1736W        W 5787   0.411   0.337   1.045
 1737W        W 5788   6.317   8.032   0.874
 1738W        W 5789   6.209   4.053   8.157
 1739W        W 5790   5.188   2.572  11.779
 1740W        W 5791   3.155   8.310   2.987
 1741W        W 5792   3.060   5.564   1.225
 1742W        W 5793   0.727  10.454  10.630
 1743W        W 5794   5.315   6.925   3.527
 1744W        W 5795   5.987   4.161   3.621
 1745W        W 5796   8.874   5.066   1.129
 1746W        W 5797   6.208   4.332   0.995
 1747W        W 5798   4.708   3.765  10.776
 1748W        W 5799   6.592   7.979   8.554
 1749W        W 5800   0.916   2.954   0.743
 1750W        W 5801   1.683   3.258   1.921
 1751W        W 5802  10.959   5.541   2.175
 1752W        W 5803   9.437   4.252  10.897
 1753W        W 5804   3.657   6.186   9.653
 1754W        W 5805   3.614   3.520   9.880
 1755W        W 5806   6.316   5.370  10.441
 1756W        W 5807   9.905   4.671   8.924
 1757W        W 5808  10.799   7.646   9.028
 1758W        W 5809   4.246   5.595  10.863
 1759W        W 5810   5.677  10.516   8.914
 1760W        W 5811   5.912   3.795   2.858
 1761W        W 5812   7.198  10.137   0.438
 1762W        W 5813   3.415   9.771   3.638
 1763W        W 5814  11.461   8.043   1.869
 1764W        W 5815   5.706   4.111   0.273
 1765W        W 5816   4.200   6.637   0.347
 1766W        W 5817   6.910   0.767  10.313
 1767W        W 5818  10.461  10.534   0.572
 1768W        W 5819   2.920   2.968  11.916
 1769W        W 5820  10.028   2.541  11.297
 1770W        W 5821   4.412   6.669   3.550
 1771W        W 5822   1.379   8.937   2.428
 1772W        W 5823   2.180   3.308  10.490
 1773W        W 5824   7.935   9.164   9.673
 1774W        W 5825   3.277   4.000   2.878
 1775W        W 5826  11.150   9.486   9.526
 1776W        W 5827   2.749   3.741   8.959
 1777W        W 5828   9.094   8.079   2.258
 1778W        W 5829   7.823   2.829   2.794
 1779W        W 5830   7.498   3.149  10.910
 1780W        W 5831   8.490   0.612   1.205
 1781W        W 5832   6.552   0.785  11.556
 1782W        W 5833   6.427   2.275   2.441
 1783W        W 5834   9.662   8.686  11.323
 1784W        W 5835   3.264   9.783   2.359
 1785W        W 5836   4.582   0.349   1.426
 1786W        W 5837   6.708   1.097  11.962
 1787W        W 5838   5.225   1.006   3.491
 1788W        W 5839   4.479   5.385  10.434
 1789W        W 5840   1.000   8.534   9.379
 1790W        W 5841  10.784   8.467  10.889
 1791W        W 5842   7.071   9.750   1.213
 1792W        W 5843   1.956   2.235   9.997
 1793W        W 5844   6.520   8.357   0.244
 1794W        W 5845   3.366   9.107  11.525
 1795W        W 5846   5.975   7.867  11.029
 1796W        W 5847   6.234   6.475   9.835
 1797W        W 5848   1.232   0.992   0.907
 1798W        W 5849   1.439   3.090   9.907
 1799W        W 5850   1.706   4.536   3.311
 1800W        W 5851   4.045   6.741   2.846
 1801W        W 5852   6.022   1.838   9.506
 1802W        W 5853  10.776   9.125   2.954
 1803W        W 5854   9.773   8.427   8.984
 1804W        W 5855   1.494   8.021   0.024
 1805W        W 5856   9.364   6.680   1.017
 1806W        W 5857   9.410   4.703   3.573
 1807W        W 5858   0.659   6.720  11.786
 1808W        W 5859   2.608  10.548  11.462
 1809W        W 5860   3.810   2.163   9.025
 1810W        W 5861  10.869  10.928   9.968
 1811W        W 5862  10.939   6.672   3.148
 1812W        W 5863   8.033  10.070  10.089
 1813W        W 5864   4.731  10.880   3.341
 1814W        W 5865   1.486   9.671   0.063
 1815W        W 5866   9.503   2.656   1.471
 1816W        W 5867   4.295  10.813  10.621
 1817W        W 5868   9.240   5.166  10.716
 1818W        W 5869   3.213   3.848  11.542
 1819W        W 5870   5.718   4.222   9.930
 1820W        W 5871   4.061  10.057  10.247
 1821W        W 5872   1.305   9.120   2.908
 1822W        W 5873   2.581  10.066   2.955
 1823W        W 5874   6.634   9.430   9.245
 1824W        W 5875   1.630   5.532   0.464
 1825W        W 5876   8.867   4.186   9.671
 1826W        W 5877   9.920   7.161   2.630
 1827W        W 5878   2.508   5.343   1.016
 1828W        W 5879   4.189   3.064  11.058
 1829W        W 5880   1.385   5.801   9.642
 1830W        W 5881   1.084   2.936   3.472
 1831W        W 5882   1.719   6.612  10.997
 1832W        W 5883   1.167  10.965   9.377
 1833W        W 5884   4.130   5.225  11.561
 1834W        W 5885   0.566  10.250   8.910
 1835W        W 5886   5.016   5.830   9.589
 1836W        W 5887   1.362   3.823   1.843
 1837W        W 5888   0.243   3.517   9.885
 1838W        W 5889   9.946   0.496   8.688
 1839W        W 5890   9.531   1.947   9.005
 1840W        W 5891   4.625   3.225   0.247
 1841W        W 5892   9.188   0.483   9.535
 1842W        W 5893   3.583   4.207   3.270
 1843W        W 5894   8.522   5.383  10.950
 1844W        W 5895   5.669   8.715   1.855
 1845W        W 5896  10.113   2.710   9.406
 1846W        W 5897  10.237   3.414  10.891
 1847W        W 5898   7.938   9.412   8.808
 1848W        W 5899   0.807   8.272   2.300
 1849W        W 5900   0.742   8.107   9.241
 1850W        W 5901   9.095   6.644   2.896
 1851W        W 5902   8.537  10.377   0.176
 1852W        W 5903   6.580   2.653  11.187
 1853W        W 5904   0.250   5.859   1.464
 1854W        W 5905   1.826   2.801   1.191
 1855W        W 5906   3.462   8.431   1.629
 1856W        W 5907   3.839   4.812  10.888
 1857W        W 5908   8.096   2.631   8.470
 1858W        W 5909   1.533  11.024   0.860
 1859W        W 5910   6.717   9.905   0.363
 1860W        W 5911   5.836   6.236  11.483
 1861W        W 5912   4.608  11.264   3.010
 1862W        W 5913   7.158   9.394   1.964
 1863W        W 5914  10.659  11.407  11.791
 1864W        W 5915   1.997   6.277  11.873
 1865W        W 5916   7.469   3.325   1.572
 1866W        W 5917   5.736   4.120   3.185
 1867W        W 5918   8.116  10.835   1.730
 1868W        W 5919   2.470  10.880  10.903
 1869W        W 5920  11.268   4.269   2.998
 1870W        W 5921   7.167   2.643   9.481
 1871W        W 5922   9.265   0.661   1.768
 1872W        W 5923   7.152   3.267   3.042
 1873W        W 5924   2.224   3.687   3.255
 1874W        W 5925  10.328   3.394   9.978
 1875W        W 5926   1.358   9.207   1.982
 1876W        W 5927   3.730   2.086   8.462
 1877W        W 5928  10.290   3.933   9.904
 1878W        W 5929   6.897   5.335   2.024
 1879W        W 5930   4.558   2.731   0.993
 1880W        W 5931   6.197   3.689   1.478
 1881W        W 5932   8.360  10.825   9.534
 1882W        W 5933   4.740   5.247   0.760
 1883W        W 5934   7.106   4.515   1.701
 1884W        W 5935  11.014  11.346   0.269
 1885W        W 5936   9.738   5.955  11.716
 1886W        W 5937   6.716  10.453   9.479
 1887W        W 5938   5.308  10.952   8.975
 1888W        W 5939   6.304   2.375   1.382
 1889W        W 5940   4.684   0.637   2.512
 1890W        W 5941   0.517   2.781  10.567
 1891W        W 5942  10.854   1.993   2.725
 1892W        W 5943   6.540   6.127   0.961
 1893W        W 5944   1.996  10.180   1.963
 1894W        W 5945   1.147   0.859   9.123
 1895W        W 5946   3.485   9.620   9.701
 1896W        W 5947  10.330   2.819   2.457
 1897W        W 5948   1.242   8.051   9.382
 1898W        W 5949   0.357   0.836   2.439
 1899W        W 5950   1.709   5.558   1.433
 1900W        W 5951   3.175   8.851   3.085
 1901W        W 5952  10.055   4.994  10.048
 1902W        W 5953   2.088   1.831   1.741
 1903W        W 5954   8.441   3.264  10.434
 1904W        W 5955   3.795   3.100  11.371
 1905W        W 5956   9.061   6.087   9.105
 1906W        W 5957  11.175   5.739  11.217
 1907W        W 5958   1.760   4.595   1.485
 1908W        W 5959   8.760   2.503   2.810
 1909W        W 5960  11.344  10.569  11.115
 1910W        W 5961  10.058   2.611  10.325
 1911W        W 5962   8.239   0.908  10.394
 1912W        W 5963   5.471   2.057   2.577
 1913W        W 5964   5.622   0.384   9.638
 1914W        W 5965  10.953   5.205  11.507
 1915W        W 5966  10.145   3.611   9.515
 1916W        W 5967   0.251   7.277   2.967
 1917W        W 5968   3.336  11.358   1.410
 1918W        W 5969   6.717   6.150   8.707
 1919W        W 5970   1.496   7.048   8.497
 1920W        W 5971  11.317   5.717   9.201
 1921W        W 5972  10.129   6.042   2.205
 1922W        W 5973   5.038  10.319   2.308
 1923W        W 5974   0.441   9.874   3.456
 1924W        W 5975   9.140   9.553   0.328
 1925W        W 5976   9.021  10.480   2.182
 1926W        W 5977   1.797   8.942   1.805
 1927W        W 5978   2.238   2.796  10.040
 1928W        W 5979   4.106   4.244   1.538
 1929W        W 5980   2.200   1.936   3.775
 1930W        W 5981   4.101   3.346  10.035
 1931W        W 5982   0.196   1.469   1.696
 1932W        W 5983   8.499  10.700   2.724
 1933W        W 5984   4.641   3.864   2.808
 1934W        W 5985   6.639   8.444  10.251
 1935W        W 5986   3.000  10.439  10.109
 1936W        W 5987   3.190   1.778   9.012
 1937W        W 5988   9.572  10.767   1.012
 1938W        W 5989   3.488   7.994   0.923
 1939W        W 5990   5.400   7.837   9.211
 1940W        W 5991   4.045   2.562   2.527
 1941W        W 5992   7.704  11.041   0.463
 1942W        W 5993   3.612   2.085   0.256
 1943W        W 5994   6.608   1.278   9.060
 1944W        W 5995   8.091   8.320   2.759
 1945W        W 5996   0.885   0.383   2.408
 1946W        W 5997   6.909   3.315   0.578
 1947W        W 5998   4.171   9.067   1.686
 1948W        W 5999   3.473   0.506   3.705
 1949W        W 6000   3.669   3.565   1.782
 1950W        W 6001   9.915   4.768  10.771
 1951W        W 6002   7.230   1.878   2.668
 1952W        W 6003   8.673   3.697  11.308
 1953W        W 6004  11.418   9.899   9.334
 1954W        W 6005   9.806   0.075   0.996
 1955W        W 6006   1.464   5.102   2.118
 1956W        W 6007   2.423   6.130   8.812
 1957W        W 6008   3.366   9.484   0.407
 1958W        W 6009   8.617   5.259  11.852
 1959W        W 6010   5.983   6.062  10.990
 1960W        W 6011  10.499   3.447   0.265
 1961W        W 6012   3.111  11.344  11.130
 1962W        W 6013   8.623   8.802   1.209
 1963W        W 6014   1.780   5.978   2.211
 1964W        W 6015   1.667  10.814   9.287
 1965W        W 6016  11.294   9.761  11.374
 1966W        W 6017   5.283   8.952   0.686
 1967W        W 6018  10.596  11.323  10.948
 1968W        W 6019  11.426   7.538   1.725
 1969W        W 6020   9.908   5.597   0.018
 1970W        W 6021   1.396   1.407   3.139
 1971W        W 6022   4.778   1.707  11.986
 1972W        W 6023   6.530   7.581   0.985
 1973W        W 6024   4.962   6.532   3.582
 1974W        W 6025   3.842   3.172   1.481
 1975W        W 6026   7.132   8.851  11.057
 1976W        W 6027   3.266   2.692   1.745
 1977W        W 6028   2.248   7.934   1.179
 1978W        W 6029   3.690   0.280   3.181
 1979W        W 6030   4.158  11.190  10.296
 1980W        W 6031  10.416   5.167  11.481
 1981W        W 6032   2.850   8.778   0.797
 1982W        W 6033  10.868   3.299   9.309
 1983W        W 6034   3.931   7.135   9.264
 1984W        W 6035   3.846   3.378  11.810
 1985W        W 6036  11.405   3.123  10.003
 1986W        W 6037   2.209   8.917  11.304
 1987W        W 6038   6.211  10.811  10.729
 1988W        W 6039   2.196   2.220  11.486
 1989W        W 6040   3.258   9.065  10.642
 1990W        W 6041   1.292   5.283   1.642
 1991W        W 6042   9.754   4.594  10.214
 1992W        W 6043   3.899   8.202   8.365
 1993W        W 6044   8.140  10.422   2.004
 1994W        W 6045   6.955   8.430   0.550
 1995W        W 6046   5.539   2.363   9.752
 1996W        W 6047   0.700   5.972   1.218
 1997W        W 6048   1.673   6.707  11.980
 1998W        W 6049   6.078   8.929   1.630
 1999W        W 6050   0.632   1.844   9.061
 2000W        W 6051   2.757   1.125  10.444
 2001W        W 6052   6.045   0.405   2.251
 2002W        W 6053   8.565   9.695   1.598
 2003W        W 6054  11.414   0.903  11.848
 2004W        W 6055   7.215   7.824   9.953
 2005W        W 6056   8.634  10.009  11.101
 2006W        W 6057   3.353   2.243   9.778
 2007W        W 6058   1.798   6.446   1.935
 2008W        W 6059   3.645   8.910   9.046
 2009W        W 6060   2.255   3.683  11.277
 2010W        W 6061  10.066   0.206   1.431
 2011W        W 6062   8.270   1.558  11.291
 2012W        W 6063   2.893   1.854  11.226
 2013W        W 6064   8.364   9.604   0.014
 2014W        W 6065   0.324   7.952   9.554
 2015W        W 6066   2.688   3.463   8.537
 2016W        W 6067   1.267   9.302   3.432
 2017W        W 6068  10.848   7.019  10.833
 2018W        W 6069   3.845   7.480   0.242
 2019W        W 6070   1.998   7.711   3.172
 2020W        W 6071   1.853   1.375   1.924
 2021W        W 6072   9.402   9.357  11.871
 2022W        W 6073   1.628  10.539   1.793
 2023W        W 6074   7.989  11.402   0.929
 2024W        W 6075   8.589   0.585   2.284
 2025W        W 6076   4.269   4.595  11.683
 2026W        W 6077   2.423   7.421   4.074
 2027W        W 6078   9.523   9.826   9.011
 2028W        W 6079   8.056   5.319   3.608
 2029W        W 6080   9.652  10.971  11.286
 2030W        W 6081   8.901   3.627  10.851
 2031W        W 6082   6.125   9.485   0.777
 2032W        W 6083   2.622  10.881   0.210
 2033W        W 6084  10.557   0.265   3.240
 2034W        W 6085   1.560   2.427   0.105
 2035W        W 6086  10.885   1.173   8.633
 2036W        W 6087   9.143  11.245   2.183
 2037W        W 6088   8.164   7.540   1.833
 2038W        W 6089   3.122   1.462   3.334
 2039W        W 6090   2.235   4.905   3.772
 2040W        W 6091   0.133   6.782  10.143
 2041W        W 6092  10.357   7.009  11.987
 2042W        W 6093  10.807   6.109  11.198
 2043W        W 6094   1.628   2.817   3.206
 2044W        W 6095  10.076   2.795   8.902
 2045W        W 6096   4.816  10.064   1.363
 2046W        W 6097   5.689  11.350   8.935
 2047W        W 6098   2.779   4.567   1.462
 2048W        W 6099   4.491  11.261  11.951
 2049W        W 6100   8.960   9.482  10.286
 2050W        W 6101   3.033   7.797   0.685
 2051W        W 6102   5.682   8.174   1.818
 2052W        W 6103   6.412   3.325   9.362
 2053W        W 6104   1.122   2.200   1.511
 2054W        W 6105   5.556   5.706   0.458
 2055W        W 6106   8.911   5.931  11.418
 2056W        W 6107  11.500   6.714   0.863
 2057W        W 6108   6.720  10.430   1.472
 2058W        W 6109   4.369   6.545   0.981
 2059W        W 6110  10.767   5.163   1.379
 2060W        W 6111   0.390  10.341   9.921
 2061W        W 6112   6.962   3.742   2.263
 2062W        W 6113   4.020   7.924   0.968
 2063W        W 6114   5.500   3.305   1.706
 2064W        W 6115  11.255   0.402  11.084
 2065W        W 6116   1.802  10.414   2.794
 2066W        W 6117   1.008   9.935   1.342
 2067W        W 6118  10.450   8.952  11.291
 2068W        W 6119   9.660   8.153   9.572
 2069W        W 6120   1.904   2.524  11.755
 2070W        W 6121   5.970   6.180   8.917
 2071W        W 6122   0.657   1.654   1.896
 2072W        W 6123   2.223  11.328  10.922
 2073W        W 6124   4.180  10.290   2.383
 2074W        W 6125   5.206   9.779   4.141
 2075W        W 6126   2.944   8.388   8.118
 2076W        W 6127   2.863   2.938  10.899
 2077W        W 6128   7.382   3.002  11.761
 2078W        W 6129   5.454   4.665   0.364
 2079W        W 6130   1.803   0.203   3.252
 2080W        W 6131  10.905   5.982   2.410
 2081W        W 6132   6.947   9.922  11.480
 2082W        W 6133   5.739   4.767  10.061
 2083W        W 6134  11.465   5.063   1.833
 2084W        W 6135   8.126   2.868   8.951
 2085W        W 6136   4.113   3.029   2.733
 2086W        W 6137   3.600  11.054   0.399
 2087W        W 6138   2.264   9.064   3.250
 2088W        W 6139   1.663   1.882   0.767
 2089W        W 6140   0.285  10.070  10.643
 2090W        W 6141  10.464   5.474   9.371
 2091W        W 6142  10.797   9.679  10.433
 2092W        W 6143   1.383   1.775  11.288
 2093W        W 6144   9.259   3.908   1.782
 2094W        W 6145   2.621   3.190   1.787
 2095W        W 6146   8.602   1.818   9.559
 2096W        W 6147   8.198  11.088  10.457
 2097W        W 6148   8.227   5.066   0.473
 2098W        W 6149   2.409   5.331   0.027
 2099W        W 6150   3.159   7.967   1.312
 2100W        W 6151   3.656   7.580   9.216
 2101W        W 6152   1.335   9.432   2.447
 2102W        W 6153   7.639  10.379   8.985
 2103W        W 6154   0.081   0.512   9.829
 2104W        W 6155  10.387   2.434   0.312
 2105W        W 6156  11.036   5.988  11.646
 2106W        W 6157   1.949   3.179   9.157
 2107W        W 6158  10.021   6.162   9.898
 2108W        W 6159   6.183  10.808   2.845
 2109W        W 6160  11.447   2.735   2.182
 2110W        W 6161   7.152   7.021  11.541
 2111W        W 6162   0.053   3.376  11.404
 2112W        W 6163   5.747   0.817   2.201
 2113W        W 6164   0.202   3.178  11.864
 2114W        W 6165   3.890   1.047  11.386
 2115W        W 6166   1.892   0.234  10.878
 2116W        W 6167   6.023   4.387  10.302
 2117W        W 6168   9.348   7.594   8.801
 2118W        W 6169   3.320   5.121   9.662
 2119W        W 6170   3.402   3.257   3.141
 2120W        W 6171   3.586   9.329  10.242
 2121W        W 6172  10.185   0.338   2.907
 2122W        W 6173   3.994   8.902   9.440
 2123W        W 6174   5.521   8.321   4.057
 2124W        W 6175   2.186   8.418   2.114
 2125W        W 6176  10.419   6.525   2.423
 2126W        W 6177   8.102   9.973   0.261
 2127W        W 6178  11.321   3.912   1.020
 2128W        W 6179   0.838   7.433   1.744
 2129W        W 6180  10.572   6.810   1.313
 2130W        W 6181   1.940   9.689  11.323
 2131W        W 6182   3.301   2.224  10.278
 2132W        W 6183   8.554   2.634   3.611
 2133W        W 6184   4.609   2.397   9.575
 2134W        W 6185   3.164   9.418  11.926
 2135W        W 6186   2.114   5.603   0.339
 2136W        W 6187  10.051   1.263   2.585
 2137W        W 6188   1.035   3.656   1.491
 2138W        W 6189   9.611   9.809  10.794
 2139W        W 6190   0.793   6.138  10.395
 2140W        W 6191  10.031   0.817   9.114
 2141W        W 6192   9.107   1.220   3.232
 2142W        W 6193   9.252   8.343  11.471
 2143W        W 6194   1.884   1.920   1.270
 2144W        W 6195   4.372   4.398   0.166
 2145W        W 6196   8.654   1.747   0.436
 2146W        W 6197   9.770   6.721   1.833
 2147W        W 6198   1.654   9.406   1.611
 2148W        W 6199   4.492   8.373  10.066
 2149W        W 6200   3.755   9.666   8.873
 2150W        W 6201   3.668   0.261   2.265
 2151W        W 6202   0.467   8.855   9.302
 2152W        W 6203   2.457   3.210   3.196
 2153W        W 6204   5.044   2.966  10.015
 2154W        W 6205   5.236   8.639   3.067
 2155W        W 6206   1.443   1.746  11.790
 2156W        W 6207   9.986  10.505  11.810
 2157W        W 6208   4.548   4.182   3.391
 2158W        W 6209   4.125   2.553   0.771
 2159W        W 6210   8.284   3.696   1.851
 2160W        W 6211   0.560  10.347   1.819
 2161W        W 6212   7.872   4.095   9.334
 2162W        W 6213   0.755   3.655   9.059
 2163W        W 6214   7.054   3.373  11.060
 2164W        W 6215   1.614  10.541  10.394
 2165W        W 6216   6.628   4.545   0.822
 2166W        W 6217   5.254   1.157   9.565
 2167W        W 6218   0.132   7.074   1.254
 2168W        W 6219   2.130  11.328   2.328
 2169W        W 6220   7.081   0.403   9.435
 2170W        W 6221   2.756   5.642  11.773
 2171W        W 6222   5.552   9.439   2.332
 2172W        W 6223   0.841   4.835  10.935
 2173W        W 6224   1.749   8.068  10.067
 2174W        W 6225   2.496   9.027   1.556
 2175W        W 6226   9.636   8.453   1.643
 2176W        W 6227   8.439   2.328   3.188
 2177W        W 6228   7.024   9.736   0.723
 2178W        W 6229   9.587   7.462  11.638
 2179W        W 6230  11.264   6.076   1.477
 2180W        W 6231  10.593   6.111   2.037
 2181W        W 6232   7.720   0.675   9.281
 2182W        W 6233   1.517   9.495  11.002
 2183W        W 6234  10.003   1.740   2.132
 2184W        W 6235   3.215   6.063   1.267
 2185W        W 6236   3.790   9.276  11.266
 2186W        W 6237   5.098   5.572   0.258
 2187W        W 6238   8.649   3.746  10.399
 2188W        W 6239   0.915   9.772  11.408
 2189W        W 6240   9.897   8.890   2.391
 2190W        W 6241  11.058   3.161   0.977
 2191W        W 6242   9.793   7.497   9.046
 2192W        W 6243  10.821   7.525  10.910
 2193W        W 6244   5.454   4.076   9.535
 2194W        W 6245   7.113   7.457  11.275
 2195W        W 6246   1.771   0.512   1.717
 2196W        W 6247   9.253   0.778  10.743
 2197W        W 6248   3.724   3.282   0.998
 2198W        W 6249   8.379   6.316   0.763
 2199W        W 6250   1.785   9.033   9.807
 2200W        W 6251   3.131   0.251   0.000
 2201W        W 6252   1.349   7.095   0.078
 2202W        W 6253   2.856   7.913  10.939
 2203W        W 6254  10.418  11.366   2.971
 2204W        W 6255   0.782   9.894  10.047
 2205W        W 6256   6.457   9.976   1.845
 2206W        W 6257   6.555   0.862   3.376
 2207W        W 6258   7.658   6.351   1.173
 2208W        W 6259   7.908   5.574   0.202
 2209W        W 6260   9.404   3.752  10.823
 2210W        W 6261  10.419   6.998   2.685
 2211W        W 6262   2.268   8.449   0.185
 2212W        W 6263   5.115   7.022   1.858
 2213W        W 6264   8.462  11.318  11.211
 2214W        W 6265   5.584  10.263   3.420
 2215W        W 6266  10.457   2.755  11.889
 2216W        W 6267   6.650   0.917  11.051
 2217W        W 6268  10.994   1.341   2.948
 2218W        W 6269   7.585   3.050   3.204
 2219W        W 6270   8.902   4.231  11.640
 2220W        W 6271   1.595  10.244   0.160
 2221W        W 6272  10.652   3.538   1.808
 2222W        W 6273  11.119   9.955  10.907
 2223W        W 6274   7.530   6.249  11.529
 2224W        W 6275   4.584   9.301   0.740
 2225W        W 6276  10.278  11.133   9.264
 2226W        W 6277   5.425   3.737   3.054
 2227W        W 6278   5.623   4.848   0.826
 2228W        W 6279   0.520   0.731  10.028
 2229W        W 6280   1.468   8.678   0.552
 2230W        W 6281   7.389   5.764  11.520
 2231W        W 6282   0.465   3.559  11.652
 2232W        W 6283  10.219   3.677   3.344
 2233W        W 6284   1.409   3.530   8.976
 2234W        W 6285  10.652   7.493  10.322
 2235W        W 6286  10.800   9.084   9.594
 2236W        W 6287   3.528   4.653   0.139
 2237W        W 6288  10.572  10.555   2.311
 2238W        W 6289   6.607   6.329   9.530
 2239W        W 6290   6.221   0.629   0.478
 2240W        W 6291   6.490   7.510  10.530
 2241W        W 6292   5.139   3.540   9.164
 2242W        W 6293   4.628   2.465   1.422
 2243W        W 6294   4.039   4.761   0.293
 2244W        W 6295  10.929   6.903  11.475
 2245W        W 6296   8.087   5.914   1.564
 2246W        W 6297  10.460   4.102  11.418
 2247W        W 6298   6.734   9.808  10.080
 2248W        W 6299   8.405   3.508   9.989
 2249W        W 6300   3.307   9.303   1.324
 2250W        W 6301   8.250   1.180   9.967
 2251W        W 6302   9.753   6.052  10.344
 2252W        W 6303   2.689   1.193   3.236
 2253W        W 6304   4.241   7.166   0.220
 2254W        W 6305   3.726   1.817  10.986
 2255W        W 6306   1.776   3.703   2.609
 2256W        W 6307   7.928   9.792   0.877
 2257W        W 6308  11.289   7.279  10.968
 2258W        W 6309  10.522   7.847   2.681
 2259W        W 6310   9.405   8.496  10.431
 2260W        W 6311   6.682  10.301   9.993
 2261W        W 6312   7.102   5.161  11.802
 2262W        W 6313   2.380   9.479   2.140
 2263W        W 6314   4.357   8.584   2.898
 2264W        W 6315  10.416   7.988   0.057
 2265W        W 6316   5.563   7.130   2.169
 2266W        W 6317   2.905   7.265  10.293
 2267W        W 6318   3.809   4.571   9.073
 2268W        W 6319   0.376   0.995  10.517
 2269W        W 6320  11.209   3.649  10.003
 2270W        W 6321   6.211   3.135   2.755
 2271W        W 6322   1.193   8.772  11.936
 2272W        W 6323   3.562   8.459   2.217
 2273W        W 6324   0.076  10.105  11.109
 2274W        W 6325   0.358   6.396   9.255
 2275W        W 6326   3.731  10.520   2.442
 2276W        W 6327   1.944   4.313  11.914
 2277W        W 6328   7.932   1.447   2.596
 2278W        W 6329   2.234  10.790  10.102
 2279W        W 6330   1.230  10.939  11.852
 2280W        W 6331   7.564   4.508   0.973
 2281W        W 6332   4.601   0.700   8.955
 2282W        W 6333   7.721   8.475  10.860
 2283W        W 6334   3.395   1.744  10.425
 2284W        W 6335   8.541   8.176  10.438
 2285W        W 6336   3.367   0.290   8.378
 2286W        W 6337   6.220   7.000  11.396
 2287W        W 6338   0.462   8.154   1.713
 2288W        W 6339   4.470   0.379   3.311
 2289W        W 6340   6.312   6.969   2.648
 2290W        W 6341   2.455   6.620   0.177
 2291W        W 6342   2.940   5.106  10.017
 2292W        W 6343   5.932  10.917   0.959
 2293W        W 6344   8.999   9.083   0.019
 2294W        W 6345   0.538   0.002   2.307
 2295W        W 6346   8.684   0.379   3.323
 2296W        W 6347   4.572  10.404  10.857
 2297W        W 6348   4.268   7.620   2.681
 2298W        W 6349   1.678   9.004   8.736
 2299W        W 6350   5.498   0.179   0.896
 2300W        W 6351   5.320   6.878  11.284
 2301W        W 6352  10.278   9.883   2.636
 2302W        W 6353   2.576   8.525  11.496
 2303W        W 6354  10.897   4.347  11.347
 2304W        W 6355   1.405   2.851   0.879
 2305W        W 6356   3.136  11.354   9.708
 2306W        W 6357   7.534   7.538   9.379
 2307W        W 6358   6.630   1.970   0.041
 2308W        W 6359   8.382   5.525   1.676
 2309W        W 6360   2.177   9.998  10.368
 2310W        W 6361   2.801   7.031   0.153
 2311W        W 6362   2.326   7.635   2.766
 2312W        W 6363  11.392   7.705   2.224
 2313W        W 6364   2.730   6.033   9.557
 2314W        W 6365   6.131   0.893   2.522
 2315W        W 6366   0.048   2.694   1.313
 2316W        W 6367   7.320   0.348  11.969
 2317W        W 6368   4.545  10.455   9.826
 2318W        W 6369   9.485   5.568   1.590
 2319W        W 6370   5.616   9.910  10.006
 2320W        W 6371  10.866   0.247   8.894
 2321W        W 6372   6.199   8.454   2.633
 2322W        W 6373   6.950   6.020   1.703
 2323W        W 6374   8.414   9.494   9.015
 2324W        W 6375   6.781   8.953   8.302
 2325W        W 6376   8.369  11.196   1.209
 2326W        W 6377   6.512   3.648   0.704
 2327W        W 6378   5.592   6.934   3.091
 2328W        W 6379   8.025   6.610   2.243
 2329W        W 6380   9.444   0.064   2.426
 2330W        W 6381   1.975   4.605  11.455
 2331W        W 6382   6.460   2.812   1.154
 2332W        W 6383   1.939   7.613   1.439
 2333W        W 6384   4.497   8.256  11.153
 2334W        W 6385  10.625   9.237   1.015
 2335W        W 6386   6.423   4.335  11.421
 2336W        W 6387   3.200   1.832   0.424
 2337W        W 6388   9.014   6.740   3.773
 2338W        W 6389   1.743   8.661   1.358
 2339W        W 6390   7.480   4.671   0.502
 2340W        W 6391   2.997   0.456   1.998
 2341W        W 6392   0.724   6.764   3.498
 2342W        W 6393   8.008   5.092   0.951
 2343W        W 6394   3.692   3.056  10.113
 2344W        W 6395   9.713   6.204   0.706
 2345W        W 6396   7.779   3.751   8.970
 2346W        W 6397   2.977   9.720   9.607
 2347W        W 6398   8.157  10.883   0.235
 2348W        W 6399  10.402   5.823   1.242
 2349W        W 6400   6.107   0.402   0.925
 2350W        W 6401   0.045   2.296   0.970
 2351W        W 6402   5.698   0.894   0.010
 2352W        W 6403   9.790   4.261   0.009
 2353W        W 6404   0.230   6.778   2.940
 2354W        W 6405   0.203  10.979   9.443
 2355W        W 6406   5.465   3.219  10.769
 2356W        W 6407   2.147   6.825  11.268
 2357W        W 6408   4.084   0.466   2.926
 2358W        W 6409   2.772   5.569   2.282
 2359W        W 6410  10.888   6.482   2.238
 2360W        W 6411   8.377   2.414  10.602
 2361W        W 6412   6.290   5.223   0.545
 2362W        W 6413   8.976   7.945   1.272
 2363W        W 6414  10.865   7.254  11.984
 2364W        W 6415   5.088   2.259   8.625
 2365W        W 6416   5.879   6.736  11.991
 2366W        W 6417   3.624   5.588   1.178
 2367W        W 6418   2.817  10.031   2.507
 2368W        W 6419   7.651   9.962   1.331
 2369W        W 6420   8.132   5.787   2.075
 2370W        W 6421   7.629   2.903  10.431
 2371W        W 6422   9.098   4.094   1.314
 2372W        W 6423   6.186   4.098  10.983
 2373W        W 6424   7.791   3.456   2.926
 2374W        W 6425   6.055   9.621  11.343
 2375W        W 6426  10.380   1.154  10.839
 2376W        W 6427   7.733   4.373   3.346
 2377W        W 6428   6.253   6.467   1.251
 2378W        W 6429  10.993   2.770   3.049
 2379W        W 6430   7.250   6.591  11.892
 2380W        W 6431   7.959   2.105   3.419
 2381W        W 6432   0.381   3.180  10.270
 2382W        W 6433   0.044  11.328   2.348
 2383W        W 6434   1.619   1.775   8.528
 2384W        W 6435   4.098   3.951   0.132
 2385W        W 6436   8.504   4.679   1.861
 2386W        W 6437   9.812   1.983   3.073
 2387W        W 6438   0.892   5.546   0.928
 2388W        W 6439   7.943   3.254  10.652
 2389W        W 6440   3.273   7.880   2.728
 2390W        W 6441   1.790   5.524   1.959
 2391W        W 6442   2.970  10.475   2.350
 2392W        W 6443   5.438   3.748   9.985
 2393W        W 6444   0.081   6.970   0.411
 2394W        W 6445   1.577   7.549   8.638
 2395W        W 6446   6.654   2.430   3.173
 2396W        W 6447   8.498   1.287   0.207
 2397W        W 6448   1.846   2.783   1.702
 2398W        W 6449   3.608   1.795   0.842
 2399W        W 6450   4.562  11.321   1.935
 2400W        W 6451   0.939   5.512   1.942
 2401W        W 6452   5.303   7.089   2.657
 2402W        W 6453   7.100  10.846  11.696
 2403W        W 6454  10.752   8.516  11.405
 2404W        W 6455   9.829   7.080  11.070
 2405W        W 6456   4.659   1.684  11.074
 2406W        W 6457  10.018   6.560   0.908
 2407W        W 6458   2.922   5.091   9.088
 2408W        W 6459  10.780   4.636  10.471
 2409W        W 6460   0.314   6.279  10.257
 2410W        W 6461   3.284   6.912   0.313
 2411W        W 6462   6.182   1.446   0.644
 2412W        W 6463   1.838   7.150  11.787
 2413W        W 6464   0.749   9.399   1.650
 2414W        W 6465   4.011   1.763   9.760
 2415W        W 6466   7.401  10.802  10.915
 2416W        W 6467   0.665   0.424   0.356
 2417W        W 6468  11.160   6.897   2.170
 2418W        W 6469   5.250   2.633  11.281
 2419W        W 6470   6.537  10.492  11.756
 2420W        W 6471   9.902   6.921   8.480
 2421W        W 6472   3.347   3.632   0.939
 2422W        W 6473   7.879   1.809   9.606
 2423W        W 6474   1.317   9.920   2.369
 2424W        W 6475   9.880   7.107   9.973
 2425W        W 6476   5.384   1.197   0.311
 2426W        W 6477   6.984  10.847  11.183
 2427W        W 6478   5.482   4.339  10.387
 2428W        W 6479   1.818   7.059  10.781
 2429W        W 6480   2.234   8.065   3.503
 2430W        W 6481   5.361   2.254   0.339
 2431W        W 6482   9.027   0.084   0.503
 2432W        W 6483   8.989   5.555  11.078
 2433W        W 6484   1.859   1.168   2.863
 2434W        W 6485   2.801   5.946   0.958
 2435W        W 6486   4.333   3.912   1.863
 2436W        W 6487  10.547   9.313  10.931
 2437W        W 6488  10.041   1.474   3.067
 2438W        W 6489   8.869  10.781   9.981
 2439W        W 6490  10.925   9.961   9.539
 2440W        W 6491  10.089   4.769   1.849
 2441W        W 6492   0.529   0.430   2.772
 2442W        W 6493   8.176   9.732   2.756
 2443W        W 6494   2.225   6.676  10.049
 2444W        W 6495   0.942  10.794   1.457
 2445W        W 6496   2.706   1.447  10.002
 2446W        W 6497   9.978   9.184   8.641
 2447W        W 6498   6.504   7.843   1.431
 2448W        W 6499   0.269   4.764   3.317
 2449W        W 6500   8.360   9.183  10.612
 2450W        W 6501   3.212   3.148   0.895
 2451W        W 6502  10.925  11.470  10.014
 2452W        W 6503   8.589   5.513   9.571
 2453W        W 6504  10.562   9.011  10.019
 2454W        W 6505   1.273   1.499   0.917
 2455W        W 6506   8.527  10.329   2.318
 2456W        W 6507  11.157   5.626   3.202
 2457W        W 6508   6.004   6.702  10.220
 2458W        W 6509   7.316   3.218   1.073
 2459W        W 6510   9.543   4.641   9.281
 2460W        W 6511   3.596   5.059  11.391
 2461W        W 6512   2.933  10.550   0.499
 2462W        W 6513   6.207   1.049  11.286
 2463W        W 6514   5.695   8.787   3.265
 2464W        W 6515   2.745   0.465   0.693
 2465W        W 6516   8.492   7.655   1.427
 2466W        W 6517   3.165   4.269   1.708
 2467W        W 6518   0.059   0.375   3.012
 2468W        W 6519   8.311   5.515   4.025
 2469W        W 6520   1.667   9.464   2.826
 2470W        W 6521  10.691   1.252   0.152
 2471W        W 6522   6.589   5.033   0.916
 2472W        W 6523   2.210   9.485   9.679
 2473W        W 6524   1.322   6.151   2.998
 2474W        W 6525   1.949   4.604   2.874
 2475W        W 6526   8.946   5.897   9.841
 2476W        W 6527   2.210   6.662   2.641
 2477W        W 6528  11.007   8.712   3.189
 2478W        W 6529   8.496   4.172  11.317
 2479W        W 6530   3.150   4.996   3.002
 2480W        W 6531   3.598   9.846  10.232
 2481W        W 6532   7.777   0.275  11.784
 2482W        W 6533   6.193  10.824   9.482
 2483W        W 6534  10.552   8.201   2.321
 2484W        W 6535   5.191  11.492   2.247
 2485W        W 6536   0.530   5.027   0.246
 2486W        W 6537   3.338   4.226  11.856
 2487W        W 6538   3.878   1.693  10.276
 2488W        W 6539   3.669   0.242   0.850
 2489W        W 6540   3.223   9.755   0.847
 2490W        W 6541   7.467   8.921   9.677
 2491W        W 6542   5.242   8.769   1.158
 2492W        W 6543   2.269  11.447   2.818
 2493W        W 6544   9.020   3.123   2.281
 2494W        W 6545   1.407   0.762   1.378
 2495W        W 6546  10.881   0.022  11.333
 2496W        W 6547   8.011   1.779   2.979
 2497W        W 6548  11.281  11.233   9.259
 2498W        W 6549   9.910   5.252   0.384
 2499W        W 6550   5.526   5.374   0.034
 2500W        W 6551   3.151   9.227   9.629
 2501W        W 6552   3.635   4.959   2.252
 2502W        W 6553   1.780   7.670   9.128
 2503W        W 6554   9.321   8.456   9.891
 2504W        W 6555   8.988   6.381   0.119
 2505W        W 6556  10.615   8.946   1.912
 2506W        W 6557   3.269  11.441   0.485
 2507W        W 6558   1.132   9.373   1.334
 2508W        W 6559   5.297   0.490   3.551
 2509W        W 6560   7.165  10.800   2.635
 2510W        W 6561   2.090   7.228   3.299
 2511W        W 6562   1.714   5.043   3.087
 2512W        W 6563   5.691   5.676  10.069
 2513W        W 6564   0.101   3.567   2.059
 2514W        W 6565   0.889   7.183  11.854
 2515W        W 6566   9.686   7.995  10.929
 2516W        W 6567   1.331   3.640  11.204
 2517W        W 6568   8.280  10.940   2.245
 2518W        W 6569   1.762   4.730  10.563
 2519W        W 6570   9.820   5.669   1.982
 2520W        W 6571   3.457   8.041   9.341
 2521W        W 6572   2.622   4.110   3.084
 2522W        W 6573   6.256   1.148   9.988
 2523W        W 6574   5.500   3.743   2.560
 2524W        W 6575   3.069   8.645  11.425
 2525W        W 6576   9.518   5.758   1.117
 2526W        W 6577   8.345   4.171   9.529
 2527W        W 6578   2.252   0.268  11.973
 2528W        W 6579   6.518   4.024   3.654
 2529W        W 6580   4.716   9.722   0.986
 2530W        W 6581   2.754   6.222   1.411
 2531W        W 6582  11.004   6.520  10.716
 2532W        W 6583   1.701   4.085   0.358
 2533W        W 6584   2.922   0.308  10.711
 2534W        W 6585  10.458   9.437   1.869
 2535W        W 6586   2.746   7.573  11.321
 2536W        W 6587   0.405   3.102   1.393
 2537W        W 6588   4.687  10.388   3.158
 2538W        W 6589   0.041   9.640  10.883
 2539W        W 6590   5.641   6.195   1.812
 2540W        W 6591   6.230   8.096   9.497
 2541W        W 6592   2.641   5.115  11.271
 2542W        W 6593   6.056   2.016  11.375
 2543W        W 6594   1.360   4.182   0.001
 2544W        W 6595   6.587   7.605   1.891
 2545W        W 6596   3.743   9.418   3.833
 2546W        W 6597   0.865   7.224   9.054
 2547W        W 6598   7.560   2.274   2.188
 2548W        W 6599  11.335   6.995   3.157
 2549W        W 6600   7.124  10.515   9.880
 2550W        W 6601   8.915   9.210  10.720
 2551W        W 6602  10.329   2.779   0.836
 2552W        W 6603   8.745   6.841  11.953
 2553W        W 6604  11.071   8.979   1.000
 2554W        W 6605  10.467   0.793   9.866
 2555W        W 6606  10.410   3.694   0.712
 2556W        W 6607   1.854   5.861   9.864
 2557W        W 6608   9.774  10.618   2.785
 2558W        W 6609   9.765   0.924  11.937
 2559W        W 6610  10.861   3.492  10.821
 2560W        W 6611   8.806   5.660   9.131
 2561W        W 6612   5.738   3.656   3.435
 2562W        W 6613   3.749   9.866   8.370
 2563W        W 6614   7.482   9.201   0.242
 2564W        W 6615  10.275   5.298   3.923
 2565W        W 6616   0.169   5.668   3.266
 2566W        W 6617   1.692   5.108  11.505
 2567W        W 6618  10.408   8.111  11.470
 2568W        W 6619   6.858   7.226   3.598
 2569W        W 6620   9.664   5.061  10.385
 2570W        W 6621   0.246   1.930   0.349
 2571W        W 6622   7.065   9.490   0.284
 2572W        W 6623   3.018   4.694   9.652
 2573W        W 6624   6.457   4.760  10.032
 2574W        W 6625   4.765   0.488   9.400
 2575W        W 6626   4.907   4.383  10.354
 2576W        W 6627   7.059   1.807   3.136
 2577W        W 6628   8.935   6.323   9.546
 2578W        W 6629   9.841   9.599   2.593
 2579W        W 6630   4.611   8.354  10.563
 2580W        W 6631   4.838   5.712   1.561
 2581W        W 6632   2.210   2.074   9.600
 2582W        W 6633  11.233   5.277   8.931
 2583W        W 6634   6.480   2.716   2.184
 2584W        W 6635   9.362   8.519   0.756
 2585W        W 6636  10.315   3.130   3.716
 2586W        W 6637   2.915   2.453   9.983
 2587W        W 6638  10.584   3.666   2.973
 2588W        W 6639   3.594   7.565  10.252
 2589W        W 6640   1.750   8.427  10.478
 2590W        W 6641   4.984   3.511   0.938
 2591W        W 6642   0.976   2.636   1.725
 2592W        W 6643   3.807  10.935   9.501
 2593W        W 6644  11.433   2.125   3.473
 2594W        W 6645   8.930   5.097   9.811
 2595W        W 6646  11.399   5.508   3.735
 2596W        W 6647   7.341   6.440   0.758
 2597W        W 6648   1.235   0.925   3.267
 2598W        W 6649   3.158   0.182   2.403
 2599W        W 6650   2.734   6.895   9.918
 2600W        W 6651   8.047   3.817  11.046
 2601W        W 6652   9.707   5.226   2.548
 2602W        W 6653   7.258  10.016   8.967
 2603W        W 6654   2.278   5.765   9.605
 2604W        W 6655   3.596   1.773   9.369
 2605W        W 6656  10.969   4.816   9.377
 2606W        W 6657   8.536  11.175   3.611
 2607W        W 6658   3.894   9.321   1.333
 2608W        W 6659   8.040   9.197  10.184
 2609W        W 6660   0.957   5.353   9.107
 2610W        W 6661   0.358   7.688   1.985
 2611W        W 6662   1.626  11.343   2.432
 2612W        W 6663   9.333  10.337   1.353
 2613W        W 6664   0.848   4.852   9.105
 2614W        W 6665   3.272  10.288   0.858
 2615W        W 6666   7.206   2.253   9.161
 2616W        W 6667   9.510   1.498  10.325
 2617W        W 6668   3.790   5.077   1.234
 2618W        W 6669  10.346   7.912  10.307
 2619W        W 6670  10.980   9.314   2.051
 2620W        W 6671   1.824   0.439   0.675
 2621W        W 6672   2.854   9.921  11.964
 2622W        W 6673   0.501   3.237   2.739
 2623W        W 6674   3.899   5.602   1.599
 2624W        W 6675   9.224  10.616  11.699
 2625W        W 6676   2.164   1.748   0.847
 2626W        W 6677   2.232   6.172   2.462
 2627W        W 6678  10.962   7.522   3.485
 2628W        W 6679   7.259   5.666  10.738
 2629W        W 6680   2.712   9.072   2.973
 2630W        W 6681   1.350   5.475  11.151
 2631W        W 6682   5.626   0.727   8.928
 2632W        W 6683   0.352  11.031   2.086
 2633W        W 6684   9.499  10.594   9.349
 2634W        W 6685  10.333   2.288   1.669
 2635W        W 6686   3.125   1.661   0.918
 2636W        W 6687   4.536   3.647   9.896
 2637W        W 6688   7.931   7.116   1.654
 2638W        W 6689   2.043   4.230   8.852
 2639W        W 6690   0.428   4.767  10.263
 2640W        W 6691  10.745   8.597   0.880
 2641W        W 6692   5.405   2.823   1.918
 2642W        W 6693   3.131   7.459  11.011
 2643W        W 6694   5.583   4.095   1.208
 2644W        W 6695   4.571  11.313  10.585
 2645W        W 6696   0.981   9.753  11.940
 2646W        W 6697   3.948  10.625   1.516
 2647W        W 6698   5.071  10.324  10.988
 2648W        W 6699   4.148  10.635   3.440
 2649W        W 6700   4.734   4.297  10.823
 2650W        W 6701  10.829   1.161   2.095
 2651W        W 6702   2.483   7.579   3.275
 2652W        W 6703  10.360  10.352   9.159
 2653W        W 6704   4.701   8.849   1.395
 2654W        W 6705   4.744   3.907   1.527
 2655W        W 6706   7.725   3.981   2.787
 2656W        W 6707   7.003   3.806   0.762
 2657W        W 6708   4.236   3.282   2.294
 2658W        W 6709   5.760   7.146   0.687
 2659W        W 6710   9.506  10.585   0.499
 2660W        W 6711   9.514   1.008   0.805
 2661W        W 6712  10.337   8.360  10.592
 2662W        W 6713   0.438   6.932  11.238
 2663W        W 6714   7.983   1.717  10.089
 2664W        W 6715   8.424   5.066   8.663
 2665W        W 6716   9.844   7.636   9.922
 2666W        W 6717   1.504  10.462   3.235
 2667W        W 6718   0.860   0.996  10.316
 2668W        W 6719  10.342  11.386   3.518
 2669W        W 6720   6.195   9.898  10.063
 2670W        W 6721   9.108   8.899   1.052
 2671W        W 6722   9.822  10.350   1.226
 2672W        W 6723   6.132   2.954  11.221
 2673W        W 6724   8.893   1.027  11.011
 2674W        W 6725  11.191   0.221   2.238
 2675W        W 6726   2.799   5.082   2.671
 2676W        W 6727   8.460  11.221   2.629
 2677W        W 6728   3.224  11.010   1.786
 2678W        W 6729   1.457   3.302   9.458
 2679W        W 6730   9.514   3.685  11.657
 2680W        W 6731   9.816   2.156  10.504
 2681W        W 6732   7.338   8.970   2.166
 2682W        W 6733   7.593  11.213   8.990
 2683W        W 6734   5.780   7.778   3.250
 2684W        W 6735   7.999   0.469  10.475
 2685W        W 6736   6.942   0.474   2.262
 2686W        W 6737   0.990   9.235  11.864
 2687W        W 6738   4.744   0.977  11.469
 2688W        W 6739   7.432   0.075   2.641
 2689W        W 6740   6.946   6.698   0.908
 2690W        W 6741   6.091   7.438   2.696
 2691W        W 6742   6.607   2.657   0.668
 2692W        W 6743   6.677   3.035   2.999
 2693W        W 6744   7.156   8.954   2.639
 2694W        W 6745   6.567   8.353   1.393
 2695W        W 6746   4.780   2.907   8.703
 2696W        W 6747   8.494   6.071   0.210
 2697W        W 6748   3.806   9.876  10.717
 2698W        W 6749  10.437   1.569   1.355
 2699W        W 6750   2.364   6.065  10.506
 2700W        W 6751   0.302   4.500   8.905
 2701W        W 6752   8.442   7.127  11.654
 2702W        W 6753   1.489  10.061   1.907
 2703W        W 6754   5.625   1.464   9.407
 2704W        W 6755   3.735   0.851   9.476
 2705W        W 6756   9.790  11.256   1.389
 2706W        W 6757  10.586   2.634   9.600
 2707W        W 6758   8.112   0.517   0.860
 2708W        W 6759   8.698   3.149   3.519
 2709W        W 6760   9.923   2.365   1.334
 2710W        W 6761   7.623   9.826  10.281
 2711W        W 6762   3.329   0.691   2.311
 2712W        W 6763   6.212   1.850   1.775
 2713W        W 6764   3.270   7.809   3.233
 2714W        W 6765   5.041   9.141  10.283
 2715W        W 6766   2.422   5.171   9.044
 2716W        W 6767   7.770   5.561   3.967
 2717W        W 6768   4.086   5.738  10.411
 2718W        W 6769   2.225   4.664  10.805
 2719W        W 6770   0.629  10.242   9.464
 2720W        W 6771   8.182   6.794   9.059
 2721W        W 6772   6.089   9.596   9.248
 2722W        W 6773   5.864   3.891  10.272
 2723W        W 6774   8.981   8.165   2.748
 2724W        W 6775   0.190   6.042   2.665
 2725W        W 6776  11.138   8.834  10.505
 2726W        W 6777   5.381   0.359   1.826
 2727W        W 6778   0.426   7.849  10.494
 2728W        W 6779  10.941   9.641   3.608
 2729W        W 6780   0.429   3.908   1.820
 2730W        W 6781  11.350   9.847   9.841
 2731W        W 6782   0.715   5.510   1.464
 2732W        W 6783   0.524   8.427   9.593
 2733W        W 6784   0.631   1.905  10.659
 2734W        W 6785   7.193  10.059  10.098
 2735W        W 6786   4.548   5.814  10.153
 2736W        W 6787   7.851  10.886  10.160
 2737W        W 6788  10.077   6.569   3.292
 2738W        W 6789   7.395   0.835   1.113
 2739W        W 6790   5.575   5.157   9.728
 2740W        W 6791   9.912   3.978   2.559
 2741W        W 6792   5.610   8.479  10.475
 2742W        W 6793   8.524  10.146   1.832
 2743W        W 6794   5.211   4.951  11.137
 2744W        W 6795  10.933   8.182   9.070
 2745W        W 6796   7.484   3.479  11.914
 2746W        W 6797   7.137   5.151  10.848
 2747W        W 6798  11.339  10.265  11.536
 2748W        W 6799   0.976   1.145   1.844
 2749W        W 6800   2.217   6.454  10.920
 2750W        W 6801   5.212   4.122  10.775
 2751W        W 6802   8.892   2.337  10.503
 2752W        W 6803   2.896   7.060   2.261
 2753W        W 6804   7.803   3.087   0.100
 2754W        W 6805   8.105  11.358   0.434
 2755W        W 6806   7.528   1.231   9.514
 2756W        W 6807   4.324   8.271   2.031
 2757W        W 6808   2.633   6.723   1.393
 2758W        W 6809   6.505   3.285   1.517
 2759W        W 6810   2.410   4.712   8.830
 2760W        W 6811   7.084   9.917   0.001
 2761W        W 6812  11.122   5.710   0.719
 2762W        W 6813   5.942  10.074   1.887
 2763W        W 6814   9.590   7.969   2.382
 2764W        W 6815   5.239   4.762  10.209
 2765W        W 6816  10.039   1.348   9.018
 2766W        W 6817   5.596   0.387   0.004
 2767W        W 6818   4.827  10.377   0.344
 2768W        W 6819   7.598   8.163   1.108
 2769W        W 6820   2.230   6.118   0.341
 2770W        W 6821   2.811   9.031   1.945
 2771W        W 6822   2.240   0.435   1.508
 2772W        W 6823   2.186   4.681   2.365
 2773W        W 6824   4.027   2.040  11.907
 2774W        W 6825  10.572   1.200   2.669
 2775W        W 6826  10.214   5.065   9.093
 2776W        W 6827   7.745   4.504   2.844
 2777W        W 6828   2.138   5.065  11.228
 2778W        W 6829   3.948  10.679   0.347
 2779W        W 6830   8.634   7.868   3.204
 2780W        W 6831   2.902   9.617   1.245
 2781W        W 6832   5.531   1.241   2.405
 2782W        W 6833   7.685   4.675   8.500
 2783W        W 6834   2.543   4.229   9.461
 2784W        W 6835   7.018   7.582   0.808
 2785W        W 6836  10.262   4.553   0.989
 2786W        W 6837  10.380   8.679   2.301
 2787W        W 6838   4.615   2.765  11.884
 2788W        W 6839   6.486   2.207  10.219
 2789W        W 6840   8.316   3.162  11.960
 2790W        W 6841   8.191  10.520   8.882
 2791W        W 6842   5.788   9.807  10.919
 2792W        W 6843   8.563   9.201   0.267
 2793W        W 6844   5.328   2.257   1.802
 2794W        W 6845   8.531   4.623   1.359
 2795W        W 6846   5.539   8.925   2.351
 2796W        W 6847   5.885   1.196  10.785
 2797W        W 6848   9.762   4.501  11.209
 2798W        W 6849   6.527   0.597   2.750
 2799W        W 6850   2.913   3.251   1.313
 2800W        W 6851   7.203   9.364   3.442
 2801W        W 6852   3.222   6.271  10.265
 2802W        W 6853   5.069   6.491   1.802
 2803W        W 6854   4.461   7.969   9.355
 2804W        W 6855   5.687   7.495   9.460
 2805W        W 6856   9.431   3.379   9.776
 2806W        W 6857   9.518   1.189  11.296
 2807W        W 6858   3.710   4.613   2.606
 2808W        W 6859   5.471   3.689  10.526
 2809W        W 6860  10.125   7.628  11.773
 2810W        W 6861   0.801   6.929   1.760
 2811W        W 6862   0.415   7.917   0.746
 2812W        W 6863   5.672   0.759  11.488
 2813W        W 6864  11.066   8.291  10.184
 2814W        W 6865   9.888   0.243   2.263
 2815W        W 6866   9.833  11.318   9.054
 2816W        W 6867   8.616   9.281   1.910
 2817W        W 6868   7.178   1.882   8.799
 2818W        W 6869   4.708   9.074   8.949
 2819W        W 6870  10.098   4.670   9.413
 2820W        W 6871   1.367   4.201   1.475
 2821W        W 6872   7.174   0.354   3.399
 2822W        W 6873   2.443   0.998   2.226
 2823W        W 6874   1.380  11.429   3.482
 2824W        W 6875   2.962   7.076   8.122
 2825W        W 6876   8.501   0.202   9.033
 2826W        W 6877   0.642   5.777   9.064
 2827W        W 6878   9.990   9.805   8.773
 2828W        W 6879   6.634   1.251   2.431
 2829W        W 6880   4.554   1.814   9.061
 2830W        W 6881   0.279  11.284  11.623
 2831W        W 6882   9.031   6.846   0.394
 2832W        W 6883   6.258   8.992   0.783
 2833W        W 6884  10.659   7.028   2.195
 2834W        W 6885   9.004  10.007   1.963
 2835W        W 6886   3.708   0.630  11.147
 2836W        W 6887   7.873   1.653  11.940
 2837W        W 6888   3.133   1.133   2.504
 2838W        W 6889  11.388   1.271   8.803
 2839W        W 6890  10.222   6.151   2.705
 2840W        W 6891   0.453   3.548  11.136
 2841W        W 6892   8.597  10.146   3.899
 2842W        W 6893   5.203  10.600   1.873
 2843W        W 6894   6.618  10.934  11.520
 2844W        W 6895  10.919   6.853   2.643
 2845W        W 6896   7.495  10.500  11.818
 2846W        W 6897   5.611   6.128   9.362
 2847W        W 6898   1.785   6.013   2.743
 2848W        W 6899   2.378   7.042   2.305
 2849W        W 6900   0.272   9.924  11.567
 2850W        W 6901   2.227   3.886   2.791
 2851W        W 6902  11.451   8.494   3.283
 2852W        W 6903   7.117   6.451   9.641
 2853W        W 6904  10.461  10.566  11.536
 2854W        W 6905   1.073   7.448   2.217
 2855W        W 6906   3.970   3.707   2.175
 2856W        W 6907   8.958   6.351  10.480
 2857W        W 6908   6.569   8.528  11.662
 2858W        W 6909  10.479   1.933   2.357
 2859W        W 6910   1.302   3.340  10.340
 2860W        W 6911   6.066   7.143   2.228
 2861W        W 6912   4.537   3.945   9.492
 2862W        W 6913   0.895  10.723   1.974
 2863W        W 6914   0.390   8.842   0.456
 2864W        W 6915   3.786   2.163  10.085
 2865W        W 6916   7.106   0.429   9.965
 2866W        W 6917  11.064   3.809   1.934
 2867W        W 6918   7.122   0.332  11.007
 2868W        W 6919   7.562   6.694   3.832
 2869W        W 6920   9.625   7.803   0.040
 2870W        W 6921   5.004   8.192  11.188
 2871W        W 6922   4.900   7.987   2.536
 2872W        W 6923   1.567   5.999   8.573
 2873W        W 6924   6.132   9.629   2.057
 2874W        W 6925   1.758   4.167   1.815
 2875W        W 6926   1.073   7.357   8.577
 2876W        W 6927   5.345  10.286   0.415
 2877W        W 6928   0.506   9.941   0.033
 2878W        W 6929   8.341   8.670  11.938
 2879W        W 6930   8.674   5.629   3.077
 2880W        W 6931   5.580   4.714  11.448
 2881W        W 6932   0.756   1.869   0.451
 2882W        W 6933  10.097   4.293   0.422
 2883W        W 6934   6.638   1.914   0.547
 2884W        W 6935   5.337   7.400  11.404
 2885W        W 6936   5.483   9.147   9.489
 2886W        W 6937   5.644   0.828   3.240
 2887W        W 6938  10.361   4.229   2.535
 2888W        W 6939   2.065   8.787  10.829
 2889W        W 6940   6.050   7.105   1.312
 2890W        W 6941   4.801   3.826   3.674
 2891W        W 6942   5.909   2.332   2.660
 2892W        W 6943   9.336   3.766   9.076
 2893W        W 6944   1.734   4.668   1.979
 2894W        W 6945   4.772   2.270   9.100
 2895W        W 6946   2.185   6.631   1.144
 2896W        W 6947   0.041   7.529  10.580
 2897W        W 6948   3.963   9.317   2.895
 2898W        W 6949   2.002   4.155   2.385
 2899W        W 6950   5.122   2.295   4.033
 2900W        W 6951  10.073   2.203  10.047
 2901W        W 6952   3.422  10.234   2.164
 2902W        W 6953   3.730  10.798   3.132
 2903W        W 6954   7.045   9.132  10.566
 2904W        W 6955   8.003   2.809   2.276
 2905W        W 6956   7.078   3.811  10.806
 2906W        W 6957  10.857   2.634   0.242
 2907W        W 6958   7.176   9.575  10.349
 2908W        W 6959   2.323   9.985   2.331
 2909W        W 6960   4.106   6.477   2.010
 2910W        W 6961   7.585   4.724   1.870
 2911W        W 6962   0.383   1.393   9.050
 2912W        W 6963   0.889   3.749   2.024
 2913W        W 6964  11.336   6.271   2.345
 2914W        W 6965   6.805   8.930   2.226
 2915W        W 6966   2.095   0.722  10.846
 2916W        W 6967   2.911   4.678   8.703
 2917W        W 6968  11.020  10.447   9.785
 2918W        W 6969   7.577   3.605   9.946
 2919W        W 6970   0.724   3.113  11.882
 2920W        W 6971   7.538  10.244   3.126
 2921W        W 6972   4.190   3.395   1.776
 2922W        W 6973  10.820   9.507   9.933
 2923W        W 6974   9.544   8.362   3.156
 2924W        W 6975  11.042   4.536   8.891
 2925W        W 6976   8.337   9.515   1.021
 2926W        W 6977   0.979   0.133   9.694
 2927W        W 6978   9.057   4.764   0.274
 2928W        W 6979   6.701   3.791   1.430
 2929W        W 6980   5.172   5.988   1.902
 2930W        W 6981   0.831   3.050   3.063
 2931W        W 6982  10.492   5.788   8.480
 2932W        W 6983   1.005   7.947   0.110
 2933W        W 6984   7.560   3.650  10.963
 2934W        W 6985  11.246   0.265  10.557
 2935W        W 6986   1.957   8.364   2.651
 2936W        W 6987   1.806   3.698   1.586
 2937W        W 6988   8.431   4.781   0.025
 2938W        W 6989   4.763  11.201  11.155
 2939W        W 6990   0.913   3.128   1.530
 2940W        W 6991   7.320   9.913   2.773
 2941W        W 6992   6.915   4.144  11.512
 2942W        W 6993   3.314   2.724   9.612
 2943W        W 6994   1.126   1.932  10.848
 2944W        W 6995   0.650   9.307   9.498
 2945W        W 6996   1.799   8.311   0.350
 2946W        W 6997   7.383   4.850   1.411
 2947W        W 6998   5.414   7.031  11.760
 2948W        W 6999   4.674   3.455   1.334
 2949W        W 7000   0.812   5.098  10.438
 2950W        W 7001   9.942   3.230   3.350
 2951W        W 7002   1.756   8.151   9.362
 2952W        W 7003   3.011   4.760   3.422
 2953W        W 7004   9.650   2.002   0.682
 2954W        W 7005   0.773  10.098   0.886
 2955W        W 7006   2.752   8.366   9.628
 2956W        W 7007   3.748   7.967   9.955
 2957W        W 7008   8.727   3.020   2.719
 2958W        W 7009  10.595   8.215   9.972
 2959W        W 7010   0.378   1.868   3.294
 2960W        W 7011   1.725   9.959   9.826
 2961W        W 7012   2.738   4.769   3.875
 2962W        W 7013   9.960   9.928   9.846
 2963W        W 7014   0.019   0.187   1.358
 2964W        W 7015   6.639   4.528   1.944
 2965W        W 7016   1.705   0.009  11.549
 2966W        W 7017   5.009   4.317   9.477
 2967W        W 7018   5.105   9.016   3.528
 2968W        W 7019   8.218   3.051   3.649
 2969W        W 7020   7.697   6.567   8.962
 2970W        W 7021   7.165   7.596   2.755
 2971W        W 7022  10.266  10.411   2.703
 2972W        W 7023   7.171   4.233  11.052
 2973W        W 7024   9.728   3.722   3.506
 2974W        W 7025   2.763   0.736   1.650
 2975W        W 7026   8.650   9.075   0.786
 2976W        W 7027   5.015   3.151   1.828
 2977W        W 7028   3.099   0.748   1.258
 2978W        W 7029   4.837  10.687  11.228
 2979W        W 7030   2.309   5.207   4.183
 2980W        W 7031   7.124   0.499   0.797
 2981W        W 7032   2.801   6.106  11.496
 2982W        W 7033   2.120   0.747   9.966
 2983W        W 7034   1.813   9.991   8.891
 2984W        W 7035  10.711   8.626  10.356
 2985W        W 7036   0.509   5.025   8.374
 2986W        W 7037   4.153   2.662   9.520
 2987W        W 7038   7.183   6.374   3.966
 2988W        W 7039   7.502   9.090   1.634
 2989W        W 7040   3.215   6.573  10.744
 2990W        W 7041   1.001   4.429  11.203
 2991W        W 7042   2.253   3.744  10.239
 2992W        W 7043  11.302  10.929   3.292
 2993W        W 7044   9.854  10.892   3.292
 2994W        W 7045   5.954   0.927  10.325
 2995W        W 7046   1.262   7.663   0.869
 2996W        W 7047   6.884   7.029   1.561
 2997W        W 7048  10.778   6.080  10.326
 2998W        W 7049   8.672   0.452   9.464
 2999W        W 7050   4.732   4.790  10.998
 3000W        W 7051   9.681   3.606   1.677
 3001W        W 7052   9.405   6.450   2.081
 3002W        W 7053   5.774   9.924   2.365
 3003W        W 7054   8.484   7.826  10.976
 3004W        W 7055   4.682   3.639   0.535
 3005W        W 7056   3.594   3.484  10.397
 3006W        W 7057   9.148   2.770  10.333
 3007W        W 7058   4.253   7.778   0.393
 3008W        W 7059   0.666   1.567   9.510
 3009W        W 7060  10.467   0.390   0.531
 3010W        W 7061   0.268   5.867   9.422
 3011W        W 7062   1.123   8.255   8.914
 3012W        W 7063   9.089   1.725  11.456
 3013W        W 7064   8.923   9.096   1.502
 3014W        W 7065   4.608   0.243   0.901
 3015W        W 7066   1.349   3.699   0.207
 3016W        W 7067   9.284   5.637   3.262
 3017W        W 7068   8.419   9.017   9.869
 3018W        W 7069   4.009   7.449   0.727
 3019W        W 7070   9.030   2.239   1.175
 3020W        W 7071   8.394   4.355   2.232
 3021W        W 7072   6.035  10.492   0.671
 3022W        W 7073  11.277   1.811   1.663
 3023W        W 7074   7.100   4.824   2.106
 3024W        W 7075   2.131   4.231   3.163
 3025W        W 7076   3.291  10.819  10.372
 3026W        W 7077   0.864   5.349  11.369
 3027W        W 7078   5.525   2.793  10.003
 3028W        W 7079   1.777   1.722   3.059
 3029W        W 7080   4.470   7.567   0.904
 3030W        W 7081   1.756   6.040   9.389
 3031W        W 7082   4.201   7.583  11.852
 3032W        W 7083  11.118   9.184   3.379
 3033W        W 7084   4.015   6.662  10.374
 3034W        W 7085   6.185   7.923   2.633
 3035W        W 7086   5.428   1.883   8.518
 3036W        W 7087   0.554   3.418   1.795
 3037W        W 7088   3.583   1.239   3.299
 3038W        W 7089  11.053   1.052   2.531
 3039W        W 7090   4.644   8.066   0.192
 3040W        W 7091   7.452   4.011   9.680
 3041W        W 7092   7.094   6.753   3.597
 3042W        W 7093   8.710   6.467   3.173
 3043W        W 7094   5.979   5.967   0.376
 3044W        W 7095  10.442  10.772   1.863
 3045W        W 7096   4.787   1.987  11.513
 3046W        W 7097   1.463  10.351   9.104
 3047W        W 7098   8.047   3.275   1.592
 3048W        W 7099   6.325  10.722   2.328
 3049W        W 7100   5.504   8.381   9.118
 3050W        W 7101   3.325   9.588   4.121
 3051W        W 7102   2.100   5.561   3.888
 3052W        W 7103   3.987  11.036   1.201
 3053W        W 7104   7.006   3.241   0.070
 3054W        W 7105   7.874   0.755  10.063
 3055W        W 7106  10.169  10.291   8.655
 3056W        W 7107  11.481   4.108   2.006
 3057W        W 7108  10.058   3.478   2.897
 3058W        W 7109   6.750   7.328  11.915
 3059W        W 7110   2.626   0.882   9.053
 3060W        W 7111   2.576   9.597   2.607
 3061W        W 7112   0.854   6.802   2.756
 3062W        W 7113   1.406   1.234  11.934
 3063W        W 7114  11.349   1.323  11.549
 3064W        W 7115   2.036   4.870   9.843
 3065W        W 7116   3.244   5.078   8.695
 3066W        W 7117   5.031   3.898  10.335
 3067W        W 7118   1.179   1.221   1.371
 3068W        W 7119   9.991   2.281   9.062
 3069W        W 7120   7.514   4.973   9.646
 3070W        W 7121   8.972   9.139   3.021
 3071W        W 7122   2.231   9.980   9.853
 3072W        W 7123   4.606  11.102   2.394
 3073W        W 7124   6.685   7.798   0.085
 3074W        W 7125   1.711   8.692  11.389
 3075W        W 7126   8.587  10.674   1.941
 3076W        W 7127   9.988   1.450   1.620
 3077W        W 7128   7.863   3.677   2.398
 3078W        W 7129  10.821   3.111   0.048
 3079W        W 7130   1.598   7.412   3.454
 3080W        W 7131   7.563   6.554   2.454
 3081W        W 7132   9.602   6.597   3.082
 3082W        W 7133   8.427   0.635   1.721
 3083W        W 7134   8.352   0.123  10.363
 3084W        W 7135  11.403   8.085   8.791
 3085W        W 7136   3.058   7.046   2.817
 3086W        W 7137   9.890   0.971   2.976
 3087W        W 7138   2.118   1.281  10.001
 3088W        W 7139   1.689   4.558   2.458
 3089W        W 7140   3.747  10.067   9.784
 3090W        W 7141   0.748  10.561   0.591
 3091W        W 7142   5.215  11.057   3.451
 3092W        W 7143   0.069   8.537   1.782
 3093W        W 7144   7.976   1.948   1.240
 3094W        W 7145   1.193   3.221   0.077
 3095W        W 7146   7.567  11.489   0.661
 3096W        W 7147  11.203   2.239   1.351
 3097W        W 7148   6.786   8.651  10.718
 3098W        W 7149   3.804   3.727   0.730
 3099W        W 7150   8.711   1.393   9.266
 3100W        W 7151  10.941   5.093   3.218
 3101W        W 7152   9.377   8.413  10.968
 3102W        W 7153   4.729   1.660   2.869
 3103W        W 7154   6.328   7.280   3.554
 3104W        W 7155   5.992   6.228   2.211
 3105W        W 7156   0.317   8.826   8.779
 3106W        W 7157   2.963  10.925  10.780
 3107W        W 7158   6.850   2.344   0.333
 3108W        W 7159  11.222   0.789   3.679
 3109W        W 7160   4.069   7.056  11.682
 3110W        W 7161   9.773   1.440  11.985
 3111W        W 7162   1.488   7.791   3.101
 3112W        W 7163   3.868   2.730  10.857
 3113W        W 7164   3.310   4.732   9.078
 3114W        W 7165   2.254  10.474   3.038
 3115W        W 7166   5.533   3.565   3.895
 3116W        W 7167   9.478   3.325   9.275
 3117W        W 7168   6.195  10.713   8.974
 3118W        W 7169   1.325   3.612   2.333
 3119W        W 7170   1.019   3.202   9.170
 3120W        W 7171   6.271   8.782  10.836
 3121W        W 7172   5.480   5.560  11.409
 3122W        W 7173   1.807   2.809   2.230
 3123W        W 7174   1.027   8.460   0.724
 3124W        W 7175   3.822   9.463   2.440
 3125W        W 7176   5.199   2.551  10.292
 3126W        W 7177  10.616   4.435   0.259
 3127W        W 7178   3.992   4.913   8.206
 3128W        W 7179   2.785   4.613   9.199
 3129W        W 7180   1.641   5.175  10.322
 3130W        W 7181   8.882   9.613  11.907
 3131W        W 7182   9.982   0.756  10.562
 3132W        W 7183   2.828  10.890   2.594
 3133W        W 7184   8.897  11.000  10.880
 3134W        W 7185   7.092   8.455   2.845
 3135W        W 7186   4.345   8.042   1.387
 3136W        W 7187   4.189   9.781   2.281
 3137W        W 7188   0.958   9.348   9.934
 3138W        W 7189   1.224   8.784   8.821
 3139W        W 7190   9.857   3.615   9.941
 3140W        W 7191   4.203   3.599   9.236
 3141W        W 7192   9.358  10.031  10.368
 3142W        W 7193   8.842   9.409   8.696
 3143W        W 7194   7.658   8.135   2.520
 3144W        W 7195   1.349   8.380   1.487
 3145W        W 7196   8.643   2.626  11.043
 3146W        W 7197  11.327   9.336   1.276
 3147W        W 7198  10.736   6.124   0.974
 3148W        W 7199   1.905   7.903  10.534
 3149W        W 7200   1.955   0.854   2.091
 3150W        W 7201  10.367   9.388   2.751
 3151W        W 7202   2.774  11.284   9.344
 3152W        W 7203   4.188   0.924  11.828
 3153W        W 7204  10.247   8.604   0.998
 3154W        W 7205   6.638   7.673   2.772
 3155W        W 7206   3.572   0.494   1.313
 3156W        W 7207  10.740   4.829  11.231
 3157W        W 7208   3.179   6.406   0.299
 3158W        W 7209   6.712  11.417  11.344
 3159W        W 7210   1.133   1.617   8.424
 3160W        W 7211   3.799   8.801  11.452
 3161W        W 7212  10.483   4.695   1.432
 3162W        W 7213   5.406   6.518  11.812
 3163W        W 7214   5.165   0.762  11.266
 3164W        W 7215   1.301  11.043   0.378
 3165W        W 7216   3.199   3.880   1.359
 3166W        W 7217  11.268   5.782   8.701
 3167W        W 7218  10.448   3.163   9.040
 3168W        W 7219   1.353   0.100   2.972
 3169W        W 7220   6.281   7.695   3.139
 3170W        W 7221   7.846   4.151   0.703
 3171W        W 7222   6.736   3.644   3.256
 3172W        W 7223   3.858   6.567  11.802
 3173W        W 7224  10.676   5.662  11.436
 3174W        W 7225   4.749   9.911   9.713
 3175W        W 7226   4.051   0.927   1.207
 3176W        W 7227   9.589   4.306   3.277
 3177W        W 7228   8.504   8.689  10.558
 3178W        W 7229   0.065   8.990  10.259
 3179W        W 7230   0.763   6.363   0.882
 3180W        W 7231   4.255   9.017   3.191
 3181W        W 7232   6.283   0.120   0.519
 3182W        W 7233   5.853   3.333   3.062
 3183W        W 7234   2.249   5.297   2.977
 3184W        W 7235   6.450   5.868  10.546
 3185W        W 7236  10.382   7.209   9.986
 3186W        W 7237   9.824   5.767   0.494
 3187W        W 7238   3.522   8.463   0.639
 3188W        W 7239   8.362  10.016   0.700
 3189W        W 7240   9.197   6.492   3.365
 3190W        W 7241   9.257   8.086   8.582
 3191W        W 7242   1.984   2.726   0.205
 3192W        W 7243   1.664  10.010  10.335
 3193W        W 7244   4.480  10.934   1.260
 3194W        W 7245   6.224   5.728  10.089
 3195W        W 7246  10.545   3.696  11.803
 3196W        W 7247  10.007   1.828   8.764
 3197W        W 7248   9.970   6.153   3.576
 3198W        W 7249   6.968   1.306  10.971
 3199W        W 7250   0.362   2.917   3.203
 3200W        W 7251   8.497   5.830   0.678
 3201W        W 7252   8.860   5.461   1.443
 3202W        W 7253   3.315   2.717  10.180
 3203W        W 7254   4.660   6.728   9.137
 3204W        W 7255   8.477   7.459   9.787
 3205W        W 7256   3.696  10.171   8.979
 3206W        W 7257  10.691   9.494   9.319
 3207W        W 7258  11.328   8.368   0.240
 3208W        W 7259  10.903   7.023  10.316
 3209W        W 7260   3.572   1.370  11.175
 3210W        W 7261   2.089   4.432   3.627
 3211W        W 7262   3.147  10.361  11.145
 3212W        W 7263  11.236   9.392   0.206
 3213W        W 7264   8.079   7.972   0.363
 3214W        W 7265   5.797   0.554  10.654
 3215W        W 7266   0.437   8.164   1.187
 3216W        W 7267   1.298   4.351   1.957
 3217W        W 7268   2.058   5.127   8.107
 3218W        W 7269   4.020   7.938   2.327
 3219W        W 7270   7.001  10.800   1.721
 3220W        W 7271   9.440   9.847   1.713
 3221W        W 7272   3.378   4.275   2.447
 3222W        W 7273   1.644   0.543   9.101
 3223W        W 7274   0.295   3.423   8.869
 3224W        W 7275   8.070   7.670   9.996
 3225W        W 7276   9.166   1.459  11.029
 3226W        W 7277   0.782   1.244   1.036
 3227W        W 7278   3.757  11.005   2.600
 3228W        W 7279   7.363   2.437  11.335
 3229W        W 7280   4.096   4.697   2.300
 3230W        W 7281   2.862  10.264   3.384
 3231W        W 7282  10.961   9.652   1.113
 3232W        W 7283   3.090  10.443  10.647
 3233W        W 7284   5.819   1.669   2.450
 3234W        W 7285   2.833  10.085   1.026
 3235W        W 7286   9.755   4.795   3.200
 3236W        W 7287  10.821  11.313   2.652
 3237W        W 7288   6.711   1.256  11.447
 3238W        W 7289  11.073  10.384   2.335
 3239W        W 7290   0.998  11.264  10.446
 3240W        W 7291   9.291  11.285   1.378
 3241W        W 7292   0.930   6.983  11.379
 3242W        W 7293   9.345   1.930  10.538
 3243W        W 7294   5.452   1.418  10.979
 3244W        W 7295   1.750   2.079   2.718
 3245W        W 7296   7.809  10.104   2.738
 3246W        W 7297   3.221   7.309   9.071
 3247W        W 7298   4.848   8.223   2.088
 3248W        W 7299   2.809  10.592   1.011
 3249W        W 7300   8.656   2.125   1.822
 3250W        W 7301   5.701   5.122  11.091
 3251W        W 7302   0.639   3.303   0.991
 3252W        W 7303   6.571   1.250   1.927
 3253W        W 7304   0.813   4.017   9.461
 3254W        W 7305   6.987   9.992  10.564
 3255W        W 7306  10.875   8.579   2.223
 3256W        W 7307   3.607   7.538  10.777
 3257W        W 7308   0.260   2.630   0.541
 3258W        W 7309   9.001   1.844   1.493
 3259W        W 7310   0.461   9.484   9.934
 3260W        W 7311   0.697   5.798  11.583
 3261W        W 7312   1.457   1.967   0.277
 3262W        W 7313   9.498   2.859  11.996
 3263W        W 7314   4.891   9.559   1.441
 3264W        W 7315   2.492   7.561  10.218
 3265W        W 7316   6.537   6.700  10.774
 3266W        W 7317   0.392   4.794   9.343
 3267W        W 7318   8.931  10.007  10.654
 3268W        W 7319   2.888   7.207   1.408
 3269W        W 7320   7.062   3.569   1.764
 3270W        W 7321   0.980   0.972  11.790
 3271W        W 7322   9.940   1.244  11.569
 3272W        W 7323   1.675   5.698  10.827
 3273W        W 7324   5.416  11.310  10.349
 3274W        W 7325  10.543   4.610   9.122
 3275W        W 7326   0.315   7.147  10.800
 3276W        W 7327   5.435  10.395   9.782
 3277W        W 7328   1.402   0.819  11.533
 3278W        W 7329   9.799   9.317  10.117
 3279W        W 7330   2.677   2.648   9.158
 3280W        W 7331   4.968   5.362  11.321
 3281W        W 7332   1.704   4.772  11.899
 3282W        W 7333   8.893   2.915   0.795
 3283W        W 7334   4.518   7.840   2.219
 3284W        W 7335   0.026   0.732   1.409
 3285W        W 7336   6.700   7.972  10.481
 3286W        W 7337  11.270   1.580   9.792
 3287W        W 7338   4.864   9.351   9.860
 3288W        W 7339   1.810   8.967   2.751
 3289W        W 7340   8.219   8.505   1.373
 3290W        W 7341   4.145   4.710   1.296
 3291W        W 7342   0.826   9.776   9.554
 3292W        W 7343   0.937   6.426   2.408
 3293W        W 7344  10.345   8.353   2.774
 3294W        W 7345  10.914   5.693   1.199
 3295W        W 7346  10.087   5.232   2.186
 3296W        W 7347   5.766   1.190   2.884
 3297W        W 7348   9.598   8.874  11.823
 3298W        W 7349   1.207   6.717   9.228
 3299W        W 7350   5.200   5.095   0.987
 3300W        W 7351   1.256   2.479   3.334
 3301W        W 7352   5.298   2.533   2.794
 3302W        W 7353   2.327   4.772   0.657
 3303W        W 7354   1.978  10.872  10.770
 3304W        W 7355   2.206  11.266   0.746
 3305W        W 7356   0.282   9.010   9.753
 3306W        W 7357   1.209  11.257   9.980
 3307W        W 7358  11.259   6.284   8.949
 3308W        W 7359   3.644   1.774   3.173
 3309W        W 7360   3.224   8.489   9.406
 3310W        W 7361   0.073   2.935   9.511
 3311W        W 7362   6.391   3.339   0.306
 3312W        W 7363   5.033  10.815   2.469
 3313W        W 7364   2.825   0.237   9.589
 3314W        W 7365   0.816   5.810   0.080
 3315W        W 7366   2.020   7.987  11.038
 3316W        W 7367   8.828   0.788   9.825
 3317W        W 7368   2.341   1.408   2.916
 3318W        W 7369   9.501   7.134   0.357
 3319W        W 7370   7.443   8.930   8.390
 3320W        W 7371   0.091  10.545   1.880
 3321W        W 7372   1.803  10.304  10.785
 3322W        W 7373   0.783   7.308  10.993
 3323W        W 7374   8.150   4.249   2.656
 3324W        W 7375   0.472   2.684   2.307
 3325W        W 7376   8.269   6.686  11.877
 3326W        W 7377   6.917   2.689   1.759
 3327W        W 7378   5.712   5.618  10.944
 3328W        W 7379  11.263   0.717   8.862
 3329W        W 7380   4.757   7.978   9.787
 3330W        W 7381   4.385  10.857  11.108
 3331W        W 7382   3.228   0.949   9.596
 3332W        W 7383   2.447   2.826   0.051
 3333W        W 7384  10.437   3.134   9.549
 3334W        W 7385   3.399   4.665  11.629
 3335W        W 7386   3.919   8.865  10.962
 3336W        W 7387   2.641   7.264   2.659
 3337W        W 7388   3.547   5.524   8.745
 3338W        W 7389   9.472   8.018   9.084
 3339W        W 7390   8.019   0.842  10.863
 3340W        W 7391   8.232  10.490  10.349
 3341W        W 7392   5.142  11.467   8.985
 3342W        W 7393   9.110  10.902  10.412
 3343W        W 7394  10.811   7.958  11.203
 3344W        W 7395   0.728   2.586   9.790
 3345W        W 7396   1.897  10.543   1.324
 3346W        W 7397  11.033   4.418   3.633
 3347W        W 7398  11.381   3.103   3.130
 3348W        W 7399   2.421   7.164   8.986
 3349W        W 7400   6.498   4.291   9.586
 3350W        W 7401   1.899   3.831   0.852
 3351W        W 7402   9.572   4.601   1.354
 3352W        W 7403   7.923   9.818  11.775
 3353W        W 7404   7.513   7.723   0.462
 3354W        W 7405   5.016   6.491   0.269
 3355W        W 7406   6.414   4.114   8.644
 3356W        W 7407  10.220   9.073  10.375
 3357W        W 7408  11.286   6.547   0.306
 3358W        W 7409   6.516  10.935  10.335
 3359W        W 7410   5.065  11.341  10.759
 3360W        W 7411   4.740   4.127   9.926
 3361W        W 7412   4.649   9.219   1.777
 3362W        W 7413   8.870   6.578   0.811
 3363W        W 7414   2.501   3.230  11.723
 3364W        W 7415   8.769   8.002   9.483
 3365W        W 7416   6.476   2.723   8.881
 3366W        W 7417   3.730   5.692  10.817
 3367W        W 7418   3.184   1.420   9.791
 3368W        W 7419  10.123   7.915   2.379
 3369W        W 7420   9.899   7.017   3.102
 3370W        W 7421   7.417   5.736   1.763
 3371W        W 7422   2.684  10.434  10.953
 3372W        W 7423   2.191  10.484  11.073
 3373W        W 7424   5.184  10.204  11.941
 3374W        W 7425   8.998   6.573   2.413
 3375W        W 7426   1.965   8.905   3.634
 3376W        W 7427   9.531   2.667  11.524
 3377W        W 7428  11.424  10.255  10.128
 3378W        W 7429   3.137   1.827   2.962
 3379W        W 7430   4.908   5.707  10.527
 3380W        W 7431   4.684   3.425   9.460
 3381W        W 7432   8.046   1.081  11.322
 3382W        W 7433   0.804   9.290  11.382
 3383W        W 7434   7.380   3.585   2.664
 3384W        W 7435   1.658   6.727   8.923
 3385W        W 7436   3.778   9.799  11.244
 3386W        W 7437   5.269   0.675   9.374
 3387W        W 7438   5.669   5.030   9.231
 3388W        W 7439   7.516   9.434   9.514
 3389W        W 7440   3.033  10.363   1.856
 3390W        W 7441   9.806   0.377  10.856
 3391W        W 7442   3.694   3.334   2.711
 3392W        W 7443   8.188   5.838   9.437
 3393W        W 7444   6.934   6.414  10.968
 3394W        W 7445   2.556   8.787  11.931
 3395W        W 7446   3.726   5.052   8.860
 3396W        W 7447   2.260   1.378   0.495
 3397W        W 7448  11.118   0.845   1.751
 3398W        W 7449   7.934   0.787   0.466
 3399W        W 7450   9.444   5.514   0.263
 3400W        W 7451   5.765   7.667  11.474
 3401W        W 7452   6.838   9.440   8.042
 3402W        W 7453   4.470   8.112   0.739
 3403W        W 7454   8.861   6.183   2.747
 3404W        W 7455   0.431   4.535   0.138
 3405W        W 7456   6.279  10.251   9.248
 3406W        W 7457   8.388   7.042   2.565
 3407W        W 7458   2.669   9.218  10.405
 3408W        W 7459   1.922   7.075  10.252
 3409W        W 7460   3.590   3.798   2.512
 3410W        W 7461   3.373   5.448   0.460
 3411W        W 7462   6.076   5.408   1.930
 3412W        W 7463   3.841   0.868   1.660
 3413W        W 7464   7.395   2.159   3.447
 3414W        W 7465   5.751  10.926  10.974
 3415W        W 7466  11.419   8.130   9.830
 3416W        W 7467   0.703   5.999   2.601
 3417W        W 7468   5.799   8.494   2.298
 3418W        W 7469   0.723   3.350   2.284
 3419W        W 7470   7.457   3.341  11.388
 3420W        W 7471   5.941   0.029   3.146
 3421W        W 7472   5.214   1.213  10.587
 3422W        W 7473   7.421   8.503   0.275
 3423W        W 7474   1.860  10.077   1.061
 3424W        W 7475   3.740   6.990   3.259
 3425W        W 7476  11.130   8.483   1.184
 3426W        W 7477   4.649   6.228  11.747
 3427W        W 7478   1.647   4.306   0.827
 3428W        W 7479   8.036   4.613   1.175
 3429W        W 7480   6.818   4.025   2.682
 3430W        W 7481   9.054   3.227   1.404
 3431W        W 7482  10.670   7.977  10.702
 3432W        W 7483   0.090   1.020   9.957
 3433W        W 7484   9.244  10.276   9.012
 3434W        W 7485   7.952   8.226   9.280
 3435W        W 7486   8.026   0.929   1.811
 3436W        W 7487   6.163   6.777   3.102
 3437W        W 7488   4.529   1.264   0.867
 3438W        W 7489  11.451  10.736   9.963
 3439W        W 7490  11.317   6.518   2.811
 3440W        W 7491   4.536   1.594   8.570
 3441W        W 7492   2.291   3.869   9.167
 3442W        W 7493   8.967   9.900  11.487
 3443W        W 7494   1.908   5.913   0.692
 3444W        W 7495   2.926   9.051   0.343
 3445W        W 7496   2.321   1.045   9.565
 3446W        W 7497   5.054   0.794   1.178
 3447W        W 7498   9.275   1.340   1.159
 3448W        W 7499   8.347  10.881  10.919
 3449W        W 7500   0.307   5.739   0.070
 3450W        W 7501   6.675   4.220  10.948
 3451W        W 7502   2.341  11.389   1.424
 3452W        W 7503   3.708   1.402  10.668
 3453W        W 7504   4.004   1.508   3.474
 3454W        W 7505   8.905   9.946  10.112
 3455W        W 7506   7.146   2.384   8.647
 3456W        W 7507   1.001   2.676   9.341
 3457W        W 7508   9.378   4.409   8.544
 3458W        W 7509   3.789   1.278   9.144
 3459W        W 7510   4.646   3.342   3.655
 3460W        W 7511   8.465  10.331   9.469
 3461W        W 7512   0.718   7.115   3.136
 3462W        W 7513   4.487   0.119  11.025
 3463W        W 7514   4.382   6.617   2.444
 3464W        W 7515   5.639   8.015   1.167
 3465W        W 7516   4.963   3.917   3.201
 3466W        W 7517   6.249  10.206   2.278
 3467W        W 7518   5.615   3.086   1.247
 3468W        W 7519   0.433   2.174   2.458
 3469W        W 7520  10.861   2.144   0.390
 3470W        W 7521   6.990   6.549   1.744
 3471W        W 7522   4.632   0.938  10.615
 3472W        W 7523   5.205   2.080  10.042
 3473W        W 7524   8.101   7.867  11.314
 3474W        W 7525   6.397   7.686   4.044
 3475W        W 7526   8.142   6.178  11.854
 3476W        W 7527   8.788   4.781   3.487
 3477W        W 7528   1.887   1.697   0.347
 3478W        W 7529  11.188   3.349   1.817
 3479W        W 7530  11.026  10.852   8.999
 3480W        W 7531   3.707   7.916   1.423
 3481W        W 7532   9.142   1.656   2.437
 3482W        W 7533   0.263   1.888   9.408
 3483W        W 7534   0.389  10.889  11.277
 3484W        W 7535   5.549  10.665   0.668
 3485W        W 7536   8.812   4.056   2.169
 3486W        W 7537   2.054   6.122   8.442
 3487W        W 7538   9.588   1.485   8.753
 3488W        W 7539   0.509   5.598   2.843
 3489W        W 7540   2.378  10.865   2.293
 3490W        W 7541   8.774   5.812   1.840
 3491W        W 7542  10.502   4.650   2.790
 3492W        W 7543   1.345   6.110   2.477
 3493W        W 7544  10.374   1.348   9.902
 3494W        W 7545   7.627   8.058   0.118
 3495W        W 7546   6.564   8.975  10.380
 3496W        W 7547   8.018   7.723   9.147
 3497W        W 7548  10.424   9.808   9.617
 3498W        W 7549   6.460   1.935   9.782
 3499W        W 7550   8.891   0.795   2.977
 3500W        W 7551   7.167   2.082  10.016
 3501W        W 7552   8.299   0.208   8.537
 3502W        W 7553   3.244   7.047   9.997
 3503W        W 7554   0.974   3.749  10.377
 3504W        W 7555   5.768   6.549   8.619
 3505W        W 7556   8.956   6.026   3.223
 3506W        W 7557   6.503   6.683   0.675
 3507W        W 7558   9.377   4.384   0.933
 3508W        W 7559   6.702   0.396   0.495
 3509W        W 7560   2.405   3.704   0.829
 3510W        W 7561  11.454   0.422  11.644
 3511W        W 7562   7.627   7.514   1.782
 3512W        W 7563   1.652   1.343  10.358
 3513W        W 7564  11.037   9.454  10.855
 3514W        W 7565   6.407   9.840   8.902
 3515W        W 7566   4.184  10.504   1.037
 3516W        W 7567   2.750  10.461  11.976
 3517W        W 7568   5.606   2.204   3.076
 3518W        W 7569   5.647   0.674   0.999
 3519W        W 7570   5.334   1.333   3.112
 3520W        W 7571   3.318   8.061  10.733
 3521W        W 7572   4.334   5.081  10.807
 3522W        W 7573   2.222   2.494   3.313
 3523W        W 7574   7.280   4.555   3.507
 3524W        W 7575   1.949   9.865   0.262
 3525W        W 7576   6.073   3.687   9.163
 3526W        W 7577   7.232   7.485  11.792
 3527W        W 7578   3.723   2.600   0.271
 3528W        W 7579   5.999   8.279   3.528
 3529W        W 7580   9.539   0.514   0.975
 3530W        W 7581   5.666   3.153   3.534
 3531W        W 7582   9.447   7.013  10.217
 3532W        W 7583   3.757   4.107   9.697
 3533W        W 7584   1.690   3.113   0.409
 3534W        W 7585   3.328   6.000   8.719
 3535W        W 7586  10.722   9.044   2.432
 3536W        W 7587   1.950   1.654  10.625
 3537W        W 7588  11.308  10.412   9.026
 3538W        W 7589   4.387   4.412  10.329
 3539W        W 7590   3.345   2.877  11.564
 3540W        W 7591   4.103   7.450  11.344
 3541W        W 7592   3.835   4.477  10.057
 3542W        W 7593   1.633   0.425  11.275
 3543W        W 7594   4.815  11.352   1.328
 3544W        W 7595   9.316   9.094   8.468
 3545W        W 7596   1.973   2.052   8.792
 3546W        W 7597   3.025   4.093   0.827
 3547W        W 7598   2.855   3.662   1.037
 3548W        W 7599   6.142   9.912   2.711
 3549W        W 7600   2.170  10.841   9.170
 3550W        W 7601  10.885   6.983   9.474
 3551W        W 7602   5.216   8.509   9.534
 3552W        W 7603  11.137   3.787  10.497
 3553W        W 7604  11.204   8.275  11.185
 3554W        W 7605   0.259   7.544  11.991
 3555W        W 7606   0.402   8.113  10.043
 3556W        W 7607   4.315   5.116   2.090
 3557W        W 7608   6.074   3.650  11.920
 3558W        W 7609   6.563   2.074  11.531
 3559W        W 7610   7.159   3.174   2.472
 3560W        W 7611  10.036   4.374   1.523
 3561W        W 7612  10.225   6.599   0.438
 3562W        W 7613   8.503   3.824  11.954
 3563W        W 7614   4.926   8.382   0.888
 3564W        W 7615   9.962   1.339  11.068
 3565W        W 7616   3.530   6.191  12.000
 3566W        W 7617   2.584   7.069   3.122
 3567W        W 7618   1.495   1.237   8.382
 3568W        W 7619   0.401   5.568   1.043
 3569W        W 7620   5.988   8.425   0.791
 3570W        W 7621  10.320   4.760   2.321
 3571W        W 7622   7.720   6.665   1.562
 3572W        W 7623   6.472   8.606   3.594
 3573W        W 7624   1.699   8.361   0.899
 3574W        W 7625   0.670   7.010   8.609
 3575W        W 7626   1.378   1.396   8.847
 3576W        W 7627   9.559   6.101   8.550
 3577W        W 7628  11.380   1.543   9.263
 3578W        W 7629   5.846   5.031   2.676
 3579W        W 7630   7.599  11.460   0.157
 3580W        W 7631   1.432  10.750   1.321
 3581W        W 7632   7.946   1.499   1.005
 3582W        W 7633   2.400  10.491   3.525
 3583W        W 7634   0.415   8.487   3.539
 3584W        W 7635  11.162  11.320   8.782
 3585W        W 7636   6.140   7.643   2.190
 3586W        W 7637  11.034   2.277   0.865
 3587W        W 7638   9.494  11.178   1.826
 3588W        W 7639   9.670   6.642   3.601
 3589W        W 7640   3.362   0.435   0.484
 3590W        W 7641   6.570   5.313   1.347
 3591W        W 7642  10.155   6.920   2.243
 3592W        W 7643   6.754   1.202  10.067
 3593W        W 7644   4.473   9.531   8.924
 3594W        W 7645   3.306   0.060   3.443
 3595W        W 7646   2.856   6.709   0.542
 3596W        W 7647   1.296   1.598   2.288
 3597W        W 7648   0.816   7.101   9.989
 3598W        W 7649   2.957   7.022  10.783
 3599W        W 7650   3.802   2.590  11.360
 3600W        W 7651   8.992  10.457   9.436
 3601W        W 7652   0.294   3.415   3.166
 3602W        W 7653   2.126   8.578   0.645
 3603W        W 7654   5.238   9.854   1.154
 3604W        W 7655   3.750   8.413  10.250
 3605W        W 7656   5.332  11.330   1.268
 3606W        W 7657   3.366  10.004   3.185
 3607W        W 7658   3.844   4.360  11.818
 3608W        W 7659   2.444   7.994  11.324
 3609W        W 7660   5.477   6.998   9.559
 3610W        W 7661   6.274   5.886   8.614
 3611W        W 7662  10.273   9.422   9.004
 3612W        W 7663   4.679   6.444  10.814
 3613W        W 7664   2.922   5.267  10.875
 3614W        W 7665   3.026   2.093   3.359
 3615W        W 7666  10.071   5.661   9.671
 3616W        W 7667   3.602   4.335  10.956
 3617W        W 7668   6.562   1.204   0.898
 3618W        W 7669  10.291   1.076   1.311
 3619W        W 7670   2.107   8.115   8.995
 3620W        W 7671   2.166   7.151   2.792
 3621W        W 7672   0.712   4.665   2.431
 3622W        W 7673   3.193   5.781  11.502
 3623W        W 7674   7.537   1.531   2.902
 3624W        W 7675   3.787   7.758   2.769
 3625W        W 7676   6.233   0.061  11.264
 3626W        W 7677   1.944   6.313  11.357
 3627W        W 7678   5.240   4.235   0.494
 3628W        W 7679   5.450   3.372   0.832
 3629W        W 7680   4.082   0.684   3.404
 3630W        W 7681   7.678   7.012   2.086
 3631W        W 7682   2.672   9.355   9.407
 3632W        W 7683   2.702   3.773  11.485
 3633W        W 7684   8.425   5.328   9.098
 3634W        W 7685   5.747   6.527   9.677
 3635W        W 7686   8.394   4.186   1.766
 3636W        W 7687   8.094   8.146  10.885
 3637W        W 7688   2.342   8.630   9.796
 3638W        W 7689   4.828   1.730   0.958
 3639W        W 7690   5.354   9.872   8.920
 3640W        W 7691   3.682  10.129   1.657
 3641W        W 7692   5.467  10.201   2.046
 3642W        W 7693   9.730   6.095   2.563
 3643W        W 7694   6.907   9.368   1.527
 3644W        W 7695   0.288   4.115   0.881
 3645W        W 7696  10.684   6.628  11.116
 3646W        W 7697   6.473   1.988   7.993
 3647W        W 7698   1.925   1.402   8.872
 3648W        W 7699   7.433   3.981   2.359
 3649W        W 7700   3.163  10.035  10.381
 3650W        W 7701   4.839   2.004   0.417
 3651W        W 7702  10.160   5.704   2.974
 3652W        W 7703   4.133   0.481   0.897
 3653W        W 7704   7.864   6.272   1.876
 3654W        W 7705  10.959   6.617   8.608
 3655W        W 7706   0.655   9.299   0.268
 3656W        W 7707   6.156   3.209   9.849
 3657W        W 7708   0.931   0.133   3.267
 3658W        W 7709   2.102   2.393   1.385
 3659W        W 7710  10.817   0.303  10.826
 3660W        W 7711   8.561   4.116   1.296
 3661W        W 7712  10.556   4.971   0.928
 3662W        W 7713   5.880   7.992   9.086
 3663W        W 7714   1.743   7.374   1.880
 3664W        W 7715   1.156   3.322   1.936
 3665W        W 7716   3.578   1.398   2.380
 3666W        W 7717   8.188   2.200  10.145
 3667W        W 7718   4.604   4.824   1.509
 3668W        W 7719   0.268  10.565  10.377
 3669W        W 7720   1.052   3.297   2.676
 3670W        W 7721   9.910   7.692  11.293
 3671W        W 7722   8.659  10.372   3.113
 3672W        W 7723   6.496   4.829  11.500
 3673W        W 7724   8.133   3.595   3.307
 3674W        W 7725  10.596   2.727   3.490
 3675W        W 7726   5.545   6.162   0.162
 3676W        W 7727   1.926   6.215  10.227
 3677W        W 7728   7.357  11.038   0.870
 3678W        W 7729   1.895   9.812  10.824
 3679W        W 7730   5.188   8.870  11.248
 3680W        W 7731   3.888   9.928  11.742
 3681W        W 7732   7.004   4.321   3.900
 3682W        W 7733   2.535   1.683  10.887
 3683W        W 7734   6.872  11.337  10.440
 3684W        W 7735  11.239  10.326   1.144
 3685W        W 7736   5.468   4.034  11.209
 3686W        W 7737   7.100   9.657   9.339
 3687W        W 7738   4.385   4.317   2.156
 3688W        W 7739  10.273   5.300   2.673
 3689W        W 7740   2.261   0.719  11.718
 3690W        W 7741   8.081   9.634  10.445
 3691W        W 7742   1.754   2.283   3.217
 3692W        W 7743   6.006   3.231   1.664
 3693W        W 7744  10.886   1.734   9.275
 3694W        W 7745   2.242   6.159   1.456
 3695W        W 7746   0.193  11.346   1.003
 3696W        W 7747   9.579   5.394   0.757
 3697W        W 7748   4.226   1.878  11.216
 3698W        W 7749  10.136   3.855   1.630
 3699W        W 7750   3.182  10.445   1.357
 3700W        W 7751   4.908   8.614   9.129
 3701W        W 7752   8.741   8.283   3.512
 3702W        W 7753   3.063   3.125  10.444
 3703W        W 7754   5.369  11.148   0.314
 3704W        W 7755   8.419   6.732  11.318
 3705W        W 7756   6.743   7.152   0.809
 3706W        W 7757   6.092   1.610   9.947
 3707W        W 7758  10.126   8.483   1.477
 3708W        W 7759   7.965   0.990   9.593
 3709W        W 7760   1.154   1.477  10.319
 3710W        W 7761   5.910   9.447   1.627
 3711W        W 7762  11.410   0.006  11.352
 3712W        W 7763   1.156   4.254   2.686
 3713W        W 7764   3.138   1.308   0.538
 3714W        W 7765   9.452   3.881   0.912
 3715W        W 7766   3.095   8.458   1.983
 3716W        W 7767   3.747   4.696   3.108
 3717W        W 7768   6.201   0.805  10.828
 3718W        W 7769   4.418   1.838   2.095
 3719W        W 7770   1.330   6.579   2.695
 3720W        W 7771  10.958  10.760   2.008
 3721W        W 7772   3.020   4.641  11.983
 3722W        W 7773   6.457   9.586  10.985
 3723W        W 7774   4.072   8.654   9.910
 3724W        W 7775  10.284   3.236  11.873
 3725W        W 7776  10.135  11.490  11.826
 3726W        W 7777   4.192   8.319   0.366
 3727W        W 7778   9.931   2.200   0.306
 3728W        W 7779   1.173   4.050   9.834
 3729W        W 7780   9.453   6.764  11.256
 3730W        W 7781   1.279   7.111   1.867
 3731W        W 7782   2.939   2.363   9.483
 3732W        W 7783   3.015   0.573   9.927
 3733W        W 7784   4.251   7.232  10.865
 3734W        W 7785   0.793  10.933   2.873
 3735W        W 7786   5.508   6.596   2.683
 3736W        W 7787   6.056   4.644  11.727
 3737W        W 7788   7.178   3.688   0.292
 3738W        W 7789  10.201   6.693   9.993
 3739W        W 7790   9.017   9.562   2.723
 3740W        W 7791   0.293   2.454   1.913
 3741W        W 7792   3.762   9.992   2.533
 3742W        W 7793  11.498   5.258   9.394
 3743W        W 7794  11.468   5.293   1.009
 3744W        W 7795   4.971   5.221  10.320
 3745W        W 7796   7.132   2.890  10.330
 3746W        W 7797   9.783   0.548   2.660
 3747W        W 7798   3.514   1.326  11.699
 3748W        W 7799  11.041   8.600  11.863
 3749W        W 7800   4.153   2.345   1.275
 3750W        W 7801   9.953   6.563   9.554
 3751W        W 7802   0.366   1.392   3.153
 3752W        W 7803   4.123   3.082   0.745
 3753W        W 7804   9.943   6.692   0.002
 3754W        W 7805   1.657   1.448   1.301
 3755W        W 7806  10.697   4.037   1.618
 3756W        W 7807   0.350   7.493   1.023
 3757W        W 7808  11.438   0.444   1.822
 3758W        W 7809   0.183   3.051   0.921
 3759W        W 7810   3.716  11.117   1.665
 3760W        W 7811   2.027   6.870   0.302
 3761W        W 7812  11.402   3.890   9.571
 3762W        W 7813  10.269   6.090  10.356
 3763W        W 7814   1.452   7.804   1.376
 3764W        W 7815  11.103   1.693  11.266
 3765W        W 7816   2.242   8.128   1.670
 3766W        W 7817   3.688   7.468   2.375
 3767W        W 7818   8.009  10.259   1.047
 3768W        W 7819   1.357   5.596   2.260
 3769W        W 7820   7.361   8.580   0.874
 3770W        W 7821   5.253   9.050   2.769
 3771W        W 7822   6.033   3.083   8.130
 3772W        W 7823   6.763   3.660  10.431
 3773W        W 7824   5.991   4.204   8.966
 3774W        W 7825   9.513   1.888  11.883
 3775W        W 7826   6.431   8.143   3.804
 3776W        W 7827   9.157   3.344   0.924
 3777W        W 7828   4.218   9.285   2.159
 3778W        W 7829   4.790  10.882  10.764
 3779W        W 7830   0.851   4.616   1.457
 3780W        W 7831   4.289   2.287  11.523
 3781W        W 7832  10.036   6.405   8.542
 3782W        W 7833   1.022   7.503  11.401
 3783W        W 7834  10.142   9.717   2.171
 3784W        W 7835   6.772   6.434   1.303
 3785W        W 7836   6.142   6.526  11.190
 3786W        W 7837   2.430   9.377   1.184
 3787W        W 7838   5.533   9.381  10.777
 3788W        W 7839   1.832   0.817   9.536
 3789W        W 7840   5.721   8.850  10.840
 3790W        W 7841   6.205   0.954   9.134
 3791W        W 7842   6.986   9.573  10.851
 3792W        W 7843   5.649   1.819  10.571
 3793W        W 7844   1.818   3.577   9.934
 3794W        W 7845   4.725   1.134   1.682
 3795W        W 7846   7.443  10.210   8.538
 3796W        W 7847   4.706   7.080   1.048
 3797W        W 7848   6.533   2.877   9.906
 3798W        W 7849   9.950   6.666  11.336
 3799W        W 7850  10.810   4.647   2.321
 3800W        W 7851   5.475   4.604   1.404
 3801W        W 7852   0.203   6.032   8.911
 3802W        W 7853   7.534  10.801   9.289
 3803W        W 7854   7.976   9.510   2.338
 3804W        W 7855   2.301  10.953   3.317
 3805W        W 7856   3.659   4.156   0.238
 3806W        W 7857   0.365   8.837  10.648
 3807W        W 7858   8.604   2.706   0.033
 3808W        W 7859   9.779   6.620   1.339
 3809W        W 7860   5.143   0.179   9.518
 3810W        W 7861  11.486   8.208   1.407
 3811W        W 7862   9.993   7.095   1.386
 3812W        W 7863   7.731   5.887  10.640
 3813W        W 7864   6.290   3.556   8.232
 3814W        W 7865   5.106   6.759   3.000
 3815W        W 7866   0.649   1.319   1.508
 3816W        W 7867   4.193  10.473   2.901
 3817W        W 7868  10.947   7.733   0.114
 3818W        W 7869   1.857   1.483  11.891
 3819W        W 7870   7.224   1.230  10.476
 3820W        W 7871  10.048   8.385   3.224
 3821W        W 7872   7.942  11.435   9.503
 3822W        W 7873  10.319   8.482  11.103
 3823W        W 7874   2.401   8.937   0.407
 3824W        W 7875   1.236   4.621   3.491
 3825W        W 7876   5.468   0.830  10.380
 3826W        W 7877   1.953  10.274   0.579
 3827W        W 7878   9.251   7.161   0.811
 3828W        W 7879   2.386   1.942   1.313
 3829W        W 7880   2.709  10.572   1.522
 3830W        W 7881   2.297   7.650   9.060
 3831W        W 7882   4.828   9.021   0.379
 3832W        W 7883   1.671   3.134  10.649
 3833W        W 7884   6.028   9.267  10.901
 3834W        W 7885   8.377   2.944   1.790
 3835W        W 7886   3.449   3.393   2.238
 3836W        W 7887   0.890   0.504  11.917
 3837W        W 7888  10.760   4.522   3.215
 3838W        W 7889   1.755   7.893   1.821
 3839W        W 7890   4.615   9.818   1.770
 3840W        W 7891  11.138   5.108   0.033
 3841W        W 7892   1.638   1.764   9.092
 3842W        W 7893   5.021   2.492   9.834
 3843W        W 7894  10.396   1.001   8.804
 3844W        W 7895   2.732   1.417   2.311
 3845W        W 7896   4.744   3.273  11.748
 3846W        W 7897   5.102   8.174  10.672
 3847W        W 7898   7.736   4.298   0.243
 3848W        W 7899   8.975   8.374   0.362
 3849W        W 7900   9.584   0.289   9.869
 3850W        W 7901   4.252   7.300   1.712
 3851W        W 7902   8.745   8.541   9.054
 3852W        W 7903   3.840   7.067  10.632
 3853W        W 7904   5.119   6.032   0.501
 3854W        W 7905   6.768   8.047   9.948
 3855W        W 7906   9.702   7.657   1.814
 3856W        W 7907   6.531   1.920   3.229
 3857W        W 7908  11.054   9.395   2.590
 3858W        W 7909   2.378   1.469  10.408
 3859W        W 7910   0.891   1.387   0.571
 3860W        W 7911   4.168   0.010   3.128
 3861W        W 7912   0.097   8.946   3.550
 3862W        W 7913   0.471   6.474   2.623
 3863W        W 7914   5.662   1.360  10.348
 3864W        W 7915   3.175   3.722   3.295
 3865W        W 7916   7.129   3.572   9.591
 3866W        W 7917   8.676   1.821   2.293
 3867W        W 7918   1.757   2.607   2.735
 3868W        W 7919   3.250   0.979   1.701
 3869W        W 7920   2.559   2.723   2.911
 3870W        W 7921  10.360   6.989   1.755
 3871W        W 7922  10.033   4.344   2.165
 3872W        W 7923   0.954   5.956   2.172
 3873W        W 7924   0.829   1.040   9.534
 3874W        W 7925   5.627   5.104   1.271
 3875W        W 7926   6.836   2.482   1.303
 3876W        W 7927   7.046   6.685  10.543
 3877W        W 7928   0.079   7.205   2.150
 3878W        W 7929   2.655   9.657   0.793
 3879W        W 7930   4.212   5.206   0.052
 3880W        W 7931  11.049   2.840  11.270
 3881W        W 7932   1.196   5.671  11.611
 3882W        W 7933   5.109   7.724  11.079
 3883W        W 7934   4.409   2.094   1.656
 3884W        W 7935   5.722   8.566   2.803
 3885W        W 7936   9.417   5.656  10.837
 3886W        W 7937   4.093   7.092   9.754
 3887W        W 7938  11.292   3.460   8.671
 3888W        W 7939   8.681   2.820  10.542
 3889W        W 7940   8.473   8.593   8.589
 3890W        W 7941   4.920   2.493   0.209
 3891W        W 7942   3.937   7.982   9.431
 3892W        W 7943   3.229   2.889   2.208
 3893W        W 7944  10.823  10.174  10.533
 3894W        W 7945   2.891  10.030   9.186
 3895W        W 7946   1.198   6.621   3.203
 3896W        W 7947   7.702   0.275   3.378
 3897W        W 7948   3.384   6.632  11.221
 3898W        W 7949  10.877   1.769   3.199
 3899W        W 7950   4.074   1.295   2.339
 3900W        W 7951   6.610   2.170   8.472
 3901W        W 7952   3.790   7.246   1.492
 3902W        W 7953   1.135   6.971   1.367
 3903W        W 7954   3.719  11.464  10.515
 3904W        W 7955   2.193   4.626  10.285
 3905W        W 7956   3.849   1.365   1.421
 3906W        W 7957   7.875   8.580   0.916
 3907W        W 7958   5.423   1.146   1.155
 3908W        W 7959   0.030   3.650   1.568
 3909W        W 7960   0.490   5.354   9.345
 3910W        W 7961   5.231  10.960  11.065
 3911W        W 7962   7.020   9.481  11.735
 3912W        W 7963   1.824   0.321   2.205
 3913W        W 7964  11.278   2.541   9.315
 3914W        W 7965   0.809   1.756   0.980
 3915W        W 7966   7.096   2.131  11.873
 3916W        W 7967   5.319   5.154   0.479
 3917W        W 7968   1.820   3.874  10.973
 3918W        W 7969   0.263   1.269   9.529
 3919W        W 7970   5.809   9.671   1.146
 3920W        W 7971   5.050   3.036   2.703
 3921W        W 7972   1.234   2.305  11.184
 3922W        W 7973   7.970   4.659   0.670
 3923W        W 7974   9.643   2.377  11.920
 3924W        W 7975  11.393   6.614   3.524
 3925W        W 7976   2.763   0.741   9.514
 3926W        W 7977  10.826   3.600   8.872
 3927W        W 7978   8.575   3.856   3.168
 3928W        W 7979   5.267   2.749   0.484
 3929W        W 7980   2.179   1.302  11.541
 3930W        W 7981   2.475   8.318   2.561
 3931W        W 7982   0.320   0.767  11.564
 3932W        W 7983  11.102   1.583  10.753
 3933W        W 7984   1.484   1.846  10.464
 3934W        W 7985   2.888   6.916   9.062
 3935W        W 7986   3.094   8.291   2.465
 3936W        W 7987  10.606   7.875   3.468
 3937W        W 7988   3.500  10.591   1.771
 3938W        W 7989   2.394   9.877   1.219
 3939W        W 7990   0.784   1.152  10.807
 3940W        W 7991  11.218  10.593  11.937
 3941W        W 7992  11.231   7.866  11.490
 3942W        W 7993   5.331  10.012   2.630
 3943W        W 7994   6.124   4.775   0.749
 3944W        W 7995  11.460   4.901   1.321
 3945W        W 7996   6.557   0.850   8.760
 3946W        W 7997   3.555   6.130   0.496
 3947W        W 7998   8.484   4.012   9.985
 3948W        W 7999   2.849   9.097   1.208
 3949W        W 8000   9.986   2.858   8.390
 3950W        W 8001   8.408   4.310  11.807
 3951W        W 8002   8.922   2.625   2.170
 3952W        W 8003   7.585   0.732  11.127
 3953W        W 8004   8.226   6.447  10.089
 3954W        W 8005   9.145   1.290   9.009
 3955W        W 8006   8.305   6.979  10.781
 3956W        W 8007   9.123   6.925   8.090
 3957W        W 8008   2.926   0.462   3.582
 3958W        W 8009   9.533   6.264   9.077
 3959W        W 8010  10.309   9.432   1.389
 3960W        W 8011   8.964   8.090   9.005
 3961W        W 8012   4.993   4.701   1.213
 3962W        W 8013   2.816   5.911  10.194
 3963W        W 8014   6.271   4.294   0.488
 3964W        W 8015   5.603   3.881   9.087
 3965W        W 8016   3.652   2.519   2.069
 3966W        W 8017   2.579   9.552   3.114
 3967W        W 8018   0.524   9.836  11.053
 3968W        W 8019   7.859   2.426  10.501
 3969W        W 8020   4.200   9.975   8.871
 3970W        W 8021   2.681   0.576  10.335
 3971W        W 8022   3.462  10.141  11.492
 3972W        W 8023   9.454   1.630   0.330
 3973W        W 8024   7.740   1.247  10.014
 3974W        W 8025   3.620  10.292  10.978
 3975W        W 8026   7.725  11.083  10.657
 3976W        W 8027   4.188   3.470   0.403
 3977W        W 8028   7.525  10.379   9.574
 3978W        W 8029   1.604  10.500  11.695
 3979W        W 8030   7.625   6.109   3.764
 3980W        W 8031   9.861   2.759   2.261
 3981W        W 8032   6.641   9.921   1.369
 3982W        W 8033   6.674   3.362   9.796
 3983W        W 8034  11.294   9.005   9.589
 3984W        W 8035   2.788  10.043   1.533
 3985W        W 8036   7.192   8.515   2.353
 3986W        W 8037   9.179   5.485  10.098
 3987W        W 8038  10.706   2.335   1.270
 3988W        W 8039   5.626   4.875  11.942
 3989W        W 8040   6.123   2.284   3.170
 3990W        W 8041   0.620   5.878   9.947
 3991W        W 8042   4.648   6.852   0.199
 3992W        W 8043   2.217   3.909   1.843
 3993W        W 8044   4.505  10.783   8.833
 3994W        W 8045   0.986   6.645  10.372
 3995W        W 8046   9.256   9.018  10.338
 3996W        W 8047   0.422   0.054   0.589
 3997W        W 8048   8.579   7.959   2.238
 3998W        W 8049   1.453   9.351  10.071
 3999W        W 8050   4.330  10.392   0.536
 4000W        W 8051   4.563   0.861   1.243
 4001W        W 8052   0.301   0.687   8.719
 4002W        W 8053   7.611   9.025   1.092
 4003W        W 8054   5.457   0.368   3.079
 4004W        W 8055   0.047   5.272   2.314
 4005W        W 8056   0.819   6.266  10.895
 4006W        W 8057   9.687   9.606   0.231
 4007W        W 8058   5.250  11.410  11.287
 4008W        W 8059   0.844   4.625   1.956
 4009W        W 8060   7.646   7.563  10.411
 4010W        W 8061   8.160   0.479   3.491
 4011W        W 8062   4.445   7.147   9.349
 4012W        W 8063   4.164  10.078   1.864
 4013W        W 8064   3.110   3.593  10.087
 4014W        W 8065   9.475   0.724   3.506
 4015W        W 8066   3.358  10.990  11.680
 4016W        W 8067   1.040   5.121   0.300
 4017W        W 8068   7.849   2.410  11.491
 4018W        W 8069  10.863   4.983   0.465
 4019W        W 8070   5.008   0.463   2.153
 4020W        W 8071   6.314  11.268   1.135
 4021W        W 8072   1.920  10.865   9.725
 4022W        W 8073   3.756   4.998   1.749
 4023W        W 8074   8.785  10.572   3.547
 4024W        W 8075   6.039   9.999   0.812
 4025W        W 8076   3.550  10.648  11.354
 4026W        W 8077   5.025   3.418  10.569
 4027W        W 8078  10.871   7.732   3.032
 4028W        W 8079   3.110   7.390   0.358
 4029W        W 8080   9.543   4.929   4.372
 4030W        W 8081   4.803   7.966  10.297
 4031W        W 8082   3.334   2.730   3.253
 4032W        W 8083   0.562   0.857   1.669
 4033W        W 8084   7.527   9.724   3.230
 4034W        W 8085   2.892   4.516  10.320
 4035W        W 8086   5.134   8.960   2.034
 4036W        W 8087   5.226   3.202   8.776
 4037W        W 8088  10.288   6.962   9.552
 4038W        W 8089   9.123   3.716   9.528
 4039W        W 8090   8.788   1.303   1.295
 4040W        W 8091   2.789   1.268   9.494
 4041W        W 8092   2.093   2.893   3.013
 4042W        W 8093   5.814  10.589  10.492
 4043W        W 8094   3.743   2.614   9.843
 4044W        W 8095  10.857   3.264   9.952
 4045W        W 8096  11.087   5.079   2.394
 4046W        W 8097   8.021   1.002   3.489
 4047W        W 8098  11.026   3.110  10.415
 4048W        W 8099  11.362   2.327   0.421
 4049W        W 8100   3.330   9.349  11.065
 4050W        W 8101   5.126   1.593   9.262
 4051W        W 8102   9.548   7.508  10.333
 4052W        W 8103   4.210   2.834  11.543
 4053W        W 8104   6.573   0.445   1.371
 4054W        W 8105   0.141   8.567   1.057
 4055W        W 8106   0.050   2.351  10.412
 4056W        W 8107   0.483   3.873   3.364
 4057W        W 8108   2.587   6.157   3.316
 4058W        W 8109   2.867   2.031   1.193
 4059W        W 8110   2.857   3.345   3.504
 4060W        W 8111   8.841   0.373   1.864
 4061W        W 8112   0.521   9.322   3.481
 4062W        W 8113   8.940   5.123   2.249
 4063W        W 8114   6.149   3.091   3.722
 4064W        W 8115  11.268   5.635   9.699
 4065W        W 8116   9.164   8.086  11.933
 4066W        W 8117   7.647  11.251  11.131
 4067W        W 8118   1.828   2.455  10.882
 4068W        W 8119   2.327  11.494   3.324
 4069W        W 8120   3.305   9.647  11.479
 4070W        W 8121   6.671   7.019   0.314
 4071W        W 8122   1.297   7.640   1.816
 4072W        W 8123   9.515   8.621   8.563
 4073W        W 8124  10.040   4.864   2.767
 4074W        W 8125  10.142  11.416   0.655
 4075W        W 8126   9.624   4.075   1.358
 4076W        W 8127   4.606   2.107   8.637
 4077W        W 8128   6.729   0.410   3.192
 4078W        W 8129   9.662   1.501   0.800
 4079W        W 8130   4.652  11.490   9.550
 4080W        W 8131   6.030   1.268   2.186
 4081W        W 8132   9.825   7.495  10.795
 4082W        W 8133   7.921   5.004  11.532
 4083W        W 8134   7.899   9.479   0.186
 4084W        W 8135   5.634   5.684   1.897
 4085W        W 8136   8.219   2.276   0.925
 4086W        W 8137   2.931   9.752   3.431
 4087W        W 8138   6.765   8.963   0.844
 4088W        W 8139   6.447   9.949   3.139
 4089W        W 8140   5.436   5.891   1.473
 4090W        W 8141   8.484   8.250   0.195
 4091W        W 8142   6.357   2.325   1.890
 4092W        W 8143   0.760   3.305   0.390
 4093W        W 8144   9.585   8.936   8.962
 4094W        W 8145   8.298   3.012   9.941
 4095W        W 8146  11.074   2.915   9.627
 4096W        W 8147   4.654   2.982  11.346
 4097W        W 8148   6.592  11.331  11.838
 4098W        W 8149   9.807   2.419   8.610
 4099W        W 8150  10.437   0.377  11.681
 4100W        W 8151   0.759   4.339  10.012
 4101W        W 8152  11.303   4.842   0.804
 4102W        W 8153   8.434   2.055   2.745
 4103W        W 8154   5.568   9.738   3.319
 4104W        W 8155  10.530  10.873   1.374
 4105W        W 8156   9.000   8.683  10.730
 4106W        W 8157  11.307   8.732  11.369
 4107W        W 8158   7.083  10.093   9.595
 4108W        W 8159   0.154   0.674   3.422
 4109W        W 8160   4.917   1.849   8.301
 4110W        W 8161   7.842   1.160   2.206
 4111W        W 8162   8.047  11.305  11.923
 4112W        W 8163   6.449   6.456   9.044
 4113W        W 8164  10.591   9.547   3.232
 4114W        W 8165  11.026   4.684   2.794
 4115W        W 8166   0.013   9.823   2.259
 4116W        W 8167   8.992   2.184   9.562
 4117W        W 8168   4.593  10.999   0.402
 4118W        W 8169   7.122   2.319   2.474
 4119W        W 8170   5.748   1.246  11.349
 4120W        W 8171  10.422   0.878   3.675
 4121W        W 8172  11.496   6.178   3.167
 4122W        W 8173   5.229   5.498   1.271
 4123W        W 8174   2.662   6.970   1.829
 4124W        W 8175   5.096   7.590  10.079
 4125W        W 8176  10.891   5.432   8.583
 4126W        W 8177   0.795   5.625  10.454
 4127W        W 8178   5.618   9.599   2.806
 4128W        W 8179   3.086   8.468  10.934
 4129W        W 8180   5.558  10.175   0.891
 4130W        W 8181   1.382   1.903   1.199
 4131W        W 8182   4.136   7.571   1.305
 4132W        W 8183   3.816   0.012   1.285
 4133W        W 8184   6.124   0.833   3.013
 4134W        W 8185  11.161  10.527   1.604
 4135W        W 8186   0.921   0.507   3.648
 4136W        W 8187   9.985   3.314   0.326
 4137W        W 8188   4.278   9.094  11.242
 4138W        W 8189  11.124   3.926   0.112
 4139W        W 8190   3.813   3.112   0.297
 4140W        W 8191   0.120   3.105   1.819
 4141W        W 8192   6.498   7.358   2.385
 4142W        W 8193   4.791   6.955   3.354
 4143W        W 8194   4.506  10.322  10.339
 4144W        W 8195   9.568   2.473  10.182
 4145W        W 8196   0.767   8.724   3.224
 4146W        W 8197   9.455   6.236   1.477
 4147W        W 8198   6.958   1.796   9.258
 4148W        W 8199  11.238   3.064  11.686
 4149W        W 8200   8.110   8.133   0.848
 4150W        W 8201   6.624   1.600   2.846
 4151W        W 8202   9.043   2.243   9.054
 4152W        W 8203   8.759   4.615  11.329
 4153W        W 8204   2.329   1.823  10.043
 4154W        W 8205   1.915   5.352   9.920
 4155W        W 8206   1.078   2.341   0.239
 4156W        W 8207  11.211   6.914   9.865
 4157W        W 8208   2.119  10.927  11.308
 4158W        W 8209   7.922   4.046   1.672
 4159W        W 8210   0.941   8.440   2.791
 4160W        W 8211   8.602   1.895  11.493
 4161W        W 8212   6.948   4.677  10.248
 4162W        W 8213   7.004   1.300   9.433
 4163W        W 8214  11.250   1.324   1.877
 4164W        W 8215   4.344   5.595   1.874
 4165W        W 8216   9.125   8.519   1.785
 4166W        W 8217   5.122   9.553   2.885
 4167W        W 8218   6.051   2.886   3.221
 4168W        W 8219   2.187   7.462   0.491
 4169W        W 8220   8.300   2.677   2.697
 4170W        W 8221   8.977  11.336   2.661
 4171W        W 8222   2.568   9.001   8.546
 4172W        W 8223   4.920   2.925  10.520
 4173W        W 8224   8.846   9.502   9.767
 4174W        W 8225   5.211   7.501   9.603
 4175W        W 8226   9.234   6.080  11.773
 4176W        W 8227   8.017   8.720   9.996
 4177W        W 8228   5.492   8.057   0.225
 4178W        W 8229   9.546   1.528   9.804
 4179W        W 8230   6.132   3.831   0.981
 4180W        W 8231   1.121   7.455   3.137
 4181W        W 8232   3.678   9.012   3.220
 4182W        W 8233   4.875   1.003   0.395
 4183W        W 8234   2.468   8.004   9.379
 4184W        W 8235   2.155   8.446   1.134
 4185W        W 8236   2.042   4.267   9.357
 4186W        W 8237   4.674   5.289   0.254
 4187W        W 8238   1.447   8.619   2.829
 4188W        W 8239   4.403   9.465   2.636
 4189W        W 8240  11.287   7.792  10.982
 4190W        W 8241   6.096   5.900   1.827
 4191W        W 8242   0.366   8.050  11.768
 4192W        W 8243  10.884   8.139  11.724
 4193W        W 8244  10.842   1.492  10.117
 4194W        W 8245   8.397   9.407   9.544
 4195W        W 8246  11.425   4.372   0.624
 4196W        W 8247   5.923   4.589   9.289
 4197W        W 8248  10.459   5.099   1.778
 4198W        W 8249   5.189   3.961   0.909
 4199W        W 8250   4.693   6.968  10.859
 4200W        W 8251   1.137  10.648   3.549
 4201W        W 8252   5.409  10.323  10.285
 4202W        W 8253   7.678   2.713   9.531
 4203W        W 8254   6.648   0.922   0.466
 4204W        W 8255   8.149   8.690   1.981
 4205W        W 8256   0.767   1.080  11.322
 4206W        W 8257   1.560   0.843   0.554
 4207W        W 8258   8.560   5.578  11.414
 4208W        W 8259   4.541   7.534  10.560
 4209W        W 8260   1.485   3.028   9.048
 4210W        W 8261   2.545   8.618  10.999
 4211W        W 8262   6.340   2.324   0.368
 4212W        W 8263   9.284   4.196   9.384
 4213W        W 8264  11.224   5.370   1.459
 4214W        W 8265   4.349   6.678   9.971
 4215W        W 8266   9.651   1.017   1.715
 4216W        W 8267   9.128   8.066   0.790
 4217W        W 8268  10.436  10.305  11.049
 4218W        W 8269   9.829   9.559  11.646
 4219W        W 8270  10.497   8.478   9.150
 4220W        W 8271   3.022  10.942   1.321
 4221W        W 8272   0.734   3.838   9.938
 4222W        W 8273  10.201   7.679   1.120
 4223W        W 8274   9.107   1.749   8.765
 4224W        W 8275   9.497   8.434   2.153
 4225W        W 8276   7.412   7.571  10.868
 4226W        W 8277   0.888   9.546   2.150
 4227W        W 8278   1.966   9.578   1.211
 4228W        W 8279   4.161   6.263   9.734
 4229W        W 8280   0.527   2.603   1.489
 4230W        W 8281   5.904   5.743   2.310
 4231W        W 8282   5.068   0.481   8.941
 4232W        W 8283   7.729  10.572   0.258
 4233W        W 8284   7.670   9.046   2.580
 4234W        W 8285   7.423   2.760   0.896
 4235W        W 8286   8.228   1.335  11.746
 4236W        W 8287   2.334   8.492   9.305
 4237W        W 8288   7.953  11.339   2.512
 4238W        W 8289   4.253   7.048   1.258
 4239W        W 8290   8.531   0.171   1.496
 4240W        W 8291   9.290   4.486  11.417
 4241W        W 8292  11.309   1.232  11.035
 4242W        W 8293   3.678   1.338   9.644
 4243W        W 8294   9.136   5.766   8.706
 4244W        W 8295  10.004  10.572  11.293
 4245W        W 8296   2.282   7.253  11.536
 4246W        W 8297   4.842   2.110   1.927
 4247W        W 8298   5.237   1.193  10.076
 4248W        W 8299  11.455  10.434   3.283
 4249W        W 8300   1.762   8.407   1.816
 4250W        W 8301   6.047   3.689   3.834
 4251W        W 8302   4.099   4.750   8.677
 4252W        W 8303   8.124   9.425   1.803
 4253W        W 8304   5.864   8.956   0.034
 4254W        W 8305  11.158   4.296  10.293
 4255W        W 8306   4.051   1.486   0.941
 4256W        W 8307  11.449   7.708   1.245
 4257W        W 8308   5.271   8.449  11.526
 4258W        W 8309   4.730   4.336  11.792
 4259W        W 8310   9.960   1.681   0.376
 4260W        W 8311   8.401  10.389   1.411
 4261W        W 8312  10.519  10.792   8.964
 4262W        W 8313   0.488   9.565   2.992
 4263W        W 8314   7.389   4.053   9.173
 4264W        W 8315   1.703   5.978   3.259
 4265W        W 8316   4.314   0.274   0.446
 4266W        W 8317   6.223   7.495  11.283
 4267W        W 8318   7.173   9.138  10.070
 4268W        W 8319   2.924   0.948   2.095
 4269W        W 8320   9.393   8.921   3.550
 4270W        W 8321   2.235   2.839   2.528
 4271W        W 8322  11.235   0.050   0.906
 4272W        W 8323   6.582   3.632   1.899
 4273W        W 8324   6.137   2.490   0.838
 4274W        W 8325   2.013  10.744   0.844
 4275W        W 8326   7.985   4.035  11.905
 4276W        W 8327   7.433  10.908   9.870
 4277W        W 8328  10.969   1.237   9.143
 4278W        W 8329  10.712   6.547   1.761
 4279W        W 8330  10.363   6.042   9.496
 4280W        W 8331   8.350   2.364  11.462
 4281W        W 8332   8.424   1.541   2.673
 4282W        W 8333   3.108   2.145   2.586
 4283W        W 8334   7.590   2.539   3.170
 4284W        W 8335   7.879  10.467   8.476
 4285W        W 8336   4.962   8.974   9.519
 4286W        W 8337   5.048   8.840  11.831
 4287W        W 8338   2.701   2.211   2.969
 4288W        W 8339   6.448   5.921  11.972
 4289W        W 8340   7.594   6.871   0.826
 4290W        W 8341   5.343   0.354  11.518
 4291W        W 8342   9.179   2.798   2.838
 4292W        W 8343   1.738  11.273   2.953
 4293W        W 8344   4.217   9.529  11.987
 4294W        W 8345   8.998   4.103  11.165
 4295W        W 8346   1.841   9.188   2.272
 4296W        W 8347   6.877   9.403   2.484
 4297W        W 8348   8.347   1.582   1.365
 4298W        W 8349   6.986   6.946  11.025
 4299W        W 8350   9.101   3.110   3.219
 4300W        W 8351   3.556   9.329   0.895
 4301W        W 8352   8.376   1.083   2.159
 4302W        W 8353   6.945   4.654   1.224
 4303W        W 8354   1.805   8.866   0.891
 4304W        W 8355   3.614   1.746   1.724
 4305W        W 8356   5.616   1.732  11.455
 4306W        W 8357   4.246   3.174   9.555
 4307W        W 8358   8.561   2.770   8.654
 4308W        W 8359  10.684   2.308  10.545
 4309W        W 8360   6.427  10.530   8.430
 4310W        W 8361   9.350  10.807   9.800
 4311W        W 8362   1.722  10.887   0.018
 4312W        W 8363   2.765   5.642  11.258
 4313W        W 8364   0.150   2.433   9.639
 4314W        W 8365   4.383   8.682  10.919
 4315W        W 8366   9.086   2.405   1.682
 4316W        W 8367   0.575   2.921   1.875
 4317W        W 8368   2.471   2.518   9.644
 4318W        W 8369   2.829   0.086   3.234
 4319W        W 8370   3.628   0.752   0.837
 4320W        W 8371   1.882  10.016  11.767
 4321W        W 8372   1.834  10.633   8.795
 4322W        W 8373   1.018   0.654   9.885
 4323W        W 8374   8.569   5.337   0.799
 4324W        W 8375   6.734   7.487   8.690
 4325W        W 8376  10.397   5.535  11.863
 4326W        W 8377   5.137   7.367   2.260
 4327W        W 8378   1.229   2.633   9.871
 4328W        W 8379  10.043   6.722   4.367
 4329W        W 8380  10.740   5.094   8.997
 4330W        W 8381   4.117   6.495   4.175
 4331W        W 8382   0.622  11.212   8.561
 4332W        W 8383   5.584   8.012  10.711
 4333W        W 8384   8.694   7.122   2.143
 4334W        W 8385  10.950   0.822  10.944
 4335W        W 8386   6.844   6.119   0.242
 4336W        W 8387  10.375  11.490  11.367
 4337W        W 8388   8.485   1.643  10.044
 4338W        W 8389   3.263   3.027   2.693
 4339W        W 8390   3.531   9.051   0.057
 4340W        W 8391   8.597   9.630  10.623
 4341W        W 8392   9.994  11.320  10.531
 4342W        W 8393  10.899   5.110   9.819
 4343W        W 8394   7.152  11.421   9.927
 4344W        W 8395  10.518   6.577   0.855
 4345W        W 8396   5.485  10.937   2.112
 4346W        W 8397   9.930   9.206   0.037
 4347W        W 8398  10.201   7.998  10.942
 4348W        W 8399   0.941  10.587   9.042
 4349W        W 8400  11.452   2.216   2.309
 4350W        W 8401   5.164   1.745   1.726
 4351W        W 8402   0.376   8.493  11.034
 4352W        W 8403   0.508   8.128   2.688
 4353W        W 8404   8.457   7.216   8.902
 4354W        W 8405   8.394   5.140   1.334
 4355W        W 8406   0.318   7.463   0.500
 4356W        W 8407  10.071   7.020   3.571
 4357W        W 8408   3.056   2.581   2.840
 4358W        W 8409   5.642   7.138   0.199
 4359W        W 8410   2.342  10.928   2.802
 4360W        W 8411  11.320   9.078   2.928
 4361W        W 8412   9.321   9.351   1.265
 4362W        W 8413  11.469   4.137  10.710
 4363W        W 8414   0.992   7.979   1.509
 4364W        W 8415   1.551   9.681   3.284
 4365W        W 8416   6.543   3.429  11.816
 4366W        W 8417   4.270   0.366   9.376
 4367W        W 8418   4.180   0.057   1.707
 4368W        W 8419   8.370   4.202  10.440
 4369W        W 8420   7.596   8.584   2.796
 4370W        W 8421  10.362   1.017  10.306
 4371W        W 8422   7.565   6.703   2.943
 4372W        W 8423   6.032   4.545  10.783
 4373W        W 8424   0.003   2.226   2.816
 4374W        W 8425   9.287   6.432   0.545
 4375W        W 8426   9.875   7.878  10.475
 4376W        W 8427  10.632   1.742  11.417
 4377W        W 8428   6.276   6.586  11.674
 4378W        W 8429   6.188   1.402  10.437
 4379W        W 8430   4.563  10.898  11.593
 4380W        W 8431   9.874   8.121   1.984
 4381W        W 8432   6.066   9.203   1.202
 4382W        W 8433   5.550   7.030  10.850
 4383W        W 8434   0.536   7.376  11.449
 4384W        W 8435   0.623   4.235   2.679
 4385W        W 8436   1.989   5.674   8.654
 4386W        W 8437   3.527   1.774   9.891
 4387W        W 8438   5.435   5.660  10.508
 4388W        W 8439   6.404   9.489   1.518
 4389W        W 8440   0.850   4.636   0.965
 4390W        W 8441  10.466   7.403   3.670
 4391W        W 8442   6.295   4.108   2.705
 4392W        W 8443   2.470   2.645  11.065
 4393W        W 8444   1.701   7.389   0.748
 4394W        W 8445   1.650   3.302   0.994
 4395W        W 8446   0.028  10.920   8.917
 4396W        W 8447   7.375  10.051   0.918
 4397W        W 8448   9.304   1.062   2.121
 4398W        W 8449   1.232   4.255   0.498
 4399W        W 8450   5.605   4.367  11.837
 4400W        W 8451   8.481   2.340   9.578
 4401W        W 8452   1.839   1.011   1.543
 4402W        W 8453   8.695   2.132   0.784
 4403W        W 8454   4.518   2.170  10.911
 4404W        W 8455   1.520  11.270   9.037
 4405W        W 8456   9.901   9.154   2.852
 4406W        W 8457   8.452   4.843   0.904
 4407W        W 8458   0.450   0.280  11.756
 4408W        W 8459   5.172   7.753   1.337
 4409W        W 8460  10.490   1.667   2.859
 4410W        W 8461   7.893   6.470   0.750
 4411W        W 8462   5.972   5.236  10.079
 4412W        W 8463   4.635   5.306  11.733
 4413W        W 8464   8.685   2.113   9.984
 4414W        W 8465   1.705  11.307   9.892
 4415W        W 8466  11.486  10.319   9.609
 4416W        W 8467   2.866  11.143  10.312
 4417W        W 8468   4.522   0.387   1.971
 4418W        W 8469   5.745   9.431  10.304
 4419W        W 8470   5.610   0.274   1.378
 4420W        W 8471   7.842   1.000   0.935
 4421W        W 8472   7.779   9.915   8.789
 4422W        W 8473   1.830  10.986   1.616
 4423W        W 8474   1.269   7.994   9.891
 4424W        W 8475   4.549   9.303   3.555
 4425W        W 8476   6.042   6.713   0.877
 4426W        W 8477   8.182   7.075   2.101
 4427W        W 8478   0.320   4.826   2.140
 4428W        W 8479   4.615   9.811  10.249
 4429W        W 8480   0.405   0.241  10.133
 4430W        W 8481  11.263   0.836  11.366
 4431W        W 8482   7.592   9.898   2.323
 4432W        W 8483   5.183  10.006   8.435
 4433W        W 8484   4.052   9.253   9.002
 4434W        W 8485   5.053   2.978   0.068
 4435W        W 8486   3.455   6.010   3.058
 4436W        W 8487  10.350  10.081   0.767
 4437W        W 8488   3.129   5.270  11.366
 4438W        W 8489   0.437  10.854   9.874
 4439W        W 8490   2.322   5.537  11.067
 4440W        W 8491   6.652   0.542  10.691
 4441W        W 8492   1.171   0.504   0.420
 4442W        W 8493   3.331   7.964   1.799
 4443W        W 8494   0.960   2.907   2.186
 4444W        W 8495   2.713   5.566   9.790
 4445W        W 8496   3.484   0.555   1.846
 4446W        W 8497  10.394   1.734   3.401
 4447W        W 8498   7.627   0.412   0.940
 4448W        W 8499  10.753   2.984  10.878
 4449W        W 8500   8.300   1.460   8.968
 4450W        W 8501   7.947   8.700   9.484
 4451W        W 8502   3.372   9.995   9.362
 4452W        W 8503  10.887  10.909  10.595
 4453W        W 8504   0.217   1.949   1.907
 4454W        W 8505   0.495   9.335  10.868
 4455W        W 8506  10.328   2.493   8.573
 4456W        W 8507   6.959  10.360   2.884
 4457W        W 8508   4.570   4.811   0.981
 4458W        W 8509   8.511   3.956  10.862
 4459W        W 8510   8.334   2.143   0.405
 4460W        W 8511   0.868   7.298   2.660
 4461W        W 8512   8.170   3.747   8.643
 4462W        W 8513   3.509   7.615   0.592
 4463W        W 8514   1.618   1.052   9.130
 4464W        W 8515   6.129  10.261   8.750
 4465W        W 8516  11.292   3.784   2.390
 4466W        W 8517  10.414  11.499  10.229
 4467W        W 8518   8.499   8.098   1.158
 4468W        W 8519   0.048   9.512  11.792
 4469W        W 8520   5.261  10.345   1.401
 4470W        W 8521   5.595  10.443  11.733
 4471W        W 8522   2.869   9.567   0.341
 4472W        W 8523   8.150   2.761   0.317
 4473W        W 8524   1.417   4.655   2.876
 4474W        W 8525   2.837   6.397   9.965
 4475W        W 8526  10.835  10.923  11.890
 4476W        W 8527   8.339   9.499   8.508
 4477W        W 8528   9.456   5.346  11.258
 4478W        W 8529   8.957   5.237   3.284
 4479W        W 8530   3.409   2.219   1.704
 4480W        W 8531  10.482  10.888   2.720
 4481W        W 8532  10.426  11.280   9.749
 4482W        W 8533   1.285   4.780  10.319
 4483W        W 8534   2.659   0.044  11.280
 4484W        W 8535   8.132   2.736  11.790
 4485W        W 8536   1.362   6.995  11.073
 4486W        W 8537   1.481   6.294  11.683
 4487W        W 8538   2.181   5.785  11.886
 4488W        W 8539  11.347   9.019  11.779
 4489W        W 8540  10.055   2.969   2.865
 4490W        W 8541   4.514   2.954   3.071
 4491W        W 8542   9.976   3.191   9.258
 4492W        W 8543  10.885   3.141   1.489
 4493W        W 8544   9.198   3.637  11.268
 4494W        W 8545   3.499   2.277  11.085
 4495W        W 8546   7.998   0.274   9.933
 4496W        W 8547   2.107   0.874   9.108
 4497W        W 8548   1.918   3.126   9.661
 4498W        W 8549  10.264  11.260   1.164
 4499W        W 8550   6.660  11.336   1.979
 4500W        W 8551   4.060   2.966   9.105
 4501W        W 8552   3.971   0.973  10.834
 4502W        W 8553   1.701   2.232  11.368
 4503W        W 8554   3.188   0.721  11.815
 4504W        W 8555   3.337   6.556   9.850
 4505W        W 8556   8.720   9.043  10.274
 4506W        W 8557   5.675   4.039   8.206
 4507W        W 8558   5.876  10.991   0.458
 4508W        W 8559   0.114   0.347   2.490
 4509W        W 8560   5.584   9.697   0.672
 4510W        W 8561   1.215   3.750   3.375
 4511W        W 8562   9.032  10.577   0.249
 4512W        W 8563   2.879   1.354   8.985
 4513W        W 8564   9.523   0.987  10.343
 4514W        W 8565   7.000   1.847   1.123
 4515W        W 8566   1.197   0.204   9.126
 4516W        W 8567   8.954   7.181   1.665
 4517W        W 8568  11.214   9.377  10.382
 4518W        W 8569   9.131   9.560   3.269
 4519W        W 8570   3.898   6.992   2.428
 4520W        W 8571   3.752   7.102  10.125
 4521W        W 8572   4.595   6.403   3.957
 4522W        W 8573   4.705   7.534   9.547
 4523W        W 8574   7.041   8.738  11.583
 4524W        W 8575   1.312  10.483  10.879
 4525W        W 8576   5.681   8.499   8.642
 4526W        W 8577   9.375   1.094   0.246
 4527W        W 8578   2.012   6.987   0.813
 4528W        W 8579   1.138   7.125   9.525
 4529W        W 8580   5.824   5.298  10.571
 4530W        W 8581   6.888   8.523   1.051
 4531W        W 8582   4.035   7.532  10.520
 4532W        W 8583   6.001   2.785   1.356
 4533W        W 8584  11.460   5.143  11.585
 4534W        W 8585   6.683   9.544   1.983
 4535W        W 8586   6.869   8.146  11.767
 4536W        W 8587   4.268   6.967   2.085
 4537W        W 8588   6.070   7.392   1.745
 4538W        W 8589   6.218   0.478  10.339
 4539W        W 8590   9.638   8.003   0.797
 4540W        W 8591   9.922   3.815  10.805
 4541W        W 8592  11.188   1.313   0.084
 4542W        W 8593   6.005   2.632   9.064
 4543W        W 8594  11.377   2.485  11.556
 4544W        W 8595   3.101   6.631   2.020
 4545W        W 8596   6.276   9.033   9.091
 4546W        W 8597   6.826   0.249   0.010
 4547W        W 8598   2.286   0.952  10.398
 4548W        W 8599   7.125   0.297  10.492
 4549W        W 8600   8.082   8.424  10.442
 4550W        W 8601   7.954   3.318  10.156
 4551W        W 8602   9.640  10.420   3.299
 4552W        W 8603   2.606   8.099   8.882
 4553W        W 8604   7.904   3.197   9.648
 4554W        W 8605   9.888   6.123   1.189
 4555W        W 8606   2.484   6.537   9.626
 4556W        W 8607   4.596   9.518  11.215
 4557W        W 8608   5.975   4.377   8.476
 4558W        W 8609   7.757   7.931   9.642
 4559W        W 8610   1.206  11.467   0.965
 4560W        W 8611   6.595  10.827   9.811
 4561W        W 8612   4.616   6.320   8.818
 4562W        W 8613   8.560   9.423   2.889
 4563W        W 8614   5.044  11.053  11.575
 4564W        W 8615   4.589  11.232   0.855
 4565W        W 8616   0.033   9.934   3.142
 4566W        W 8617   4.517   3.371   2.765
 4567W        W 8618   3.358   7.165   0.758
 4568W        W 8619   2.999   9.782   2.907
 4569W        W 8620  10.730  10.318   1.829
 4570W        W 8621   7.504   7.211   2.928
 4571W        W 8622  10.488   6.527   9.391
 4572W        W 8623  11.455   6.799  10.988
 4573W        W 8624   1.282   8.765  10.569
 4574W        W 8625   3.411   9.299   8.785
 4575W        W 8626   8.806   3.055  10.060
 4576W        W 8627   9.632   5.772   9.914
 4577W        W 8628   9.478   6.082   3.430
 4578W        W 8629   2.688   2.297  11.378
 4579W        W 8630   1.475   2.670  11.488
 4580W        W 8631   9.891   8.352  10.340
 4581W        W 8632   9.705   4.766   9.742
 4582W        W 8633   8.121   2.260  11.945
 4583W        W 8634   9.830   4.114  10.066
 4584W        W 8635   2.371  10.159  11.881
 4585W        W 8636   1.306   5.550  10.505
 4586W        W 8637   7.473   1.189  10.935
 4587W        W 8638  10.063   2.686   3.295
 4588W        W 8639   2.146   6.755  11.782
 4589W        W 8640   1.724   3.959   3.319
 4590W        W 8641   5.970   9.127   2.104
 4591W        W 8642  10.493   2.717   2.963
 4592W        W 8643  10.864   8.673   0.377
 4593W        W 8644   6.535  10.607   3.203
 4594W        W 8645   9.378   0.856   1.307
 4595W        W 8646   9.291   3.996   3.563
 4596W        W 8647   4.544  10.820  10.181
 4597W        W 8648   6.427  10.736   0.960
 4598W        W 8649   9.605  11.174   8.472
 4599W        W 8650  10.890   4.010   3.281
 4600W        W 8651   0.755   8.615   8.942
 4601W        W 8652   0.394   5.662   2.351
 4602W        W 8653   4.645   3.193  10.862
 4603W        W 8654  10.297  10.081  10.572
 4604W        W 8655  11.371   4.417   1.138
 4605W        W 8656   7.991   9.931   1.859
 4606W        W 8657   9.919   4.386   2.877
 4607W        W 8658   2.212   4.850   1.680
 4608W        W 8659   6.524   0.706   9.984
 4609W        W 8660   8.615   6.642   9.281
 4610W        W 8661   5.879   3.380  10.280
 4611W        W 8662   7.176   6.157   1.178
 4612W        W 8663   4.245   6.696   9.462
 4613W        W 8664   8.616   2.072   3.584
 4614W        W 8665   7.448   4.268  11.499
 4615W        W 8666   4.244   0.547  10.886
 4616W        W 8667   9.279   3.371   0.008
 4617W        W 8668   0.330   2.684  10.088
 4618W        W 8669   3.821   2.202   9.550
 4619W        W 8670   7.426  11.275   9.482
 4620W        W 8671   0.149   2.261  11.962
 4621W        W 8672   7.999  11.302   2.002
 4622W        W 8673   1.457   8.437   9.707
 4623W        W 8674   2.329   7.653   9.716
 4624W        W 8675   4.959   2.830   2.241
 4625W        W 8676   5.560   7.126   1.161
 4626W        W 8677   5.641   4.223   2.698
 4627W        W 8678   8.835   9.500   1.186
 4628W        W 8679   8.315   0.207   2.498
 4629W        W 8680   2.799   4.743  10.878
 4630W        W 8681   5.219   9.273  11.561
 4631W        W 8682   6.067   0.369   2.767
 4632W        W 8683   4.177   7.545   9.535
 4633W        W 8684   2.352   3.481   9.484
 4634W        W 8685  11.291  11.238   1.324
 4635W        W 8686   8.406  10.791   3.253
 4636W        W 8687   1.229   2.644   8.866
 4637W        W 8688   2.657   8.629   2.216
 4638W        W 8689  10.105   9.789   0.440
 4639W        W 8690   1.865   2.034  11.937
 4640W        W 8691   5.800   1.215   8.975
 4641W        W 8692   1.832   3.677  10.500
 4642W        W 8693   4.571   3.157   9.968
 4643W        W 8694   5.700   3.633  10.985
 4644W        W 8695   6.455   8.284  10.861
 4645W        W 8696   9.370  10.796   3.076
 4646W        W 8697   1.185   3.129   8.659
 4647W        W 8698   7.713   8.588   2.280
 4648W        W 8699  10.957   8.647   9.346
 4649W        W 8700   3.121   0.814   0.742
 4650W        W 8701   4.709   9.082  10.949
 4651W        W 8702   3.161   0.872   9.098
 4652W        W 8703   6.345   8.858  11.949
 4653W        W 8704   5.162  10.542   3.333
 4654W        W 8705  11.337   2.615  10.030
 4655W        W 8706   8.091   0.982   9.078
 4656W        W 8707   6.748   7.696  11.547
 4657W        W 8708   2.168   9.814   0.747
 4658W        W 8709   0.345  10.954   2.599
 4659W        W 8710  11.080   2.608  10.501
 4660W        W 8711   7.549   5.992   0.832
 4661W        W 8712   3.176   4.365   1.213
 4662W        W 8713   2.341   4.151  11.593
 4663W        W 8714  10.026  10.204   2.305
 4664W        W 8715   7.266  10.312   2.460
 4665W        W 8716   8.292   8.525   3.407
 4666W        W 8717   1.317   9.276   8.979
 4667W        W 8718  10.907   0.868  11.874
 4668W        W 8719   6.493   0.094   2.884
 4669W        W 8720  10.387   8.971   0.096
 4670W        W 8721   2.695   1.155   0.339
 4671W        W 8722   7.816   7.732   0.887
 4672W        W 8723   7.520   4.627  10.038
 4673W        W 8724   5.689   3.579   0.272
 4674W        W 8725  10.490   3.613   1.307
 4675W        W 8726   8.257   2.457   1.953
 4676W        W 8727   0.003   9.040   9.134
 4677W        W 8728   3.238   3.360   9.464
 4678W        W 8729   1.670  10.687   0.464
 4679W        W 8730   2.285   4.376   1.454
 4680W        W 8731   0.550   7.052   0.239
 4681W        W 8732  11.015   7.172   9.011
 4682W        W 8733  10.129   9.101   0.950
 4683W        W 8734   1.503   3.193   3.593
 4684W        W 8735   4.817   0.475  11.526
 4685W        W 8736   0.828  10.911   0.218
 4686W        W 8737   9.512   2.377   1.017
 4687W        W 8738   2.863  10.942   8.491
 4688W        W 8739   5.002   9.522   3.372
 4689W        W 8740   8.068   8.501   0.409
 4690W        W 8741   0.568   2.317   0.283
 4691W        W 8742   0.818   7.417   3.557
 4692W        W 8743   8.065   2.080   8.564
 4693W        W 8744   8.566   8.454   2.508
 4694W        W 8745   6.179   6.209  10.270
 4695W        W 8746   0.302   5.258  10.264
 4696W        W 8747   9.834   9.446  11.124
 4697W        W 8748  10.268   0.797   2.699
 4698W        W 8749   2.893   5.056   2.180
 4699W        W 8750   4.975  11.060  10.323
 4700W        W 8751   4.038  10.580  10.254
 4701W        W 8752   9.605  11.023  10.333
 4702W        W 8753   2.965   4.974   1.694
 4703W        W 8754  10.124   3.762  11.265
 4704W        W 8755   5.102  10.955   1.525
 4705W        W 8756   7.535   0.589  10.647
 4706W        W 8757   6.728   6.283  10.522
 4707W        W 8758   6.252   7.166   0.846
 4708W        W 8759   0.125   4.109   2.626
 4709W        W 8760   7.024   1.442   2.132
 4710W        W 8761   2.978   6.884   1.004
 4711W        W 8762  10.622   0.799   1.800
 4712W        W 8763   9.612   1.651  11.454
 4713W        W 8764   2.454   7.027   0.538
 4714W        W 8765   3.150   9.591  10.089
 4715W        W 8766  10.475   8.993   9.218
 4716W        W 8767   5.126  10.558  11.601
 4717W        W 8768   4.765   5.243   1.273
 4718W        W 8769   8.096   0.642   2.229
 4719W        W 8770   0.611   8.706   0.914
 4720W        W 8771   3.491   4.642   3.556
 4721W        W 8772   6.106   5.209   1.049
 4722W        W 8773   2.032   9.068   1.314
 4723W        W 8774   4.843   0.989   9.314
 4724W        W 8775   0.900   2.445   0.708
 4725W        W 8776   8.623   4.627   9.528
 4726W        W 8777   7.254   9.970  11.077
 4727W        W 8778   4.263   7.137  10.274
 4728W        W 8779   7.389   0.823  10.212
 4729W        W 8780   2.595   4.287  10.708
 4730W        W 8781   0.469  10.818   1.649
 4731W        W 8782   9.736   6.614  10.859
 4732W        W 8783   5.876   6.904   3.526
 4733W        W 8784   5.631   4.525   3.482
 4734W        W 8785  10.803   9.564  11.308
 4735W        W 8786   1.564   6.898   0.533
 4736W        W 8787  10.341   3.692   2.502
 4737W        W 8788   8.864  10.921   3.019
 4738W        W 8789   6.373   0.656   9.516
 4739W        W 8790   9.890   0.442  11.814
 4740W        W 8791   6.024   2.671   9.951
 4741W        W 8792   3.164   1.014   3.002
 4742W        W 8793   1.609   0.664   9.964
 4743W        W 8794   4.732   5.236   1.791
 4744W        W 8795   1.818   0.467  11.749
 4745W        W 8796   1.694   3.370  11.938
 4746W        W 8797  11.414   6.162  10.944
 4747W        W 8798   0.706   9.549   1.106
 4748W        W 8799   6.104   7.898   1.750
 4749W        W 8800   1.237   8.273  10.707
 4750W        W 8801   2.696   0.381  11.733
 4751W        W 8802   5.554   6.703   0.881
 4752W        W 8803   0.266   6.185   1.031
 4753W        W 8804   1.725   9.544   9.116
 4754W        W 8805   7.766   6.564  11.891
 4755W        W 8806   9.971   7.983   9.186
 4756W        W 8807   1.889   7.200   8.929
 4757W        W 8808   7.371  11.294  10.367
 4758W        W 8809   4.867  10.835   0.011
 4759W        W 8810   1.385  10.699   2.785
 4760W        W 8811   8.492   9.888   3.119
 4761W        W 8812   8.138  11.476   3.471
 4762W        W 8813   8.033   0.227   1.315
 4763W        W 8814   4.695   2.201  10.073
 4764W        W 8815   2.252   5.696   2.220
 4765W        W 8816   4.319   1.885  10.160
 4766W        W 8817   9.473  10.097   9.446
 4767W        W 8818   1.386   1.475   0.402
 4768W        W 8819  10.405   5.464   8.851
 4769W        W 8820   5.695  11.378   2.251
 4770W        W 8821  10.285   5.316   1.295
 4771W        W 8822   3.660   8.238   2.687
 4772W        W 8823   2.629   9.096   2.436
 4773W        W 8824   5.008   6.178   1.419
 4774W        W 8825  11.460   4.742  10.084
 4775W        W 8826   2.511   7.165   3.628
 4776W        W 8827   0.708   7.581  10.190
 4777W        W 8828   8.055   0.474   8.925
 4778W        W 8829   1.897  11.240   3.455
 4779W        W 8830   1.068  10.516   1.025
 4780W        W 8831   0.174   9.349   0.482
 4781W        W 8832   9.079   3.443   1.864
 4782W        W 8833   9.676   3.705   0.125
 4783W        W 8834   5.969   1.684  11.812
 4784W        W 8835   9.951   5.239   1.691
 4785W        W 8836   6.087   6.405   1.743
 4786W        W 8837  10.420   5.820  10.989
 4787W        W 8838   6.601   4.324   1.440
 4788W        W 8839   8.210   3.722   2.802
 4789W        W 8840   0.872  11.247   3.614
 4790W        W 8841   3.931   9.825   3.565
 4791W        W 8842  11.244   1.219  10.318
 4792W        W 8843   5.345  10.687   0.095
 4793W        W 8844   6.255   1.540  11.411
 4794W        W 8845   3.237   7.193  11.887
 4795W        W 8846   5.889  11.083  10.415
 4796W        W 8847  11.073  11.224   2.188
 4797W        W 8848   6.058   7.604   0.722
 4798W        W 8849   6.527   9.844   0.848
 4799W        W 8850   1.933   3.279   2.358
 4800W        W 8851   2.894   2.263   1.701
 4801W        W 8852  10.037   9.906   1.343
 4802W        W 8853   2.028  10.480   0.079
 4803W        W 8854   6.178   8.667   9.476
 4804W        W 8855   0.810   2.791   2.650
 4805W        W 8856  10.828   2.243   9.296
 4806W        W 8857   4.229   1.098   3.674
 4807W        W 8858   2.289   3.113  11.268
 4808W        W 8859  10.690   0.085   2.232
 4809W        W 8860   2.544  11.369  11.785
 4810W        W 8861   0.986   1.396   2.808
 4811W        W 8862   1.317   1.043  10.102
 4812W        W 8863   3.104   1.183   0.019
 4813W        W 8864   8.547   3.577   0.404
 4814W        W 8865  11.479   3.865   0.489
 4815W        W 8866  10.433   5.319   9.894
 4816W        W 8867   2.230   5.234   8.574
 4817W        W 8868   2.652   5.053   3.189
 4818W        W 8869   6.544   3.960  11.809
 4819W        W 8870   8.452   9.327   2.409
 4820W        W 8871   8.198   2.346   1.457
 4821W        W 8872   0.198   9.521   0.965
 4822W        W 8873   3.219   1.601  10.906
 4823W        W 8874   1.993  11.462  10.453
 4824W        W 8875   7.102   9.305   8.468
 4825W        W 8876   7.276   4.267   2.757
 4826W        W 8877   9.993  11.428  11.033
 4827W        W 8878   8.370   0.836  11.691
 4828W        W 8879   4.665   3.745   9.049
 4829W        W 8880   6.032   9.593   3.097
 4830W        W 8881   9.052   1.730   9.804
 4831W        W 8882   5.759   6.443   3.104
 4832W        W 8883   6.922   2.174  10.476
 4833W        W 8884   5.466   4.511   8.330
 4834W        W 8885   2.742   7.094   8.596
 4835W        W 8886   4.676   4.829  10.488
 4836W        W 8887   7.923   6.207   9.757
 4837W        W 8888   3.539  11.270   2.162
 4838W        W 8889  11.277   2.025   9.473
 4839W        W 8890  10.297   0.502  10.235
 4840W        W 8891  10.399   8.351   0.475
 4841W        W 8892   4.530   2.385   0.511
 4842W        W 8893   7.013   8.915   1.751
 4843W        W 8894   5.138   2.625   8.992
 4844W        W 8895   6.980   2.750   2.255
 4845W        W 8896   2.577   0.928   0.794
 4846W        W 8897  10.562   3.509  11.280
 4847W        W 8898   9.629   4.072   0.461
 4848W        W 8899   6.097   8.166   1.309
 4849W        W 8900   3.112  11.305   0.959
 4850W        W 8901   0.270  10.031   0.919
 4851W        W 8902   5.690  10.484   1.656
 4852W        W 8903   6.926   2.915   0.981
 4853W        W 8904  10.437   4.890  10.821
 4854W        W 8905   3.518  10.841   1.297
 4855W        W 8906   8.045   2.312   2.411
 4856W        W 8907   8.328   0.210   1.984
 4857W        W 8908   2.428   5.133  10.796
 4858W        W 8909   1.872   9.673   2.028
 4859W        W 8910   2.262  10.500   9.630
 4860W        W 8911   3.037   9.329   2.666
 4861W        W 8912   6.792   2.623   2.711
 4862W        W 8913  10.658   5.494   3.105
 4863W        W 8914   6.816   8.013   1.066
 4864W        W 8915   3.900   8.762   0.443
 4865W        W 8916   8.558  10.835   9.070
 4866W        W 8917   9.962  10.938  10.878
 4867W        W 8918   0.234  11.402   8.837
 4868W        W 8919   9.393   7.508   2.570
 4869W        W 8920  11.463   6.548   1.352
 4870W        W 8921  10.460   3.189   3.215
 4871W        W 8922   4.857   1.785   2.355
 4872W        W 8923  10.346   4.657  11.880
 4873W        W 8924   7.575   2.029   3.013
 4874W        W 8925   6.116   8.436   1.743
 4875W        W 8926  10.814   0.637   2.299
 4876W        W 8927   3.902   1.418   2.811
 4877W        W 8928   1.454   6.096   0.559
 4878W        W 8929   6.173   5.049   0.019
 4879W        W 8930   7.040   5.166   1.150
 4880W        W 8931   2.292  10.284   1.497
 4881W        W 8932   8.837   1.315   2.229
 4882W        W 8933   8.571  10.367   9.967
 4883W        W 8934   0.767   0.577  11.411
 4884W        W 8935   1.494   4.088   2.339
 4885W        W 8936   4.080   6.349   8.088
 4886W        W 8937   8.882   2.081   3.130
 4887W        W 8938   2.182   2.391   2.275
 4888W        W 8939  10.591   0.292   9.810
 4889W        W 8940   0.761   9.485  10.401
 4890W        W 8941   3.587   7.448  11.267
 4891W        W 8942   7.731   5.068  11.045
 4892W        W 8943   3.141   6.767   8.502
 4893W        W 8944   0.911   7.962   0.595
 4894W        W 8945   5.989   2.568   3.595
 4895W        W 8946   3.177   7.617  10.537
 4896W        W 8947   8.377  10.857  10.033
 4897W        W 8948   9.566  10.895   8.930
 4898W        W 8949   3.502   8.885   9.530
 4899W        W 8950   7.794   3.609   1.882
 4900W        W 8951   2.958   1.150  10.930
 4901W        W 8952   2.312   7.458  11.065
 4902W        W 8953   7.951   5.507  10.316
 4903W        W 8954   5.199   8.608   1.649
 4904W        W 8955  11.459   2.079   9.946
 4905W        W 8956   6.603   1.433   0.358
 4906W        W 8957   2.605   5.767   0.246
 4907W        W 8958   0.866   3.617  11.962
 4908W        W 8959   3.671   6.294   9.007
 4909W        W 8960   0.892   9.550   9.095
 4910W        W 8961  10.156   6.577   3.832
 4911W        W 8962   4.655   7.468  11.068
 4912W        W 8963   7.124   8.055   0.224
 4913W        W 8964  10.000   5.169   9.553
 4914W        W 8965   0.323   1.653   2.309
 4915W        W 8966   2.875   1.417   2.832
 4916W        W 8967   1.494  10.438   2.316
 4917W        W 8968  11.419   7.017  11.449
 4918W        W 8969   9.512   3.429   2.161
 4919W        W 8970   8.957   0.896   9.335
 4920W        W 8971   3.670  10.347   1.182
 4921W        W 8972  10.922   2.195  11.452
 4922W        W 8973  10.447   0.109   9.336
 4923W        W 8974   9.243   6.097   2.421
 4924W        W 8975   6.878   7.493   3.173
 4925W        W 8976   6.264  11.314   1.650
 4926W        W 8977   6.378   5.877   9.623
 4927W        W 8978   7.286   2.746   1.378
 4928W        W 8979  10.235   6.500   1.917
 4929W        W 8980   0.752   5.763  11.046
 4930W        W 8981   5.446   2.830   2.417
 4931W        W 8982   7.527   0.462   0.432
 4932W        W 8983   1.140   6.018   0.947
 4933W        W 8984   3.593   8.526   3.125
 4934W        W 8985  10.205   1.148   0.032
 4935W        W 8986   2.739   1.909   0.698
 4936W        W 8987   3.193  10.464   9.576
 4937W        W 8988   3.923   6.966  11.165
 4938W        W 8989   7.429   1.960  10.507
 4939W        W 8990   4.234   2.408   8.817
 4940W        W 8991   3.401   9.872  11.936
 4941W        W 8992   8.762   3.834   1.701
 4942W        W 8993   8.038   6.530   2.767
 4943W        W 8994   1.154  10.448  11.992
 4944W        W 8995  10.455   7.485   0.168
 4945W        W 8996  10.889   1.555   2.454
 4946W        W 8997   9.936   8.944   0.480
 4947W        W 8998   9.626   4.206   9.004
 4948W        W 8999   2.615   1.349  11.253
 4949W        W 9000   4.210  11.039   1.693
 4950W        W 9001   7.018   0.819   3.136
 4951W        W 9002   8.542   8.818   1.704
 4952W        W 9003   1.681   3.118   2.785
 4953W        W 9004   0.012   2.874  10.464
 4954W        W 9005   8.881   7.822  10.622
 4955W        W 9006   5.892  10.434   1.187
 4956W        W 9007   2.798  11.401   2.666
 4957W        W 9008   2.595   2.437   1.290
 4958W        W 9009  10.324   7.424   2.392
 4959W        W 9010   9.329   4.800   2.269
 4960W        W 9011   2.917   5.058   1.207
 4961W        W 9012  10.366   1.656  10.961
 4962W        W 9013  10.911   6.141   3.232
 4963W        W 9014   1.250   4.294   9.396
 4964W        W 9015   1.351   0.394   2.002
 4965W        W 9016   7.225   7.912  11.489
 4966W        W 9017   3.826   8.148   1.885
 4967W        W 9018   1.719   8.139   2.265
 4968W        W 9019   5.888   7.248  11.756
 4969W        W 9020   0.650   3.230   3.491
 4970W        W 9021   2.165   5.823   3.280
 4971W        W 9022  10.271  11.407   2.477
 4972W        W 9023   6.454   0.951  10.427
 4973W        W 9024   6.510   6.225   2.008
 4974W        W 9025  10.130   5.112  11.932
 4975W        W 9026  11.002   4.972  10.798
 4976W        W 9027   8.846   6.502   8.296
 4977W        W 9028   1.749   4.968   0.769
 4978W        W 9029   6.470   5.718   0.458
 4979W        W 9030   6.675   4.947  11.972
 4980W        W 9031   6.221  10.416   1.629
 4981W        W 9032  11.069   0.498   9.894
 4982W        W 9033  10.150   3.807   0.249
 4983W        W 9034   5.241   6.727   2.259
 4984W        W 9035   9.347   5.955   9.503
 4985W        W 9036   0.411   9.032  11.595
 4986W        W 9037   2.313   3.742   0.326
 4987W        W 9038   4.939   9.957   9.230
 4988W        W 9039   9.102   5.508   9.567
 4989W        W 9040   1.733   6.742   9.893
 4990W        W 9041   4.765  11.478  11.571
 4991W        W 9042   7.037   5.541  11.205
 4992W        W 9043   2.501   4.135   2.271
 4993W        W 9044   6.650  11.018   3.527
 4994W        W 9045   7.899   5.914  11.449
 4995W        W 9046   6.733   7.966   0.567
 4996W        W 9047   3.513   7.942   2.277
 4997W        W 9048   8.385   6.057  11.411
 4998W        W 9049  11.421   6.440   9.854
 4999W        W 9050   2.012   2.644   9.440
 5000W        W 9051   7.383   9.705   8.559
 5001W        W 9052   5.797   6.672   1.372
 5002W        W 9053  11.218   2.134   8.974
 5003W        W 9054   8.255  10.580  11.431
 5004W        W 9055   0.174   8.056  11.286
 5005W        W 9056   9.992   5.143   3.505
 5006W        W 9057   0.911   9.014   3.630
 5007W        W 9058   2.875   6.536  11.915
 5008W        W 9059   7.293  10.441  11.340
 5009W        W 9060   3.948   0.237   3.598
 5010W        W 9061   8.047   6.841   1.206
 5011W        W 9062   8.626   4.036   2.689
 5012W        W 9063   3.611  11.227   0.892
 5013W        W 9064   0.705   7.737   2.442
 5014W        W 9065   5.376   9.438   3.695
 5015W        W 9066   0.991   9.610  10.885
 5016W        W 9067   7.389   2.600   9.942
 5017W        W 9068   4.161   6.056   1.673
 5018W        W 9069   7.560  11.099   2.749
 5019W        W 9070   8.571   7.410  10.697
 5020W        W 9071   6.554   6.115   8.215
 5021W        W 9072   2.671   6.463   0.954
 5022W        W 9073   3.275   2.626  11.987
 5023W        W 9074   6.537   8.454   9.184
 5024W        W 9075   2.615  11.117   1.075
 5025W        W 9076   6.761  10.266   2.416
 5026W        W 9077   3.076   1.197   1.060
 5027W        W 9078   8.706  10.311   9.021
 5028W        W 9079   5.446   3.128   9.267
 5029W        W 9080   5.938   5.807  10.512
 5030W        W 9081  10.034   3.706  11.754
 5031W        W 9082  10.016   5.592   9.166
 5032W        W 9083   8.516   2.588  10.110
 5033W        W 9084   5.292   2.141  11.489
 5034W        W 9085   0.560   2.315  10.364
 5035W        W 9086   1.356   9.510  11.579
 5036W        W 9087   6.684   8.379   2.273
 5037W        W 9088   8.126   9.492   3.232
 5038W        W 9089   9.861   8.645   2.836
 5039W        W 9090   2.546   6.662   3.444
 5040W        W 9091   1.369   1.457   1.789
 5041W        W 9092   9.805   9.334   2.152
 5042W        W 9093   5.310   5.118  11.608
 5043W        W 9094   6.702  11.452   1.428
 5044W        W 9095   8.916   8.229   8.166
 5045W        W 9096   2.727   7.913   9.868
 5046W        W 9097   1.692   1.569   2.594
 5047W        W 9098   5.781   9.155   0.554
 5048W        W 9099  10.918   5.554  11.880
 5049W        W 9100   1.480   4.545   9.018
 5050W        W 9101   5.588   6.149  10.674
 5051W        W 9102  11.251  10.748   9.446
 5052W        W 9103   9.349   1.847   1.066
 5053W        W 9104   5.247   1.386   8.592
 5054W        W 9105   9.636   3.787   9.502
 5055W        W 9106   2.505   2.923  10.520
 5056W        W 9107   3.745   8.455   9.240
 5057W        W 9108  11.115   1.495   0.970
 5058W        W 9109   8.621  10.810  10.484
 5059W        W 9110   5.597   7.640   8.321
 5060W        W 9111   1.389   5.684   2.752
 5061W        W 9112   7.572  10.933   1.319
 5062W        W 9113   0.472   1.477   0.284
 5063W        W 9114   4.515   1.275  11.988
 5064W        W 9115   0.259   7.517   2.517
 5065W        W 9116   2.470   5.296   0.517
 5066W        W 9117   7.801   5.500  11.711
 5067W        W 9118   7.599   8.912  10.177
 5068W        W 9119   3.055   1.836  10.048
 5069W        W 9120   4.010   0.475   1.944
 5070W        W 9121   7.490   0.674  11.612
 5071W        W 9122   4.080   4.824   0.805
 5072W        W 9123   9.553   1.363   2.928
 5073W        W 9124   6.640   7.545   9.187
 5074W        W 9125   3.263   7.805   8.920
 5075W        W 9126  11.477   0.791  10.821
 5076W        W 9127   1.430   5.100   9.012
 5077W        W 9128   7.149  10.449   3.340
 5078W        W 9129   1.342   2.316   2.871
 5079W        W 9130   8.782   3.133  11.011
 5080W        W 9131   1.783   7.641  11.874
 5081W        W 9132   4.089   2.215   2.178
 5082W        W 9133  10.113   1.715  11.410
 5083W        W 9134   3.391   8.658   2.666
 5084W        W 9135   7.826   7.429   3.264
 5085W        W 9136   4.586   4.397  11.309
 5086W        W 9137  11.289   9.257  11.277
 5087W        W 9138   8.558   7.189  10.228
 5088W        W 9139   3.449   7.056  10.972
 5089W        W 9140   1.942   0.254  10.000
 5090W        W 9141   2.928  10.047   0.513
 5091W        W 9142   0.528  10.974   9.017
 5092W        W 9143   1.778   6.441   2.451
 5093W        W 9144   3.602   8.860  10.019
 5094W        W 9145   8.528   2.833   3.146
 5095W        W 9146   6.999   0.710  11.788
 5096W        W 9147   9.346  11.171  11.693
 5097W        W 9148   9.322  11.112   9.346
 5098W        W 9149   2.654   5.565   9.264
 5099W        W 9150   1.382   7.894  10.405
 5100W        W 9151   4.349   9.095   8.582
 5101W        W 9152  11.115   9.591   3.083
 5102W        W 9153   0.810   6.605   0.261
 5103W        W 9154   3.801   8.026   0.511
 5104W        W 9155   2.458   9.618  11.138
 5105W        W 9156   8.999   6.291   1.803
 5106W        W 9157   4.355   7.111   2.608
 5107W        W 9158  10.758   8.234   3.125
 5108W        W 9159   6.629   9.402   0.562
 5109W        W 9160   1.364   0.480   0.920
 5110W        W 9161   4.536   3.025   1.931
 5111W        W 9162   8.590   3.619   8.384
 5112W        W 9163   4.475   5.999  10.648
 5113W        W 9164   4.501   1.442   3.349
 5114W        W 9165   3.502   9.139   2.755
 5115W        W 9166   0.813   5.305   3.115
 5116W        W 9167   0.281  11.046   3.603
 5117W        W 9168   0.235   9.447  10.424
 5118W        W 9169   1.852  10.904   2.618
 5119W        W 9170   1.988   3.194   3.413
 5120W        W 9171  11.424  10.806   2.304
 5121W        W 9172   0.384   5.412  11.657
 5122W        W 9173   1.715  11.386   1.929
 5123W        W 9174   3.746   7.625   1.877
 5124W        W 9175   7.991   6.938  11.529
 5125W        W 9176   4.590   4.360   1.702
 5126W        W 9177  10.880   0.986  10.056
 5127W        W 9178  10.624   2.248  11.878
 5128W        W 9179   5.474   5.221  10.216
 5129W        W 9180   7.449   8.855  10.667
 5130W        W 9181   4.035   3.099  10.515
 5131W        W 9182   0.767   4.340   9.068
 5132W        W 9183   3.239   6.675   9.367
 5133W        W 9184   4.489   3.754   2.330
 5134W        W 9185  10.873   2.152   3.535
 5135W        W 9186   6.517   9.793   2.378
 5136W        W 9187   0.943   1.589   3.319
 5137W        W 9188   0.947   1.910  11.501
 5138W        W 9189   1.383   9.914  11.258
 5139W        W 9190   2.651   3.795   9.947
 5140W        W 9191   3.390   3.204  11.976
 5141W        W 9192   1.012   7.936   2.867
 5142W        W 9193   8.151   4.629   3.155
 5143W        W 9194   6.008   2.808   8.571
 5144W        W 9195  10.416   6.999   3.207
 5145W        W 9196   6.199   1.791   0.266
 5146W        W 9197  11.457   9.207   1.770
 5147W        W 9198   0.425   9.554   2.470
 5148W        W 9199   5.004   4.309   3.588
 5149W        W 9200   1.565   1.915   1.696
 5150W        W 9201   2.198   0.806   1.176
 5151W        W 9202   5.233   1.246   1.621
 5152W        W 9203   3.042   5.365   3.371
 5153W        W 9204   6.041   7.424  10.781
 5154W        W 9205  10.852   2.767  10.061
 5155W        W 9206   6.171   2.143  11.870
 5156W        W 9207   4.601   4.846  11.963
 5157W        W 9208  10.500   1.258   3.190
 5158W        W 9209   0.890   8.420   1.240
 5159W        W 9210   5.705   0.947   9.405
 5160W        W 9211   6.888   4.061   1.832
 5161W        W 9212   3.593   5.203   8.347
 5162W        W 9213   8.838  11.381   1.177
 5163W        W 9214   3.715   7.445  11.750
 5164W        W 9215   9.059   2.290  10.999
 5165W        W 9216   9.995   9.833   9.303
 5166W        W 9217   4.218   5.167   1.584
 5167W        W 9218   2.486  10.435   2.571
 5168W        W 9219   1.295   4.731   0.691
 5169W        W 9220   1.260   8.136   1.048
 5170W        W 9221   1.901   4.077  10.124
 5171W        W 9222   2.701   4.639   2.443
 5172W        W 9223   7.904   8.808  11.579
 5173W        W 9224   8.556   5.765   2.594
 5174W        W 9225  10.264   7.022   0.941
 5175W        W 9226   0.936   4.180   3.534
 5176W        W 9227   0.917   5.516   2.527
 5177W        W 9228   8.764   6.103   1.018
 5178W        W 9229   1.694   4.166   2.828
 5179W        W 9230   2.077   9.545   3.110
 5180W        W 9231   5.132   7.007   0.221
 5181W        W 9232  10.727   2.667   1.666
 5182W        W 9233   9.529   5.756   9.023
 5183W        W 9234  10.846  10.429   8.744
 5184W        W 9235   3.607   4.205   1.462
 5185W        W 9236   0.413   5.478  10.770
 5186W        W 9237   6.086   7.634   1.236
 5187W        W 9238   9.627   1.212   3.407
 5188W        W 9239   3.353   4.293   9.918
 5189W        W 9240  10.935   1.132   3.420
 5190W        W 9241   8.094   1.917   9.117
 5191W        W 9242   6.074   0.844   3.520
 5192W        W 9243   0.699  10.858  10.317
 5193W        W 9244   6.959   9.612   8.863
 5194W        W 9245  11.087   2.454   2.612
 5195W        W 9246   9.220   5.357   9.101
 5196W        W 9247   0.936   4.149  10.764
 5197W        W 9248   9.534  10.356   2.368
 5198W        W 9249   3.848   6.458  11.303
 5199W        W 9250   1.828   7.541  10.937
 5200W        W 9251   3.711   6.135   2.008
 5201W        W 9252   2.675   1.761   9.286
 5202W        W 9253   8.939   4.139  10.165
 5203W        W 9254   4.945   3.064   9.177
 5204W        W 9255   6.404   6.215   0.484
 5205W        W 9256   8.630   1.891   9.048
 5206W        W 9257   9.455  10.825   2.185
 5207W        W 9258   9.115   5.208   0.025
 5208W        W 9259   4.643   9.490   0.267
 5209W        W 9260   3.386   7.072   2.342
 5210W        W 9261   2.010   6.339   9.720
 5211W        W 9262   6.786  11.128   0.921
 5212W        W 9263   3.993   0.994   9.934
 5213W        W 9264   6.128   0.546   8.809
 5214W        W 9265   9.123   6.613  11.679
 5215W        W 9266   9.573   1.461   1.962
 5216W        W 9267   8.986   8.521   8.586
 5217W        W 9268   6.594   6.828   3.408
 5218W        W 9269  10.408   5.215   0.432
 5219W        W 9270   0.807   7.128  10.515
 5220W        W 9271   2.241   5.580  10.586
 5221W        W 9272   1.525   4.972   9.856
 5222W        W 9273   0.288   2.128  11.487
 5223W        W 9274   9.381   0.026   2.942
 5224W        W 9275   7.980   1.193   0.164
 5225W        W 9276   3.367   7.075   1.268
 5226W        W 9277   3.548   8.452   1.131
 5227W        W 9278   8.939   7.307  11.545
 5228W        W 9279   2.466   4.230   0.097
 5229W        W 9280   0.866   0.276   1.339
 5230W        W 9281   5.301   1.126   9.061
 5231W        W 9282   7.955   9.350  10.889
 5232W        W 9283   1.244   8.652  11.086
 5233W        W 9284   2.636   0.095   2.196
 5234W        W 9285   3.181  10.835   0.140
 5235W        W 9286   0.637   5.484   0.437
 5236W        W 9287   1.099   1.826   9.512
 5237W        W 9288   2.090   2.906  10.827
 5238W        W 9289   8.476   4.926   2.317
 5239W        W 9290   6.638   0.420  11.203
 5240W        W 9291   9.353   9.850  11.962
 5241W        W 9292   9.685   8.545   1.145
 5242W        W 9293  11.143   8.198  10.676
 5243W        W 9294  11.033   3.969  10.979
 5244W        W 9295   9.315   2.179  11.509
 5245W        W 9296   3.202   4.781   2.519
 5246W        W 9297  11.220   0.477   0.086
 5247W        W 9298   1.503   2.716   9.444
 5248W        W 9299   9.814   2.126  11.494
 5249W        W 9300   7.598   4.128  10.170
 5250W        W 9301   0.660   7.607   3.007
 5251W        W 9302   0.966   2.824  11.347
 5252W        W 9303   6.087   2.044  10.841
 5253W        W 9304   7.241   1.492  11.340
 5254W        W 9305   1.809   8.193   3.106
 5255W        W 9306   3.923   2.797   1.153
 5256W        W 9307   8.539  10.026  11.800
 5257W        W 9308  10.429   1.272   1.788
 5258W        W 9309   1.718   0.024   0.941
 5259W        W 9310   9.258   7.614   1.553
 5260W        W 9311   9.529   8.932   9.875
 5261W        W 9312   9.119   5.414   1.884
 5262W        W 9313   3.722   3.085   9.596
 5263W        W 9314   1.701   0.699   3.057
 5264W        W 9315   7.086   6.321  10.153
 5265W        W 9316   5.116   0.745  10.753
 5266W        W 9317   2.843   2.805   1.517
 5267W        W 9318   1.340   8.913   9.524
 5268W        W 9319   4.402   9.967  11.675
 5269W        W 9320   9.371   3.860   9.953
 5270W        W 9321   2.779   0.071   1.225
 5271W        W 9322  10.771   5.380  11.022
 5272W        W 9323   1.327   7.568   0.370
 5273W        W 9324   0.044   4.802  11.032
 5274W        W 9325  11.039   3.518  11.803
 5275W        W 9326   1.214   4.676   2.354
 5276W        W 9327   4.961  10.383   9.542
 5277W        W 9328   4.281   7.056   3.190
 5278W        W 9329   3.420   6.669   0.736
 5279W        W 9330   5.724   8.531  11.333
 5280W        W 9331   9.631   5.122  11.954
 5281W        W 9332   3.406   0.237  10.953
 5282W        W 9333   6.457   3.577   2.383
 5283W        W 9334   9.118   2.438  11.909
 5284W        W 9335   2.734  10.276   9.638
 5285W        W 9336   4.849  10.103  11.445
 5286W        W 9337   8.910   2.945   1.786
 5287W        W 9338   2.871   9.434  10.873
 5288W        W 9339  11.443   1.161   3.315
 5289W        W 9340   3.435   8.833  11.079
 5290W        W 9341   0.381   4.471  10.714
 5291W        W 9342   6.192   8.668   1.198
 5292W        W 9343   2.292   5.663  10.100
 5293W        W 9344   0.481   1.788   1.387
 5294W        W 9345   0.788   6.570   9.532
 5295W        W 9346   0.920   1.256   2.333
 5296W        W 9347  10.780   4.181  11.834
 5297W        W 9348   1.205   9.748  10.336
 5298W        W 9349   4.341   6.546  11.333
 5299W        W 9350   9.160   7.121   2.342
 5300W        W 9351   1.220   6.256   9.465
 5301W        W 9352   3.362  11.285  10.162
 5302W        W 9353   5.126   0.306  11.007
 5303W        W 9354  11.400   1.689   3.176
 5304W        W 9355   1.411   3.114   2.358
 5305W        W 9356  10.849   7.428   0.512
 5306W        W 9357  10.755   6.580   0.408
 5307W        W 9358   5.160   9.931   1.705
 5308W        W 9359   9.481   4.882  11.071
 5309W        W 9360   7.010   0.991   0.806
 5310W        W 9361   2.070   1.529  11.095
 5311W        W 9362   6.190   0.889   1.873
 5312W        W 9363   7.949   1.387  10.908
 5313W        W 9364   1.601   4.190  10.548
 5314W        W 9365  10.792   8.621   2.728
 5315W        W 9366   5.290   0.678   0.291
 5316W        W 9367   3.593   9.624   1.596
 5317W        W 9368   3.355   6.675  11.859
 5318W        W 9369   8.388   1.681  10.823
 5319W        W 9370   1.498   4.514  11.313
 5320W        W 9371  10.402   1.562  11.832
 5321W        W 9372   5.241   0.353  10.001
 5322W        W 9373   9.882   2.677   9.851
 5323W        W 9374   6.637   4.058   0.999
 5324W        W 9375   1.330   6.086  10.361
 5325W        W 9376   7.677   2.169  10.088
 5326W        W 9377  10.585  11.070   2.248
 5327W        W 9378   9.751   5.267  10.843
 5328W        W 9379   0.008   5.562   2.784
 5329W        W 9380   5.801   6.093   2.686
 5330W        W 9381   6.844   9.746   3.652
 5331W        W 9382   3.897   4.206   2.308
 5332W        W 9383   9.841   0.026   2.727
 5333W        W 9384   4.687   7.348   1.982
 5334W        W 9385   3.880   0.578   0.438
 5335W        W 9386   8.694   7.396  11.988
 5336W        W 9387   5.123   3.498   0.012
 5337W        W 9388   1.420   7.540   9.477
 5338W        W 9389  11.367   5.567  10.229
 5339W        W 9390   2.378   2.990   9.414
 5340W        W 9391   8.986   1.451   0.213
 5341W        W 9392   8.029   7.443  11.584
 5342W        W 9393   8.089   8.771   2.997
 5343W        W 9394   7.675   1.523  10.497
 5344W        W 9395   5.698   2.368  11.283
 5345W        W 9396   7.977   1.894  11.063
 5346W        W 9397   1.405   0.049   0.499
 5347W        W 9398   6.644   4.994  10.564
 5348W        W 9399   1.016   1.976  10.347
 5349W        W 9400   1.754   3.515   3.089
 5350W        W 9401   0.049   9.008   0.824
 5351W        W 9402  10.126   4.221  11.023
 5352W        W 9403   3.003   7.879   8.026
 5353W        W 9404   2.036   5.098   0.350
 5354W        W 9405  10.417   1.454   2.258
 5355W        W 9406   1.380   0.291   2.494
 5356W        W 9407   0.050   5.240   8.524
 5357W        W 9408   2.697   0.887  11.895
 5358W        W 9409   2.712   0.582   2.393
 5359W        W 9410   4.699   7.927  10.828
 5360W        W 9411   0.468   4.537  11.218
 5361W        W 9412   0.960   5.803   2.994
 5362W        W 9413   9.067  10.876   1.820
 5363W        W 9414   3.746  11.484   2.770
 5364W        W 9415   6.436   1.514  11.886
 5365W        W 9416   6.635  10.446   8.930
 5366W        W 9417   4.305   4.680   9.145
 5367W        W 9418   7.202   3.364  10.561
 5368W        W 9419   9.431  10.250   0.861
 5369W        W 9420   9.072  10.777   9.041
 5370W        W 9421   1.919  11.257   9.391
 5371W        W 9422  10.241   9.633  11.971
 5372W        W 9423   0.389   4.620   0.690
 5373W        W 9424   6.070   4.571   2.670
 5374W        W 9425   8.055  10.036   9.575
 5375W        W 9426  11.410   0.105  10.108
 5376W        W 9427   4.415   2.776  10.633
 5377W        W 9428   2.828  10.788   9.436
 5378W        W 9429   5.519   4.602   9.626
 5379W        W 9430  10.345   2.879   9.994
 5380W        W 9431   5.081   0.342  11.955
 5381W        W 9432   7.504   4.010   1.073
 5382W        W 9433   6.804   7.117  10.402
 5383W        W 9434   4.587   4.642   2.521
 5384W        W 9435   7.125   5.292  10.352
 5385W        W 9436   6.234   3.859  11.435
 5386W        W 9437   2.924   6.610  11.412
 5387W        W 9438   9.935   9.584   1.720
 5388W        W 9439   9.040   8.945   8.877
 5389W        W 9440   8.970  11.474  11.965
 5390W        W 9441   7.518   9.695   0.499
 5391W        W 9442   2.665   1.426   0.828
 5392W        W 9443   1.202   8.387   0.239
 5393W        W 9444   8.095   2.380  11.019
 5394W        W 9445   1.140   9.144  11.030
 5395W        W 9446   5.709   1.456   1.419
 5396W        W 9447   6.202   3.807   3.310
 5397W        W 9448   4.145   8.239  10.738
 5398W        W 9449   8.092   6.759   9.579
 5399W        W 9450   3.868   8.663   1.838
 5400W        W 9451   8.929  11.428   3.175
 5401W        W 9452   4.165   8.858   1.230
 5402W        W 9453   6.101   1.905  10.363
 5403W        W 9454   8.636   9.482   3.373
 5404W        W 9455   3.641   7.514   9.728
 5405W        W 9456   3.586   0.984   2.667
 5406W        W 9457   1.202  10.809  10.296
 5407W        W 9458   8.870  10.395   1.132
 5408W        W 9459  11.315   4.681   2.155
 5409W        W 9460   5.231   2.741   8.496
 5410W        W 9461   4.271   5.209   1.076
 5411W        W 9462   1.725   6.458   3.033
 5412W        W 9463   0.235  11.463   9.330
 5413W        W 9464   3.243   1.268  10.516
 5414W        W 9465  10.007   8.614   0.076
 5415W        W 9466   3.409  11.004   8.401
 5416W        W 9467   5.420   9.507   1.467
 5417W        W 9468   5.512   8.976  10.372
 5418W        W 9469   6.083   4.525   9.771
 5419W        W 9470   2.929   8.126  11.459
 5420W        W 9471   8.479  11.247   8.755
 5421W        W 9472   0.832   2.360  10.810
 5422W        W 9473   9.470   4.532   0.442
 5423W        W 9474   2.450   3.232   2.281
 5424W        W 9475  10.091   2.275   2.310
 5425W        W 9476   7.320   6.166   8.816
 5426W        W 9477  10.674   0.299   2.729
 5427W        W 9478   7.551   0.447   1.441
 5428W        W 9479   7.639   9.965   9.290
 5429W        W 9480   3.665   2.697   2.863
 5430W        W 9481  10.422   5.966   8.992
 5431W        W 9482   0.368   3.717   9.415
 5432W        W 9483   8.730   6.343  10.023
 5433W        W 9484  10.984   4.614   9.909
 5434W        W 9485   5.022   4.771   0.657
 5435W        W 9486   3.863   9.893   3.044
 5436W        W 9487   9.015   3.789   2.889
 5437W        W 9488   2.180   0.826   2.625
 5438W        W 9489   7.031   5.487   1.552
 5439W        W 9490   0.045   6.151   0.546
 5440W        W 9491   4.686   9.853   3.110
 5441W        W 9492  10.693   3.104  11.555
 5442W        W 9493   9.895   2.251   9.563
 5443W        W 9494   3.143   4.254   8.902
 5444W        W 9495  10.042   0.361  11.333
 5445W        W 9496   8.065   2.635   3.353
 5446W        W 9497   3.950   5.258  11.090
 5447W        W 9498   1.168   4.252  10.305
 5448W        W 9499   0.480   1.212   2.077
 5449W        W 9500   4.327   0.250  11.528
 5450W        W 9501   3.362   0.332  10.425
 5451W        W 9502   5.854   0.543   1.755
 5452W        W 9503   5.276   7.887   2.209
 5453W        W 9504   4.643   8.536  11.943
 5454W        W 9505   8.433   7.188   1.154
 5455W        W 9506   9.486   6.545   2.585
 5456W        W 9507   8.299   3.819   9.149
 5457W        W 9508   3.302   7.900  11.201
 5458W        W 9509   8.266   3.183   8.496
 5459W        W 9510   7.437   6.106   2.131
 5460W        W 9511  10.842   5.680   9.028
 5461W        W 9512   5.994   9.146   9.496
 5462W        W 9513   5.736  11.007  11.962
 5463W        W 9514   8.962   9.979   9.598
 5464W        W 9515   5.254   1.622   9.766
 5465W        W 9516   8.991   6.435   1.317
 5466W        W 9517   4.774   9.926   0.036
 5467W        W 9518   7.716   7.574  11.972
 5468W        W 9519   0.727   2.225   1.197
 5469W        W 9520  10.943   4.310   9.347
 5470W        W 9521  10.771  11.039   8.571
 5471W        W 9522   1.286   5.240   0.748
 5472W        W 9523   6.999   9.852   1.740
 5473W        W 9524   8.093   5.423  11.296
 5474W        W 9525   1.185   5.244  10.103
 5475W        W 9526   2.722   3.277   0.738
 5476W        W 9527   7.459  10.547   1.687
 5477W        W 9528  10.012  10.429  10.808
 5478W        W 9529   6.284   6.661   2.183
 5479W        W 9530  10.271   9.195   2.279
 5480W        W 9531   2.401   2.301   1.803
 5481W        W 9532   8.851   7.638   0.786
 5482W        W 9533  10.964   4.738   1.180
 5483W        W 9534   9.815  10.987  11.784
 5484W        W 9535  11.128   2.259  11.961
 5485W        W 9536   3.900   1.591  11.486
 5486W        W 9537  11.473   4.234   8.554
 5487W        W 9538   7.585   7.074  11.818
 5488W        W 9539   5.949   2.758   1.884
 5489W        W 9540   1.829  10.922   2.118
 5490W        W 9541   6.112  10.492   3.653
 5491W        W 9542   8.711   8.974  11.541
 5492W        W 9543  10.508   4.072   3.619
 5493W        W 9544   4.608   0.454  10.439
 5494W        W 9545   5.237   0.812   2.449
 5495W        W 9546   7.362   7.631   3.222
 5496W        W 9547   9.671   2.647   2.795
 5497W        W 9548   1.789   0.443   8.473
 5498W        W 9549   8.056   6.834  10.375
 5499W        W 9550   9.309   1.101   8.556
 5500W        W 9551   6.901   2.473  11.528
 5501W        W 9552   8.632   0.764  10.667
 5502W        W 9553   0.738   7.684   8.873
 5503W        W 9554   2.205   3.653  11.807
 5504W        W 9555   9.444  10.844  10.815
 5505W        W 9556   8.878   4.342   1.715
 5506W        W 9557   4.837   7.178   8.957
 5507W        W 9558   5.342   8.277   2.593
 5508W        W 9559   0.502   3.197   9.279
 5509W        W 9560  10.529   6.139   0.365
 5510W        W 9561  10.923   6.643   9.113
 5511W        W 9562   0.962   6.151   0.440
 5512W        W 9563   5.861   1.378   0.236
 5513W        W 9564   1.348   8.952   1.516
 5514W        W 9565   7.747   2.477   1.249
 5515W        W 9566   2.714   3.019   8.808
 5516W        W 9567   9.476   9.159   0.357
 5517W        W 9568   3.680   0.863  11.827
 5518W        W 9569  10.079   5.142   0.852
 5519W        W 9570  11.061   7.370   2.046
 5520W        W 9571   1.601   8.065   8.838
 5521W        W 9572   1.572   2.892  11.940
 5522W        W 9573   4.161   1.264   9.507
 5523W        W 9574   6.065   3.260  11.603
 5524W        W 9575   6.181   6.748   9.383
 5525W        W 9576  11.349   8.901   0.311
 5526W        W 9577   4.093   9.277   0.876
 5527W        W 9578   8.050   5.226   2.350
 5528W        W 9579   6.881   1.668  11.697
 5529W        W 9580   5.291   7.159  10.422
 5530W        W 9581   9.113   8.085   3.234
 5531W        W 9582   7.225   3.794  11.327
 5532W        W 9583   7.117   8.960   1.244
 5533W        W 9584   0.381   5.038   9.792
 5534W        W 9585   9.594   8.889   1.962
 5535W        W 9586   8.429   0.300  10.860
 5536W        W 9587   3.676   4.586   1.081
 5537W        W 9588   6.151   0.304   9.837
 5538W        W 9589   1.528   5.646   0.945
 5539W        W 9590   4.441   0.838   9.617
 5540W        W 9591   3.710   3.613   0.250
 5541W        W 9592   8.783  10.306   0.628
 5542W        W 9593   0.731   4.654   8.648
 5543W        W 9594   2.646   6.441   1.867
 5544W        W 9595   0.751   6.508   8.470
 5545W        W 9596   3.181   0.008   1.888
 5546W        W 9597   9.441   9.738   0.693
 5547W        W 9598   4.500   4.341   1.216
 5548W        W 9599   8.215   3.206   2.647
 5549W        W 9600   7.831   9.072   2.078
 5550W        W 9601   8.587   8.702   0.407
 5551W        W 9602   0.815   8.347  11.830
 5552W        W 9603   9.601   5.551  10.383
 5553W        W 9604   1.288   8.275   3.175
 5554W        W 9605   5.557  10.810  10.102
 5555W        W 9606   5.065   7.622  10.583
 5556W        W 9607   2.020   2.507   8.547
 5557W        W 9608   7.709   8.598   1.382
 5558W        W 9609   5.090  10.429   2.815
 5559W        W 9610  11.009   6.656   0.833
 5560W        W 9611   2.324   2.291  11.980
 5561W        W 9612   9.998   7.637   2.784
 5562W        W 9613   3.677   1.699   8.863
 5563W        W 9614  10.368   7.119  11.077
 5564W        W 9615   2.318   0.979   1.707
 5565W        W 9616   2.598  11.063  11.353
 5566W        W 9617   5.565   0.876  10.988
 5567W        W 9618   4.416   9.834   9.327
 5568W        W 9619   6.444   6.583   0.151
 5569W        W 9620  10.823   3.056   2.013
 5570W        W 9621  10.442   1.124   9.327
 5571W        W 9622   5.974   5.776   9.238
 5572W        W 9623   2.211   2.340   2.799
 5573W        W 9624   8.079   7.842   2.528
 5574W        W 9625   7.499  10.984  11.995
 5575W        W 9626  11.339   8.540   2.781
 5576W        W 9627   4.917   3.988  11.203
 5577W        W 9628   5.602   1.933   1.505
 5578W        W 9629   0.307   2.672   2.774
 5579W        W 9630   7.665  11.352   9.939
 5580W        W 9631   7.746   8.928  11.094
 5581W        W 9632   5.943   3.976   2.363
 5582W        W 9633   5.216   7.435   0.493
 5583W        W 9634   8.184   1.928   1.746
 5584W        W 9635   8.664   8.102   8.606
 5585W        W 9636   5.046   9.354   0.022
 5586W        W 9637   6.994   4.096   3.436
 5587W        W 9638   6.484   7.331   1.451
 5588W        W 9639   6.241   0.421   3.274
 5589W        W 9640   0.379   3.588   0.171
 5590W        W 9641   7.778   7.126  10.705
 5591W        W 9642   0.077   9.786   0.264
 5592W        W 9643   9.059   2.778   0.317
 5593W        W 9644   8.153   1.645   0.379
 5594W        W 9645   2.187   3.895   9.720
 5595W        W 9646   9.599   9.518   8.577
 5596W        W 9647   3.370   8.314   8.423
 5597W        W 9648   5.458   4.395   9.148
 5598W        W 9649   0.781  10.578  11.142
 5599W        W 9650   8.948   8.597  10.225
 5600W        W 9651   5.632   7.586   1.432
 5601W        W 9652   4.280   4.064  10.740
 5602W        W 9653   4.806   1.725   9.991
 5603W        W 9654   8.559   6.706  10.355
 5604W        W 9655   4.043   9.105  10.174
 5605W        W 9656   3.809   5.282   0.769
 5606W        W 9657   8.838   9.999   3.476
 5607W        W 9658   3.697   5.894  11.645
 5608W        W 9659  10.963   3.120   3.454
 5609W        W 9660   4.773   2.590   2.753
 5610W        W 9661   4.085   0.891   2.658
 5611W        W 9662  10.313  10.503   1.056
 5612W        W 9663   3.846   4.887  11.816
 5613W        W 9664   8.613   4.456  10.855
 5614W        W 9665  10.869   0.370   1.857
 5615W        W 9666   3.700   9.450  11.760
 5616W        W 9667  10.253  10.737   9.578
 5617W        W 9668   7.875   5.139   8.685
 5618W        W 9669   9.543   1.211  10.795
 5619W        W 9670   0.355  11.388  11.089
 5620W        W 9671   9.548   0.241   1.421
 5621W        W 9672  11.393   8.127   9.313
 5622W        W 9673   6.022   8.975  10.435
 5623W        W 9674   0.412   0.860   1.107
 5624W        W 9675   6.882   1.648   9.803
 5625W        W 9676   1.314   4.081  11.511
 5626W        W 9677   9.820   7.502   0.800
 5627W        W 9678   7.886   2.708  10.005
 5628W        W 9679   2.685   8.296  10.636
 5629W        W 9680   9.371   6.508   8.264
 5630W        W 9681  11.287   0.012   2.737
 5631W        W 9682   3.752  11.288   3.306
 5632W        W 9683   3.013   7.874   2.188
 5633W        W 9684   3.704   2.931   2.402
 5634W        W 9685   3.600   6.221   3.526
 5635W        W 9686  11.454   9.860   1.288
 5636W        W 9687   7.711   5.174   0.485
 5637W        W 9688   3.143   2.442   1.299
 5638W        W 9689   0.787   7.950   9.751
 5639W        W 9690   0.515   5.793   1.880
 5640W        W 9691   9.551   3.165   1.318
 5641W        W 9692   5.946   8.279   0.243
 5642W        W 9693   2.281   8.972   2.020
 5643W        W 9694   4.584  10.305   9.066
 5644W        W 9695   7.893  11.415   3.017
 5645W        W 9696   9.431   8.158   0.362
 5646W        W 9697   4.189   6.120  11.070
 5647W        W 9698   1.340   6.998  10.559
 5648W        W 9699   8.447   6.239  10.533
 5649W        W 9700   9.333   4.976  11.578
 5650W        W 9701   0.928   3.738   0.958
 5651W        W 9702   8.024   9.033   3.432
 5652W        W 9703   0.450   9.291   9.018
 5653W        W 9704   8.609   1.277   3.085
 5654W        W 9705   8.541   4.739   9.038
 5655W        W 9706   6.463   6.212  10.968
 5656W        W 9707   2.929   4.707  11.428
 5657W        W 9708   2.275   0.548   9.512
 5658W        W 9709   6.566  11.216   2.500
 5659W        W 9710   5.628   5.150   1.773
 5660W        W 9711   6.046   6.238   8.141
 5661W        W 9712   9.857  10.569   1.980
 5662W        W 9713   3.224   3.780   9.151
 5663W        W 9714   1.143   3.268   1.092
 5664W        W 9715   9.095  11.239   9.991
 5665W        W 9716   9.614   2.880  10.513
 5666W        W 9717   5.078   3.252   0.490
 5667W        W 9718   3.382   9.290   2.278
 5668W        W 9719   5.079   7.776   0.123
 5669W        W 9720   3.089   4.142  10.807
 5670W        W 9721   3.644   1.262   0.690
 5671W        W 9722   6.579   4.116   3.132
 5672W        W 9723   7.553   0.323  10.192
 5673W        W 9724   3.605  10.538  11.843
 5674W        W 9725   9.054   2.741   1.261
 5675W        W 9726   3.838  10.854   2.079
 5676W        W 9727   6.133   9.931   1.433
 5677W        W 9728   5.224   7.938   0.856
 5678W        W 9729   7.844   1.453   9.197
 5679W        W 9730   3.395   7.683   0.068
 5680W        W 9731   7.697   1.148  11.723
 5681W        W 9732   9.921  10.737   0.260
 5682W        W 9733   7.279   8.034   9.466
 5683W        W 9734   7.606   9.747  10.780
 5684W        W 9735   3.332   5.254   1.964
 5685W        W 9736   8.424   4.710  10.439
 5686W        W 9737   3.079   0.592   2.738
 5687W        W 9738  10.575   2.391   2.561
 5688W        W 9739  10.052   0.886   9.625
 5689W        W 9740  10.232   9.349   9.515
 5690W        W 9741   9.472   2.713   3.307
 5691W        W 9742   7.389   9.078  11.443
 5692W        W 9743   8.059   3.354   9.168
 5693W        W 9744   5.839   5.546   1.443
 5694W        W 9745   2.152   5.312   3.461
 5695W        W 9746   0.719   5.718   3.422
 5696W        W 9747   4.077   1.435  11.028
 5697W        W 9748   2.660   4.151   1.770
 5698W        W 9749   5.571   8.270   3.200
 5699W        W 9750   6.605  10.030   8.163
 5700W        W 9751   3.356   1.913   1.300
 5701W        W 9752   0.995  10.990   0.858
 5702W        W 9753   6.682   6.724   2.904
 5703W        W 9754   3.873   4.373   0.636
 5704W        W 9755   2.325   0.042   9.542
 5705W        W 9756   0.021  11.403   3.246
 5706W        W 9757   9.155   6.630   9.993
 5707W        W 9758   7.915   4.155   2.184
 5708W        W 9759   9.092   4.267   3.108
 5709W        W 9760   3.224   9.876   1.832
 5710W        W 9761   2.678   6.610   2.404
 5711W        W 9762  10.411   7.066  10.516
 5712W        W 9763   6.744   2.102   2.802
 5713W        W 9764   2.696   9.041  11.486
 5714W        W 9765   4.455   6.782   8.645
 5715W        W 9766   2.106   8.634  11.735
 5716W        W 9767   7.699   3.770  11.526
 5717W        W 9768  10.418   7.621  11.248
 5718W        W 9769   4.360   0.766   1.686
 5719W        W 9770   3.902   4.412  10.560
 5720W        W 9771  10.244  10.399   1.559
 5721W        W 9772   0.106   0.948   1.867
 5722W        W 9773   2.163   7.469   0.997
 5723W        W 9774   1.136   0.221  10.678
 5724W        W 9775  11.325   1.210   1.383
 5725W        W 9776   3.480   9.644   2.806
 5726W        W 9777   3.576   2.330   2.522
 5727W        W 9778   7.655   0.193   9.167
 5728W        W 9779   1.894   1.331   3.357
 5729W        W 9780   3.201   5.699  10.989
 5730W        W 9781   6.953   4.623   0.290
 5731W        W 9782  11.035   0.243   3.101
 5732W        W 9783   4.301   8.642  11.523
 5733W        W 9784   1.219   0.619  10.370
 5734W        W 9785  10.021   1.888  11.899
 5735W        W 9786   5.633   3.248   9.830
 5736W        W 9787   2.504   8.548   8.315
 5737W        W 9788   1.291   1.068  10.616
 5738W        W 9789  10.943   3.276   2.909
 5739W        W 9790   3.954   8.372   1.391
 5740W        W 9791   8.681   7.898  11.906
 5741W        W 9792   9.364   1.830   2.854
 5742W        W 9793   9.430   4.936   0.974
 5743W        W 9794   1.912   3.650   8.889
 5744W        W 9795  11.413   8.848   1.412
 5745W        W 9796   4.216   9.973   0.865
 5746W        W 9797   2.753   1.656   0.215
 5747W        W 9798   7.219   3.840  10.302
 5748W        W 9799   7.728   7.997  11.633
 5749W        W 9800   3.146   3.691   1.834
 5750W        W 9801   5.209   9.034   9.070
 5751W        W 9802  10.657   7.694  11.698
 5752W        W 9803   2.728  10.259   8.748
 5753W        W 9804   0.057   7.507  11.348
 5754W        W 9805   0.252   1.161  11.262
 5755W        W 9806  10.818  11.331   3.342
 5756W        W 9807   5.753   1.468   8.541
 5757W        W 9808   3.292   1.359   9.294
 5758W        W 9809   6.035   6.546   2.653
 5759W        W 9810  10.938   6.254   0.055
 5760W        W 9811   3.862   3.873  10.925
 5761W        W 9812  11.363   7.185   9.396
 5762W        W 9813   0.193   1.409  10.287
 5763W        W 9814   0.769   0.792   2.140
 5764W        W 9815   1.046   6.081  11.337
 5765W        W 9816   3.175   4.953   0.392
 5766W        W 9817   0.696   8.409   0.338
 5767W        W 9818   6.711  11.355   0.368
 5768W        W 9819   8.986   0.941   0.952
 5769W        W 9820  11.283   1.119   9.546
 5770W        W 9821   0.900   4.204   2.244
 5771W        W 9822   8.098   9.228   2.783
 5772W        W 9823   9.472   2.137   1.480
 5773W        W 9824   1.262   7.563  11.864
 5774W        W 9825   2.221   6.127   1.954
 5775W        W 9826   9.495   9.326   1.742
 5776W        W 9827  10.561   6.255  10.764
 5777W        W 9828   9.428   7.034   3.327
 5778W        W 9829   8.589   6.142   1.478
 5779W        W 9830   7.084   6.208   8.347
 5780W        W 9831   0.938   5.336  10.862
 5781W        W 9832   8.873   9.584   2.230
 5782W        W 9833  11.330   7.425   0.305
 5783W        W 9834   8.741   0.336   2.783
 5784W        W 9835   6.713   3.172  10.274
 5785W        W 9836   6.013   9.992   3.438
 5786W        W 9837   5.956   4.587   0.227
 5787W        W 9838   5.713   7.393   3.589
 5788W        W 9839   6.342   8.091  11.849
 5789W        W 9840  11.381   5.770   2.339
 5790W        W 9841  10.803  10.882   0.387
 5791W        W 9842   7.014   3.707  11.804
 5792W        W 9843   6.818   2.270   2.079
 5793W        W 9844   8.160  10.448   0.500
 5794W        W 9845   2.777   1.281   1.744
 5795W        W 9846   8.524   6.623   1.181
 5796W        W 9847   8.069  10.531   2.496
 5797W        W 9848   5.616  10.977   1.601
 5798W        W 9849  11.430   4.769   9.594
 5799W        W 9850   2.891   0.405   9.115
 5800W        W 9851  10.762   4.124  10.561
 5801W        W 9852   3.101   7.114  11.391
 5802W        W 9853   4.627  10.304   2.654
 5803W        W 9854   1.294  10.073   0.935
 5804W        W 9855   5.486   3.651   8.565
 5805W        W 9856   2.316   7.197   0.047
 5806W        W 9857   6.132   9.799  11.857
 5807W        W 9858   4.056   7.543  10.024
 5808W        W 9859   5.217   8.750   4.063
 5809W        W 9860   7.435   0.991   2.889
 5810W        W 9861   0.267   1.354   1.171
 5811W        W 9862   7.145   9.611   9.840
 5812W        W 9863  10.538   2.779  10.466
 5813W        W 9864  11.335   0.727   2.237
 5814W        W 9865   1.253  10.998   3.193
 5815W        W 9866   2.488  10.822   0.696
 5816W        W 9867   0.920   9.573   8.590
 5817W        W 9868   6.748   2.276   8.959
 5818W        W 9869   2.632   0.769  10.798
 5819W        W 9870   4.569   6.200   0.287
 5820W        W 9871   3.432   0.911   0.317
 5821W        W 9872   0.555   9.497  11.782
 5822W        W 9873   5.880   2.280   1.729
 5823W        W 9874   2.779   3.346   9.763
 5824W        W 9875   2.860  10.079  11.462
 5825W        W 9876   5.139   3.272   9.629
 5826W        W 9877   0.307   3.976   8.959
 5827W        W 9878   8.206   3.703  11.537
 5828W        W 9879   6.614   0.144   0.938
 5829W        W 9880   1.769   1.381   0.751
 5830W        W 9881  11.401  10.711   3.742
 5831W        W 9882   0.108   3.835  10.285
 5832W        W 9883  10.245   4.599   3.233
 5833W        W 9884  10.433   7.999   8.960
 5834W        W 9885   5.318   8.026  10.240
 5835W        W 9886   6.974   6.602   0.361
 5836W        W 9887  10.396   6.747  11.540
 5837W        W 9888   6.157   4.583   1.711
 5838W        W 9889  10.552   7.860   1.443
 5839W        W 9890   6.290   7.946  10.059
 5840W        W 9891   4.031   6.420   1.327
 5841W        W 9892   6.736   5.522   0.850
 5842W        W 9893   0.371   0.889   2.990
 5843W        W 9894   3.085   6.206  11.087
 5844W        W 9895   7.292   4.166   0.433
 5845W        W 9896  10.131  10.273   0.278
 5846W        W 9897   6.888   2.182   9.581
 5847W        W 9898  11.066   3.787   2.834
 5848W        W 9899   6.681   0.281  10.235
 5849W        W 9900   1.818   4.389  10.958
 5850W        W 9901  10.852   1.898   9.764
 5851W        W 9902   9.123   7.694   9.269
 5852W        W 9903   0.081   0.078   0.049
 5853W        W 9904   8.265   5.687  11.808
 5854W        W 9905   0.354   9.062   1.223
 5855W        W 9906   4.369   1.754  11.688
 5856W        W 9907   4.188   8.651  10.423
 5857W        W 9908   0.804   4.848  11.459
 5858W        W 9909   6.479   7.181  10.951
 5859W        W 9910   1.719   5.253   8.497
 5860W        W 9911   7.571   0.943   1.579
 5861W        W 9912   7.142   0.136   0.399
 5862W        W 9913   3.523  10.477   9.979
 5863W        W 9914   2.377   0.352   9.059
 5864W        W 9915   9.869  10.105   2.850
 5865W        W 9916   8.234   7.668  11.976
 5866W        W 9917   4.729   6.716   0.673
 5867W        W 9918   9.424   9.283   2.762
 5868W        W 9919  11.092   5.012  10.283
 5869W        W 9920   2.854   4.249   9.867
 5870W        W 9921   3.529   3.019  10.597
 5871W        W 9922  10.927   2.662  11.733
 5872W        W 9923   7.564   1.855   0.326
 5873W        W 9924   7.558   6.679  10.475
 5874W        W 9925   1.904   5.251  10.790
 5875W        W 9926   4.666   9.527  11.721
 5876W        W 9927   7.034   4.307   2.261
 5877W        W 9928   7.113   3.410  10.070
 5878W        W 9929   5.662   5.819   1.013
 5879W        W 9930   2.843   2.876   9.588
 5880W        W 9931  10.616   7.451   1.817
 5881W        W 9932  10.503   4.986   9.509
 5882W        W 9933   7.620  10.405  10.080
 5883W        W 9934   6.310   7.563  11.779
 5884W        W 9935   5.569   8.089  11.725
 5885W        W 9936   9.132   4.171   0.504
 5886W        W 9937  11.318   3.143   9.112
 5887W        W 9938   2.836   8.348  10.147
 5888W        W 9939   7.178   9.259   0.805
 5889W        W 9940   4.221   2.314   9.889
 5890W        W 9941   3.843   6.654   9.883
 5891W        W 9942  11.036   2.718   1.232
 5892W        W 9943   0.206   7.799   2.943
 5893W        W 9944   4.013   1.484  11.971
 5894W        W 9945   5.145   4.664  10.710
 5895W        W 9946   0.285  10.706   0.338
 5896W        W 9947   7.038   7.925  10.920
 5897W        W 9948   1.764   1.790   9.601
 5898W        W 9949  10.118   1.277   3.561
 5899W        W 9950  10.841   9.153   0.542
 5900W        W 9951   8.126   1.542   3.463
 5901W        W 9952   3.573   4.687   8.550
 5902W        W 9953   7.935  10.106  10.586
 5903W        W 9954   5.192   8.068   1.740
 5904W        W 9955   1.809  10.036   2.417
 5905W        W 9956   2.335   1.937   0.390
 5906W        W 9957   6.608   8.195   2.779
 5907W        W 9958   9.765   1.215   1.236
 5908W        W 9959   2.678   3.238   2.734
 5909W        W 9960   8.932   6.852  11.282
 5910W        W 9961   6.132   0.555  11.268
 5911W        W 9962   2.885  10.472   2.890
 5912W        W 9963   9.973  10.778   8.595
 5913W        W 9964   4.629   3.892   0.998
 5914W        W 9965   9.428   9.872   9.897
 5915W        W 9966   5.232   3.727   0.464
 5916W        W 9967   3.295   2.903   0.401
 5917W        W 9968   3.241   1.264   3.847
 5918W        W 9969   0.781  11.210   1.863
 5919W        W 9970   3.698   8.395   0.155
 5920W        W 9971   4.792   8.589  11.429
 5921W        W 9972   9.971  11.344  10.032
 5922W        W 9973   3.774   0.163   8.677
 5923W        W 9974   2.159   9.389   1.684
 5924W        W 9975   9.944   3.723   2.123
 5925W        W 9976  10.919   4.052   9.796
 5926W        W 9977   5.193   7.268   3.163
 5927W        W 9978   5.090   9.454   1.898
 5928W        W 9979   9.069   3.646   2.358
 5929W        W 9980   1.088  10.347   1.680
 5930W        W 9981   1.387   1.433   9.377
 5931W        W 9982   3.301   6.649   3.647
 5932W        W 9983  10.564   7.374   9.440
 5933W        W 9984   6.216   5.581  10.898
 5934W        W 9985  11.327   6.978  11.974
 5935W        W 9986   6.063   5.639   0.752
 5936W        W 9987   4.210   7.946  11.434
 5937W        W 9988   1.278  10.887  11.216
 5938W        W 9989   0.825   3.269  10.533
 5939W        W 9990   4.211   7.803   1.811
 5940W        W 9991   2.946   8.963  11.045
 5941W        W 9992  10.905   1.642   0.447
 5942W        W 9993   4.187   0.176  10.506
 5943W        W 9994   6.385   3.621   2.876
 5944W        W 9995   0.805   7.839   1.067
 5945W        W 9996   1.701   8.947  10.331
 5946W        W 9997   7.305   6.042  11.102
 5947W        W 9998   6.851   7.202   2.718
 5948W        W 9999   8.865   2.220   0.310
 5949W        W10000   2.513   7.792   0.727
 5950W        W10001   6.765   5.479  10.677
 5951W        W10002   9.006   8.076  11.061
 5952W        W10003   3.380   1.828  11.373
 5953W        W10004   8.200   5.399   9.890
 5954W        W10005   0.838  10.687  11.646
 5955W        W10006   2.590   7.558   2.242
 5956W        W10007   2.423   2.888   3.578
 5957W        W10008   1.588   1.160   2.311
 5958W        W10009   4.694   1.937   3.304
 5959W        W10010   5.951   4.696   1.231
 5960W        W10011   8.563  10.380  10.747
 5961W        W10012   2.761   7.389  11.790
 5962W        W10013   8.655   2.818   9.625
 5963W        W10014   7.586   9.897   9.785
 5964W        W10015   4.619   4.238   3.925
 5965W        W10016   4.766   8.820   9.985
 5966W        W10017  11.180   4.297   2.475
 5967W        W10018   8.068  10.505   9.841
 5968W        W10019   1.575   9.967   2.871
 5969W        W10020   1.408  11.429   9.510
 5970W        W10021   2.592   4.120   0.580
 5971W        W10022   9.995   2.078  11.012
 5972W        W10023   4.121  11.204   0.304
 5973W        W10024   8.520   7.619  11.498
 5974W        W10025   7.703   9.574   2.776
 5975W        W10026   3.765   2.435   3.344
 5976W        W10027   7.768   1.518  11.390
 5977W        W10028   7.708   3.103   1.972
 5978W        W10029   9.903   5.396  11.548
 5979W        W10030   2.830   5.317   4.132
 5980W        W10031   8.878   0.515  11.026
 5981W        W10032   4.760   9.928   8.739
 5982W        W10033   6.318   7.043  11.918
 5983W        W10034   9.656   3.325   0.858
 5984W        W10035   0.265   6.966   9.148
 5985W        W10036   9.343   0.165   1.909
 5986W        W10037   8.535   4.709   8.299
 5987W        W10038   9.558   8.636   9.425
 5988W        W10039   2.422   0.500   3.439
 5989W        W10040   2.347   1.435   1.981
 5990W        W10041   6.983   5.631   0.329
 5991W        W10042  10.856   1.659   1.947
 5992W        W10043   0.372   4.262   9.390
 5993W        W10044   5.011  11.340   0.005
 5994W        W10045   6.207   5.258  11.311
 5995W        W10046   5.118  10.443   0.890
 5996W        W10047   9.361   7.995  10.550
 5997W        W10048   0.838  11.070  11.316
 5998W        W10049   6.037   6.924  10.900
 5999W        W10050   8.906   1.835  10.793
 6000W        W10051   8.145   9.100   9.199
 6001W        W10052   7.168   2.221   1.702
 6002W        W10053   0.031   3.843   3.076
 6003W        W10054   8.970   2.092   2.626
 6004W        W10055   3.260   6.207   2.291
 6005W        W10056   7.997   1.931  10.557
 6006W        W10057   8.438   0.815   3.229
 6007W        W10058   5.511   8.046  11.219
 6008W        W10059   3.352   4.483  10.533
 6009W        W10060   4.924   0.130   1.763
 6010W        W10061   8.079   4.954   9.103
 6011W        W10062   6.719   1.357  10.551
 6012W        W10063   6.586   8.968   1.367
 6013W        W10064   0.317   6.572   8.775
 6014W        W10065   7.766   7.061   9.205
 6015W        W10066   8.833   8.489   9.723
 6016W        W10067  10.016  10.711   9.098
 6017W        W10068   6.075   4.159  11.898
 6018W        W10069   7.994   6.861   3.586
 6019W        W10070   9.182   4.793   3.136
 6020W        W10071   9.086   2.858   3.675
 6021W        W10072   5.091   9.944   0.681
 6022W        W10073   3.613   6.615   2.235
 6023W        W10074   3.253   7.211   3.286
 6024W        W10075  10.967  10.962  11.078
 6025W        W10076   1.680  10.400   9.581
 6026W        W10077  10.807   0.627   3.467
 6027W        W10078   6.553   7.489   0.479
 6028W        W10079   5.096  10.910   2.971
 6029W        W10080   5.130   2.349   2.301
 6030W        W10081  10.658   4.120   8.946
 6031W        W10082   2.268   2.833   2.001
 6032W        W10083   9.601   6.948  11.691
 6033W        W10084   3.529   6.872   8.984
 6034W        W10085  11.277  11.165   9.768
 6035W        W10086   3.774   8.869   0.919
 6036W        W10087   6.285   6.838   3.834
 6037W        W10088   5.994   3.413   0.672
 6038W        W10089   7.872   0.811   8.575
 6039W        W10090   3.473   6.550   3.155
 6040W        W10091   2.158   9.144  10.473
 6041W        W10092   5.007   2.416   0.779
 6042W        W10093   8.938   6.201   3.697
 6043W        W10094   2.256   9.351   3.676
 6044W        W10095   6.690  11.359   9.020
 6045W        W10096   1.138   7.879   8.550
 6046W        W10097   7.676   8.215   0.602
 6047W        W10098   4.885  10.720   9.171
 6048W        W10099  10.858   4.550   0.725
 6049W        W10100   6.494   9.050   9.601
 6050W        W10101   7.270   6.668   1.308
 6051W        W10102   2.124   8.269   8.504
 6052W        W10103   0.927   4.540   3.066
 6053W        W10104   4.240   9.115  10.662
 6054W        W10105   0.917   8.760   2.323
 6055W        W10106   1.961   4.711   9.077
 6056W        W10107   2.963   4.307   2.158
 6057W        W10108  11.214   8.914   2.445
 6058W        W10109   3.903   1.064   0.245
 6059W        W10110   2.296   2.738   0.991
 6060W        W10111   7.195  11.270  11.397
 6061W        W10112   9.001   4.968   8.320
 6062W        W10113   9.326   5.840   0.627
 6063W        W10114   9.354   6.170   2.930
 6064W        W10115   6.524  10.322   0.646
 6065W        W10116  10.584   4.410  10.944
 6066W        W10117   1.375  10.298   9.980
 6067W        W10118   5.761   0.890   0.511
 6068W        W10119   8.021  10.961   9.146
 6069W        W10120   8.065   9.529  11.368
 6070W        W10121   9.935   2.852   1.628
 6071W        W10122   0.267  10.879   3.102
 6072W        W10123   8.098   3.103   3.138
 6073W        W10124  10.300   7.472   9.012
 6074W        W10125   6.987   8.005   1.549
 6075W        W10126  11.430   8.333  11.667
 6076W        W10127   5.517   6.985   8.792
 6077W        W10128   7.022  10.349  11.771
 6078W        W10129   4.252   7.983   9.831
 6079W        W10130   8.384   6.130   2.929
 6080W        W10131   4.266   8.980   2.574
 6081W        W10132  11.376   4.314   9.820
 6082W        W10133   0.769   1.732   9.986
 6083W        W10134   7.153   8.364   9.904
 6084W        W10135   6.140   7.604   9.262
 6085W        W10136   1.398   0.219  10.001
 6086W        W10137   5.010  11.175   9.371
 6087W        W10138   7.457   5.695  10.254
 6088W        W10139   6.213   1.913   2.758
 6089W        W10140   2.547   2.136   3.475
 6090W        W10141   7.089   8.235   8.568
 6091W        W10142   4.127   1.686   1.696
 6092W        W10143   1.573   9.243   1.130
 6093W        W10144   8.510   5.432   2.181
 6094W        W10145   0.318   8.408   9.091
 6095W        W10146   8.768   0.434  11.859
 6096W        W10147  10.360   3.686   9.062
 6097W        W10148   6.390  11.447   3.398
 6098W        W10149   1.272   3.773   9.408
 6099W        W10150   5.959   3.474   2.466
 6100W        W10151   9.896   9.577   3.581
 6101W        W10152   4.635   5.747   0.015
 6102W        W10153   8.997   3.739  11.719
 6103W        W10154   8.986   7.100   9.979
 6104W        W10155   9.181   9.971   2.461
 6105W        W10156   6.104   2.472  10.454
 6106W        W10157   2.900   8.502   8.628
 6107W        W10158   8.997   9.810   9.072
 6108W        W10159   8.053   5.970   1.011
 6109W        W10160   5.555   2.825   0.029
 6110W        W10161   0.470   2.247   2.989
 6111W        W10162   6.452   9.502   2.803
 6112W        W10163   5.579   3.323  11.816
 6113W        W10164   3.524   1.448   0.207
 6114W        W10165   8.766   6.144   2.240
 6115W        W10166   4.578   8.540   2.414
 6116W        W10167   0.746  10.017   3.038
 6117W        W10168   5.528   9.289   0.990
 6118W        W10169   3.687   6.184   4.027
 6119W        W10170  10.107  10.797   2.371
 6120W        W10171   0.243  11.349   9.818
 6121W        W10172   6.064   7.530   9.781
 6122W        W10173   2.730   5.157   8.626
 6123W        W10174   2.409   5.753   0.718
 6124W        W10175   5.645   1.815  10.031
 6125W        W10176   6.509   0.731   2.242
 6126W        W10177   1.271   9.214   8.473
 6127W        W10178   8.179   8.655  10.961
 6128W        W10179   3.667   4.847  10.411
 6129W        W10180  11.064   6.987   0.432
 6130W        W10181   2.521   5.232   1.501
 6131W        W10182   4.686   2.262   3.707
 6132W        W10183   9.466   3.115   0.427
 6133W        W10184   7.401   9.571   1.533
 6134W        W10185  10.498   4.035   9.434
 6135W        W10186   8.484   5.702   1.187
 6136W        W10187   4.656   9.553   2.190
 6137W        W10188   8.902  11.279  11.479
 6138W        W10189   6.602   9.998  11.868
 6139W        W10190   2.464   5.264   1.989
 6140W        W10191   7.479   1.687  10.065
 6141W        W10192   9.567   5.193   2.029
 6142W        W10193   7.129  11.343  11.915
 6143W        W10194   7.856   2.322   0.367
 6144W        W10195   0.386   2.622  11.568
 6145W        W10196   8.579   6.579   0.366
 6146W        W10197   0.773   1.844   2.909
 6147W        W10198   0.891   8.084  10.284
 6148W        W10199   1.829   0.984  11.788
 6149W        W10200   4.104   9.403   9.482
 6150W        W10201   4.344   9.839   1.342
 6151W        W10202   6.193  11.403   2.172
 6152W        W10203   1.713  10.656  11.165
 6153W        W10204  10.554   9.981   0.275
 6154W        W10205   3.975   6.533   3.309
 6155W        W10206  11.133   3.043   0.446
 6156W        W10207   1.706   6.198  10.699
 6157W        W10208  10.883   8.627   9.852
 6158W        W10209  10.628  10.514   3.066
 6159W        W10210   5.323   2.196   1.166
 6160W        W10211   4.376   4.421   0.715
 6161W        W10212   6.886   2.948  10.784
 6162W        W10213   9.525  11.105   2.677
 6163W        W10214   6.822   3.831   9.945
 6164W        W10215   9.866   3.911   3.062
 6165W        W10216   6.011   2.777   2.397
 6166W        W10217   4.800   0.491   0.368
 6167W        W10218   1.810   1.176   0.281
 6168W        W10219   9.092   4.806   1.811
 6169W        W10220  10.296   0.369   1.872
 6170W        W10221   7.992   7.225   0.863
 6171W        W10222   6.984  10.886   3.129
 6172W        W10223   6.195   7.939  10.583
 6173W        W10224   9.437   9.514  10.416
 6174W        W10225   3.868   9.828   9.349
 6175W        W10226   8.580   8.052   9.939
 6176W        W10227   3.379   0.934  11.389
 6177W        W10228   3.907   5.902   8.782
 6178W        W10229   8.535   9.013   8.881
 6179W        W10230   7.086   4.150   1.351
 6180W        W10231  11.394  11.024   1.816
 6181W        W10232   3.878   8.782   2.808
 6182W        W10233   0.857   0.533   9.388
 6183W        W10234   8.878   0.812   1.453
 6184W        W10235   4.162   1.851  10.682
 6185W        W10236   6.367  10.266   1.126
 6186W        W10237   0.955  10.202   2.153
 6187W        W10238   6.961  10.466  10.370
 6188W        W10239   7.787   2.264   1.740
 6189W        W10240   4.654   1.637   1.679
 6190W        W10241   0.919   8.955   1.855
 6191W        W10242   5.030   3.754   2.317
 6192W        W10243   4.634   0.150   9.047
 6193W        W10244   8.172   3.696  10.546
 6194W        W10245  10.769   6.419  11.592
 6195W        W10246  10.846   6.099   8.685
 6196W        W10247   1.849   9.367   0.315
 6197W        W10248   7.289  10.540   0.733
 6198W        W10249   7.428   6.602   1.971
 6199W        W10250  11.382   3.432   0.171
 6200W        W10251   9.192  10.730   2.610
 6201W        W10252   7.398   9.580  11.394
 6202W        W10253   2.329   8.086  10.228
 6203W        W10254  11.481   4.319  11.204
 6204W        W10255   4.491   3.678   3.263
 6205W        W10256   8.840   4.264   0.907
 6206W        W10257   9.084   1.756   9.277
 6207W        W10258   1.367   2.352  10.681
 6208W        W10259   3.064   0.797   3.970
 6209W        W10260  11.080   5.990   1.939
 6210W        W10261   8.038   4.557   1.685
 6211W        W10262   6.792  10.029   9.168
 6212W        W10263   2.167   0.456  10.411
 6213W        W10264   2.327   2.858   1.490
 6214W        W10265   3.330   9.877  11.010
 6215W        W10266   5.088  10.325   8.854
 6216W        W10267   5.605   7.432   2.915
 6217W        W10268  11.147   3.997   8.854
 6218W        W10269   8.918   7.073   9.075
 6219W        W10270   1.530   7.298   1.416
 6220W        W10271   9.448   0.558   2.246
 6221W        W10272  10.976   5.251   0.912
 6222W        W10273   7.448   4.093   3.691
 6223W        W10274   5.072   9.536  10.596
 6224W        W10275   9.534   7.108   8.822
 6225W        W10276   9.397   8.878   2.454
 6226W        W10277  10.130   7.626   9.500
 6227W        W10278   4.645  10.709   0.817
 6228W        W10279  11.330   1.722   2.171
 6229W        W10280   7.274   6.787  10.049
 6230W        W10281   5.490   1.969  11.022
 6231W        W10282   6.599   9.497   0.041
 6232W        W10283   8.131   8.792   2.481
 6233W        W10284   7.104   7.479   1.794
 6234W        W10285   4.188   6.148   0.662
 6235W        W10286  10.799   3.975   2.365
 6236W        W10287   4.779   3.481  11.266
 6237W        W10288   9.368   5.076   9.502
 6238W        W10289  11.054   8.366   1.703
 6239W        W10290   7.897   8.308   1.771
 6240W        W10291   3.004   6.752   3.229
 6241W        W10292   0.891   9.654   3.362
 6242W        W10293  10.743   9.744   2.790
 6243W        W10294   2.224   5.746   2.749
 6244W        W10295   1.253   3.326   0.588
 6245W        W10296   3.419   2.888   1.286
 6246W        W10297   9.587   6.607   8.722
 6247W        W10298   7.417   6.237   1.616
 6248W        W10299  10.413   9.940  11.386
 6249W        W10300   2.534  10.442   9.191
 6250W        W10301   0.648   7.877  11.363
 6251W        W10302  11.351  10.333  10.656
 6252W        W10303   8.907  10.963  11.900
 6253W        W10304   4.707   6.736   2.039
 6254W        W10305   3.673   0.105   1.764
 6255W        W10306   8.967   3.583   3.381
 6256W        W10307   7.065   1.187   0.326
 6257W        W10308   4.670   9.316   3.049
 6258W        W10309   3.207  10.879   9.876
 6259W        W10310   3.951   5.832   9.933
 6260W        W10311   5.848   4.177   1.910
 6261W        W10312   5.484   9.830  10.489
 6262W        W10313   3.629   8.890   1.440
 6263W        W10314  11.372   0.227   9.068
 6264W        W10315   2.818   7.898  10.375
 6265W        W10316  11.053   1.657   8.804
 6266W        W10317   2.186   4.403   1.951
 6267W        W10318   9.378   7.288   8.359
 6268W        W10319   4.243   4.198   9.844
 6269W        W10320   1.395   9.950  10.763
 6270W        W10321   7.672   3.772   0.341
 6271W        W10322   9.359   6.180  10.000
 6272W        W10323  11.160   8.837   1.912
 6273W        W10324   8.661  10.856  11.327
 6274W        W10325   4.811   1.251   9.800
 6275W        W10326   7.539   4.501   2.354
 6276W        W10327   4.939   4.546   0.212
 6277W        W10328   9.155   1.315   9.529
 6278W        W10329  10.743   9.167  10.474
 6279W        W10330   0.608   7.882   3.649
 6280W        W10331   0.682   3.218   8.572
 6281W        W10332   2.132   8.418  11.259
 6282W        W10333  11.423  10.839  10.651
 6283W        W10334   4.983   3.479  10.061
 6284W        W10335   7.683   5.969  11.946
 6285W        W10336   4.320  11.443   1.238
 6286W        W10337   0.370   7.649  10.972
 6287W        W10338   1.648   7.445  10.480
 6288W        W10339   6.211   7.630   8.736
 6289W        W10340   7.117   8.675  10.321
 6290W        W10341   5.629  11.474   9.922
 6291W        W10342   8.537   1.960  10.443
 6292W        W10343   3.035  11.396  11.630
 6293W        W10344  11.034   2.191  10.195
 6294W        W10345   1.726   6.897   1.702
 6295W        W10346   3.404   0.240   9.914
 6296W        W10347  10.917   3.099   8.799
 6297W        W10348   8.394   1.789  11.964
 6298W        W10349   1.923   8.596   8.970
 6299W        W10350   4.171   7.447   2.207
 6300W        W10351   7.232   1.253   9.929
 6301W        W10352   4.213  11.037   9.806
 6302W        W10353   5.775   6.747  11.494
 6303W        W10354   5.162   5.550   0.757
 6304W        W10355   6.762   3.403   1.080
 6305W        W10356   0.513   5.163   2.517
 6306W        W10357  10.873  11.380   9.527
 6307W        W10358   7.470   9.612  11.939
 6308W        W10359   8.925   6.918   3.295
 6309W        W10360   9.578   1.006   2.546
 6310W        W10361   2.176   7.127   1.852
 6311W        W10362  10.967   5.135   1.884
 6312W        W10363   4.495   0.786   2.971
 6313W        W10364   0.263  10.527   9.220
 6314W        W10365   2.971   6.743  10.339
 6315W        W10366   1.970   4.785   8.552
 6316W        W10367   0.979  10.505   3.097
 6317W        W10368   9.803  10.986   9.452
 6318W        W10369   1.910   9.571  10.086
 6319W        W10370  11.343   2.727   0.067
 6320W        W10371   8.410   6.342   9.630
 6321W        W10372   8.037  10.978   8.635
 6322W        W10373   8.348   8.032   1.767
 6323W        W10374   2.146   6.746   3.133
 6324W        W10375   1.152   5.833   9.181
 6325W        W10376   2.714   5.094   9.543
 6326W        W10377   3.119   0.372  11.441
 6327W        W10378   1.772   5.938   0.185
 6328W        W10379   6.231  11.232   0.179
 6329W        W10380   0.488   9.923   1.356
 6330W        W10381   1.205  10.398  11.390
 6331W        W10382   0.445   5.288   3.472
 6332W        W10383   6.242   1.061   0.205
 6333W        W10384  11.493   1.323   2.811
 6334W        W10385   3.149  10.995   8.918
 6335W        W10386   5.563  11.407  10.832
 6336W        W10387   3.751  10.733   0.843
 6337W        W10388   5.074   5.052   0.048
 6338W        W10389   0.904   6.276   9.026
 6339W        W10390   0.823  10.227   3.534
 6340W        W10391   9.166   2.145  10.109
 6341W        W10392   0.198   5.642  11.223
 6342W        W10393   9.889   2.910   0.622
 6343W        W10394   8.603   8.450   3.016
 6344W        W10395  10.415   1.482   0.518
 6345W        W10396   6.142   6.935   0.398
 6346W        W10397   4.633  10.609   2.236
 6347W        W10398   1.797   7.245   9.787
 6348W        W10399  10.271   9.148   3.210
 6349W        W10400   9.960   1.815   9.276
 6350W        W10401   4.617  11.311  10.048
 6351W        W10402   7.050   1.068   8.876
 6352W        W10403   8.839   5.301   2.718
 6353W        W10404   2.677   1.728   3.187
 6354W        W10405   3.115   3.353   8.870
 6355W        W10406   0.853   4.843  10.001
 6356W        W10407   9.856   5.695  11.120
 6357W        W10408   2.674   9.609   8.952
 6358W        W10409   2.728   7.551   8.325
 6359W        W10410   3.134   6.272   0.791
 6360W        W10411   4.041   5.147   2.535
 6361W        W10412  10.360   7.917   1.918
 6362W        W10413   9.015   4.719   0.775
 6363W        W10414   7.094  10.316   1.971
 6364W        W10415   5.211   1.676   0.269
 6365W        W10416   7.034   2.428   0.818
 6366W        W10417   4.413   9.570   9.843
 6367W        W10418   5.736   3.584   1.175
 6368W        W10419   3.227   2.144   0.863
 6369W        W10420   2.358   8.938   0.923
 6370W        W10421  10.865   1.785  11.911
 6371W        W10422   7.945   8.899   8.726
 6372W        W10423   4.153   6.151  11.609
 6373W        W10424   2.028   9.321  10.955
 6374W        W10425   0.680   8.833   0.022
 6375W        W10426   7.367   5.551  11.984
 6376W        W10427   3.319   5.790   0.840
 6377W        W10428   0.491   6.209   2.185
 6378W        W10429   0.444   6.101  11.257
 6379W        W10430   1.779   6.031   1.168
 6380W        W10431   8.616   3.737   9.576
 6381W        W10432   9.622   5.259   9.917
 6382W        W10433   0.343   7.517   3.394
 6383W        W10434  10.516   0.474  11.182
 6384W        W10435  11.132   6.954   1.244
 6385W        W10436   3.426  10.001   0.450
 6386W        W10437   0.475   2.165   0.758
 6387W        W10438   3.503   5.257  10.187
 6388W        W10439   1.814   1.853   2.185
 6389W        W10440  10.807   7.032   3.528
 6390W        W10441   6.340   3.595  10.146
 6391W        W10442   0.706  10.698   8.575
 6392W        W10443   7.230   8.443   1.408
 6393W        W10444   3.342   4.403   0.553
 6394W        W10445   4.535   6.734  10.432
 6395W        W10446   6.478   4.692  10.989
 6396W        W10447   9.345  11.403   8.912
 6397W        W10448   8.333   7.398   3.258
 6398W        W10449  10.783   0.791   2.894
 6399W        W10450   9.514   9.174  11.403
 6400W        W10451   9.954   5.696   1.466
 6401W        W10452  10.714   7.641   0.987
 6402W        W10453   8.950  10.395  11.314
 6403W        W10454   5.229   1.651  10.295
 6404W        W10455   6.836   3.187   3.480
 6405W        W10456   0.201   5.510   8.943
 6406W        W10457   1.689   5.812  11.702
 6407W        W10458   8.995   0.264   2.333
 6408W        W10459   2.146   5.691   1.180
 6409W        W10460   1.459   2.395   0.599
 6410W        W10461  10.439   8.072   9.478
 6411W        W10462   0.476   0.772  10.994
 6412W        W10463  11.074  11.095   0.762
 6413W        W10464   1.887   2.733   0.689
 6414W        W10465   7.143  11.289  10.886
 6415W        W10466  10.246   9.604   0.919
 6416W        W10467   7.852   2.787  10.869
 6417W        W10468   5.567   6.209   0.675
 6418W        W10469   9.448   3.085   1.797
 6419W        W10470   6.038   8.470   9.028
 6420W        W10471  11.488   6.102  11.467
 6421W        W10472  10.943   0.461  11.567
 6422W        W10473   9.179   9.312   0.775
 6423W        W10474   5.114   9.430   0.548
 6424W        W10475   6.202   8.650   3.131
 6425W        W10476   5.559   4.510  10.983
 6426W        W10477   5.452   0.753   1.490
 6427W        W10478   9.318   2.320   2.981
 6428W        W10479   1.297   8.427   2.372
 6429W        W10480   4.232   3.108  11.958
 6430W        W10481   1.018   2.176   9.873
 6431W        W10482   1.801   7.792   0.393
 6432W        W10483   4.079   2.223   0.378
 6433W        W10484   2.813   8.516   9.129
 6434W        W10485   8.637  10.842   1.473
 6435W        W10486   7.940   8.894  10.582
 6436W        W10487   8.603   8.087   0.658
 6437W        W10488   7.008   7.927   2.046
 6438W        W10489   7.208   1.913   2.116
 6439W        W10490  11.248   3.219   2.298
 6440W        W10491   8.510   2.923   2.275
 6441W        W10492   4.249   9.585   3.220
 6442W        W10493   3.081   4.242   9.408
 6443W        W10494  10.420   1.634   9.466
 6444W        W10495   9.919   2.580  10.800
 6445W        W10496   2.803   9.696  10.457
 6446W        W10497   0.647   8.165   8.722
 6447W        W10498   3.703   8.703   8.231
 6448W        W10499   2.307   5.934  11.427
 6449W        W10500  11.455   7.986  10.324
 6450W        W10501  10.565   2.636  11.369
 6451W        W10502   3.929   9.592   9.940
 6452W        W10503   2.376   4.356   2.717
 6453W        W10504  11.269   6.521  11.751
 6454W        W10505  10.745  10.224   2.675
 6455W        W10506   9.329   5.252   2.907
 6456W        W10507   0.275   6.994   3.439
 6457W        W10508   5.513   0.275   9.154
 6458W        W10509   3.188   7.628   9.490
 6459W        W10510  11.495  10.761  11.556
 6460W        W10511   8.180  10.027   8.493
 6461W        W10512   1.093   1.911   1.937
 6462W        W10513   5.183   4.144  11.607
 6463W        W10514   5.663   5.280   2.256
 6464W        W10515   1.285   2.612   2.433
 6465W        W10516   9.968   1.265  10.535
 6466W        W10517   9.842   0.707  10.059
 6467W        W10518   4.053   8.466   2.434
 6468W        W10519   8.814   0.525   0.350
 6469W        W10520   8.947   4.577  10.471
 6470W        W10521   4.972   2.109   2.742
 6471W        W10522   8.222  10.038  11.414
 6472W        W10523  10.707   9.492   0.177
 6473W        W10524   1.546   0.681  10.845
 6474W        W10525   7.402   6.609  10.957
 6475W        W10526   8.550   6.538   3.654
 6476W        W10527   3.887   3.007   3.203
 6477W        W10528   9.436   0.178  11.793
 6478W        W10529   8.386   8.590  11.431
 6479W        W10530   4.769   5.707   1.052
 6480W        W10531   0.629  10.413   2.730
 6481W        W10532  10.503   6.468   8.862
 6482W        W10533   0.454   3.660   0.675
 6483W        W10534   0.718   2.193   9.439
 6484W        W10535   1.228   0.780   2.346
 6485W        W10536  10.544   9.290  11.724
 6486W        W10537   4.953   8.305   3.349
 6487W        W10538   7.611   7.514   9.892
 6488W        W10539   1.664   1.971  10.925
 6489W        W10540   4.628   7.530   0.130
 6490W        W10541   0.795  10.183  11.666
 6491W        W10542   2.087   3.315   0.727
 6492W        W10543   0.466  11.389   1.456
 6493W        W10544   1.868   5.551  11.293
 6494W        W10545   4.936   4.110   1.963
 6495W        W10546   3.810   7.028   1.015
 6496W        W10547  10.647   5.905   2.838
 6497W        W10548   8.224   4.379   0.288
 6498W        W10549   0.799   8.876   9.738
 6499W        W10550   7.385  11.426   3.136
 6500W        W10551   9.117   1.888   0.618
 6501W        W10552   9.472  11.223   3.321
 6502W        W10553   2.707   7.667   1.179
 6503W        W10554   6.920   4.988   1.626
 6504W        W10555  11.396   3.412   0.688
 6505W        W10556   2.482   7.073   1.063
 6506W        W10557   0.308   0.673   0.629
 6507W        W10558   5.243   9.949   9.662
 6508W        W10559   3.618   3.042   1.906
 6509W        W10560   5.646   5.351   0.823
 6510W        W10561   7.384   9.434   2.414
 6511W        W10562   1.486   2.297  10.196
 6512W        W10563   3.613   6.548   8.572
 6513W        W10564   2.043   7.427   2.350
 6514W        W10565  11.289  10.069   2.715
 6515W        W10566   4.567   1.369   2.231
 6516W        W10567   6.968   4.176   0.025
 6517W        W10568   0.716   5.370   9.995
 6518W        W10569   6.686   1.700  11.184
 6519W        W10570   8.438  11.283   3.118
 6520W        W10571   7.156   1.978   0.626
 6521W        W10572   1.451   0.716   0.040
 6522W        W10573   7.762   9.910  11.233
 6523W        W10574   4.116   0.450   0.002
 6524W        W10575   8.091   8.195   9.968
 6525W        W10576   0.361   6.496   3.796
 6526W        W10577   4.549   5.759  11.504
 6527W        W10578   4.034  10.533   9.753
 6528W        W10579   5.681   2.349  10.750
 6529W        W10580   8.852   9.300   9.261
 6530W        W10581   1.861   6.931   2.214
 6531W        W10582   0.398  10.830  11.847
 6532W        W10583   3.059  10.852  11.274
 6533W        W10584   0.776   9.956  10.564
 6534W        W10585   2.557   5.389   8.197
 6535W        W10586   6.623   6.677  11.298
 6536W        W10587   3.211   3.303  10.943
 6537W        W10588  10.836  10.284  11.815
 6538W        W10589   1.227  11.179   2.711
 6539W        W10590   3.773  10.939  10.539
 6540W        W10591   7.579   1.981  11.389
 6541W        W10592   3.996  11.468  11.829
 6542W        W10593   0.898   0.781   1.237
 6543W        W10594   1.890   8.628   9.501
 6544W        W10595   3.635   6.178   0.987
 6545W        W10596   9.772   1.695  10.747
 6546W        W10597   3.281   5.612  11.972
 6547W        W10598   0.597   7.274   2.161
 6548W        W10599   5.805   7.021   2.644
 6549W        W10600   9.773  11.420  11.494
 6550W        W10601   5.276   6.739   1.367
 6551W        W10602   6.232   4.108   4.087
 6552W        W10603   1.553   5.998  11.233
 6553W        W10604   6.533   6.888   1.188
 6554W        W10605   7.136   7.655  10.439
 6555W        W10606   6.529   7.763  10.969
 6556W        W10607   4.164  10.998   2.965
 6557W        W10608   7.102   0.822  10.797
 6558W        W10609   5.944   0.001   9.469
 6559W        W10610   5.867   9.520   9.811
 6560W        W10611   3.794   8.936   2.321
 6561W        W10612   4.128   6.247   3.717
 6562W        W10613   1.282   2.809   0.372
 6563W        W10614  10.557   2.359  10.045
 6564W        W10615   0.298  11.445   2.786
 6565W        W10616   0.353   7.253   1.703
 6566W        W10617   3.185   2.122  11.969
 6567W        W10618   2.863   2.797  11.417
 6568W        W10619   5.437   9.255   3.200
 6569W        W10620   9.957   8.393   2.402
 6570W        W10621  10.845  11.145   1.680
 6571W        W10622   1.736   9.191   3.269
 6572W        W10623   2.355  11.098  10.470
 6573W        W10624   7.462   0.946   0.580
 6574W        W10625   1.625   1.331  11.439
 6575W        W10626   6.648   3.098   2.482
 6576W        W10627   2.115   6.577   8.678
 6577W        W10628   2.858   6.221  10.613
 6578W        W10629   4.260   3.533  10.923
 6579W        W10630   6.425   3.113   8.500
 6580W        W10631   2.295   2.463  10.614
 6581W        W10632   1.629   7.040   9.368
 6582W        W10633  11.249   7.637   2.700
 6583W        W10634   9.236   0.641   0.592
 6584W        W10635   1.767   8.665   2.270
 6585W        W10636   5.125  11.290   9.874
 6586W        W10637   2.227   9.480   9.179
 6587W        W10638   9.959   3.253   1.921
 6588W        W10639   8.769   3.363  11.975
 6589W        W10640   4.254   0.084   9.841
 6590W        W10641   9.848   2.407   1.860
 6591W        W10642  10.975   8.165   0.725
 6592W        W10643   9.702   0.689   0.379
 6593W        W10644   5.183   5.980   0.999
 6594W        W10645   7.758   4.550   9.040
 6595W        W10646   3.238   2.646   0.851
 6596W        W10647   5.220   6.097  10.329
 6597W        W10648  10.021   8.139  11.785
 6598W        W10649   6.113   0.943   0.885
 6599W        W10650   1.985   3.398  10.953
 6600W        W10651  10.232   6.091   0.785
 6601W        W10652   8.999   7.842  11.530
 6602W        W10653   1.341   1.958   3.280
 6603W        W10654   6.578   8.638   1.812
 6604W        W10655   6.308   7.185   8.979
 6605W        W10656  10.790   0.768   9.055
 6606W        W10657   2.779   8.866   9.546
 6607W        W10658  11.264   8.587   0.705
 6608W        W10659   3.543   4.109   0.952
 6609W        W10660   4.040   6.172   0.134
 6610W        W10661   4.411   1.772   0.697
 6611W        W10662   6.210   0.291  10.814
 6612W        W10663   4.091  11.440   0.785
 6613W        W10664   7.669   8.856   0.557
 6614W        W10665   2.013   3.032  11.704
 6615W        W10666   8.154   2.840  10.410
 6616W        W10667   1.307   3.621  11.711
 6617W        W10668   4.539   3.404  10.405
 6618W        W10669   4.899   7.156  11.396
 6619W        W10670   5.687   6.298  10.182
 6620W        W10671   7.456   3.859   1.586
 6621W        W10672   0.145   5.645   0.597
 6622W        W10673  10.271   8.593  10.116
 6623W        W10674   7.211   3.083   1.947
 6624W        W10675   5.993   2.363   9.490
 6625W        W10676   4.621   1.448   9.386
 6626W        W10677   4.481   4.676   3.236
 6627W        W10678  10.086   7.442  10.322
 6628W        W10679  10.050  10.919   0.818
 6629W        W10680  11.316   5.264  11.104
 6630W        W10681   4.802   1.339  10.317
 6631W        W10682   0.824   3.510   9.547
 6632W        W10683   5.785   4.372   0.700
 6633W        W10684  10.165   7.524   1.620
 6634W        W10685   8.713   1.291   9.769
 6635W        W10686   3.239   8.620   0.241
 6636W        W10687   5.912   1.629  11.041
 6637W        W10688   4.976   1.753   4.044
 6638W        W10689   6.974   1.332   1.197
 6639W        W10690   7.902   5.281   9.491
 6640W        W10691   0.462   3.762   2.830
 6641W        W10692   8.077  11.383  10.877
 6642W        W10693   1.922   5.263   8.990
 6643W        W10694   1.392   2.819  10.340
 6644W        W10695   8.167  11.299   9.972
 6645W        W10696   9.187   0.385   3.255
 6646W        W10697   0.419  11.223   0.181
 6647W        W10698   8.659  11.248  10.228
 6648W        W10699   2.692   6.569   8.731
 6649W        W10700  10.523   0.693  10.672
 6650W        W10701   5.741   7.710   4.018
 6651W        W10702   3.377   3.378  11.426
 6652W        W10703   4.062  10.366  10.736
 6653W        W10704   9.020   3.306   9.051
 6654W        W10705   6.196   5.749   2.733
 6655W        W10706   4.962   8.115   9.284
 6656W        W10707   9.250   5.919  10.424
 6657W        W10708  10.358   4.122   3.082
 6658W        W10709   3.432   7.397   2.841
 6659W        W10710   7.635   2.117  11.886
 6660W        W10711   3.105   1.389  11.381
 6661W        W10712  10.731  11.267   9.056
 6662W        W10713  10.378   0.746   3.188
 6663W        W10714   4.103   1.232  10.380
 6664W        W10715   5.870  10.916   2.462
 6665W        W10716   2.007  10.361   9.197
 6666W        W10717   1.370   3.721  10.697
 6667W        W10718   1.735   4.604   0.401
 6668W        W10719   4.217   1.219   1.852
 6669W        W10720   8.996   8.979   9.845
 6670W        W10721   1.305   4.577  10.801
 6671W        W10722   4.245   2.777   1.569
 6672W        W10723   0.709   4.165   1.222
 6673W        W10724   9.254  10.339   3.773
 6674W        W10725  10.740   6.073   1.537
 6675W        W10726   2.145  10.640   1.830
 6676W        W10727  11.207   0.729   3.168
 6677W        W10728   0.598   1.943  11.140
 6678W        W10729   1.863   9.929   1.555
 6679W        W10730   7.601   6.214  10.209
 6680W        W10731   4.364   6.648  11.834
 6681W        W10732   0.099   1.694  11.284
 6682W        W10733   7.614  10.320  10.970
 6683W        W10734   7.581   8.016  10.643
 6684W        W10735   3.748   4.995   9.363
 6685W        W10736   5.098   0.295   1.292
 6686W        W10737   1.210   5.933  10.848
 6687W        W10738   9.852   8.854   3.317
 6688W        W10739   7.653   5.495   0.902
 6689W        W10740   2.223   8.781   2.485
 6690W        W10741   7.576   1.914   9.223
 6691W        W10742   9.304   4.836  10.079
 6692W        W10743   7.132   7.434   9.059
 6693W        W10744  10.879  10.957   3.022
 6694W        W10745   7.978   2.316   9.685
 6695W        W10746   3.716   6.605  10.818
 6696W        W10747   7.950  11.004   3.345
 6697W        W10748   3.939  10.291  11.364
 6698W        W10749   5.389   8.480  10.953
 6699W        W10750   0.574   9.064  10.191
 6700W        W10751   0.250   3.145   2.314
 6701W        W10752   6.095   2.509  11.004
 6702W        W10753  10.638   8.407   1.359
 6703W        W10754   3.218  11.493   9.209
 6704W        W10755  10.135   4.224   9.130
 6705W        W10756   6.797   1.803   2.411
 6706W        W10757   0.835   4.578  10.489
 6707W        W10758   5.748   2.816   2.830
 6708W        W10759   9.967   2.712   0.167
 6709W        W10760   3.929   7.263   2.854
 6710W        W10761  10.096   0.341   3.422
 6711W        W10762   7.373   1.055   2.383
 6712W        W10763   7.941   3.309  11.144
 6713W        W10764   0.813   7.385   0.814
 6714W        W10765   1.851   3.119  10.174
 6715W        W10766   1.809   6.415   0.371
 6716W        W10767   5.560   1.903  11.986
 6717W        W10768   2.345   9.584  10.651
 6718W        W10769   6.181   2.515  11.513
 6719W        W10770   4.509   6.118   1.288
 6720W        W10771   4.747  11.487   0.419
 6721W        W10772   9.033   7.368  10.410
 6722W        W10773   1.654  11.007  11.544
 6723W        W10774   4.163   9.553  11.484
 6724W        W10775   6.289   8.741   2.219
 6725W        W10776   3.659   0.886  10.413
 6726W        W10777   0.937   6.268  11.824
 6727W        W10778   8.829   7.614   8.838
 6728W        W10779   5.342   4.456   0.937
 6729W        W10780  10.004   3.275   8.747
 6730W        W10781   8.069   1.934  11.564
 6731W        W10782   9.596   9.319   3.247
 6732W        W10783   5.571   4.623   1.904
 6733W        W10784   5.848   7.095   9.202
 6734W        W10785   3.420   1.952   2.160
 6735W        W10786   8.423   5.903   9.899
 6736W        W10787   8.364   8.397   9.553
 6737W        W10788   0.213   4.085   1.377
 6738W        W10789   6.110   1.604   9.065
 6739W        W10790   4.768   7.952   1.123
 6740W        W10791   8.957   9.169   3.587
 6741W        W10792  10.001   7.981   1.530
 6742W        W10793   6.820  10.870   2.214
 6743W        W10794   9.468   3.385   8.754
 6744W        W10795   8.520   0.192   3.772
 6745W        W10796   2.963   0.692   0.276
 6746W        W10797   6.022   2.152   9.938
 6747W        W10798   4.951   2.619   1.782
 6748W        W10799   7.042   8.652   9.517
 6749W        W10800   7.801  10.376  11.440
 6750W        W10801   5.675   0.701   2.717
 6751W        W10802  11.395   5.191   9.895
 6752W        W10803   7.438  10.032  11.620
 6753W        W10804   7.123  11.188   1.328
 6754W        W10805  11.380   3.843  11.348
 6755W        W10806   9.852   9.998  11.925
 6756W        W10807   7.149   8.886   0.476
 6757W        W10808   2.159   4.985  11.749
 6758W        W10809   4.744   8.916   2.754
 6759W        W10810   2.697   9.492   1.702
 6760W        W10811  10.732   7.724   2.231
 6761W        W10812   1.745   2.683   9.900
 6762W        W10813   5.386   9.367   9.935
 6763W        W10814   2.328  10.060  11.379
 6764W        W10815  11.447   8.117   0.915
 6765W        W10816   8.201   1.199   0.629
 6766W        W10817   9.987   7.607   0.322
 6767W        W10818   5.110   7.238  10.930
 6768W        W10819   3.550   6.893   2.790
 6769W        W10820   8.621   3.028   1.240
 6770W        W10821   7.763   3.589   1.254
 6771W        W10822   1.375   7.167  11.563
 6772W        W10823   0.903   3.810   0.436
 6773W        W10824   2.792   2.853   1.011
 6774W        W10825  10.318  11.016  11.872
 6775W        W10826   6.512   2.338  10.756
 6776W        W10827   9.469   6.940   9.701
 6777W        W10828   4.764   9.915  10.959
 6778W        W10829   6.662   0.790   3.889
 6779W        W10830  10.509   7.308   1.324
 6780W        W10831  11.322   0.141   9.591
 6781W        W10832   5.187   9.000  10.760
 6782W        W10833   2.350   1.967  10.518
 6783W        W10834   5.060   9.347   2.412
 6784W        W10835   3.146   5.088   3.782
 6785W        W10836  11.299   5.266   0.503
 6786W        W10837   8.171   6.004   8.446
 6787W        W10838   9.760   0.503   1.805
 6788W        W10839  10.491   3.872  10.911
 6789W        W10840   1.158   6.719   8.722
 6790W        W10841   2.115   7.592   3.668
 6791W        W10842   4.468   1.437  10.678
 6792W        W10843   6.043   7.547  10.278
 6793W        W10844   2.706   7.520   9.336
 6794W        W10845   4.389  10.690   9.381
 6795W        W10846   4.794   7.168  10.335
 6796W        W10847   7.910  10.351   1.554
 6797W        W10848   7.955   1.247   1.431
 6798W        W10849   7.151   6.799   2.664
 6799W        W10850   9.189   8.428   1.262
 6800W        W10851   5.759   2.629   0.465
 6801W        W10852   1.886   2.149  10.489
 6802W        W10853   3.034   2.488  11.040
 6803W        W10854  10.437   7.442   2.963
 6804W        W10855  11.088   0.448   1.408
 6805W        W10856   5.892   4.273  11.389
 6806W        W10857   7.502   5.350   1.364
 6807W        W10858   7.195   9.420   2.912
 6808W        W10859   9.378   8.871   1.490
 6809W        W10860   5.665  10.778   3.438
 6810W        W10861   7.926   2.399   9.179
 6811W        W10862   3.705   7.020   0.029
 6812W        W10863   2.298  11.116   1.856
 6813W        W10864  11.429   0.521   0.956
 6814W        W10865   3.284   8.884   1.041
 6815W        W10866   7.351   6.973   8.865
 6816W        W10867   8.909   7.622   9.987
 6817W        W10868  10.508   9.082   8.711
 6818W        W10869   4.831   6.671  11.266
 6819W        W10870   0.388   4.879   1.621
 6820W        W10871   2.433   6.452  11.466
 6821W        W10872   9.472   9.774   2.924
 6822W        W10873   8.792   5.759  11.896
 6823W        W10874  10.893   0.367   9.390
 6824W        W10875   4.994   7.484   0.952
 6825W        W10876   2.341  10.328   0.941
 6826W        W10877  10.351   6.346   1.282
 6827W        W10878   5.309   9.785   0.219
 6828W        W10879  11.262   4.704   3.270
 6829W        W10880   5.236   0.804  11.778
 6830W        W10881   5.107   2.582   3.615
 6831W        W10882   5.743   4.090  10.742
 6832W        W10883   9.380  10.288   2.846
 6833W        W10884   1.846   7.797   2.689
 6834W        W10885  10.777   7.117   0.914
 6835W        W10886   9.886   4.739   0.211
 6836W        W10887   9.992   1.226   2.081
 6837W        W10888   3.194   4.743   0.896
 6838W        W10889   2.978   3.429  11.746
 6839W        W10890   0.658  10.444   0.088
 6840W        W10891   6.670   8.693   2.657
 6841W        W10892   8.469   9.479  10.135
 6842W        W10893   1.809   5.543   3.010
 6843W        W10894  11.359   2.892   2.673
 6844W        W10895   5.482  11.315   9.410
 6845W        W10896   9.027   9.934   0.908
 6846W        W10897   8.405   3.466  10.926
 6847W        W10898   6.541   1.669  10.191
 6848W        W10899   0.824   5.326  11.890
 6849W        W10900   2.676   8.158   1.331
 6850W        W10901   9.393   4.209  10.379
 6851W        W10902   7.498   6.699   0.330
 6852W        W10903   9.968   3.742   1.154
 6853W        W10904   2.163   7.406  10.577
 6854W        W10905   9.232   7.905   9.734
 6855W        W10906   8.477   9.887   9.830
 6856W        W10907   2.703   3.781  11.995
 6857W        W10908   1.014   0.702  10.874
 6858W        W10909  10.531  10.302   9.644
 6859W        W10910   6.253   1.302   8.672
 6860W        W10911   0.491   6.033   3.086
 6861W        W10912   0.812   4.554   9.545
 6862W        W10913   7.461   1.406   1.392
 6863W        W10914   9.404   5.834  11.323
 6864W        W10915  10.848   1.334  11.641
 6865W        W10916   8.896   4.784  11.787
 6866W        W10917   2.524   3.320  10.856
 6867W        W10918   6.374   1.364  10.926
 6868W        W10919   7.483   7.364   0.808
 6869W        W10920   1.333  10.941   2.276
 6870W        W10921   8.847   7.413   3.328
 6871W        W10922   5.473  10.544   2.457
 6872W        W10923   4.126  10.371  11.835
 6873W        W10924   1.358   1.802   9.961
 6874W        W10925   3.778   4.160   2.803
 6875W        W10926   5.048   6.044   0.002
 6876W        W10927   9.437   8.400   2.655
 6877W        W10928   7.654   5.560   2.193
 6878W        W10929   1.210  10.054   3.250
 6879W        W10930   5.557   7.566   0.906
 6880W        W10931  10.419  10.036   3.099
 6881W        W10932   4.260   5.238   0.554
 6882W        W10933   4.259   2.199   9.276
 6883W        W10934   8.899   7.122   2.791
 6884W        W10935   5.767   3.688  11.486
 6885W        W10936   7.920   2.751   1.678
 6886W        W10937   3.205   2.355  11.512
 6887W        W10938   7.487  10.023   1.820
 6888W        W10939   2.350   6.667   9.128
 6889W        W10940   9.033   9.531   1.737
 6890W        W10941   4.126  10.264   9.307
 6891W        W10942   3.157   6.175   1.772
 6892W        W10943   1.688   8.145  11.439
 6893W        W10944   6.120   0.231   1.402
 6894W        W10945   2.951   3.324   2.291
 6895W        W10946   4.176  11.436   8.910
 6896W        W10947   8.975   8.703   3.286
 6897W        W10948   7.158   8.153  10.360
 6898W        W10949   7.297   2.249   1.213
 6899W        W10950  10.093   8.089   9.877
 6900W        W10951   5.677   1.769   0.494
 6901W        W10952   0.823  11.342  10.910
 6902W        W10953   0.679  10.737   9.440
 6903W        W10954   3.285  11.208   2.610
 6904W        W10955   0.308   7.920   9.055
 6905W        W10956   2.007   7.600  10.122
 6906W        W10957   4.699   1.889  10.499
 6907W        W10958   7.554  10.450   1.182
 6908W        W10959   5.286   8.855   9.914
 6909W        W10960   7.200   5.334   0.694
 6910W        W10961   8.003   7.470   0.420
 6911W        W10962   5.612   3.114   0.444
 6912W        W10963  10.952   8.952  10.988
 6913W        W10964   3.663  10.436   9.421
 6914W        W10965   8.053   6.332   9.270
 6915W        W10966  10.291   1.993  10.575
 6916W        W10967   2.813   5.707   3.736
 6917W        W10968   6.116   0.270   0.064
 6918W        W10969   2.360   0.914  11.254
 6919W        W10970   8.127  10.326  11.001
 6920W        W10971   2.670  10.178  10.497
 6921W        W10972   1.430   1.508  10.842
 6922W        W10973   9.541   0.324  11.301
 6923W        W10974   7.159   9.197   9.105
 6924W        W10975   3.322   5.234   0.923
 6925W        W10976   9.878   7.227   0.008
 6926W        W10977   7.505   1.809   0.996
 6927W        W10978   6.906   7.421  10.819
 6928W        W10979  11.216   4.733  11.400
 6929W        W10980   9.250   7.608   2.073
 6930W        W10981   2.835   9.946  10.933
 6931W        W10982   7.444  10.089   3.616
 6932W        W10983  10.820   5.499   0.374
 6933W        W10984  10.455   8.840  10.765
 6934W        W10985   0.824  11.484   2.759
 6935W        W10986  11.061   3.377  11.285
 6936W        W10987  10.729   5.102   2.757
 6937W        W10988   4.253  10.009   0.173
 6938W        W10989   8.063  11.079  11.415
 6939W        W10990   0.282   6.750   9.636
 6940W        W10991   9.751   9.495   9.635
 6941W        W10992   7.352   2.440  10.409
 6942W        W10993   5.273   4.325   3.157
 6943W        W10994   2.668  11.340   9.882
 6944W        W10995   3.461   0.984  10.873
 6945W        W10996   1.622   5.704   9.009
 6946W        W10997   1.640   4.031   9.141
 6947W        W10998   8.427   9.234   1.427
 6948W        W10999   3.397   4.709   1.511
 6949W        W11000   1.630   6.875   1.149
 6950W        W11001   6.808   8.816   9.939
 6951W        W11002   9.819   9.457   1.198
 6952W        W11003   9.003   9.949   1.434
 6953W        W11004   3.113   3.835   2.326
 6954W        W11005   7.347   2.676  10.852
 6955W        W11006   8.425   5.227  10.466
 6956W        W11007   8.366   8.568   0.844
 6957W        W11008   7.487   5.678   0.453
 6958W        W11009  11.256   0.312   3.539
 6959W        W11010   8.003   0.734   1.339
 6960W        W11011   0.454   4.008  10.907
 6961W        W11012  10.917   2.455  10.979
 6962W        W11013   6.518   7.694   9.655
 6963W        W11014   4.296   1.344   8.977
 6964W        W11015   6.046   5.003   9.611
 6965W        W11016   5.260   1.656   1.224
 6966W        W11017   5.822  10.037   9.097
 6967W        W11018   6.360  11.429  10.441
 6968W        W11019   4.377   5.613   1.370
 6969W        W11020   8.831   0.976  11.934
 6970W        W11021   3.323   2.210   8.742
 6971W        W11022   9.942   6.002   8.859
 6972W        W11023   7.518   1.704  10.955
 6973W        W11024   3.816  11.429  10.003
 6974W        W11025  10.244   5.345  11.011
 6975W        W11026   7.471   1.336   1.902
 6976W        W11027   9.814   7.515   2.286
 6977W        W11028   5.534   8.521  11.990
 6978W        W11029   5.780  11.030   9.703
 6979W        W11030   6.212   4.062   9.953
 6980W        W11031   5.486  11.420  11.771
 6981W        W11032   8.525   0.791   0.714
 6982W        W11033   5.731   8.890   9.093
 6983W        W11034   9.543  11.283   9.778
 6984W        W11035   2.779   0.706   3.154
 6985W        W11036   4.528   9.272  10.241
 6986W        W11037   6.637   5.181  11.058
 6987W        W11038   4.761   3.296   2.327
 6988W        W11039   2.428   5.181   9.957
 6989W        W11040  11.236   6.497   1.828
 6990W        W11041   2.872   1.954   2.159
 6991W        W11042   3.724   6.247  10.167
 6992W        W11043  11.284   7.372  10.151
 6993W        W11044   4.684  11.454   3.485
 6994W        W11045  10.308   2.039   1.217
 6995W        W11046   9.520   0.452   8.994
 6996W        W11047   8.311   0.672   9.814
 6997W        W11048   4.008  10.268   3.827
 6998W        W11049   1.199   4.555  11.691
 6999W        W11050   5.111   7.092   9.935
 7000W        W11051   6.342  11.123   0.654
 7001W        W11052   2.668   1.391  11.762
 7002W        W11053  10.340   9.530   8.486
 7003W        W11054   9.049   2.796   8.904
 7004W        W11055   1.917   0.103   8.991
 7005W        W11056   7.588   1.052   8.942
 7006W        W11057   3.773   2.867  11.836
 7007W        W11058   6.949   4.052   9.486
 7008W        W11059   2.748   2.936  10.080
 7009W        W11060   0.300   4.040   9.850
 7010W        W11061  10.173   1.936   0.736
 7011W        W11062   1.847  10.813   3.128
 7012W        W11063   8.969   4.114  10.672
 7013W        W11064   2.064   6.339   3.460
 7014W        W11065   2.775  11.229   1.665
 7015W        W11066  10.302   5.696   0.356
 7016W        W11067  10.862   1.346   1.535
 7017W        W11068   9.865   1.179   0.430
 7018W        W11069   1.022   7.046   0.468
 7019W        W11070   0.955   4.980   2.738
 7020W        W11071   7.287   7.147  10.584
 7021W        W11072  11.438   1.044   0.900
 7022W        W11073   2.928  11.294   0.122
 7023W        W11074   5.778   6.684   2.245
 7024W        W11075   1.854   0.887  11.281
 7025W        W11076   4.000   8.400  11.190
 7026W        W11077   7.351   2.335   0.286
 7027W        W11078   0.841   4.654   0.452
 7028W        W11079   1.322   9.786   8.879
 7029W        W11080   8.614   2.971   9.136
 7030W        W11081   6.773   9.042   3.440
 7031W        W11082   4.309   5.662   0.849
 7032W        W11083   6.078   3.678  10.669
 7033W        W11084   5.505   6.306   1.193
 7034W        W11085   4.986   3.647   8.676
 7035W        W11086   5.982   9.986   9.602
 7036W        W11087   6.454  10.887   1.840
 7037W        W11088  11.298   1.778   2.670
 7038W        W11089   7.596   2.764   0.424
 7039W        W11090   0.324   8.146   2.207
 7040W        W11091   9.045   4.635   9.120
 7041W        W11092   1.364  10.811   8.891
 7042W        W11093   7.802   0.232   2.223
 7043W        W11094   3.405   8.975   0.556
 7044W        W11095   7.963   3.654   0.787
 7045W        W11096   5.111   9.745  10.120
 7046W        W11097   8.831   0.894   1.951
 7047W        W11098  10.023  11.062   2.830
 7048W        W11099   5.710   1.284   3.481
 7049W        W11100   6.002   8.928  11.516
 7050W        W11101   5.618   4.650   2.407
 7051W        W11102   8.382   0.769   0.204
 7052W        W11103   8.073   5.830   3.650
 7053W        W11104   0.621   0.913   9.081
 7054W        W11105   2.851   4.219  11.713
 7055W        W11106  11.198   5.986   2.815
 7056W        W11107   7.515   8.012   1.593
 7057W        W11108   5.365   0.313  10.524
 7058W        W11109   5.733   6.594   9.153
 7059W        W11110   7.867   7.885   2.060
 7060W        W11111   8.914  10.411  10.348
 7061W        W11112   7.918  10.781  11.793
 7062W        W11113  10.985   0.311   0.533
 7063W        W11114   3.563   4.001  10.537
 7064W        W11115  10.153   1.461   0.953
 7065W        W11116   9.988   6.511  10.419
 7066W        W11117   4.181   2.689   3.520
 7067W        W11118   6.574   1.786   8.907
 7068W        W11119   5.715   8.165   9.535
 7069W        W11120   3.202   9.343   1.808
 7070W        W11121   7.547  11.463   1.201
 7071W        W11122   1.812   8.692   3.190
 7072W        W11123   7.346   8.335  11.779
 7073W        W11124   6.796  10.392  11.320
 7074W        W11125   0.835   8.545  10.787
 7075W        W11126   5.765  11.449   0.239
 7076W        W11127   6.721   6.322  11.778
 7077W        W11128   9.738   8.222   3.636
 7078W        W11129   5.749   8.833   0.957
 7079W        W11130  10.530   5.525   0.837
 7080W        W11131   9.142  10.382   3.274
 7081W        W11132   7.883  10.953   9.648
 7082W        W11133   6.630  10.901   9.241
 7083W        W11134   2.456   7.050  10.336
 7084W        W11135  10.745   0.332   0.072
 7085W        W11136   6.647   9.133  10.862
 7086W        W11137   4.071   2.827   2.054
 7087W        W11138   8.144   9.876   1.375
 7088W        W11139   5.104   4.527   2.227
 7089W        W11140   0.899   4.141   1.701
 7090W        W11141   6.887   2.501   9.985
 7091W        W11142   2.618   4.922  10.387
 7092W        W11143   8.267   0.363  11.842
 7093W        W11144   7.647   9.052   9.200
 7094W        W11145   3.733   5.734   0.184
 7095W        W11146  10.365   6.114   3.221
 7096W        W11147   0.042  10.800   1.361
 7097W        W11148   4.721   0.336   9.924
 7098W        W11149   5.982   3.350   8.565
 7099W        W11150   8.420  10.513   0.919
 7100W        W11151   4.713   4.131   0.435
 7101W        W11152  11.489   1.803   1.191
 7102W        W11153  10.817   7.364   2.576
 7103W        W11154   5.566   9.394   8.997
 7104W        W11155   1.413   9.165   0.146
 7105W        W11156   9.403   0.478  10.362
 7106W        W11157   2.634   7.062  11.198
 7107W        W11158   2.848  10.925  11.759
 7108W        W11159   2.107   7.323   9.392
 7109W        W11160   1.675   9.661   0.780
 7110W        W11161   0.964  10.120  11.012
 7111W        W11162   9.981   2.854  11.683
 7112W        W11163   2.351   1.556   9.620
 7113W        W11164   8.597   3.363   1.613
 7114W        W11165   0.122  10.507   2.787
 7115W        W11166  11.392   8.464   2.252
 7116W        W11167   8.448   7.104   9.414
 7117W        W11168   5.221   1.582   2.667
 7118W        W11169   9.857   6.135   3.070
 7119W        W11170   7.968   6.966   3.085
 7120W        W11171   6.991   6.582   8.791
 7121W        W11172   1.765   6.458   0.875
 7122W        W11173   6.532   1.824  10.680
 7123W        W11174   2.729   5.730  10.736
 7124W        W11175   6.079  11.300  10.850
 7125W        W11176   1.099   5.749  10.055
 7126W        W11177   1.259   8.868  10.031
 7127W        W11178   5.071   2.976   0.912
 7128W        W11179   0.736   6.503  11.345
 7129W        W11180   8.459   1.134   1.635
 7130W        W11181   7.854   7.431   2.313
 7131W        W11182   2.797   2.565   3.331
 7132W        W11183   5.561   1.347  11.831
 7133W        W11184   2.016   7.680  11.429
 7134W        W11185   8.420   0.740  11.151
 7135W        W11186   0.481   6.724  10.520
 7136W        W11187   1.955  11.138   1.161
 7137W        W11188   0.243  11.097  10.271
 7138W        W11189   4.003   4.565   9.559
 7139W        W11190  10.894   9.047   0.033
 7140W        W11191   5.094   5.567  11.767
 7141W        W11192   9.863   5.275   3.032
 7142W        W11193   6.628   9.602   8.482
 7143W        W11194  10.026   1.783   9.775
 7144W        W11195   4.703   5.732   0.535
 7145W        W11196   1.330   8.387  10.211
 7146W        W11197   8.389  11.282   9.292
 7147W        W11198   3.119   1.031  10.094
 7148W        W11199   8.612   5.775   8.245
 7149W        W11200   3.560   4.156   9.236
 7150W        W11201   2.334  10.055  10.860
 7151W        W11202   1.765   5.030   9.418
 7152W        W11203   8.060   5.994  10.241
 7153W        W11204   6.960   0.950   2.123
 7154W        W11205   5.228   0.851   2.946
 7155W        W11206   4.605   3.214   0.816
 7156W        W11207   3.507   0.051  11.445
 7157W        W11208   8.056   0.080  11.401
 7158W        W11209   4.612   0.318   8.556
 7159W        W11210   8.503   7.631   0.408
 7160W        W11211  10.330   2.687   1.344
 7161W        W11212   8.564   1.175  11.373
 7162W        W11213   5.325  11.352   3.025
 7163W        W11214   4.900   0.652   3.271
 7164W        W11215  10.052   8.443   9.412
 7165W        W11216   4.141   1.861   8.766
 7166W        W11217   5.215   8.262   1.275
 7167W        W11218   3.338  10.802   2.234
 7168W        W11219   5.119   9.102   1.532
 7169W        W11220   6.762  10.906   0.077
 7170W        W11221   1.612   8.997  10.888
 7171W        W11222  11.347   1.905  11.672
 7172W        W11223   2.607   5.728   1.372
 7173W        W11224   8.615   4.084   0.475
 7174W        W11225   3.355   5.219   1.454
 7175W        W11226   6.877   4.573  11.256
 7176W        W11227  10.819   2.736   0.748
 7177W        W11228   6.535  11.119   3.030
 7178W        W11229   5.098   3.096  11.082
 7179W        W11230   9.425  10.880   0.103
 7180W        W11231   3.774   7.972  10.497
 7181W        W11232   7.139   7.043   0.076
 7182W        W11233   1.471   8.533   9.190
 7183W        W11234   3.867   1.868   1.292
 7184W        W11235   1.183   6.726  11.754
 7185W        W11236   5.188   1.421   0.752
 7186W        W11237   4.739   8.684   1.906
 7187W        W11238   3.325   8.802   8.645
 7188W        W11239   1.275   4.656   0.179
 7189W        W11240   7.228   8.397  10.806
 7190W        W11241   0.664   1.468  10.425
 7191W        W11242   2.601   8.648   1.237
 7192W        W11243   7.034   1.681  10.315
 7193W        W11244   5.063  10.803   0.522
 7194W        W11245   2.654   2.344   2.457
 7195W        W11246  10.788   4.216   2.812
 7196W        W11247   4.664   6.120   1.827
 7197W        W11248   8.806   3.653   1.224
 7198W        W11249   5.538   3.259   2.666
 7199W        W11250   1.804   5.539   9.454
 7200W        W11251   4.458   2.151   2.867
 7201W        W11252   6.154   3.124   8.976
 7202W        W11253   6.548   5.638   1.737
 7203W        W11254   3.597  11.241  10.961
 7204W        W11255   3.362   7.151  10.483
 7205W        W11256   3.808   2.610  10.361
 7206W        W11257  11.417   4.292   9.183
 7207W        W11258   9.467   5.022   0.426
 7208W        W11259   6.538   5.685  11.267
 7209W        W11260   8.714   6.621   8.788
 7210W        W11261   0.583   1.245   9.947
 7211W        W11262   4.306   4.574  10.814
 7212W        W11263   1.071   7.869   3.419
 7213W        W11264   4.143   2.533  11.955
 7214W        W11265   5.729   7.521   8.919
 7215W        W11266   8.094   3.700   9.615
 7216W        W11267   0.382   4.900  11.753
 7217W        W11268   0.838   9.033  10.628
 7218W        W11269   6.969   0.848   2.628
 7219W        W11270   0.208   7.646  10.069
 7220W        W11271   3.819   2.084  11.431
 7221W        W11272   7.014  11.468   2.322
 7222W        W11273   9.146   3.317   2.752
 7223W        W11274   4.083   1.716   9.257
 7224W        W11275   9.432   2.416   9.705
 7225W        W11276   5.224   6.756   9.159
 7226W        W11277   6.112   6.253   9.389
 7227W        W11278   0.231   6.610   0.049
 7228W        W11279   2.245   0.215   1.029
 7229W        W11280   5.521  10.255  10.773
 7230W        W11281   4.961   0.175   3.126
 7231W        W11282   2.199   1.962   3.167
 7232W        W11283   0.767  11.205  11.796
 7233W        W11284   8.054  10.944   2.826
 7234W        W11285   8.666   1.325   0.763
 7235W        W11286   0.545   9.713   0.585
 7236W        W11287   7.015   7.580   9.555
 7237W        W11288   0.113   5.270   0.082
 7238W        W11289   4.678   6.180  11.236
 7239W        W11290   3.838  10.984  11.928
 7240W        W11291   4.562   7.575  10.051
 7241W        W11292   8.329   9.813   3.605
 7242W        W11293   3.581   1.304  10.137
 7243W        W11294   2.760   9.919   2.027
 7244W        W11295   2.140   5.129  10.357
 7245W        W11296   1.783   3.574  11.453
 7246W        W11297   8.557   8.872   9.404
 7247W        W11298   6.503   7.102   1.939
 7248W        W11299   2.613   0.936   9.973
 7249W        W11300   2.674   1.836   2.628
 7250W        W11301   0.214   0.004   1.888
 7251W        W11302   4.074   3.602  10.477
 7252W        W11303   3.722   6.094   8.359
 7253W        W11304   3.316   4.767  10.062
 7254W        W11305   0.429   6.664   1.141
 7255W        W11306   0.758   3.148  11.008
 7256W        W11307   8.618   8.912  11.008
 7257W        W11308   1.725   8.985  11.806
 7258W        W11309   8.340   1.103   1.116
 7259W        W11310   2.527   5.631   8.720
 7260W        W11311   7.429   0.477   2.980
 7261W        W11312   2.716   8.835  10.061
 7262W        W11313   4.772   2.491  11.462
 7263W        W11314  10.849   2.919   2.529
 7264W        W11315   3.466  10.547   0.458
 7265W        W11316   6.227   5.513  11.747
 7266W        W11317   7.557   8.067  11.140
 7267W        W11318   8.858   8.498   0.856
 7268W        W11319   8.130   6.363   1.359
 7269W        W11320   9.996   0.304   9.179
 7270W        W11321   9.771   7.887   3.261
 7271W        W11322   5.082   8.257  11.947
 7272W        W11323   1.760   2.613   8.980
 7273W        W11324  10.325   8.881   2.754
 7274W        W11325   3.675   4.210   8.734
 7275W        W11326  10.366   2.164  11.396
 7276W        W11327   6.267  10.398   9.741
 7277W        W11328   2.329   3.840   8.630
 7278W        W11329   3.798   9.712   0.208
 7279W        W11330   4.203   0.378   2.423
 7280W        W11331  10.394   1.798   1.815
 7281W        W11332  10.949   2.571   2.126
 7282W        W11333   1.844   7.747   9.649
 7283W        W11334   0.421   0.391   1.572
 7284W        W11335   9.084   2.805  11.325
 7285W        W11336  10.836   6.158   9.229
 7286W        W11337   2.197   6.652   1.651
 7287W        W11338  10.268   7.938   3.110
 7288W        W11339  10.881   4.683  11.788
 7289W        W11340   6.775   5.813   1.270
 7290W        W11341   0.839   2.898  10.174
 7291W        W11342   2.752   9.935  10.015
 7292W        W11343  11.284   9.516   9.021
 7293W        W11344   8.960   2.566   3.281
 7294W        W11345   1.014   2.820  10.693
 7295W        W11346   7.501  11.304   2.220
 7296W        W11347   5.699   4.039   4.031
 7297W        W11348   0.901  11.372   0.519
 7298W        W11349   1.180   4.189   1.005
 7299W        W11350   8.463   0.971   9.444
 7300W        W11351  11.154   1.690   3.658
 7301W        W11352   3.698   1.285   1.906
 7302W        W11353   2.284   9.355  11.532
 7303W        W11354   7.073   1.997  11.352
 7304W        W11355   1.742   7.840   0.966
 7305W        W11356   9.123  10.811   1.297
 7306W        W11357  10.137  11.051  11.381
 7307W        W11358   1.375   4.116  11.014
 7308W        W11359   4.197   4.689   1.806
 7309W        W11360  10.514   8.427   1.855
 7310W        W11361   2.356   3.430   3.681
 7311W        W11362   6.711   1.374   3.294
 7312W        W11363   1.579  10.485   0.914
 7313W        W11364   5.451   8.408   0.841
 7314W        W11365   0.374  10.406  11.423
 7315W        W11366   4.992  11.066   2.030
 7316W        W11367   1.059   7.472   1.296
 7317W        W11368   2.046   5.168   1.254
 7318W        W11369   0.476   2.638   0.990
 7319W        W11370   5.655   4.648   2.976
 7320W        W11371   4.499   3.239   9.008
 7321W        W11372   9.887   4.199   0.907
 7322W        W11373   3.858   8.347  11.674
 7323W        W11374   4.235  10.573   1.940
 7324W        W11375   8.853   2.361  11.451
 7325W        W11376   6.223   9.229   0.298
 7326W        W11377   0.289   5.148   0.665
 7327W        W11378   5.688   2.810  10.488
 7328W        W11379   0.448  10.995  10.754
 7329W        W11380   0.479   2.141   9.887
 7330W        W11381   0.510   6.728   2.139
 7331W        W11382  10.425   1.975   9.080
 7332W        W11383   6.880   6.049  11.380
 7333W        W11384   9.042   0.314   1.387
 7334W        W11385   2.706   6.221   0.482
 7335W        W11386  11.369  10.239   0.261
 7336W        W11387   9.070   2.133   2.127
 7337W        W11388   1.174   7.928   2.364
 7338W        W11389   3.313   5.091  11.905
 7339W        W11390   6.490   4.512  10.515
 7340W        W11391   9.260   0.570   0.085
 7341W        W11392   1.759   9.057   9.254
 7342W        W11393   3.342   1.747   8.485
 7343W        W11394  10.023   0.971   0.876
 7344W        W11395   9.977   2.411   0.791
 7345W        W11396   0.679  11.238   9.522
 7346W        W11397   8.705   6.060   8.680
 7347W        W11398   7.914   4.261   9.810
 7348W        W11399   8.999  10.190  11.923
 7349W        W11400   6.961   0.851   9.731
 7350W        W11401   7.960   4.498  10.275
 7351W        W11402   9.579   2.912   8.946
 7352W        W11403  10.395   0.941   2.232
 7353W        W11404  11.324   6.143   9.460
 7354W        W11405   5.832   2.297   1.208
 7355W        W11406   6.526   0.221   2.383
 7356W        W11407   8.261   7.891   9.569
 7357W        W11408   8.057   7.159   0.004
 7358W        W11409   7.952  11.240   1.470
 7359W        W11410   2.788   4.987   0.730
 7360W        W11411   4.945   7.068   9.453
 7361W        W11412   4.683   4.759   2.025
 7362W        W11413   1.793   2.328   0.975
 7363W        W11414   0.316   5.762  10.334
 7364W        W11415   2.870   3.703   0.492
 7365W        W11416   4.987   1.779   8.795
 7366W        W11417  10.689   6.811   9.907
 7367W        W11418   2.262   0.260   0.511
 7368W        W11419   4.161   4.872  10.390
 7369W        W11420   2.016   5.398   0.790
 7370W        W11421   6.054   6.466  10.682
 7371W        W11422   8.743   9.571   0.678
 7372W        W11423   9.972   5.656   2.487
 7373W        W11424  10.346   7.454   0.680
 7374W        W11425   1.484  11.382  10.409
 7375W        W11426  10.690   9.647   0.672
 7376W        W11427   8.622   2.553   1.049
 7377W        W11428   4.289   9.967  11.173
 7378W        W11429   8.757   5.917  10.306
 7379W        W11430   8.430   3.830   0.879
 7380W        W11431   2.095   8.083   0.714
 7381W        W11432  11.178   3.554   3.281
 7382W        W11433   7.620  10.583   2.713
 7383W        W11434   9.013   8.592   2.277
 7384W        W11435   0.966   6.934   2.268
 7385W        W11436   7.630  11.323  11.640
 7386W        W11437  10.395   8.920   1.395
 7387W        W11438   3.738   7.109   1.971
 7388W        W11439   0.556   3.688   1.356
 7389W        W11440   3.530   0.739   9.942
 7390W        W11441   0.581   9.123   2.226
 7391W        W11442  11.405   8.631  10.881
 7392W        W11443   7.282   2.804   2.809
 7393W        W11444   8.725   8.388   1.491
 7394W        W11445   3.685   3.649   9.378
 7395W        W11446   4.714   5.724  11.009
 7396W        W11447   5.321   7.284   9.156
 7397W        W11448   7.399   0.552   2.481
 7398W        W11449   3.222   3.131   9.916
 7399W        W11450   9.690   0.418   3.129
 7400W        W11451   2.431   9.959   3.426
 7401W        W11452   7.811  10.595  10.593
 7402W        W11453   7.205   1.304   3.206
 7403W        W11454   1.384   0.255   1.395
 7404W        W11455   4.478   8.467   1.119
 7405W        W11456   5.737   2.821  11.551
 7406W        W11457   1.140   1.015   0.328
 7407W        W11458   6.564   8.123   1.852
 7408W        W11459   2.825   2.712   0.371
 7409W        W11460   9.486   1.945   9.522
 7410W        W11461   3.578   6.995  11.529
 7411W        W11462   0.752   6.064   9.470
 7412W        W11463  10.262   2.916  11.036
 7413W        W11464   3.577   3.186   9.110
 7414W        W11465   2.129   0.958   3.621
 7415W        W11466   5.488   7.557  11.896
 7416W        W11467  11.323   2.718   0.798
 7417W        W11468   6.542   6.651  10.227
 7418W        W11469   7.424  10.244  10.517
 7419W        W11470   6.079   5.083   1.543
 7420W        W11471   3.592   1.813  11.835
 7421W        W11472   1.819   3.600   0.388
 7422W        W11473   5.068   4.224   1.327
 7423W        W11474   3.255   4.702   2.013
 7424W        W11475   6.098   7.762   3.639
 7425W        W11476   7.557   4.479   9.512
 7426W        W11477   5.406   9.064   0.192
 7427W        W11478  10.799   5.588   1.691
 7428W        W11479   8.580   8.873   2.217
 7429W        W11480   9.322   3.639   1.331
 7430W        W11481   8.228   8.153  11.751
 7431W        W11482   2.419   7.405   1.497
 7432W        W11483   9.111   2.703   9.412
 7433W        W11484   2.332   9.997   8.999
 7434W        W11485   6.765   4.178   0.493
 7435W        W11486   8.899   1.008   0.439
 7436W        W11487   9.910  11.250   0.218
 7437W        W11488   5.933  10.646  11.428
 7438W        W11489   4.274   1.349   0.430
 7439W        W11490   9.963  10.324   9.476
 7440W        W11491   2.857   4.549   0.476
 7441W        W11492   8.632   2.577   1.551
 7442W        W11493   8.685   7.563   1.902
 7443W        W11494   3.729   8.040   3.178
 7444W        W11495   9.957   3.262   2.439
 7445W        W11496   0.375   5.019   8.879
 7446W        W11497   0.345   8.582   2.490
 7447W        W11498   9.400  10.353   1.864
 7448W        W11499  11.106   4.561   0.261
 7449W        W11500   2.147   3.248   0.169
 7450W        W11501   5.239   1.232  11.449
 7451W        W11502   9.767   2.276   3.512
 7452W        W11503   4.664  10.399  11.840
 7453W        W11504   5.641   4.807  10.564
 7454W        W11505   7.162   3.839   3.033
 7455W        W11506   4.306   4.724   9.936
 7456W        W11507   0.496   2.677   9.355
 7457W        W11508   9.621   5.699   2.870
 7458W        W11509  10.066   7.475   3.324
 7459W        W11510   2.059   8.778   8.476
 7460W        W11511   1.771   6.463   1.421
 7461W        W11512   4.029   5.927   1.177
 7462W        W11513   5.140   7.842  11.592
 7463W        W11514   2.191  11.294  10.005
 7464W        W11515   1.982   2.686  11.289
 7465W        W11516   8.607   1.596   1.822
 7466W        W11517   0.156   9.435   9.450
 7467W        W11518  10.031   6.164   0.194
 7468W        W11519   3.655   8.441  10.786
 7469W        W11520   6.344  10.726   0.322
 7470W        W11521  10.358   9.930   1.745
 7471W        W11522   7.621   0.019   1.720
 7472W        W11523   5.117   8.626  10.415
 7473W        W11524   8.157   3.887   0.373
 7474W        W11525   8.905   3.276  11.482
 7475W        W11526   7.646   5.610  11.081
 7476W        W11527   6.716   3.671  11.380
 7477W        W11528   8.151   0.397   9.419
 7478W        W11529   4.624   2.465   3.237
 7479W        W11530  10.051   6.175  10.814
 7480W        W11531   2.365   3.387   8.952
 7481W        W11532   8.473   4.990  10.016
 7482W        W11533  11.455   4.748   8.628
 7483W        W11534   8.575   8.333  10.919
 7484W        W11535   0.767   4.876   3.453
 7485W        W11536  10.190   5.835  11.477
 7486W        W11537   0.497   4.727   2.870
 7487W        W11538   0.363   8.510   2.995
 7488W        W11539   8.437  11.230   1.747
 7489W        W11540   9.006   5.053  11.193
 7490W        W11541   7.849   4.523  11.760
 7491W        W11542   7.522   6.992   3.393
 7492W        W11543   8.943   9.120   2.485
 7493W        W11544   5.109   4.030   9.033
 7494W        W11545   8.960   5.661   2.301
 7495W        W11546  11.235  10.136   1.930
 7496W        W11547   5.010  10.053  10.534
 7497W        W11548   4.673   6.999   1.577
 7498W        W11549   1.700   3.107  11.255
 7499W        W11550   0.873  10.417  10.053
 7500W        W11551   5.995   4.909   2.096
 7501W        W11552   2.265   1.149   0.031
 7502W        W11553   2.690   5.424  10.335
 7503W        W11554  10.965  10.089   3.141
 7504W        W11555   7.180   8.402   3.350
 7505W        W11556  11.487   0.287   0.501
 7506W        W11557   6.385   0.211   9.260
 7507W        W11558   3.755   2.649   1.600
 7508W        W11559   6.953   7.990   3.091
 7509W        W11560   9.850   1.029   8.648
 7510W        W11561   5.239   3.601  11.502
 7511W        W11562   6.438   1.004   1.368
 7512W        W11563   2.001   5.095   2.127
 7513W        W11564   4.457   6.534   1.605
 7514W        W11565   0.843   2.107   3.363
 7515W        W11566   2.796   6.434   9.238
 7516W        W11567   5.024   1.239  11.945
 7517W        W11568   6.911   5.683  11.749
 7518W        W11569   9.987   1.360   9.522
 7519W        W11570   0.863   2.366   2.164
 7520W        W11571   6.490   8.158   3.294
 7521W        W11572   5.036   3.449   3.971
 7522W        W11573   8.321   2.978  10.865
 7523W        W11574   9.416   7.642   0.493
 7524W        W11575   7.507  10.787   3.171
 7525W        W11576   6.451   6.101   1.522
 7526W        W11577   6.099   0.688  11.774
 7527W        W11578   8.131   3.287   0.451
 7528W        W11579   8.556   6.582   2.694
 7529W        W11580  11.311   2.312   1.837
 7530W        W11581   9.085   5.225   0.681
 7531W        W11582   5.531  10.953  11.498
 7532W        W11583   0.275   8.516   0.042
 7533W        W11584   9.532   8.658   0.299
 7534W        W11585   6.452   5.956   9.115
 7535W        W11586   5.256   7.477   8.684
 7536W        W11587   4.235   6.221  10.244
 7537W        W11588   5.131   3.094   3.592
 7538W        W11589   8.283   3.693   1.355
 7539W        W11590   8.412   9.733   2.101
 7540W        W11591   6.198  10.852  11.826
 7541W        W11592   4.287   9.113   0.329
 7542W        W11593   1.236  11.458   1.775
 7543W        W11594   1.734   3.214   8.643
 7544W        W11595   3.753   9.263   1.916
 7545W        W11596   3.114   4.064  10.288
 7546W        W11597   2.635   8.991   9.059
 7547W        W11598   4.100  11.365   9.408
 7548W        W11599   6.377  10.082  11.410
 7549W        W11600   4.685   0.112   2.358
 7550W        W11601   1.281   7.048   2.897
 7551W        W11602   7.646   9.539   1.961
 7552W        W11603   7.381  10.766  10.386
 7553W        W11604  10.336   0.429   2.374
 7554W        W11605   0.034   4.652   2.645
 7555W        W11606   5.419   6.015  11.669
 7556W        W11607   7.335   1.693   9.591
 7557W        W11608   8.162   3.284   1.086
 7558W        W11609   6.141   1.354   1.668
 7559W        W11610   5.278   0.923   0.730
 7560W        W11611   2.554   7.032   9.458
 7561W        W11612   2.973   5.836   3.137
 7562W        W11613   2.673  10.687  10.437
 7563W        W11614   6.248   2.850   9.469
 7564W        W11615   0.480   6.182   0.263
 7565W        W11616   5.012   8.367   9.999
 7566W        W11617   5.791   9.542   0.211
 7567W        W11618   7.918   7.658  10.861
 7568W        W11619   2.580   4.230   8.916
 7569W        W11620   8.621  11.298   0.683
 7570W        W11621   3.092   5.881   0.404
 7571W        W11622   2.515  10.364   2.037
 7572W        W11623   9.972   4.188  11.538
 7573W        W11624   6.728   8.606   3.156
 7574W        W11625  11.283   1.741  10.294
 7575W        W11626   0.795  11.053   2.371
 7576W        W11627   6.988  10.953  10.121
 7577W        W11628   6.635   4.286  10.080
 7578W        W11629  10.252   4.592  10.411
 7579W        W11630   8.147   4.802   2.682
 7580W        W11631   1.313   7.558   2.681
 7581W        W11632   9.848   4.280  10.595
 7582W        W11633   2.818   3.729  10.980
 7583W        W11634   0.484   5.055   1.144
 7584W        W11635   9.030   6.852  10.447
 7585W        W11636   8.983   3.210   9.565
 7586W        W11637   9.306   4.090  11.994
 7587W        W11638  11.260   4.231  11.681
 7588W        W11639   5.027   3.795   9.624
 7589W        W11640   4.049   2.057   0.867
 7590W        W11641   8.963   7.863   0.339
 7591W        W11642   3.457   5.234  10.876
 7592W        W11643   7.409   3.244   0.398
 7593W        W11644   2.209   7.657   1.902
 7594W        W11645   3.914   1.713   0.448
 7595W        W11646   4.227   6.696  10.851
 7596W        W11647   3.566   6.580   1.736
 7597W        W11648  10.616   9.559   2.335
 7598W        W11649   9.607   6.441  11.667
 7599W        W11650   6.145   4.402   3.156
 7600W        W11651   9.437   7.019   2.786
 7601W        W11652   0.375  10.207   0.454
 7602W        W11653   2.276   7.939   0.267
 7603W        W11654   9.138   6.856   8.611
 7604W        W11655  10.772   1.972  10.971
 7605W        W11656   2.803   3.295  11.287
 7606W        W11657   6.034  10.431   3.153
 7607W        W11658   2.291   8.094   2.975
 7608W        W11659   1.287   1.803   2.798
 7609W        W11660   2.872   5.976   9.022
 7610W        W11661  10.967   3.556   0.436
 7611W        W11662   9.527   4.789   2.752
 7612W        W11663  10.900   4.256   8.462
 7613W        W11664   2.707  11.353  10.792
 7614W        W11665   4.706   8.457   9.594
 7615W        W11666   1.673   6.747  11.484
 7616W        W11667   9.802   5.673   3.365
 7617W        W11668   6.645   2.891   0.191
 7618W        W11669   7.388   4.569   0.008
 7619W        W11670  10.107   3.548  10.401
 7620W        W11671   6.106  10.871   1.436
 7621W        W11672   8.837   5.082   9.320
 7622W        W11673   9.927   0.752   2.225
 7623W        W11674  11.223   9.908  11.879
 7624W        W11675   7.700   3.209   2.478
 7625W        W11676   8.884   8.007   1.786
 7626W        W11677   8.237   8.606   9.064
 7627W        W11678   6.892  10.219   0.988
 7628W        W11679  10.292   4.154  11.927
 7629W        W11680   3.415   2.850  11.073
 7630W        W11681  11.000   9.974   9.020
 7631W        W11682   3.675  11.264   9.086
 7632W        W11683   8.507   5.072  11.372
 7633W        W11684   3.354   7.520   1.535
 7634W        W11685   5.068   8.682   2.450
 7635W        W11686   9.279   9.613   9.451
 7636W        W11687   2.481   9.112  10.885
 7637W        W11688   4.271   4.839  11.248
 7638W        W11689  11.347   7.219   3.617
 7639W        W11690   2.846   2.167   9.011
 7640W        W11691   0.285   0.359  11.262
 7641W        W11692  11.307   3.389   9.569
 7642W        W11693   5.587   2.361   8.725
 7643W        W11694  10.341   7.547  10.741
 7644W        W11695   1.320  10.960   1.771
 7645W        W11696   7.628   3.595   9.429
 7646W        W11697  10.978  10.545   3.436
 7647W        W11698   5.918   0.952   1.373
 7648W        W11699  11.316   9.863  10.434
 7649W        W11700   5.151   4.052   2.740
 7650W        W11701   6.575   0.679   0.913
 7651W        W11702   9.299   0.273  10.847
 7652W        W11703   6.138   1.889   1.279
 7653W        W11704   3.314   4.504   2.931
 7654W        W11705   7.616   7.582  11.338
 7655W        W11706  10.734  10.892   9.454
 7656W        W11707   4.374   9.068   9.779
 7657W        W11708   5.392   3.226  10.272
 7658W        W11709   4.377   1.807   1.230
 7659W        W11710  11.335   1.897   0.702
 7660W        W11711   1.290   8.791   3.317
 7661W        W11712   8.825   4.617   9.998
 7662W        W11713   0.497   7.933   0.245
 7663W        W11714   7.635   5.851   1.318
 7664W        W11715   5.156   7.578   2.724
 7665W        W11716   3.840   7.930   0.002
 7666W        W11717   3.147   4.978  10.509
 7667W        W11718   4.675   3.534   1.880
 7668W        W11719   0.120   3.591   3.601
 7669W        W11720   5.382   4.155   1.711
 7670W        W11721   5.673   7.606   0.382
 7671W        W11722   7.053  10.877   9.531
 7672W        W11723   1.634   8.500  11.907
 7673W        W11724  10.444   8.644   8.454
 7674W        W11725   8.356   5.050   9.528
 7675W        W11726   7.180   6.089  11.857
 7676W        W11727   6.186   4.420   2.200
 7677W        W11728   6.960   3.253  11.560
 7678W        W11729   0.497   0.269   9.639
 7679W        W11730   8.099   4.977   8.259
 7680W        W11731   3.209   7.603  11.588
 7681W        W11732   4.980   0.769  10.265
 7682W        W11733   1.801   5.677  10.335
 7683W        W11734   8.916   5.053   8.817
 7684W        W11735  11.367  11.007   2.785
 7685W        W11736   4.404   8.118   2.653
 7686W        W11737   1.398   3.812   0.699
 7687W        W11738   7.878  10.764  11.073
 7688W        W11739   5.528   5.148   3.066
 7689W        W11740   1.360   7.173   8.972
 7690W        W11741   9.850   6.046   9.403
 7691W        W11742   7.356   4.348   8.748
 7692W        W11743   5.573   3.116   8.406
 7693W        W11744   0.876   2.516   3.710
 7694W        W11745   5.010   1.504   3.483
 7695W        W11746   6.555   4.059   2.248
 7696W        W11747   8.347   2.929   0.786
 7697W        W11748   3.162   9.365   3.166
 7698W        W11749   8.646   4.885   2.993
 7699W        W11750   4.095   3.717   2.689
 7700W        W11751  11.089  10.578  10.294
 7701W        W11752   8.186   9.811  10.928
 7702W        W11753   2.427  10.426   0.392
 7703W        W11754   7.929   8.949   0.108
 7704W        W11755   4.079   3.727   9.707
 7705W        W11756   1.165   7.435  10.342
 7706W        W11757   2.637   0.551   1.185
 7707W        W11758   9.959   4.986  11.246
 7708W        W11759   6.117  11.320   9.995
 7709W        W11760   7.466   2.218   9.610
 7710W        W11761   7.180   0.664   1.736
 7711W        W11762  11.460  11.065  11.106
 7712W        W11763   5.646   0.075   2.710
 7713W        W11764   5.175   5.042   1.530
 7714W        W11765   6.063   2.640   0.003
 7715W        W11766   0.537  11.479  10.531
 7716W        W11767   3.123   0.767  10.534
 7717W        W11768   7.080  10.690   1.189
 7718W        W11769   4.280   4.079  11.675
 7719W        W11770  11.462   9.370   9.934
 7720W        W11771   0.235   8.371   0.572
 7721W        W11772   2.383   2.959   0.536
 7722W        W11773   4.788   2.401  10.548
 7723W        W11774   0.391   4.324   2.219
 7724W        W11775   7.053   8.041   2.543
 7725W        W11776   5.720  10.074   2.961
 7726W        W11777   6.502   1.612   9.414
 7727W        W11778   1.438  10.801   9.830
 7728W        W11779   1.256   2.099   2.389
 7729W        W11780   0.983   6.254   9.928
 7730W        W11781  10.895   3.850  11.457
 7731W        W11782   4.745   8.783   3.239
 7732W        W11783   6.420   2.273   3.604
 7733W        W11784  10.641   1.243   0.949
 7734W        W11785   6.453   3.140   0.772
 7735W        W11786   5.577   7.311   9.971
 7736W        W11787   4.143   8.678   0.006
 7737W        W11788   2.217  10.484  10.534
 7738W        W11789  10.521   3.122   1.160
 7739W        W11790   1.091   2.717  11.863
 7740W        W11791  10.297   5.552   3.455
 7741W        W11792   5.172   5.640  10.059
 7742W        W11793   9.868   3.124  10.109
 7743W        W11794   5.253   2.093   9.073
 7744W        W11795   0.111   0.964   9.143
 7745W        W11796  10.018   6.474   9.060
 7746W        W11797  11.370   6.656   9.365
 7747W        W11798   2.549   4.537   3.397
 7748W        W11799   9.896   0.691   1.307
 7749W        W11800   6.927   7.909   8.954
 7750W        W11801   2.672   3.838   3.522
 7751W        W11802   2.043   9.305   0.790
 7752W        W11803   0.174   4.329  10.260
 7753W        W11804   0.553  11.290   3.201
 7754W        W11805   0.780   2.582   3.187
 7755W        W11806   5.300   0.859   1.958
 7756W        W11807   7.994  10.502   3.080
 7757W        W11808   5.164   7.540   1.792
 7758W        W11809  10.365  10.888  10.065
 7759W        W11810   1.810   0.193   0.214
 7760W        W11811   5.023   7.353  11.844
 7761W        W11812  10.855   9.263   8.391
 7762W        W11813   1.296   4.784   1.699
 7763W        W11814   8.338   4.503   9.938
 7764W        W11815   1.844   5.368  11.948
 7765W        W11816  10.998   5.529   2.690
 7766W        W11817   8.559  11.323  10.710
 7767W        W11818   2.262   0.336   2.465
 7768W        W11819   9.873   8.483  10.834
 7769W        W11820   8.334   7.652   0.908
 7770W        W11821   5.532   9.207   1.875
 7771W        W11822  10.238   6.048   1.681
 7772W        W11823   9.769   8.847  10.325
 7773W        W11824   0.432   3.590  10.603
 7774W        W11825   0.394   6.572   0.578
 7775W        W11826   5.518   0.382   2.322
 7776W        W11827  10.868   7.315   9.867
 7777W        W11828   4.474   2.827   2.408
 7778W        W11829   2.258   6.552   0.639
 7779W        W11830   5.831   8.068  10.262
 7780W        W11831   1.956   3.231   1.439
 7781W        W11832   6.898   2.107   3.533
 7782W        W11833   3.105   1.798   1.731
 7783W        W11834   6.499   3.507   3.702
 7784W        W11835   1.698   8.416  10.972
 7785W        W11836   4.065   5.698  11.332
 7786W        W11837   2.105   1.326   2.423
 7787W        W11838   8.248   1.441   9.519
 7788W        W11839  11.069   9.048  10.044
 7789W        W11840  10.633  10.444  10.123
 7790W        W11841  10.966   3.808   9.314
 7791W        W11842  11.422   3.657   9.127
 7792W        W11843   2.794   7.338   0.756
 7793W        W11844   7.442   8.096   2.982
 7794W        W11845   3.303  11.105   3.119
 7795W        W11846   0.413   7.044   0.793
 7796W        W11847   0.878   0.338   0.815
 7797W        W11848   9.647  10.360   9.863
 7798W        W11849   8.650   3.522   2.617
 7799W        W11850   0.485   8.354  10.489
 7800W        W11851   5.627   9.159  11.237
 7801W        W11852   3.114   1.647  11.821
 7802W        W11853   9.685  10.091   0.417
 7803W        W11854   3.508   6.692  10.326
 7804W        W11855   6.915   4.076   8.937
 7805W        W11856   1.334   5.471   0.054
 7806W        W11857   5.856   0.277  11.585
 7807W        W11858   9.571  10.749   1.562
 7808W        W11859   5.234   2.753   9.491
 7809W        W11860   8.470   8.537  10.072
 7810W        W11861   7.754   4.868   3.556
 7811W        W11862   1.369   2.838   1.416
 7812W        W11863  10.636  11.050  11.439
 7813W        W11864  10.291  11.469   8.859
 7814W        W11865   8.015   7.402   9.545
 7815W        W11866  11.291   1.829   0.185
 7816W        W11867   8.021   5.499   1.255
 7817W        W11868   9.608   7.437   3.032
 7818W        W11869   5.481  11.152   0.812
 7819W        W11870   7.424   4.781  11.547
 7820W        W11871   7.637   2.866  11.329
 7821W        W11872   3.945   8.969   3.652
 7822W        W11873   4.737   2.884   9.595
 7823W        W11874   8.970   3.779   0.220
 7824W        W11875   0.840   4.776  11.953
 7825W        W11876   6.203   1.281   3.235
 7826W        W11877  10.523   2.299   0.788
 7827W        W11878  10.134  10.478   3.187
 7828W        W11879   0.692  11.299  10.037
 7829W        W11880   4.778   4.185   2.438
 7830W        W11881  10.308   9.330   0.470
 7831W        W11882   8.077   6.346   3.713
 7832W        W11883   6.758   9.107   2.918
 7833W        W11884   1.480  11.252   1.347
 7834W        W11885   5.329   5.185  10.704
 7835W        W11886   0.010   1.221   2.314
 7836W        W11887   8.503   7.690  10.281
 7837W        W11888   3.378   3.789  11.058
 7838W        W11889   0.636   5.429   8.664
 7839W        W11890   6.817   9.866   2.777
 7840W        W11891   0.639   8.082  10.895
 7841W        W11892   5.927   6.078   1.378
 7842W        W11893   8.591   4.038   8.741
 7843W        W11894   9.626   9.856   2.197
 7844W        W11895   8.669   5.473  10.081
 7845W        W11896   9.114   2.787  10.828
 7846W        W11897   8.047   5.373  10.792
 7847W        W11898  10.449   2.500   9.088
 7848W        W11899   2.688   2.020   9.757
 7849W        W11900   1.101   1.416  11.557
 7850W        W11901   3.604  10.741   9.006
 7851W        W11902   6.367   0.312   1.859
 7852W        W11903   7.081  10.408  10.873
 7853W        W11904   0.746   2.299  11.816
 7854W        W11905   7.952   6.916   0.437
 7855W        W11906   9.996   0.487   0.736
 7856W        W11907   7.059   7.018   3.147
 7857W        W11908   0.361   6.501  10.962
 7858W        W11909   4.050   6.720   8.973
 7859W        W11910   3.360   0.394   8.906
 7860W        W11911   8.172   5.618   3.182
 7861W        W11912   0.002   7.903   0.450
 7862W        W11913   2.302   3.308   9.968
 7863W        W11914   7.483   0.765   9.731
 7864W        W11915   9.163   1.214   1.653
 7865W        W11916  11.361   2.139  11.165
 7866W        W11917   5.651   6.527  11.034
 7867W        W11918   4.940   6.771  11.770
 7868W        W11919   5.620   9.017   1.418
 7869W        W11920   6.992   8.334  11.268
 7870W        W11921   0.575   4.064  10.403
 7871W        W11922   2.580   4.692   9.920
 7872W        W11923   8.635   1.185   3.579
 7873W        W11924   3.716   8.870  10.505
 7874W        W11925   9.030   0.301  10.017
 7875W        W11926   5.868   2.185   0.269
 7876W        W11927   2.494   6.560  10.473
 7877W        W11928   5.866   0.085  10.444
 7878W        W11929   0.323   9.892   9.663
 7879W        W11930   0.852   2.313   8.962
 7880W        W11931  11.470   3.619  10.902
 7881W        W11932   5.646   2.426   2.189
 7882W        W11933   5.962   3.165  10.761
 7883W        W11934   9.417  10.146  11.567
 7884W        W11935   9.913   8.241  11.301
 7885W        W11936   0.392   0.770   9.526
 7886W        W11937   4.678   9.045   2.267
 7887W        W11938   2.297   3.766  10.764
 7888W        W11939   7.750   1.035  10.493
 7889W        W11940  10.892  10.486  10.919
 7890W        W11941   0.201   9.970   1.780
 7891W        W11942   7.950   5.993   0.497
 7892W        W11943   3.081  10.504   9.073
 7893W        W11944  10.157   3.280   0.846
 7894W        W11945   3.315  10.986   9.390
 7895W        W11946   4.490   1.894   9.626
 7896W        W11947  10.964   5.909  10.766
 7897W        W11948   5.352   8.543   3.591
 7898W        W11949   0.490   2.713  11.064
 7899W        W11950   5.594   2.861   8.870
 7900W        W11951  10.236   0.830  11.601
 7901W        W11952  10.552   1.485   8.931
 7902W        W11953   8.186   5.081   1.872
 7903W        W11954   6.011   8.105  11.466
 7904W        W11955   7.596   9.401  10.001
 7905W        W11956   6.720   3.138   1.963
 7906W        W11957  10.687   3.577   3.491
 7907W        W11958   9.621   1.976  10.032
 7908W        W11959   8.888   0.019  11.026
 7909W        W11960   9.580   3.126   2.986
 7910W        W11961   4.133   9.564   8.547
 7911W        W11962   4.354   1.808   0.209
 7912W        W11963  10.416  11.068  10.545
 7913W        W11964   7.663   7.677   2.775
 7914W        W11965   6.341   6.112  11.476
 7915W        W11966   7.632   7.049   9.695
 7916W        W11967   3.576   6.616   1.225
 7917W        W11968  10.953   7.684   9.510
 7918W        W11969   8.610   2.815  11.534
 7919W        W11970   8.871  11.278   9.106
 7920W        W11971  10.287   4.596  11.360
 7921W        W11972   5.351   3.214   3.130
 7922W        W11973   8.928  11.382   1.721
 7923W        W11974   4.021   6.820   1.648
 7924W        W11975   9.795   6.187  11.259
 7925W        W11976   4.129   1.117   3.151
 7926W        W11977   4.092   9.105  11.733
 7927W        W11978   3.768   9.742   0.719
 7928W        W11979  11.012   2.390   9.733
 7929W        W11980   9.276   8.507   8.992
 7930W        W11981  10.045   7.164  11.526
 7931W        W11982   5.273   9.850  10.962
 7932W        W11983   2.637   4.915   0.217
 7933W        W11984   9.526  10.331  10.735
 7934W        W11985   6.584   7.209   4.028
 7935W        W11986   5.926   8.363  10.880
 7936W        W11987   1.318   4.223   3.177
 7937W        W11988   1.694   0.704   2.543
 7938W        W11989   8.658   1.201  10.291
 7939W        W11990   4.279   6.015   2.176
 7940W        W11991   3.301   9.582  10.591
 7941W        W11992  10.994   4.295   1.991
 7942W        W11993   8.966   0.789   3.503
 7943W        W11994   9.703   5.159   9.098
 7944W        W11995   6.690   1.782   1.922
 7945W        W11996   9.114   1.213   2.706
 7946W        W11997   2.759   8.072   0.360
 7947W        W11998   1.278   7.154   0.908
 7948W        W11999   4.938  10.715   8.561
 7949W        W12000  11.286   5.705   0.219
 7950W        W12001   1.283   2.240  11.715
 7951W        W12002   5.303   8.057   8.179
 7952W        W12003   5.765   9.094   2.823
 7953W        W12004   9.331   7.246  11.218
 7954W        W12005   3.501   4.585   9.537
 7955W        W12006  10.981   5.339   9.381
 7956W        W12007  11.361   6.806   8.871
 7957W        W12008   9.161  10.882  11.280
 7958W        W12009  10.578  10.936   0.866
 7959W        W12010  10.557   6.315   9.908
 7960W        W12011  10.425   8.854   0.592
 7961W        W12012   6.609   7.710   3.549
 7962W        W12013   5.028  10.971   1.018
 7963W        W12014   2.282   4.185   0.985
 7964W        W12015   8.143   3.299   2.144
 7965W        W12016  10.137   2.375  11.810
 7966W        W12017   9.090   1.247  10.564
 7967W        W12018   9.020   0.283   9.099
 7968W        W12019   4.708   7.471   2.487
 7969W        W12020   3.332  10.710   2.733
 7970W        W12021   7.538   1.894   1.510
 7971W        W12022   5.759  11.364  11.297
 7972W        W12023   5.645   2.296  10.251
 7973W        W12024   9.892   7.007  10.518
 7974W        W12025   5.916   3.271   9.405
 7975W        W12026   8.878   7.564   2.417
 7976W        W12027   9.402   7.171   1.309
 7977W        W12028   2.175   0.452   2.995
 7978W        W12029   2.808   1.558   1.325
 7979W        W12030   2.336   4.733   9.435
 7980W        W12031   9.183   8.288   9.422
 7981W        W12032   4.116   4.305   3.145
 7982W        W12033   9.551  11.340  10.756
 7983W        W12034   7.975   4.887   9.890
 7984W        W12035   1.274   6.480  10.764
 7985W        W12036   7.904   4.781   0.188
 7986W        W12037   2.041   7.094   1.347
 7987W        W12038   1.026   2.468  10.317
 7988W        W12039   0.824   0.881   2.689
 7989W        W12040   6.131   1.972   0.748
 7990W        W12041   2.737   6.110   2.301
 7991W        W12042  10.482   5.690   2.388
 7992W        W12043   9.935  10.431   0.724
 7993W        W12044   7.469   8.560  11.331
 7994W        W12045   4.473   2.508   1.955
 7995W        W12046  11.203   0.002   1.754
 7996W        W12047   9.548   0.985   9.090
 7997W        W12048   8.876   0.418   0.892
 7998W        W12049   1.365   6.130   1.445
 7999W        W12050   2.258   9.011   9.441
 8000W        W12051  10.515   8.119   0.963
 8001W        W12052   9.410  11.374   0.208
 8002W        W12053   6.606  10.440   1.975
 8003W        W12054   0.361   3.998  11.401
 8004W        W12055  10.277   5.477   8.001
 8005W        W12056  11.329   0.629   9.397
 8006W        W12057   1.808   7.202  11.288
 8007W        W12058   8.695   5.134   1.791
 8008W        W12059  10.054   5.543  10.158
 8009W        W12060   2.216   5.648   1.696
 8010W        W12061   4.193   4.536   4.011
 8011W        W12062   0.744   9.884   1.791
 8012W        W12063   9.322   6.733   1.557
 8013W        W12064   8.145   4.336  10.963
 8014W        W12065   6.025   5.359   3.046
 8015W        W12066   9.865   8.964   1.370
 8016W        W12067  10.111   0.802  11.076
 8017W        W12068   2.396   6.144   9.976
 8018W        W12069   6.070  10.294  11.765
 8019W        W12070   7.660   7.106  10.205
 8020W        W12071   9.401   0.859   3.022
 8021W        W12072   6.426   2.422   9.749
 8022W        W12073   7.668  10.386   2.163
 8023W        W12074   9.066   8.798   9.370
 8024W        W12075   8.628   3.352   0.846
 8025W        W12076   3.584   6.049  11.162
 8026W        W12077   7.051   2.761   3.266
 8027W        W12078   7.904   9.415   1.319
 8028W        W12079   0.314  10.005   2.711
 8029W        W12080   8.305  10.329   3.496
 8030W        W12081   1.807   1.158  10.834
 8031W        W12082   1.780   0.852  10.409
 8032W        W12083   5.126   4.448   8.734
 8033W        W12084   8.883  10.342   2.666
 8034W        W12085   0.844   6.249   3.426
 8035W        W12086   7.476   8.827  11.877
 8036W        W12087   5.975   2.032   3.683
 8037W        W12088   4.247  10.043   9.766
 8038W        W12089  11.325   0.779   0.471
 8039W        W12090   1.807   5.995   1.687
 8040W        W12091   6.374   2.850  10.775
 8041W        W12092   1.729   0.969   1.038
 8042W        W12093   0.354   7.211  10.293
 8043W        W12094   0.827   9.862   2.562
 8044W        W12095   8.417   5.528   0.271
 8045W        W12096   0.789   5.082   0.733
 8046W        W12097   6.418  10.327   2.787
 8047W        W12098   1.743   5.005   3.591
 8048W        W12099  11.125   2.630   3.558
 8049W        W12100   7.878   4.103  10.591
 8050W        W12101   9.361   5.291   8.629
 8051W        W12102   1.146   4.006   8.971
 8052W        W12103   9.464   5.632   2.363
 8053W        W12104   6.067  11.346  11.720
 8054W        W12105   0.868   6.855   0.937
 8055W        W12106   6.054   1.189  11.754
 8056W        W12107   8.184   1.412  10.438
 8057W        W12108   4.765   1.494   0.452
 8058W        W12109   3.705   2.133  10.585
 8059W        W12110   6.986   3.143   1.475
 8060W        W12111  11.077   2.260   3.097
 8061W        W12112   1.322   0.322  11.709
 8062W        W12113   0.873   4.258   0.133
 8063W        W12114   7.516   3.094   9.974
 8064W        W12115   9.844   7.197   9.464
 8065W        W12116  10.554   3.302  10.444
 8066W        W12117   0.810   7.503   0.301
 8067W        W12118   6.877   0.261   1.795
 8068W        W12119  11.055   8.103   2.170
 8069W        W12120   4.830   4.643   9.919
 8070W        W12121   4.314   1.289  11.498
 8071W        W12122  10.449   1.849  10.070
 8072W        W12123   1.178   7.063   3.439
 8073W        W12124   9.853   4.711  11.683
 8074W        W12125   3.128  10.506  11.641
 8075W        W12126   0.038   3.801  11.832
 8076W        W12127   3.801   6.647   3.781
 8077W        W12128   8.612   4.617   0.488
 8078W        W12129   1.892   1.783  11.486
 8079W        W12130  11.499  11.259   0.494
 8080W        W12131   1.239   3.249  10.884
 8081W        W12132   7.916   0.737  11.942
 8082W        W12133   9.602   7.667   9.468
 8083W        W12134   9.259   4.330   2.063
 8084W        W12135   6.091   1.300   9.502
 8085W        W12136   8.747   7.114   0.760
 8086W        W12137   4.938   1.216  11.026
 8087W        W12138   8.231   4.315   9.042
 8088W        W12139   8.886   0.336  10.542
 8089W        W12140   1.942  10.375  10.041
 8090W        W12141   5.489  10.543  11.198
 8091W        W12142   9.006   7.351   0.382
 8092W        W12143   8.262   9.539   0.523
 8093W        W12144   8.953   1.672  10.297
 8094W        W12145   0.404   5.119  11.227
 8095W        W12146   6.675  10.754   2.705
 8096W        W12147   6.017   5.494   0.224
 8097W        W12148   2.306   1.446   1.470
 8098W        W12149   0.786   2.783   0.288
 8099W        W12150   5.933   3.672   9.786
 8100W        W12151   3.589   5.074   2.773
 8101W        W12152   9.515   2.429   9.196
 8102W        W12153  11.369   7.129   2.642
 8103W        W12154   7.541   0.091  10.762
 8104W        W12155   0.284   1.778   2.800
 8105W        W12156   8.872   1.633   3.432
 8106W        W12157   7.032   1.164   1.669
 8107W        W12158   8.294   6.205   2.426
 8108W        W12159   6.954   8.561   0.057
 8109W        W12160  10.480  10.563  10.587
 8110W        W12161   9.147  10.339   9.903
 8111W        W12162   1.524   5.131   1.202
 8112W        W12163   6.856   5.922  10.881
 8113W        W12164   6.903   4.185  10.493
 8114W        W12165   1.870   2.656  10.403
 8115W        W12166   4.637   2.688  10.149
 8116W        W12167   6.489  10.003  10.486
 8117W        W12168   2.464   0.342   9.943
 8118W        W12169   3.757  10.282   3.391
 8119W        W12170   3.040   9.287   0.782
 8120W        W12171  11.096   0.746  10.460
 8121W        W12172   0.448   5.293   1.966
 8122W        W12173   3.580   5.768  10.303
 8123W        W12174   1.709   5.555   3.541
 8124W        W12175   5.230   2.122  10.569
 8125W        W12176   0.201   8.969  11.147
 8126W        W12177   8.121   7.370  10.427
 8127W        W12178   5.828   0.029   1.789
 8128W        W12179   5.969   0.778   9.806
 8129W        W12180   2.355   1.198  10.834
 8130W        W12181   1.735   3.862  11.883
 8131W        W12182   4.611   9.931   0.523
 8132W        W12183   9.406   3.296  10.277
 8133W        W12184   3.663   6.109   1.501
 8134W        W12185   2.929  11.053   0.567
 8135W        W12186   2.690   7.448  10.716
 8136W        W12187   6.047   1.769   3.242
 8137W        W12188   6.148   1.824   8.583
 8138W        W12189   2.032  10.498   2.344
 8139W        W12190   9.414   9.961   3.423
 8140W        W12191  10.477   9.881   9.069
 8141W        W12192   5.678   2.361  11.800
 8142W        W12193   6.765  10.387   0.205
 8143W        W12194   3.057   4.254   3.306
 8144W        W12195   9.991  11.014   1.800
 8145W        W12196   7.335   0.270   2.038
 8146W        W12197   7.765   6.233  11.043
 8147W        W12198   4.271   8.172  11.883
 8148W        W12199   6.404  11.283   9.552
 8149W        W12200   3.175   5.576   9.987
 8150W        W12201   5.384  10.264   9.272
 8151W        W12202   5.747   8.009   0.669
 8152W        W12203   0.619   6.633  10.022
 8153W        W12204   2.782   7.582   8.837
 8154W        W12205   2.097  10.484  11.573
 8155W        W12206   1.532   2.238   9.706
 8156W        W12207   1.456   3.838  10.199
 8157W        W12208   3.783   4.941   9.873
 8158W        W12209   7.999   3.550   0.004
 8159W        W12210   5.428  11.097   2.603
 8160W        W12211   7.911   6.738  11.026
 8161W        W12212   6.641  11.322   9.991
 8162W        W12213   8.374   6.222   1.915
 8163W        W12214  10.462   2.999   8.563
 8164W        W12215  10.803   5.787   9.575
 8165W        W12216  10.409   3.101   1.677
 8166W        W12217   7.756   3.159   0.775
 8167W        W12218   5.157   7.009   0.800
 8168W        W12219   0.445   9.808   9.176
 8169W        W12220   5.112   0.340   2.658
 8170W        W12221   1.768   1.851   3.548
 8171W        W12222   6.042   4.763  11.242
 8172W        W12223   3.734   9.325  10.739
 8173W        W12224   1.244   4.966  11.242
 8174W        W12225   9.817  11.219   2.266
 8175W        W12226   5.339  10.789   9.477
 8176W        W12227   9.865   9.942   0.874
 8177W        W12228   7.622  11.010   1.817
 8178W        W12229   3.800   0.867   2.201
 8179W        W12230   4.128   9.582   1.742
 8180W        W12231   4.089  10.484   8.838
 8181W        W12232   5.837  11.312   1.294
 8182W        W12233  10.128   0.853   1.750
 8183W        W12234   1.043   0.043   0.065
 8184W        W12235  11.468  10.408   0.711
 8185W        W12236   2.333   5.427  11.548
 8186W        W12237  10.428   9.957  10.106
 8187W        W12238   0.975  10.877  10.781
 8188W        W12239  10.439   8.676   9.629
 8189W        W12240   4.284   3.154   1.231
 8190W        W12241   9.065   6.050  10.898
 8191W        W12242   9.400   4.833   8.826
 8192W        W12243  11.015   7.811  10.001
 8193W        W12244   8.966   4.107   8.387
 8194W        W12245   1.314   6.603   1.657
 8195W        W12246   6.039   8.374   9.890
 8196W        W12247   9.128   4.654   9.606
 8197W        W12248   8.180   2.781   9.464
 8198W        W12249   7.733   3.006   1.266
 8199W        W12250   3.311   1.423   1.461
 8200W        W12251   7.002   9.181   9.583
 8201W        W12252   0.811   9.071   8.690
 8202W        W12253   6.154   8.712   0.387
 8203W        W12254   1.480  10.959  10.723
 8204W        W12255   1.789   3.731   2.100
 8205W        W12256   4.859   3.325   3.190
 8206W        W12257  11.448   9.340   2.268
 8207W        W12258   2.677  11.471   0.702
 8208W        W12259   1.412   8.063   0.570
 8209W        W12260   6.855   3.515   2.724
 8210W        W12261   5.667   2.221   0.745
 8211W        W12262   9.797   4.270   9.550
 8212W        W12263   3.308   6.268  11.554
 8213W        W12264   4.003   2.258  10.970
 8214W        W12265   9.371   3.612   0.504
 8215W        W12266   7.483   7.120  11.119
 8216W        W12267   2.049   9.597   2.524
 8217W        W12268   2.956   7.993   8.530
 8218W        W12269   6.661   5.293  11.567
 8219W        W12270  10.902   8.998  11.512
 8220W        W12271   2.678   3.723   2.568
 8221W        W12272   5.026   9.291   1.041
 8222W        W12273   4.555   6.413   8.302
 8223W        W12274  10.106   3.262  11.395
 8224W        W12275   7.920   2.662   0.797
 8225W        W12276   9.428   9.683  11.335
 8226W        W12277  10.420   1.916   0.239
 8227W        W12278   9.650   3.763  10.381
 8228W        W12279   8.396   3.250  11.395
 8229W        W12280  10.883   1.832   1.332
 8230W        W12281   2.517   6.167  11.915
 8231W        W12282   4.272   8.786   2.099
 8232W        W12283   0.368   4.555   1.210
 8233W        W12284   0.726   7.667  11.816
 8234W        W12285   4.551   0.253   2.826
 8235W        W12286   9.072   5.917   1.414
 8236W        W12287   0.450  10.391   3.206
 8237W        W12288   0.743   2.840   8.921
 8238W        W12289   9.110   0.752   8.877
 8239W        W12290   5.327   8.417   2.103
 8240W        W12291  10.298   2.698   1.968
 8241W        W12292  10.481  10.582   0.066
 8242W        W12293   4.969   6.727   8.705
 8243W        W12294   1.262   9.287  10.551
 8244W        W12295   2.634   6.056   2.800
 8245W        W12296   6.347   4.080   1.800
 8246W        W12297   1.653   0.361  10.433
 8247W        W12298   9.599   4.649   1.858
 8248W        W12299   5.734   0.460  10.138
 8249W        W12300   7.118   0.001   0.897
 8250W        W12301   1.499   6.570  10.304
 8251W        W12302   5.911   2.090   9.051
 8252W        W12303   9.027   2.936  11.829
 8253W        W12304   4.338   8.574   1.625
 8254W        W12305  10.364   0.975   0.494
 8255W        W12306   3.136   0.938   3.489
 8256W        W12307   4.390   3.595  11.936
 8257W        W12308   3.678   4.104  11.391
 8258W        W12309   0.196  10.350  11.899
 8259W        W12310   8.495  11.435  11.719
 8260W        W12311   6.472   4.809   1.364
 8261W        W12312   2.416   0.297  10.843
 8262W        W12313  10.561   6.570   3.474
 8263W        W12314   1.539   5.067   0.295
 8264W        W12315  11.011   7.991   1.236
 8265W        W12316   2.666   0.972   2.725
 8266W        W12317   6.586   1.078   2.905
 8267W        W12318   5.556   7.600  10.405
 8268W        W12319   8.362   5.719  10.555
 8269W        W12320   9.437   9.139   9.419
 8270W        W12321   5.219   4.272   9.953
 8271W        W12322   4.097   0.972   0.714
 8272W        W12323  10.622   5.148  10.396
 8273W        W12324  10.434  11.465   0.234
 8274W        W12325   9.003   0.805  10.306
 8275W        W12326   2.260   6.160   0.958
 8276W        W12327   1.835   4.105  11.428
 8277W        W12328   6.963   7.488   2.293
 8278W        W12329   1.058   7.521   9.837
 8279W        W12330   2.619   6.908  11.690
 8280W        W12331   3.076   6.303   2.860
 8281W        W12332  11.025  10.827   1.213
 8282W        W12333   9.838   3.675   9.041
 8283W        W12334   8.767   6.362  11.220
 8284W        W12335   6.024   4.172   1.427
 8285W        W12336   0.347   6.019   3.609
 8286W        W12337   5.015   2.192  11.047
 8287W        W12338  10.780   0.380  10.309
 8288W        W12339   8.319   5.795   8.901
 8289W        W12340   4.799   4.877  11.487
 8290W        W12341   4.654   7.487   1.384
 8291W        W12342   2.247   4.171  11.087
 8292W        W12343   7.243   5.058   0.274
 8293W        W12344   9.359   7.239   9.291
 8294W        W12345   6.858  10.064   8.632
 8295W        W12346   7.107   2.881  11.256
 8296W        W12347   1.868   0.056   1.468
 8297W        W12348   9.638  11.197   0.661
 8298W        W12349   4.421   7.040  11.303
 8299W        W12350   8.913   5.611   0.392
 8300W        W12351  11.258   6.236   0.981
 8301W        W12352   5.522   8.885  11.656
 8302W        W12353   7.459   5.272  11.427
 8303W        W12354   7.398   9.292  10.960
 8304W        W12355   1.043   9.081   0.904
 8305W        W12356   0.166   3.540   1.089
 8306W        W12357   8.127   5.188  11.967
 8307W        W12358  10.314   4.741   0.520
 8308W        W12359   5.920  11.412   0.787
 8309W        W12360   5.697   4.670   8.797
 8310W        W12361   5.502   3.849  11.883
 8311W        W12362   2.825   8.774  10.572
 8312W        W12363   5.200   4.567   2.718
 8313W        W12364  10.381   2.955   0.353
 8314W        W12365   3.870   5.391   2.071
 8315W        W12366  10.340  10.141  11.836
 8316W        W12367   3.356   3.892   0.515
 8317W        W12368   6.661   0.266   9.713
 8318W        W12369  10.950   8.184   9.597
 8319W        W12370   2.383  11.028   9.586
 8320W        W12371   6.486   8.518   0.741
 8321W        W12372   5.070   6.107  10.855
 8322W        W12373   8.230   4.881  10.942
 8323W        W12374   9.270   6.179   0.990
 8324W        W12375   7.536  10.790   8.709
 8325W        W12376   3.318   5.491   2.958
 8326W        W12377   9.890   1.221  10.028
 8327W        W12378   2.791   2.838   2.464
 8328W        W12379   4.397  10.356   1.484
 8329W        W12380   9.524   8.037   1.311
 8330W        W12381   3.909   6.572   0.778
 8331W        W12382   3.387   5.698   8.295
 8332W        W12383   7.010   5.987   0.718
 8333W        W12384   0.859   5.085   9.564
 8334W        W12385   9.780   6.182   1.860
 8335W        W12386   1.363   0.466   9.539
 8336W        W12387   5.060   8.177   0.454
 8337W        W12388  10.497   4.455   1.911
 8338W        W12389   9.456  11.489  10.256
 8339W        W12390   8.917  10.420   1.643
 8340W        W12391   1.970   6.639  10.517
 8341W        W12392   8.981   2.565   9.906
 8342W        W12393   8.558   9.848   9.330
 8343W        W12394  10.696   3.747  10.182
 8344W        W12395   3.261   0.534   3.208
 8345W        W12396   0.878   2.292   2.683
 8346W        W12397   9.271   8.425   3.587
 8347W        W12398   6.197   9.312  11.774
 8348W        W12399   1.103  11.434   2.263
 8349W        W12400   5.215   3.579   3.492
 8350W        W12401   0.225   9.089   2.612
 8351W        W12402   5.719   1.244   9.860
 8352W        W12403   1.702   4.539  10.093
 8353W        W12404   5.787   0.405   3.500
 8354W        W12405   4.528   2.722   9.147
 8355W        W12406   1.738   9.432  10.535
 8356W        W12407   7.684   6.490   3.384
 8357W        W12408   9.285   9.375   8.974
 8358W        W12409   5.062   4.576   1.719
 8359W        W12410   3.260   6.158   9.312
 8360W        W12411   7.796   4.598  11.247
 8361W        W12412   3.829   5.773   0.708
 8362W        W12413   1.224   5.902   3.483
 8363W        W12414   7.073   2.660  11.981
 8364W        W12415   1.770   7.352   3.954
 8365W        W12416   4.664   8.854  10.498
 8366W        W12417   9.109   1.652   1.938
 8367W        W12418   8.333   4.336   0.840
 8368W        W12419   2.659   0.221   1.697
 8369W        W12420  10.485   8.668   3.192
 8370W        W12421   1.435   7.142   2.404
 8371W        W12422   2.379   4.849   2.805
 8372W        W12423  10.457   5.824   9.968
 8373W        W12424   4.208   4.264   8.820
 8374W        W12425   2.002   4.611   1.039
 8375W        W12426   5.109   7.227   1.380
 8376W        W12427   2.356   1.910   2.193
 8377W        W12428   8.905   5.066  10.316
 8378W        W12429   4.065   5.314  10.094
 8379W        W12430   8.344   3.844   2.320
 8380W        W12431   9.381   9.357  10.910
 8381W        W12432   4.803   7.755   0.569
 8382W        W12433   1.325   4.648   1.199
 8383W        W12434   8.547   9.582  11.527
 8384W        W12435   2.356   1.505   3.532
 8385W        W12436   3.244   0.112   2.918
 8386W        W12437   7.498   8.492   9.347
 8387W        W12438   1.365   7.088  10.033
 8388W        W12439   8.539   0.309  11.381
 8389W        W12440   7.156  11.296   1.834
 8390W        W12441  11.425   4.831   9.107
 8391W        W12442   0.277   9.892  10.172
 8392W        W12443   5.066   1.674  10.763
 8393W        W12444   1.925   6.152   8.931
 8394W        W12445   7.180   0.024   9.082
 8395W        W12446   7.390   4.332  10.595
 8396W        W12447   2.775   3.286   9.250
 8397W        W12448   6.201   2.859   0.441
 8398W        W12449   8.442   0.154   0.993
 8399W        W12450   2.156   0.423  11.299
 8400W        W12451   3.283   3.849   9.665
 8401W        W12452   6.435   3.326  10.653
 8402W        W12453   0.354   9.518   1.975
 8403W        W12454   0.933   5.990   1.664
 8404W        W12455   1.342   0.971   9.593
 8405W        W12456   1.364   5.088  10.741
 8406W        W12457   7.531   0.261   9.663
 8407W        W12458   3.748   8.523   8.726
 8408W        W12459   4.196  10.930   0.734
 8409W        W12460   9.170   1.377   0.677
 8410W        W12461   2.361   5.271   2.484
 8411W        W12462   2.770   8.008   3.152
 8412W        W12463   6.161   3.462  11.133
 8413W        W12464   4.159   0.865   9.176
 8414W        W12465   5.992   7.261   3.173
 8415W        W12466  10.537   6.017  11.825
 8416W        W12467   3.352  11.405   8.720
 8417W        W12468   7.483   8.624   1.829
 8418W        W12469   1.234  10.426   0.521
 8419W        W12470   6.552   9.597  11.517
 8420W        W12471   9.104   2.444   0.709
 8421W        W12472   3.111   0.664  11.033
 8422W        W12473   8.571   0.711   9.013
 8423W        W12474   1.582   7.645   2.264
 8424W        W12475  11.494   6.516  10.565
 8425W        W12476   7.716   1.800   1.998
 8426W        W12477   7.168   1.209  11.770
 8427W        W12478   4.672   2.848   3.558
 8428W        W12479   6.804   0.381   8.981
 8429W        W12480   2.756   7.392   9.819
 8430W        W12481   0.402   4.978  10.721
 8431W        W12482  10.834  11.406  10.504
 8432W        W12483   1.295   3.286   3.131
 8433W        W12484  10.858   0.848   9.552
 8434W        W12485   8.451   2.465   9.078
 8435W        W12486   1.353   6.207   1.975
 8436W        W12487   7.848   6.061   8.871
 8437W        W12488   9.917   7.199   1.904
 8438W        W12489   9.489   3.897   8.604
 8439W        W12490   6.342   2.061   4.069
 8440W        W12491   2.937   8.412  11.890
 8441W        W12492   9.370   1.655   3.334
 8442W        W12493  10.844  10.106   0.872
 8443W        W12494   3.172   6.655   2.523
 8444W        W12495   4.800  10.309   1.809
 8445W        W12496   3.244  10.053   9.874
 8446W        W12497   5.973  11.002   1.956
 8447W        W12498   3.170   0.324   0.971
 8448ION    NA+12499   2.181   0.105   1.894
 8449ION    NA+12500   3.662   7.522   1.087
 8450ION    NA+12501   9.644   3.937  11.237
 8451ION    NA+12502   3.094   8.830   1.568
 8452ION    NA+12503   9.430   4.676  10.597
 8453ION    NA+12504   2.236   6.589   2.146
 8454ION    NA+12505   4.778   3.810  11.674
 8455ION    NA+12506   7.466   1.267   3.635
 8456ION    NA+12507   0.009   8.486  10.407
 8457ION    NA+12508   6.179   8.188   2.186
 8458ION    NA+12509   9.577   8.361  11.876
 8459ION    NA+12510   9.513   6.098   0.205
 8460ION    NA+12511   3.372   5.703   1.641
 8461ION    NA+12512   9.304   0.924  11.717
 8462ION    NA+12513   5.216   4.994   2.053
 8463ION    NA+12514  11.448   5.186  10.615
 8464ION    NA+12515   7.401   3.503   2.159
 8465ION    NA+12516   7.978  10.492   9.346
 8466ION    NA+12517   0.199   7.486   8.863
 8467ION    NA+12518   9.438   6.449   9.558
 8468ION    NA+12519   2.137   8.169   9.733
 8469ION    NA+12520   7.608   2.183   8.808
 8470ION    NA+12521   8.084   2.590   3.878
 8471ION    NA+12522   8.864  10.941   9.497
 8472ION    NA+12523   5.239   6.359  11.313
 8473ION    NA+12524   0.541   7.501   9.717
 8474ION    NA+12525   9.106  10.692   0.770
 8475ION    NA+12526   4.026   4.031  10.251
 8476ION    NA+12527   9.387   7.750  11.246
 8477ION    NA+12528   3.911   2.174   1.707
 8478ION    NA+12529   4.837   0.951   2.134
 8479ION    NA+12530   1.253   5.050  11.783
 8480ION    NA+12531   0.983  11.199   8.934
 8481ION    NA+12532   8.788   8.388  11.730
 8482ION    NA+12533   0.877   4.001   3.049
 8483ION    NA+12534   7.062   1.381   2.727
 8484ION    NA+12535   5.078   2.103  11.947
 8485ION    NA+12536   4.160   0.723  10.409
 8486ION    NA+12537  10.597   0.115   1.489
 8487ION    NA+12538   5.616   7.572   2.433
 8488ION    NA+12539  11.146   0.503   2.673
 8489ION    NA+12540   4.251   3.952   0.614
 8490ION    NA+12541   6.031   9.437   2.527
 8491ION    NA+12542   3.220   2.376   0.419
 8492ION    NA+12543   1.470   2.200   8.898
 8493ION    NA+12544   3.037   8.924  11.866
 8494ION    NA+12545   4.227   1.770   2.565
 8495ION    NA+12546   8.551   6.817   9.840
 8496ION    NA+12547   7.504   9.561   1.027
 8497ION    NA+12548   7.423   0.856   0.083
 8498ION    NA+12549   1.848   4.127   1.284
 8499ION    NA+12550   7.952   6.371  10.583
 8500ION    NA+12551   3.091   5.835   2.623
 8501ION    NA+12552   5.347   1.708   2.194
 8502ION    NA+12553   0.239   4.403  11.670
 8503ION    NA+12554   3.042   8.276   0.871
 8504ION    NA+12555   7.086   1.681   1.627
 8505ION    NA+12556   3.068  11.034   8.011
 8506ION    NA+12557   8.169   1.087   2.881
 8507ION    NA+12558   4.031   8.421   0.853
 8508ION    NA+12559   9.276   0.068   0.957
 8509ION    NA+12560   3.457   2.040   3.607
 8510ION    NA+12561   5.360  10.114  11.412
 8511ION    NA+12562   7.961   5.117   3.143
 8512ION    NA+12563  11.396   7.924  11.964
 8513ION    NA+12564   9.342   0.751   9.927
 8514ION    NA+12565  11.425  11.079  11.986
 8515ION    NA+12566  11.040   6.521  10.187
 8516ION    NA+12567   5.745   2.813   9.539
 8517ION    NA+12568   6.706   9.164   8.785
 8518ION    NA+12569   1.008   5.099   1.213
 8519ION    NA+12570   7.542   0.231  11.311
 8520ION    NA+12571   0.412   0.399   9.147
 8521ION    NA+12572   2.319   7.785   8.578
 8522ION    NA+12573   8.982   3.295   0.443
 8523ION    NA+12574   9.635   1.558   2.459
 8524ION    NA+12575  10.508   7.706   9.852
 8525ION    NA+12576  10.505   4.187   0.719
 8526ION    NA+12577   7.464   8.696   8.880
 8527ION    NA+12578   0.558   1.539  11.423
 8528ION    NA+12579   9.763  10.136  11.161
 8529ION    NA+12580  10.326  11.003   0.398
 8530ION    NA+12581   9.559   1.487   9.268
 8531ION    NA+12582   0.071   1.804  10.756
 8532ION    NA+12583   8.601   4.530   2.647
 8533ION    NA+12584   1.803  11.210   0.428
 8534ION    NA+12585   2.663   3.416  10.326
 8535ION    NA+12586   8.514   0.168   9.869
 8536ION    NA+12587   5.116   3.347   8.286
 8537ION    CL-12588   2.809   4.604   2.953
 8538ION    CL-12589   4.671   3.238   8.294
 8539ION    CL-12590   0.397   2.381   3.494
 8540ION    CL-12591   1.215  11.347  11.528
 8541ION    CL-12592  10.027   4.143   3.493
 8542ION    CL-12593  11.133  11.410  10.915
 8543ION    CL-12594   5.803  10.112  11.350
 8544ION    CL-12595   9.146   3.729  10.393
 8545ION    CL-12596   9.483  10.493  11.215
 8546ION    CL-12597   0.089   0.605  10.330
 8547ION    CL-12598   2.803   5.104  11.761
 8548ION    CL-12599   5.089   1.334   2.134
 8549ION    CL-12600   3.538  10.700   3.602
 8550ION    CL-12601  11.229   4.100   1.525
 8551ION    CL-12602   1.507   7.653  11.362
 8552ION    CL-12603   0.413   1.525  10.945
 8553ION    CL-12604   6.404   9.277   2.339
 8554ION    CL-12605   0.301  10.526  10.905
 8555ION    CL-12606   4.457   3.916  10.302
 8556ION    CL-12607   6.229   9.335  10.142
 8557ION    CL-12608   0.699   0.042   9.103
 8558ION    CL-12609   2.659   2.189  10.869
 8559ION    CL-12610   7.719   1.737   8.782
 8560ION    CL-12611   9.525   1.909   2.201
 8561ION    CL-12612   9.052   1.194  11.467
 8562ION    CL-12613   0.861   8.788  11.552
 8563ION    CL-12614   8.294   0.685   2.728
 8564ION    CL-12615   9.401  10.787   3.591
 8565ION    CL-12616  11.451   0.819   2.734
 8566ION    CL-12617   8.262   4.625  11.432
 8567ION    CL-12618   2.505   9.842   9.453
 8568ION    CL-12619   8.605   3.069   0.379
 8569ION    CL-12620   9.394   2.889   9.911
 8570ION    CL-12621   4.745   7.231   2.927
 8571ION    CL-12622   9.167   8.588  11.929
 8572ION    CL-12623   8.601   8.123  11.401
 8573ION    CL-12624   6.112   7.409   0.227
 8574ION    CL-12625  10.518   2.166   3.055
 8575ION    CL-12626  11.227   9.415   0.739
 8576ION    CL-12627   1.815   4.946   4.095
 8577ION    CL-12628   0.561   1.768  11.818
 8578ION    CL-12629   8.631  11.252   9.729
 8579ION    CL-12630   1.956  10.197   3.380
 8580ION    CL-12631   8.545   2.125  11.026
 8581ION    CL-12632  11.449   1.435   0.535
 8582ION    CL-12633   2.784  11.090   3.073
 8583ION    CL-12634   8.064   7.911  10.436
 8584ION    CL-12635  10.091   9.868  10.991
 8585ION    CL-12636   4.169   0.054   8.382
 8586ION    CL-12637   0.333   6.750   1.644
 8587ION    CL-12638   5.791   7.974   2.299
 8588ION    CL-12639   7.387   7.049   1.661
 8589ION    CL-12640   1.261   2.249   9.291
 8590ION    CL-12641   9.694   3.494  11.196
 8591ION    CL-12642   5.869  10.349  10.037
 8592ION    CL-12643   2.061  11.102   8.731
 8593ION    CL-12644   4.087   4.079   1.011
 8594ION    CL-12645   0.396  10.523   0.952
 8595ION    CL-12646   3.068   8.488   1.273
 8596ION    CL-12647   9.179  11.129   0.878
 8597ION    CL-12648  10.396   3.957   2.059
 8598ION    CL-12649  10.805   1.178  10.566
 8599ION    CL-12650   4.726   7.843   1.740
 8600ION    CL-12651   5.593   3.241  11.289
 8601ION    CL-12652  10.534   7.026   0.465
 8602ION    CL-12653   2.705   3.835  10.474
 8603ION    CL-12654   4.830   1.311   8.915
 8604ION    CL-12655  11.460   7.656   8.473
 8605ION    CL-12656   6.931   9.286  11.266
 8606ION    CL-12657   9.830   8.532   9.868
 8607ION    CL-12658   5.954   7.004   9.781
 8608ION    CL-12659   4.256   0.551  10.009
 8609ION    CL-12660   9.574   7.990  11.585
 8610ION    CL-12661   0.360   7.466   9.302
 8611ION    CL-12662   8.066   7.377   2.794
 8612ION    CL-12663   1.649   6.535   9.418
 8613ION    CL-12664   7.047   8.853   8.760
 8614ION    CL-12665   2.122  10.909   0.345
 8615ION    CL-12666   9.586   4.386   2.459
 8616ION    CL-12667   5.492   6.026  11.159
 8617ION    CL-12668   4.830   5.258  10.819
 8618ION    CL-12669   7.075   0.674   0.297
 8619ION    CL-12670   0.609   8.088   3.177
 8620ION    CL-12671  11.213   2.086  10.681
 8621ION    CL-12672   4.212   9.605   0.505
 8622ION    CL-12673   1.003  10.073   9.162
 8623ION    CL-12674   6.506   4.455  11.959
 8624ION    CL-12675   0.462   8.601   1.461
 8625ION    CL-12676   6.751   7.562  10.096
  11.50000  11.50000  12.00000
