Protein in INSANE! Membrane UpperLeaflet>POPC=1.0 LowerLeaflet>POPC=1.0
11530
    1AU     AUC    1   5.268   5.279   5.999
    1AU     AUC    2   5.558   5.320   5.836
    1AU     AUC    3   5.538   5.308   6.167
    1AU     AUC    4   4.972   5.271   5.839
    1AU     AUC    5   5.013   5.269   6.189
    1AU     AUC    6   5.077   5.515   6.031
    1AU     AUC    7   5.407   5.555   6.001
    1AU     AUC    8   5.101   5.001   5.984
    1AU     AUC    9   5.469   5.047   6.005
    1AU     AUC   10   5.320   5.110   6.264
    1AU     AUC   11   5.256   5.442   6.278
    1AU     AUC   12   5.289   5.133   5.726
    1AU     AUC   13   5.262   5.458   5.735
    1AU     AUC   14   5.879   5.333   5.686
    1AU     AUC   15   5.916   5.344   5.993
    1AU     AUC   16   5.857   5.326   6.364
    1AU     AUC   17   4.669   5.257   5.688
    1AU     AUC   18   4.642   5.235   6.035
    1AU     AUC   19   4.713   5.226   6.389
    1AU     AUC   20   4.889   5.820   6.033
    1AU     AUC   21   5.225   5.897   5.993
    1AU     AUC   22   5.545   5.882   6.000
    1AU     AUC   23   4.930   4.698   5.946
    1AU     AUC   24   5.279   4.700   5.967
    1AU     AUC   25   5.645   4.743   5.972
    1AU     AUC   26   5.347   4.896   6.550
    1AU     AUC   27   5.297   5.226   6.609
    1AU     AUC   28   5.277   5.605   6.570
    1AU     AUC   29   5.305   4.946   5.421
    1AU     AUC   30   5.279   5.293   5.429
    1AU     AUC   31   5.267   5.646   5.448
    1AU     AUC   32   5.619   5.072   6.473
    1AU     AUC   33   5.579   5.442   6.511
    1AU     AUC   34   5.595   5.096   5.538
    1AU     AUC   35   5.607   5.477   5.527
    1AU     AUC   36   5.009   5.053   6.504
    1AU     AUC   37   4.995   5.410   6.508
    1AU     AUC   38   4.962   5.132   5.517
    1AU     AUC   39   4.946   5.467   5.529
    1AU     AUC   40   5.754   5.623   5.838
    1AU     AUC   41   5.710   5.598   6.199
    1AU     AUC   42   4.761   5.529   5.846
    1AU     AUC   43   4.771   5.534   6.232
    1AU     AUC   44   5.782   5.021   5.838
    1AU     AUC   45   5.793   5.031   6.137
    1AU     AUC   46   4.755   4.966   5.811
    1AU     AUC   47   4.805   4.948   6.155
    1AU     AUC   48   5.070   5.761   6.303
    1AU     AUC   49   5.402   5.775   6.299
    1AU     AUC   50   5.129   4.796   6.249
    1AU     AUC   51   5.503   4.782   6.270
    1AU     AUC   52   5.050   5.728   5.702
    1AU     AUC   53   5.445   5.765   5.687
    1AU     AUC   54   5.050   4.822   5.660
    1AU     AUC   55   5.446   4.812   5.682
    1AU    AUSL   56   5.884   5.237   6.746
    1AU    AUSL   57   5.761   4.736   6.643
    1AU     AUL   58   6.030   4.860   6.808
    1AU       S   59   6.094   4.495   6.506
    1AU     LIG   60   6.024   4.251   6.880
    1AU     LIG   61   6.108   3.798   7.006
    1AU       S   62   6.143   5.299   6.920
    1AU     LIG   63   6.091   5.399   7.353
    1AU     LIG   64   6.150   5.122   7.721
    1AU    AUSL   65   5.483   5.038   6.782
    1AU    AUSL   66   5.165   5.350   6.915
    1AU     AUL   67   5.368   5.213   7.139
    1AU       S   68   5.795   5.038   7.161
    1AU     LIG   69   5.648   5.126   7.576
    1AU     LIG   70   5.728   5.071   8.031
    1AU       S   71   4.654   5.135   7.209
    1AU     LIG   72   4.723   5.355   7.616
    1AU     LIG   73   4.665   5.410   8.085
    1AU    AUSL   74   5.489   5.467   6.667
    1AU    AUSL   75   5.902   5.659   6.625
    1AU     AUL   76   5.721   5.490   6.959
    1AU       S   77   5.327   5.729   7.121
    1AU     LIG   78   5.630   5.623   7.429
    1AU     LIG   79   5.865   5.544   7.815
    1AU       S   80   6.029   5.822   6.819
    1AU     LIG   81   6.437   5.739   6.898
    1AU     LIG   82   6.840   5.956   6.907
    1AU    AUSL   83   5.879   5.318   5.273
    1AU    AUSL   84   5.692   5.844   5.307
    1AU     AUL   85   5.833   5.612   5.037
    1AU       S   86   5.843   5.181   4.829
    1AU     LIG   87   6.042   5.151   4.397
    1AU     LIG   88   6.163   5.055   3.946
    1AU       S   89   6.035   5.966   5.266
    1AU     LIG   90   5.959   6.220   4.939
    1AU     LIG   91   6.156   6.592   4.755
    1AU    AUSL   92   5.523   5.050   5.240
    1AU    AUSL   93   5.820   5.026   5.602
    1AU     AUL   94   5.964   5.020   5.241
    1AU       S   95   6.155   4.354   5.380
    1AU     LIG   96   6.413   4.106   5.053
    1AU     LIG   97   6.556   4.134   4.577
    1AU       S   98   5.565   4.893   4.964
    1AU     LIG   99   5.397   4.765   4.511
    1AU     LIG  100   5.673   4.858   4.123
    1AU    AUSL  101   5.464   5.476   5.314
    1AU    AUSL  102   5.131   5.123   5.085
    1AU     AUL  103   5.417   5.344   4.976
    1AU       S  104   4.973   5.205   4.797
    1AU     LIG  105   5.023   5.108   4.327
    1AU     LIG  106   4.605   5.001   4.130
    1AU       S  107   5.755   4.952   4.783
    1AU     LIG  108   5.534   5.248   4.450
    1AU     LIG  109   5.725   5.380   4.037
    1AU    AUSL  110   4.818   5.205   6.691
    1AU    AUSL  111   5.029   5.675   6.664
    1AU     AUL  112   4.905   5.517   6.972
    1AU       S  113   4.558   5.206   6.943
    1AU     LIG  114   4.288   5.438   7.310
    1AU     LIG  115   4.240   5.307   7.786
    1AU       S  116   4.630   5.886   6.850
    1AU     LIG  117   4.429   6.215   7.065
    1AU     LIG  118   4.208   6.461   7.403
    1AU    AUSL  119   5.089   4.904   6.905
    1AU    AUSL  120   4.597   4.843   6.602
    1AU     AUL  121   4.770   4.792   6.866
    1AU       S  122   4.385   4.555   6.708
    1AU     LIG  123   3.983   4.341   6.899
    1AU     LIG  124   3.686   4.368   7.270
    1AU       S  125   4.895   5.080   7.203
    1AU     LIG  126   4.893   4.869   7.598
    1AU     LIG  127   4.616   4.911   7.960
    1AU    AUSL  128   4.721   5.216   5.235
    1AU    AUSL  129   5.007   4.916   5.446
    1AU     AUL  130   4.880   4.865   5.121
    1AU       S  131   4.557   5.143   4.914
    1AU     LIG  132   4.244   5.094   4.549
    1AU     LIG  133   4.161   5.292   4.135
    1AU       S  134   4.386   4.705   5.121
    1AU     LIG  135   4.448   4.216   5.049
    1AU     LIG  136   4.282   3.761   4.965
    1AU    AUSL  137   5.046   5.524   5.254
    1AU    AUSL  138   4.661   5.544   5.517
    1AU     AUL  139   4.747   5.532   5.088
    1AU       S  140   4.394   5.726   5.323
    1AU     LIG  141   4.106   6.082   5.148
    1AU     LIG  142   4.065   6.251   4.699
    1AU       S  143   4.720   5.077   4.711
    1AU     LIG  144   4.623   5.426   4.439
    1AU     LIG  145   4.613   5.495   3.981
    1AU    AUSL  146   5.944   5.923   6.026
    1AU    AUSL  147   5.919   5.604   5.598
    1AU     AUL  148   6.074   6.007   5.733
    1AU       S  149   6.173   5.669   5.405
    1AU     LIG  150   6.309   5.691   4.929
    1AU     LIG  151   6.446   6.124   4.801
    1AU       S  152   6.480   5.926   6.383
    1AU     LIG  153   6.686   6.262   6.080
    1AU     LIG  154   7.012   6.357   5.736
    1AU    AUSL  155   6.223   5.583   5.900
    1AU    AUSL  156   6.246   5.203   6.184
    1AU     AUL  157   6.532   5.406   6.021
    1AU       S  158   6.399   5.837   6.119
    1AU     LIG  159   6.724   5.835   5.799
    1AU     LIG  160   7.146   5.778   5.600
    1AU       S  161   6.544   4.937   6.039
    1AU     LIG  162   6.705   4.746   6.416
    1AU     LIG  163   7.129   4.547   6.472
    1AU    AUSL  164   5.952   5.513   6.229
    1AU    AUSL  165   5.628   5.820   6.302
    1AU     AUL  166   5.984   5.929   6.361
    1AU       S  167   5.989   6.121   6.832
    1AU     LIG  168   6.415   6.244   6.778
    1AU     LIG  169   6.743   6.461   7.019
    1AU       S  170   6.335   5.620   6.403
    1AU     LIG  171   6.852   5.598   6.381
    1AU     LIG  172   7.348   5.687   6.433
    1AU    AUSL  173   4.626   5.694   6.081
    1AU    AUSL  174   4.628   5.550   6.516
    1AU     AUL  175   4.339   5.820   6.304
    1AU       S  176   4.520   5.634   6.710
    1AU     LIG  177   4.123   5.840   6.824
    1AU     LIG  178   3.954   6.039   7.203
    1AU       S  179   4.520   6.204   6.097
    1AU     LIG  180   4.106   6.149   5.947
    1AU     LIG  181   3.882   6.349   5.605
    1AU    AUSL  182   4.397   5.415   5.820
    1AU    AUSL  183   4.623   5.944   5.733
    1AU     AUL  184   4.355   5.743   5.798
    1AU       S  185   4.189   5.346   5.540
    1AU     LIG  186   3.918   5.788   5.562
    1AU     LIG  187   3.489   6.027   5.465
    1AU       S  188   4.436   6.158   5.553
    1AU     LIG  189   4.382   6.510   5.283
    1AU     LIG  190   4.011   6.632   5.045
    1AU    AUSL  191   4.339   5.362   6.260
    1AU    AUSL  192   4.316   5.008   5.934
    1AU     AUL  193   4.099   5.339   6.004
    1AU       S  194   4.089   4.904   6.184
    1AU     LIG  195   3.746   4.861   5.892
    1AU     LIG  196   3.444   4.658   5.577
    1AU       S  197   4.134   5.420   6.493
    1AU     LIG  198   3.805   5.759   6.398
    1AU     LIG  199   3.352   5.975   6.399
    1AU    AUSL  200   6.047   4.867   5.985
    1AU    AUSL  201   5.865   5.064   6.358
    1AU     AUL  202   6.197   4.934   6.367
    1AU       S  203   6.407   4.774   5.971
    1AU     LIG  204   6.443   4.384   5.810
    1AU     LIG  205   6.790   4.139   5.642
    1AU       S  206   6.299   4.443   6.309
    1AU     LIG  207   6.512   4.388   6.742
    1AU     LIG  208   6.470   4.198   7.164
    1AU    AUSL  209   6.193   5.191   5.712
    1AU    AUSL  210   5.847   4.556   5.765
    1AU     AUL  211   6.116   4.791   5.619
    1AU       S  212   6.499   5.022   5.746
    1AU     LIG  213   6.801   4.691   5.596
    1AU     LIG  214   7.223   4.437   5.661
    1AU       S  215   5.983   4.335   5.651
    1AU     LIG  216   5.915   3.929   5.483
    1AU     LIG  217   6.107   3.676   5.158
    1AU    AUSL  218   4.677   4.724   5.941
    1AU    AUSL  219   4.593   5.040   5.603
    1AU     AUL  220   4.324   4.733   5.785
    1AU       S  221   4.371   4.925   5.353
    1AU     LIG  222   3.959   4.718   5.425
    1AU     LIG  223   3.799   4.355   5.174
    1AU       S  224   3.998   4.714   6.365
    1AU     LIG  225   3.987   4.406   6.016
    1AU     LIG  226   3.726   4.240   5.664
    1AU    AUSL  227   4.630   5.050   6.237
    1AU    AUSL  228   4.753   4.540   6.324
    1AU     AUL  229   4.475   4.651   6.246
    1AU       S  230   4.579   4.318   6.553
    1AU     LIG  231   4.186   4.163   6.470
    1AU     LIG  232   3.923   3.820   6.715
    1AU       S  233   4.162   4.950   6.406
    1AU     LIG  234   3.704   5.143   6.366
    1AU     LIG  235   3.319   4.887   6.349
    1AU    AUSL  236   5.234   5.995   6.449
    1AU    AUSL  237   4.793   5.943   6.396
    1AU     AUL  238   5.059   6.033   6.729
    1AU       S  239   4.628   6.100   6.566
    1AU     LIG  240   4.225   6.273   6.567
    1AU     LIG  241   4.015   6.472   6.912
    1AU       S  242   5.213   6.433   6.471
    1AU     LIG  243   5.343   6.851   6.720
    1AU     LIG  244   5.400   7.313   6.826
    1AU    AUSL  245   5.016   6.188   6.113
    1AU    AUSL  246   5.343   6.218   5.741
    1AU     AUL  247   5.077   6.459   5.894
    1AU       S  248   5.325   6.656   6.267
    1AU     LIG  249   5.168   7.088   6.291
    1AU     LIG  250   4.870   7.185   6.609
    1AU       S  251   5.272   6.430   5.447
    1AU     LIG  252   5.674   6.707   5.559
    1AU     LIG  253   5.847   7.186   5.514
    1AU    AUSL  254   5.494   6.188   6.143
    1AU    AUSL  255   5.530   5.883   6.739
    1AU     AUL  256   5.587   6.148   6.517
    1AU       S  257   5.734   5.981   6.956
    1AU     LIG  258   6.047   5.919   7.303
    1AU     LIG  259   6.471   6.098   7.281
    1AU       S  260   5.482   6.442   6.165
    1AU     LIG  261   5.806   6.667   6.410
    1AU     LIG  262   5.784   7.111   6.533
    1AU    AUSL  263   5.381   4.563   6.507
    1AU    AUSL  264   5.733   4.671   6.212
    1AU     AUL  265   5.644   4.392   6.537
    1AU       S  266   4.973   4.000   6.549
    1AU     LIG  267   4.961   3.631   6.817
    1AU     LIG  268   5.079   3.220   7.030
    1AU       S  269   6.008   4.447   6.228
    1AU     LIG  270   6.211   4.001   6.484
    1AU     LIG  271   6.551   3.873   6.779
    1AU    AUSL  272   5.135   4.526   6.147
    1AU    AUSL  273   5.052   4.836   6.486
    1AU     AUL  274   5.037   4.481   6.571
    1AU       S  275   4.960   4.107   6.269
    1AU     LIG  276   5.001   3.582   6.300
    1AU     LIG  277   4.833   3.219   6.532
    1AU       S  278   4.598   4.327   6.796
    1AU     LIG  279   4.361   3.982   6.954
    1AU     LIG  280   4.101   4.022   7.333
    1AU    AUSL  281   5.521   4.334   6.067
    1AU    AUSL  282   5.036   4.455   5.740
    1AU     AUL  283   5.242   4.212   5.916
    1AU       S  284   4.776   4.224   5.803
    1AU     LIG  285   4.733   3.730   5.905
    1AU     LIG  286   4.858   3.442   5.542
    1AU       S  287   5.235   4.065   6.398
    1AU     LIG  288   5.496   3.710   6.392
    1AU     LIG  289   5.378   3.348   6.634
    1AU    AUSL  290   5.285   5.904   5.438
    1AU    AUSL  291   5.614   5.880   5.757
    1AU     AUL  292   5.644   6.149   5.515
    1AU       S  293   5.276   6.125   5.215
    1AU     LIG  294   5.564   6.518   5.070
    1AU     LIG  295   5.456   6.972   5.180
    1AU       S  296   6.353   5.937   5.345
    1AU     LIG  297   6.340   6.406   5.244
    1AU     LIG  298   6.608   6.698   4.989
    1AU    AUSL  299   5.040   5.893   5.810
    1AU    AUSL  300   4.867   5.900   5.364
    1AU     AUL  301   4.910   6.145   5.571
    1AU       S  302   5.084   6.364   5.174
    1AU     LIG  303   4.867   6.740   5.360
    1AU     LIG  304   5.012   7.185   5.449
    1AU       S  305   4.589   5.978   5.250
    1AU     LIG  306   4.558   6.239   4.888
    1AU     LIG  307   4.413   6.653   4.723
    1AU    AUSL  308   5.258   4.583   5.370
    1AU    AUSL  309   4.699   4.616   5.522
    1AU     AUL  310   4.968   4.463   5.368
    1AU       S  311   4.505   4.628   5.351
    1AU     LIG  312   4.217   4.295   5.489
    1AU     LIG  313   3.982   3.900   5.365
    1AU       S  314   4.680   4.097   5.538
    1AU     LIG  315   4.747   3.791   5.169
    1AU     LIG  316   4.923   3.414   4.965
    1AU    AUSL  317   5.434   4.659   5.791
    1AU    AUSL  318   5.675   4.675   5.381
    1AU     AUL  319   5.524   4.371   5.552
    1AU       S  320   4.956   4.001   5.569
    1AU     LIG  321   5.303   3.670   5.562
    1AU     LIG  322   5.309   3.240   5.329
    1AU       S  323   5.899   4.505   5.278
    1AU     LIG  324   5.906   4.136   4.980
    1AU     LIG  325   6.136   3.847   4.665
    2POPC   NC3  326   3.311   8.675   8.049
    2POPC   PO4  327   3.912   8.453   8.218
    2POPC   GL1  328   3.687   8.872   7.799
    2POPC   GL2  329   3.372   8.892   7.613
    2POPC   C1A  330   3.733   8.808   7.270
    2POPC   D2A  331   3.774   8.506   6.939
    2POPC   C3A  332   3.506   8.447   6.581
    2POPC   C4A  333   3.545   8.601   6.206
    2POPC   C1B  334   3.226   8.673   7.299
    2POPC   C2B  335   3.301   8.750   6.928
    2POPC   C3B  336   3.130   8.776   6.551
    2POPC   C4B  337   3.164   8.936   6.147
    3POPC   NC3  338   1.138   5.137   8.136
    3POPC   PO4  339   0.551   4.744   8.207
    3POPC   GL1  340   0.890   4.834   7.770
    3POPC   GL2  341   1.065   5.119   7.654
    3POPC   C1A  342   1.111   4.725   7.349
    3POPC   D2A  343   0.927   4.818   6.937
    3POPC   C3A  344   1.062   4.613   6.545
    3POPC   C4A  345   1.118   4.781   6.122
    3POPC   C1B  346   1.349   5.204   7.359
    3POPC   C2B  347   1.474   5.084   6.969
    3POPC   C3B  348   1.285   5.047   6.602
    3POPC   C4B  349   1.385   5.190   6.221
    4POPC   NC3  350   9.420   1.825   8.160
    4POPC   PO4  351   8.935   2.196   7.899
    4POPC   GL1  352   9.084   1.957   7.605
    4POPC   GL2  353   9.315   1.721   7.679
    4POPC   C1A  354   9.180   2.027   7.205
    4POPC   D2A  355   9.285   1.833   6.821
    4POPC   C3A  356   9.528   2.069   6.531
    4POPC   C4A  357   9.671   2.271   6.166
    4POPC   C1B  358   9.344   1.533   7.278
    4POPC   C2B  359   9.702   1.634   7.026
    4POPC   C3B  360   9.774   1.617   6.563
    4POPC   C4B  361   9.955   1.399   6.211
    5POPC   NC3  362   0.462   7.901   8.219
    5POPC   PO4  363   0.038   7.361   8.101
    5POPC   GL1  364   0.206   7.579   7.674
    5POPC   GL2  365   0.470   7.790   7.626
    5POPC   C1A  366   0.381   7.626   7.172
    5POPC   D2A  367   0.602   7.808   6.822
    5POPC   C3A  368   0.571   7.672   6.364
    5POPC   C4A  369   0.265   7.723   5.998
    5POPC   C1B  370   0.312   8.134   7.307
    5POPC   C2B  371   0.407   8.289   6.908
    5POPC   C3B  372   0.287   8.079   6.531
    5POPC   C4B  373   0.398   8.168   6.149
    6POPC   NC3  374   2.947   1.518   8.159
    6POPC   PO4  375   3.557   1.750   8.227
    6POPC   GL1  376   3.629   1.482   7.871
    6POPC   GL2  377   3.616   1.108   7.859
    6POPC   C1A  378   3.508   1.514   7.467
    6POPC   D2A  379   3.507   1.679   7.060
    6POPC   C3A  380   3.677   1.529   6.661
    6POPC   C4A  381   3.511   1.494   6.241
    6POPC   C1B  382   3.408   1.018   7.448
    6POPC   C2B  383   3.531   1.172   7.027
    6POPC   C3B  384   3.390   1.091   6.588
    6POPC   C4B  385   3.553   1.002   6.174
    7POPC   NC3  386   8.530   9.171   8.136
    7POPC   PO4  387   9.000   9.597   8.361
    7POPC   GL1  388   8.854   9.471   7.840
    7POPC   GL2  389   8.749   9.197   7.647
    7POPC   C1A  390   8.804   9.656   7.419
    7POPC   D2A  391   8.687   9.668   6.981
    7POPC   C3A  392   8.730   9.377   6.670
    7POPC   C4A  393   8.690   9.528   6.262
    7POPC   C1B  394   8.541   9.223   7.251
    7POPC   C2B  395   8.379   9.040   6.876
    7POPC   C3B  396   8.225   9.217   6.510
    7POPC   C4B  397   8.284   9.324   6.076
    8POPC   NC3  398   6.221   0.413   8.183
    8POPC   PO4  399   6.794  10.468   8.076
    8POPC   GL1  400   6.658   0.189   7.649
    8POPC   GL2  401   6.405   0.436   7.713
    8POPC   C1A  402   6.534   0.446   7.225
    8POPC   D2A  403   6.353   0.728   6.902
    8POPC   C3A  404   6.498   0.704   6.481
    8POPC   C4A  405   6.739   0.551   6.111
    8POPC   C1B  406   6.229   0.061   7.440
    8POPC   C2B  407   6.350  10.459   7.015
    8POPC   C3B  408   6.404   0.212   6.640
    8POPC   C4B  409   6.281   0.308   6.212
    9POPC   NC3  410   9.008   4.766   8.163
    9POPC   PO4  411   8.625   5.258   7.997
    9POPC   GL1  412   8.900   5.091   7.720
    9POPC   GL2  413   8.728   4.779   7.668
    9POPC   C1A  414   8.896   5.178   7.287
    9POPC   D2A  415   8.717   5.046   6.899
    9POPC   C3A  416   8.731   4.897   6.507
    9POPC   C4A  417   8.826   4.967   6.087
    9POPC   C1B  418   8.547   4.768   7.279
    9POPC   C2B  419   8.328   4.730   6.880
    9POPC   C3B  420   8.365   4.542   6.456
    9POPC   C4B  421   8.410   4.652   5.991
   10POPC   NC3  422   4.399   9.405   7.976
   10POPC   PO4  423   3.786   9.434   8.282
   10POPC   GL1  424   3.972   9.523   7.736
   10POPC   GL2  425   4.260   9.415   7.495
   10POPC   C1A  426   3.944   9.678   7.238
   10POPC   D2A  427   4.091   9.470   6.859
   10POPC   C3A  428   3.799   9.495   6.509
   10POPC   C4A  429   3.947   9.478   6.040
   10POPC   C1B  430   4.553   9.180   7.245
   10POPC   C2B  431   4.653   8.986   6.873
   10POPC   C3B  432   4.476   8.849   6.505
   10POPC   C4B  433   4.208   9.214   6.406
   11POPC   NC3  434   9.804   5.486   8.338
   11POPC   PO4  435   9.603   5.228   7.788
   11POPC   GL1  436   9.893   5.323   7.535
   11POPC   GL2  437  10.135   5.532   7.720
   11POPC   C1A  438   9.764   5.193   7.123
   11POPC   D2A  439   9.692   5.503   6.819
   11POPC   C3A  440   9.626   5.429   6.401
   11POPC   C4A  441   9.818   5.667   6.092
   11POPC   C1B  442  10.302   5.675   7.324
   11POPC   C2B  443  10.086   5.863   6.953
   11POPC   C3B  444  10.075   5.739   6.541
   11POPC   C4B  445  10.305   5.806   6.153
   12POPC   NC3  446   6.322   1.600   8.300
   12POPC   PO4  447   5.967   2.106   8.299
   12POPC   GL1  448   6.301   1.874   7.888
   12POPC   GL2  449   6.524   2.091   7.725
   12POPC   C1A  450   6.233   1.716   7.410
   12POPC   D2A  451   6.464   1.679   6.979
   12POPC   C3A  452   6.238   1.587   6.576
   12POPC   C4A  453   6.260   1.668   6.135
   12POPC   C1B  454   6.434   2.172   7.276
   12POPC   C2B  455   6.659   2.164   6.891
   12POPC   C3B  456   6.575   1.957   6.512
   12POPC   C4B  457   6.619   2.007   6.076
   13POPC   NC3  458   1.419   0.916   8.070
   13POPC   PO4  459   2.077   0.862   8.061
   13POPC   GL1  460   1.993   1.081   7.669
   13POPC   GL2  461   2.277   1.278   7.659
   13POPC   C1A  462   1.738   1.065   7.291
   13POPC   D2A  463   1.639   0.843   6.873
   13POPC   C3A  464   1.885   0.883   6.468
   13POPC   C4A  465   1.713   0.854   6.025
   13POPC   C1B  466   2.144   1.404   7.267
   13POPC   C2B  467   1.943   1.289   6.874
   13POPC   C3B  468   1.733   1.364   6.491
   13POPC   C4B  469   1.990   1.267   6.127
   14POPC   NC3  470   7.191   1.997   8.129
   14POPC   PO4  471   6.713   1.458   8.139
   14POPC   GL1  472   6.863   1.697   7.758
   14POPC   GL2  473   7.218   1.802   7.671
   14POPC   C1A  474   6.850   1.863   7.314
   14POPC   D2A  475   6.985   1.745   6.901
   14POPC   C3A  476   7.065   2.053   6.579
   14POPC   C4A  477   7.056   1.835   6.250
   14POPC   C1B  478   7.375   1.685   7.269
   14POPC   C2B  479   7.620   1.574   6.897
   14POPC   C3B  480   7.505   1.768   6.515
   14POPC   C4B  481   7.517   2.066   6.183
   15POPC   NC3  482   6.406   9.182   8.037
   15POPC   PO4  483   6.920   9.612   8.238
   15POPC   GL1  484   6.667   9.569   7.751
   15POPC   GL2  485   6.433   9.340   7.564
   15POPC   C1A  486   6.562   9.751   7.315
   15POPC   D2A  487   6.492   9.568   6.898
   15POPC   C3A  488   6.532   9.806   6.514
   15POPC   C4A  489   6.509   9.767   6.060
   15POPC   C1B  490   6.173   9.217   7.210
   15POPC   C2B  491   6.039   9.336   6.789
   15POPC   C3B  492   6.256   9.325   6.402
   15POPC   C4B  493   6.189   9.370   5.950
   16POPC   NC3  494   9.506   3.343   8.170
   16POPC   PO4  495   9.861   3.934   8.082
   16POPC   GL1  496   9.757   3.557   7.783
   16POPC   GL2  497   9.387   3.466   7.697
   16POPC   C1A  498   9.704   3.335   7.349
   16POPC   D2A  499   9.543   3.509   6.956
   16POPC   C3A  500   9.749   3.533   6.553
   16POPC   C4A  501   9.567   3.560   6.130
   16POPC   C1B  502   9.194   3.318   7.302
   16POPC   C2B  503   9.034   3.461   6.912
   16POPC   C3B  504   9.234   3.472   6.519
   16POPC   C4B  505   9.160   3.224   6.138
   17POPC   NC3  506   0.503   5.899   8.268
   17POPC   PO4  507  10.363   5.523   8.202
   17POPC   GL1  508   0.156   5.540   7.820
   17POPC   GL2  509   0.450   5.778   7.774
   17POPC   C1A  510   0.288   5.454   7.366
   17POPC   D2A  511   0.148   5.576   6.940
   17POPC   C3A  512   0.159   5.787   6.532
   17POPC   C4A  513   0.223   5.476   6.191
   17POPC   C1B  514   0.590   5.923   7.361
   17POPC   C2B  515   0.647   5.693   6.974
   17POPC   C3B  516   0.607   5.562   6.543
   17POPC   C4B  517   0.601   5.803   6.148
   18POPC   NC3  518  10.188   0.441   8.279
   18POPC   PO4  519   9.627   0.135   8.041
   18POPC   GL1  520   9.991   0.159   7.763
   18POPC   GL2  521  10.189   0.433   7.724
   18POPC   C1A  522   9.924   0.224   7.304
   18POPC   D2A  523  10.027   0.535   7.027
   18POPC   C3A  524  10.097   0.510   6.613
   18POPC   C4A  525  10.227   0.376   6.218
   18POPC   C1B  526  10.440   0.455   7.324
   18POPC   C2B  527   0.053   0.602   6.888
   18POPC   C3B  528   0.024   0.749   6.450
   18POPC   C4B  529  10.477   0.718   5.950
   19POPC   NC3  530   1.504  10.424   8.114
   19POPC   PO4  531   2.223  10.328   8.053
   19POPC   GL1  532   1.850  10.289   7.730
   19POPC   GL2  533   1.765   9.947   7.594
   19POPC   C1A  534   1.640  10.386   7.303
   19POPC   D2A  535   1.517  10.252   6.897
   19POPC   C3A  536   1.757  10.468   6.567
   19POPC   C4A  537   1.636  10.457   6.137
   19POPC   C1B  538   2.005  10.032   7.277
   19POPC   C2B  539   1.873   9.915   6.881
   19POPC   C3B  540   1.654   9.996   6.458
   19POPC   C4B  541   1.989   9.937   6.146
   20POPC   NC3  542   0.447   6.763   8.145
   20POPC   PO4  543   0.873   6.192   8.186
   20POPC   GL1  544   0.634   6.395   7.829
   20POPC   GL2  545   0.274   6.363   7.729
   20POPC   C1A  546   0.636   6.469   7.371
   20POPC   D2A  547   0.537   6.283   6.970
   20POPC   C3A  548   0.605   6.513   6.582
   20POPC   C4A  549   0.469   6.291   6.218
   20POPC   C1B  550   0.109   6.528   7.287
   20POPC   C2B  551   0.032   6.853   6.981
   20POPC   C3B  552   0.112   6.726   6.583
   20POPC   C4B  553   0.334   6.782   6.201
   21POPC   NC3  554   2.418   2.070   8.075
   21POPC   PO4  555   2.478   1.408   8.094
   21POPC   GL1  556   2.650   1.667   7.762
   21POPC   GL2  557   2.737   2.029   7.654
   21POPC   C1A  558   2.619   1.604   7.349
   21POPC   D2A  559   2.812   1.761   6.999
   21POPC   C3A  560   2.589   1.733   6.625
   21POPC   C4A  561   2.533   1.530   6.244
   21POPC   C1B  562   2.489   2.083   7.283
   21POPC   C2B  563   2.348   2.218   6.867
   21POPC   C3B  564   2.448   2.206   6.433
   21POPC   C4B  565   2.867   2.070   6.314
   22POPC   NC3  566   9.222  10.420   8.172
   22POPC   PO4  567   9.277   9.877   7.927
   22POPC   GL1  568   9.401  10.271   7.689
   22POPC   GL2  569   9.739  10.299   7.511
   22POPC   C1A  570   9.356  10.422   7.239
   22POPC   D2A  571   9.521  10.363   6.842
   22POPC   C3A  572   9.162  10.371   6.554
   22POPC   C4A  573   9.026   0.076   6.168
   22POPC   C1B  574   9.609   9.937   7.318
   22POPC   C2B  575   9.666   9.821   6.898
   22POPC   C3B  576   9.500   9.963   6.546
   22POPC   C4B  577   9.689  10.321   6.290
   23POPC   NC3  578   9.684   8.546   8.035
   23POPC   PO4  579   9.189   8.279   7.747
   23POPC   GL1  580   9.481   8.570   7.584
   23POPC   GL2  581   9.474   8.947   7.722
   23POPC   C1A  582   9.802   8.457   7.305
   23POPC   D2A  583   9.604   8.446   6.923
   23POPC   C3A  584   9.820   8.448   6.578
   23POPC   C4A  585   9.675   8.368   6.200
   23POPC   C1B  586   9.681   8.958   7.341
   23POPC   C2B  587   9.494   8.961   6.951
   23POPC   C3B  588   9.646   8.931   6.535
   23POPC   C4B  589   9.368   8.807   6.217
   24POPC   NC3  590   5.485   2.106   8.278
   24POPC   PO4  591   6.025   2.284   7.800
   24POPC   GL1  592   5.680   2.406   7.565
   24POPC   GL2  593   5.624   2.765   7.590
   24POPC   C1A  594   5.696   2.493   7.126
   24POPC   D2A  595   5.717   2.324   6.747
   24POPC   C3A  596   5.754   2.555   6.397
   24POPC   C4A  597   5.560   2.740   6.007
   24POPC   C1B  598   5.595   2.991   7.179
   24POPC   C2B  599   5.496   2.852   6.754
   24POPC   C3B  600   5.736   3.063   6.399
   24POPC   C4B  601   6.003   3.096   6.043
   25POPC   NC3  602   7.457   4.176   8.133
   25POPC   PO4  603   7.098   3.727   7.889
   25POPC   GL1  604   7.299   3.897   7.553
   25POPC   GL2  605   7.185   4.206   7.646
   25POPC   C1A  606   7.470   4.243   7.242
   25POPC   D2A  607   7.499   4.415   6.811
   25POPC   C3A  608   7.405   4.102   6.479
   25POPC   C4A  609   7.188   4.048   6.068
   25POPC   C1B  610   6.976   4.052   7.209
   25POPC   C2B  611   6.976   4.155   6.764
   25POPC   C3B  612   6.761   4.171   6.349
   25POPC   C4B  613   6.879   4.465   6.038
   26POPC   NC3  614   2.670  10.039   7.996
   26POPC   PO4  615   3.188   0.030   8.225
   26POPC   GL1  616   3.019  10.417   7.831
   26POPC   GL2  617   2.659   0.005   7.796
   26POPC   C1A  618   2.981  10.334   7.384
   26POPC   D2A  619   3.127  10.203   6.987
   26POPC   C3A  620   2.814  10.201   6.694
   26POPC   C4A  621   2.627  10.371   6.348
   26POPC   C1B  622   2.453  10.288   7.417
   26POPC   C2B  623   2.429  10.079   7.005
   26POPC   C3B  624   2.256  10.087   6.593
   26POPC   C4B  625   2.455   9.844   6.312
   27POPC   NC3  626   1.034   0.223   8.095
   27POPC   PO4  627   0.943   0.931   8.038
   27POPC   GL1  628   1.150   0.614   7.727
   27POPC   GL2  629   1.257   0.292   7.663
   27POPC   C1A  630   0.958   0.465   7.311
   27POPC   D2A  631   1.050   0.510   6.853
   27POPC   C3A  632   0.894   0.284   6.468
   27POPC   C4A  633   0.856   0.491   6.042
   27POPC   C1B  634   1.478   0.389   7.305
   27POPC   C2B  635   1.480   0.246   6.918
   27POPC   C3B  636   1.412   0.358   6.506
   27POPC   C4B  637   1.418   0.419   6.084
   28POPC   NC3  638   4.448  10.298   8.105
   28POPC   PO4  639   3.898   9.980   7.903
   28POPC   GL1  640   4.079  10.075   7.543
   28POPC   GL2  641   4.232  10.367   7.647
   28POPC   C1A  642   4.015  10.200   7.111
   28POPC   D2A  643   3.913   9.945   6.738
   28POPC   C3A  644   4.202   9.834   6.380
   28POPC   C4A  645   4.182   9.915   5.902
   28POPC   C1B  646   4.514  10.250   7.298
   28POPC   C2B  647   4.490  10.190   6.856
   28POPC   C3B  648   4.207  10.350   6.558
   28POPC   C4B  649   4.248  10.367   6.137
   29POPC   NC3  650   8.425   1.851   8.083
   29POPC   PO4  651   8.438   2.466   8.353
   29POPC   GL1  652   8.418   2.280   7.828
   29POPC   GL2  653   8.567   1.988   7.639
   29POPC   C1A  654   8.263   2.179   7.314
   29POPC   D2A  655   8.331   2.289   6.844
   29POPC   C3A  656   8.442   2.019   6.480
   29POPC   C4A  657   8.553   2.000   6.037
   29POPC   C1B  658   8.691   1.889   7.254
   29POPC   C2B  659   8.781   2.021   6.863
   29POPC   C3B  660   8.909   1.829   6.486
   29POPC   C4B  661   9.094   2.164   6.288
   30POPC   NC3  662   3.345   4.188   7.992
   30POPC   PO4  663   3.773   3.688   8.145
   30POPC   GL1  664   3.665   3.882   7.664
   30POPC   GL2  665   3.333   4.066   7.488
   30POPC   C1A  666   3.657   3.867   7.169
   30POPC   D2A  667   3.464   4.163   6.850
   30POPC   C3A  668   3.682   4.187   6.442
   30POPC   C4A  669   3.725   3.943   6.068
   30POPC   C1B  670   3.123   4.423   7.270
   30POPC   C2B  671   3.107   4.593   6.816
   30POPC   C3B  672   3.213   4.376   6.432
   30POPC   C4B  673   3.455   4.468   6.060
   31POPC   NC3  674   3.596   1.240   8.353
   31POPC   PO4  675   4.266   1.413   8.157
   31POPC   GL1  676   4.135   1.308   7.771
   31POPC   GL2  677   4.292   0.972   7.755
   31POPC   C1A  678   3.902   1.111   7.428
   31POPC   D2A  679   3.918   0.813   7.072
   31POPC   C3A  680   3.896   0.999   6.652
   31POPC   C4A  681   3.960   1.272   6.294
   31POPC   C1B  682   4.410   1.148   7.345
   31POPC   C2B  683   4.455   0.988   6.933
   31POPC   C3B  684   4.395   1.102   6.535
   31POPC   C4B  685   4.257   0.866   6.237
   32POPC   NC3  686   2.028   9.172   8.164
   32POPC   PO4  687   2.202   8.531   8.174
   32POPC   GL1  688   1.895   8.679   7.826
   32POPC   GL2  689   1.623   8.945   7.883
   32POPC   C1A  690   1.807   8.543   7.382
   32POPC   D2A  691   2.004   8.325   7.027
   32POPC   C3A  692   1.997   8.562   6.657
   32POPC   C4A  693   2.288   8.822   6.414
   32POPC   C1B  694   1.584   9.007   7.437
   32POPC   C2B  695   1.649   8.876   7.002
   32POPC   C3B  696   1.507   8.754   6.595
   32POPC   C4B  697   1.743   8.669   6.226
   33POPC   NC3  698   0.200   5.089   8.128
   33POPC   PO4  699   0.770   5.519   8.144
   33POPC   GL1  700   0.583   5.254   7.761
   33POPC   GL2  701   0.395   4.923   7.696
   33POPC   C1A  702   0.696   5.117   7.315
   33POPC   D2A  703   0.537   5.179   6.891
   33POPC   C3A  704   0.774   5.071   6.508
   33POPC   C4A  705   0.652   5.006   6.076
   33POPC   C1B  706   0.229   4.903   7.283
   33POPC   C2B  707   0.086   4.973   6.859
   33POPC   C3B  708   0.238   4.988   6.410
   33POPC   C4B  709   0.282   4.643   6.086
   34POPC   NC3  710   9.924   4.946   7.976
   34POPC   PO4  711   0.052   4.662   7.985
   34POPC   GL1  712  10.339   4.769   7.681
   34POPC   GL2  713  10.393   5.099   7.712
   34POPC   C1A  714  10.285   4.633   7.284
   34POPC   D2A  715  10.101   4.837   6.950
   34POPC   C3A  716  10.225   4.798   6.530
   34POPC   C4A  717  10.320   4.886   6.109
   34POPC   C1B  718  10.301   5.164   7.295
   34POPC   C2B  719  10.202   5.352   6.920
   34POPC   C3B  720  10.387   5.338   6.553
   34POPC   C4B  721  10.084   5.270   6.317
   35POPC   NC3  722   7.858   0.764   8.100
   35POPC   PO4  723   8.071   0.202   8.002
   35POPC   GL1  724   8.138   0.493   7.635
   35POPC   GL2  725   7.809   0.681   7.576
   35POPC   C1A  726   8.114   0.471   7.154
   35POPC   D2A  727   8.242   0.729   6.803
   35POPC   C3A  728   8.068   0.656   6.384
   35POPC   C4A  729   8.308   0.611   5.999
   35POPC   C1B  730   7.744   0.234   7.399
   35POPC   C2B  731   7.768  10.487   7.004
   35POPC   C3B  732   7.703   0.004   6.568
   35POPC   C4B  733   7.743   0.272   6.182
   36POPC   NC3  734   8.119   5.817   8.614
   36POPC   PO4  735   8.016   5.425   8.089
   36POPC   GL1  736   8.143   5.464   7.675
   36POPC   GL2  737   8.170   5.814   7.669
   36POPC   C1A  738   7.930   5.511   7.263
   36POPC   D2A  739   7.671   5.265   6.961
   36POPC   C3A  740   7.782   5.318   6.529
   36POPC   C4A  741   8.077   5.604   6.382
   36POPC   C1B  742   8.062   5.998   7.308
   36POPC   C2B  743   7.777   5.981   6.979
   36POPC   C3B  744   7.887   6.035   6.566
   36POPC   C4B  745   7.734   5.976   6.149
   37POPC   NC3  746   8.542   0.342   8.171
   37POPC   PO4  747   9.066   0.790   8.033
   37POPC   GL1  748   8.692   0.674   7.751
   37POPC   GL2  749   8.645   0.315   7.689
   37POPC   C1A  750   8.595   0.593   7.286
   37POPC   D2A  751   8.775   0.529   6.873
   37POPC   C3A  752   8.590   0.524   6.462
   37POPC   C4A  753   8.819   0.574   6.083
   37POPC   C1B  754   8.418   0.062   7.416
   37POPC   C2B  755   8.303   0.002   6.985
   37POPC   C3B  756   8.155   0.232   6.665
   37POPC   C4B  757   8.232   0.191   6.251
   38POPC   NC3  758   3.221   7.135   8.129
   38POPC   PO4  759   2.563   6.985   8.161
   38POPC   GL1  760   2.843   7.029   7.760
   38POPC   GL2  761   2.950   7.387   7.759
   38POPC   C1A  762   2.819   6.913   7.286
   38POPC   D2A  763   2.633   6.866   6.864
   38POPC   C3A  764   2.859   6.887   6.471
   38POPC   C4A  765   2.883   7.200   6.137
   38POPC   C1B  766   2.694   7.401   7.360
   38POPC   C2B  767   2.606   7.474   6.922
   38POPC   C3B  768   2.501   7.268   6.542
   38POPC   C4B  769   2.488   7.527   6.203
   39POPC   NC3  770   4.711   8.596   8.065
   39POPC   PO4  771   5.381   8.663   8.129
   39POPC   GL1  772   5.122   8.814   7.789
   39POPC   GL2  773   5.101   8.503   7.626
   39POPC   C1A  774   5.045   8.968   7.341
   39POPC   D2A  775   5.077   8.721   6.923
   39POPC   C3A  776   5.025   8.931   6.534
   39POPC   C4A  777   5.220   9.103   6.181
   39POPC   C1B  778   4.789   8.529   7.278
   39POPC   C2B  779   4.628   8.463   6.877
   39POPC   C3B  780   4.855   8.445   6.537
   39POPC   C4B  781   4.851   8.403   6.144
   40POPC   NC3  782   5.814   1.903   7.909
   40POPC   PO4  783   5.209   1.746   8.148
   40POPC   GL1  784   5.345   2.047   7.784
   40POPC   GL2  785   5.469   1.789   7.563
   40POPC   C1A  786   5.320   2.160   7.293
   40POPC   D2A  787   5.435   1.886   6.931
   40POPC   C3A  788   5.415   2.013   6.493
   40POPC   C4A  789   5.510   1.739   6.168
   40POPC   C1B  790   5.824   2.000   7.248
   40POPC   C2B  791   6.123   2.048   6.850
   40POPC   C3B  792   5.949   1.994   6.400
   40POPC   C4B  793   5.697   2.186   6.053
   41POPC   NC3  794   0.442   2.086   8.071
   41POPC   PO4  795   0.475   1.460   8.070
   41POPC   GL1  796   0.461   1.726   7.672
   41POPC   GL2  797   0.668   2.039   7.604
   41POPC   C1A  798   0.528   1.770   7.205
   41POPC   D2A  799   0.734   2.020   6.955
   41POPC   C3A  800   0.570   2.066   6.574
   41POPC   C4A  801   0.687   1.818   6.233
   41POPC   C1B  802   0.299   2.201   7.356
   41POPC   C2B  803   0.172   2.449   6.978
   41POPC   C3B  804   0.035   2.331   6.567
   41POPC   C4B  805   0.184   2.071   6.239
   42POPC   NC3  806   6.045   1.026   7.957
   42POPC   PO4  807   6.593   0.710   8.118
   42POPC   GL1  808   6.516   0.982   7.769
   42POPC   GL2  809   6.384   1.354   7.766
   42POPC   C1A  810   6.355   0.966   7.357
   42POPC   D2A  811   6.211   1.237   7.042
   42POPC   C3A  812   6.122   1.100   6.612
   42POPC   C4A  813   6.325   1.130   6.208
   42POPC   C1B  814   6.623   1.401   7.391
   42POPC   C2B  815   6.806   1.242   7.042
   42POPC   C3B  816   6.615   1.229   6.674
   42POPC   C4B  817   6.688   1.490   6.324
   43POPC   NC3  818   1.430   1.917   8.118
   43POPC   PO4  819   1.451   2.595   8.217
   43POPC   GL1  820   1.461   2.356   7.781
   43POPC   GL2  821   1.235   2.051   7.677
   43POPC   C1A  822   1.489   2.207   7.289
   43POPC   D2A  823   1.525   1.932   6.859
   43POPC   C3A  824   1.470   2.187   6.464
   43POPC   C4A  825   1.476   2.175   5.994
   43POPC   C1B  826   1.043   1.791   7.368
   43POPC   C2B  827   1.117   1.659   6.975
   43POPC   C3B  828   1.066   1.867   6.589
   43POPC   C4B  829   1.282   1.754   6.239
   44POPC   NC3  830   2.590   3.978   8.088
   44POPC   PO4  831   3.184   3.780   7.860
   44POPC   GL1  832   2.873   3.807   7.603
   44POPC   GL2  833   2.791   4.150   7.608
   44POPC   C1A  834   2.950   3.863   7.189
   44POPC   D2A  835   2.842   4.176   6.928
   44POPC   C3A  836   2.823   4.064   6.541
   44POPC   C4A  837   2.844   4.169   6.117
   44POPC   C1B  838   2.460   4.025   7.258
   44POPC   C2B  839   2.338   4.194   6.814
   44POPC   C3B  840   2.383   4.277   6.344
   44POPC   C4B  841   2.489   4.492   5.945
   45POPC   NC3  842   8.467   7.871   8.151
   45POPC   PO4  843   9.066   8.101   8.304
   45POPC   GL1  844   8.814   7.987   7.807
   45POPC   GL2  845   8.514   8.107   7.700
   45POPC   C1A  846   8.961   7.769   7.386
   45POPC   D2A  847   9.061   7.936   6.971
   45POPC   C3A  848   8.972   7.828   6.545
   45POPC   C4A  849   8.999   7.547   6.174
   45POPC   C1B  850   8.624   8.156   7.267
   45POPC   C2B  851   8.578   8.003   6.862
   45POPC   C3B  852   8.591   8.174   6.474
   45POPC   C4B  853   8.667   7.950   6.132
   46POPC   NC3  854   9.855  10.213   7.976
   46POPC   PO4  855  10.445   0.072   8.135
   46POPC   GL1  856   0.046  10.422   7.760
   46POPC   GL2  857  10.361  10.101   7.788
   46POPC   C1A  858  10.333  10.453   7.386
   46POPC   D2A  859  10.313   0.127   6.961
   46POPC   C3A  860  10.287  10.499   6.545
   46POPC   C4A  861  10.323  10.361   6.112
   46POPC   C1B  862  10.136   9.987   7.397
   46POPC   C2B  863   9.980  10.215   7.046
   46POPC   C3B  864  10.011  10.083   6.623
   46POPC   C4B  865  10.097   9.944   6.233
   47POPC   NC3  866   0.934   4.487   8.108
   47POPC   PO4  867   1.457   4.440   8.498
   47POPC   GL1  868   1.303   4.205   7.926
   47POPC   GL2  869   1.086   3.948   7.761
   47POPC   C1A  870   1.422   4.300   7.420
   47POPC   D2A  871   1.393   4.519   6.960
   47POPC   C3A  872   1.405   4.235   6.564
   47POPC   C4A  873   1.519   4.227   6.099
   47POPC   C1B  874   0.936   4.167   7.382
   47POPC   C2B  875   0.916   4.310   6.971
   47POPC   C3B  876   0.885   4.137   6.564
   47POPC   C4B  877   1.062   4.028   6.178
   48POPC   NC3  878   2.159   0.372   8.064
   48POPC   PO4  879   1.469   0.399   8.106
   48POPC   GL1  880   1.754   0.335   7.748
   48POPC   GL2  881   1.669   0.685   7.665
   48POPC   C1A  882   2.061   0.147   7.420
   48POPC   D2A  883   2.059  10.454   6.995
   48POPC   C3A  884   2.269   0.094   6.633
   48POPC   C4A  885   2.161  10.495   6.202
   48POPC   C1B  886   2.068   0.656   7.412
   48POPC   C2B  887   2.230   0.462   7.034
   48POPC   C3B  888   1.917   0.433   6.725
   48POPC   C4B  889   1.883   0.409   6.295
   49POPC   NC3  890   6.928   0.406   8.010
   49POPC   PO4  891   7.425   0.903   8.006
   49POPC   GL1  892   7.280   0.754   7.646
   49POPC   GL2  893   7.330   0.392   7.664
   49POPC   C1A  894   7.396   0.664   7.220
   49POPC   D2A  895   7.344   0.324   6.915
   49POPC   C3A  896   7.559   0.499   6.590
   49POPC   C4A  897   7.577   0.780   6.237
   49POPC   C1B  898   7.016   0.341   7.337
   49POPC   C2B  899   6.842   0.160   6.956
   49POPC   C3B  900   6.900   0.351   6.571
   49POPC   C4B  901   7.210   0.370   6.225
   50POPC   NC3  902   6.959   2.862   8.209
   50POPC   PO4  903   7.660   3.049   8.145
   50POPC   GL1  904   7.408   2.882   7.800
   50POPC   GL2  905   7.303   2.507   7.849
   50POPC   C1A  906   7.476   2.682   7.393
   50POPC   D2A  907   7.190   2.619   7.021
   50POPC   C3A  908   7.165   2.757   6.609
   50POPC   C4A  909   6.909   2.957   6.281
   50POPC   C1B  910   7.185   2.259   7.441
   50POPC   C2B  911   7.323   2.135   7.006
   50POPC   C3B  912   7.474   2.354   6.609
   50POPC   C4B  913   7.311   2.541   6.197
   51POPC   NC3  914   7.097  10.007   8.414
   51POPC   PO4  915   7.369   9.830   7.826
   51POPC   GL1  916   7.171  10.044   7.512
   51POPC   GL2  917   7.106  10.392   7.669
   51POPC   C1A  918   7.065   9.810   7.176
   51POPC   D2A  919   7.219   9.673   6.816
   51POPC   C3A  920   7.074   9.947   6.560
   51POPC   C4A  921   6.931  10.066   6.193
   51POPC   C1B  922   7.330  10.454   7.295
   51POPC   C2B  923   7.179  10.290   6.943
   51POPC   C3B  924   7.193  10.441   6.536
   51POPC   C4B  925   7.406  10.250   6.223
   52POPC   NC3  926  10.258   1.279   8.165
   52POPC   PO4  927   9.826   0.751   8.251
   52POPC   GL1  928  10.038   0.903   7.870
   52POPC   GL2  929  10.047   1.263   7.713
   52POPC   C1A  930  10.090   0.846   7.417
   52POPC   D2A  931  10.203   0.993   6.965
   52POPC   C3A  932   9.955   1.027   6.609
   52POPC   C4A  933  10.096   0.902   6.235
   52POPC   C1B  934  10.215   1.379   7.314
   52POPC   C2B  935  10.168   1.485   6.875
   52POPC   C3B  936  10.390   1.269   6.546
   52POPC   C4B  937   0.005   1.217   6.140
   53POPC   NC3  938   8.473   7.110   7.927
   53POPC   PO4  939   8.923   7.592   8.082
   53POPC   GL1  940   8.606   7.546   7.703
   53POPC   GL2  941   8.742   7.251   7.528
   53POPC   C1A  942   8.506   7.596   7.242
   53POPC   D2A  943   8.759   7.502   6.891
   53POPC   C3A  944   8.533   7.596   6.503
   53POPC   C4A  945   8.504   7.438   6.082
   53POPC   C1B  946   8.417   7.082   7.246
   53POPC   C2B  947   8.314   7.245   6.841
   53POPC   C3B  948   8.445   7.084   6.482
   53POPC   C4B  949   8.707   6.979   6.188
   54POPC   NC3  950   8.830   4.065   8.076
   54POPC   PO4  951   8.497   4.590   8.071
   54POPC   GL1  952   8.516   4.282   7.685
   54POPC   GL2  953   8.796   4.161   7.587
   54POPC   C1A  954   8.414   3.949   7.353
   54POPC   D2A  955   8.400   3.803   6.942
   54POPC   C3A  956   8.489   4.084   6.657
   54POPC   C4A  957   8.512   3.770   6.365
   54POPC   C1B  958   8.927   4.434   7.300
   54POPC   C2B  959   8.783   4.509   6.891
   54POPC   C3B  960   8.897   4.426   6.498
   54POPC   C4B  961   8.707   4.201   6.202
   55POPC   NC3  962   9.278   7.288   8.199
   55POPC   PO4  963   9.072   6.672   8.338
   55POPC   GL1  964   9.304   6.866   7.854
   55POPC   GL2  965   9.469   7.193   7.735
   55POPC   C1A  966   9.163   7.044   7.368
   55POPC   D2A  967   8.934   6.991   6.955
   55POPC   C3A  968   9.017   7.197   6.546
   55POPC   C4A  969   9.209   7.087   6.122
   55POPC   C1B  970   9.670   7.029   7.367
   55POPC   C2B  971   9.493   7.003   6.969
   55POPC   C3B  972   9.518   7.083   6.559
   55POPC   C4B  973   9.806   6.999   6.273
   56POPC   NC3  974  10.119   7.647   8.094
   56POPC   PO4  975   0.025   8.121   8.194
   56POPC   GL1  976  10.466   8.010   7.757
   56POPC   GL2  977  10.157   7.934   7.691
   56POPC   C1A  978  10.431   7.785   7.326
   56POPC   D2A  979   0.024   7.912   6.939
   56POPC   C3A  980  10.294   7.743   6.657
   56POPC   C4A  981  10.357   7.790   6.267
   56POPC   C1B  982   9.956   7.944   7.299
   56POPC   C2B  983  10.011   8.096   6.912
   56POPC   C3B  984   9.871   7.954   6.495
   56POPC   C4B  985   9.797   7.870   6.099
   57POPC   NC3  986   1.650   3.001   8.361
   57POPC   PO4  987   0.941   3.097   8.109
   57POPC   GL1  988   0.961   3.358   7.736
   57POPC   GL2  989   1.311   3.469   7.706
   57POPC   C1A  990   1.029   3.287   7.312
   57POPC   D2A  991   1.277   3.239   6.963
   57POPC   C3A  992   1.038   3.281   6.606
   57POPC   C4A  993   1.159   3.378   6.195
   57POPC   C1B  994   1.259   3.756   7.331
   57POPC   C2B  995   1.081   3.812   6.937
   57POPC   C3B  996   1.250   3.740   6.544
   57POPC   C4B  997   1.559   3.726   6.202
   58POPC   NC3  998  10.215   3.631   8.051
   58POPC   PO4  999   9.871   3.066   8.167
   58POPC   GL1 1000   9.994   3.097   7.720
   58POPC   GL2 1001  10.175   3.394   7.559
   58POPC   C1A 1002  10.027   2.959   7.289
   58POPC   D2A 1003   9.829   3.083   6.890
   58POPC   C3A 1004  10.082   3.128   6.539
   58POPC   C4A 1005   9.977   3.235   6.128
   58POPC   C1B 1006  10.081   3.647   7.203
   58POPC   C2B 1007  10.205   3.546   6.806
   58POPC   C3B 1008  10.210   3.633   6.362
   58POPC   C4B 1009  10.024   3.707   5.967
   59POPC   NC3 1010   7.097   7.792   8.407
   59POPC   PO4 1011   7.226   7.916   7.877
   59POPC   GL1 1012   7.120   8.007   7.551
   59POPC   GL2 1013   6.995   8.347   7.542
   59POPC   C1A 1014   7.142   7.767   7.225
   59POPC   D2A 1015   7.345   7.613   6.883
   59POPC   C3A 1016   7.178   7.684   6.458
   59POPC   C4A 1017   7.312   7.671   5.987
   59POPC   C1B 1018   7.304   8.301   7.211
   59POPC   C2B 1019   7.130   8.123   6.865
   59POPC   C3B 1020   7.198   8.186   6.492
   59POPC   C4B 1021   7.026   8.049   6.126
   60POPC   NC3 1022   2.702   6.549   8.111
   60POPC   PO4 1023   3.084   6.009   8.013
   60POPC   GL1 1024   2.821   6.224   7.665
   60POPC   GL2 1025   2.673   6.549   7.617
   60POPC   C1A 1026   2.918   6.374   7.210
   60POPC   D2A 1027   3.165   6.253   6.820
   60POPC   C3A 1028   3.031   6.386   6.402
   60POPC   C4A 1029   3.049   6.142   5.985
   60POPC   C1B 1030   2.362   6.324   7.357
   60POPC   C2B 1031   2.235   6.222   6.937
   60POPC   C3B 1032   2.430   6.405   6.541
   60POPC   C4B 1033   2.587   6.361   6.108
   61POPC   NC3 1034   8.141   4.284   8.016
   61POPC   PO4 1035   7.745   3.787   8.233
   61POPC   GL1 1036   7.742   3.849   7.792
   61POPC   GL2 1037   7.749   4.146   7.665
   61POPC   C1A 1038   7.729   3.748   7.331
   61POPC   D2A 1039   7.674   3.935   6.902
   61POPC   C3A 1040   7.997   3.911   6.566
   61POPC   C4A 1041   8.179   4.112   6.221
   61POPC   C1B 1042   7.986   4.217   7.276
   61POPC   C2B 1043   8.021   4.335   6.830
   61POPC   C3B 1044   7.829   4.418   6.413
   61POPC   C4B 1045   7.501   4.470   6.098
   62POPC   NC3 1046   0.150   0.425   7.927
   62POPC   PO4 1047   0.626   0.022   8.026
   62POPC   GL1 1048   0.558   0.188   7.633
   62POPC   GL2 1049   0.651   0.531   7.784
   62POPC   C1A 1050   0.311   0.092   7.221
   62POPC   D2A 1051   0.263   0.155   6.730
   62POPC   C3A 1052   0.281  10.438   6.323
   62POPC   C4A 1053   0.596   0.042   6.008
   62POPC   C1B 1054   0.469   0.631   7.387
   62POPC   C2B 1055   0.554   0.493   6.996
   62POPC   C3B 1056   0.546   0.627   6.609
   62POPC   C4B 1057   0.395   0.419   6.285
   63POPC   NC3 1058   0.153   4.462   8.394
   63POPC   PO4 1059   0.392   3.931   8.049
   63POPC   GL1 1060   0.584   4.079   7.720
   63POPC   GL2 1061   0.574   4.424   7.765
   63POPC   C1A 1062   0.427   4.112   7.287
   63POPC   D2A 1063   0.527   3.977   6.906
   63POPC   C3A 1064   0.376   4.119   6.516
   63POPC   C4A 1065   0.557   3.995   6.142
   63POPC   C1B 1066   0.624   4.584   7.359
   63POPC   C2B 1067   0.443   4.537   6.955
   63POPC   C3B 1068   0.554   4.602   6.540
   63POPC   C4B 1069   0.745   4.451   6.168
   64POPC   NC3 1070   4.052   0.677   8.183
   64POPC   PO4 1071   4.034  10.498   8.201
   64POPC   GL1 1072   3.953   0.260   7.828
   64POPC   GL2 1073   4.275   0.433   7.774
   64POPC   C1A 1074   3.915   0.173   7.367
   64POPC   D2A 1075   3.725   0.321   6.984
   64POPC   C3A 1076   3.824   0.237   6.545
   64POPC   C4A 1077   3.823   0.609   6.308
   64POPC   C1B 1078   4.396   0.258   7.372
   64POPC   C2B 1079   4.237   0.192   6.962
   64POPC   C3B 1080   4.191   0.551   6.688
   64POPC   C4B 1081   4.304   0.360   6.308
   65POPC   NC3 1082   5.052   9.515   8.256
   65POPC   PO4 1083   4.695   9.062   8.092
   65POPC   GL1 1084   5.043   9.324   7.783
   65POPC   GL2 1085   5.111   9.705   7.766
   65POPC   C1A 1086   5.222   9.463   7.347
   65POPC   D2A 1087   4.960   9.400   6.990
   65POPC   C3A 1088   5.171   9.421   6.606
   65POPC   C4A 1089   5.064   9.617   6.252
   65POPC   C1B 1090   4.747   9.602   7.460
   65POPC   C2B 1091   4.521   9.707   7.077
   65POPC   C3B 1092   4.630   9.635   6.629
   65POPC   C4B 1093   4.709   9.283   6.352
   66POPC   NC3 1094   2.731   4.960   8.156
   66POPC   PO4 1095   2.950   4.400   8.093
   66POPC   GL1 1096   2.816   4.671   7.739
   66POPC   GL2 1097   2.448   4.739   7.776
   66POPC   C1A 1098   2.725   4.988   7.397
   66POPC   D2A 1099   2.773   5.321   7.094
   66POPC   C3A 1100   2.874   5.092   6.724
   66POPC   C4A 1101   2.892   5.177   6.300
   66POPC   C1B 1102   2.517   4.516   7.368
   66POPC   C2B 1103   2.603   4.653   6.963
   66POPC   C3B 1104   2.585   4.722   6.521
   66POPC   C4B 1105   2.878   4.673   6.203
   67POPC   NC3 1106   8.862   8.431   8.040
   67POPC   PO4 1107   9.043   9.069   8.053
   67POPC   GL1 1108   9.002   8.775   7.701
   67POPC   GL2 1109   8.727   8.567   7.586
   67POPC   C1A 1110   9.112   8.791   7.289
   67POPC   D2A 1111   9.095   8.439   7.039
   67POPC   C3A 1112   9.125   8.563   6.619
   67POPC   C4A 1113   9.005   8.372   6.239
   67POPC   C1B 1114   8.578   8.702   7.228
   67POPC   C2B 1115   8.618   8.556   6.825
   67POPC   C3B 1116   8.637   8.685   6.395
   67POPC   C4B 1117   8.498   8.428   6.020
   68POPC   NC3 1118   5.302   0.386   7.790
   68POPC   PO4 1119   4.911   0.019   8.153
   68POPC   GL1 1120   4.744   0.189   7.775
   68POPC   GL2 1121   4.794   0.562   7.754
   68POPC   C1A 1122   4.877   0.214   7.338
   68POPC   D2A 1123   5.130   0.450   7.081
   68POPC   C3A 1124   5.101   0.409   6.645
   68POPC   C4A 1125   5.044   0.370   6.226
   68POPC   C1B 1126   4.679   0.692   7.334
   68POPC   C2B 1127   4.651   0.496   6.926
   68POPC   C3B 1128   4.665   0.654   6.519
   68POPC   C4B 1129   4.696   0.692   6.090
   69POPC   NC3 1130   9.242   5.493   7.910
   69POPC   PO4 1131   9.728   5.930   8.199
   69POPC   GL1 1132   9.687   5.760   7.803
   69POPC   GL2 1133   9.388   5.883   7.616
   69POPC   C1A 1134   9.833   5.859   7.400
   69POPC   D2A 1135   9.565   6.077   7.117
   69POPC   C3A 1136   9.622   5.994   6.680
   69POPC   C4A 1137   9.418   5.914   6.302
   69POPC   C1B 1138   9.418   5.576   7.259
   69POPC   C2B 1139   9.212   5.345   6.926
   69POPC   C3B 1140   9.151   5.480   6.531
   69POPC   C4B 1141   9.189   5.340   6.133
   70POPC   NC3 1142   4.284   2.766   7.874
   70POPC   PO4 1143   3.850   2.318   8.073
   70POPC   GL1 1144   3.936   2.483   7.619
   70POPC   GL2 1145   3.844   2.830   7.563
   70POPC   C1A 1146   4.289   2.482   7.262
   70POPC   D2A 1147   4.453   2.724   6.871
   70POPC   C3A 1148   4.254   2.772   6.471
   70POPC   C4A 1149   4.108   2.557   6.114
   70POPC   C1B 1150   3.838   2.685   7.151
   70POPC   C2B 1151   3.817   2.677   6.717
   70POPC   C3B 1152   3.750   2.881   6.355
   70POPC   C4B 1153   3.696   2.756   5.917
   71POPC   NC3 1154   7.031   7.001   8.433
   71POPC   PO4 1155   7.494   6.813   8.042
   71POPC   GL1 1156   7.566   6.691   7.665
   71POPC   GL2 1157   7.428   6.366   7.662
   71POPC   C1A 1158   7.423   6.829   7.268
   71POPC   D2A 1159   7.141   6.818   6.947
   71POPC   C3A 1160   7.260   6.812   6.536
   71POPC   C4A 1161   7.112   6.538   6.219
   71POPC   C1B 1162   7.240   6.357   7.206
   71POPC   C2B 1163   7.149   6.345   6.745
   71POPC   C3B 1164   7.002   6.090   6.437
   71POPC   C4B 1165   7.203   6.011   6.055
   72POPC   NC3 1166   1.135   5.801   8.184
   72POPC   PO4 1167   1.610   6.228   8.067
   72POPC   GL1 1168   1.530   5.878   7.772
   72POPC   GL2 1169   1.270   5.582   7.748
   72POPC   C1A 1170   1.582   5.697   7.363
   72POPC   D2A 1171   1.391   5.669   6.984
   72POPC   C3A 1172   1.470   5.943   6.611
   72POPC   C4A 1173   1.355   5.791   6.209
   72POPC   C1B 1174   0.993   5.569   7.370
   72POPC   C2B 1175   1.017   5.337   6.966
   72POPC   C3B 1176   1.111   5.519   6.570
   72POPC   C4B 1177   0.946   5.430   6.168
   73POPC   NC3 1178   3.627  10.272   8.147
   73POPC   PO4 1179   3.111   9.887   7.927
   73POPC   GL1 1180   3.413  10.073   7.651
   73POPC   GL2 1181   3.643  10.361   7.655
   73POPC   C1A 1182   3.511   9.937   7.242
   73POPC   D2A 1183   3.462   9.698   6.869
   73POPC   C3A 1184   3.298   9.967   6.550
   73POPC   C4A 1185   2.952   9.986   6.259
   73POPC   C1B 1186   3.488  10.443   7.255
   73POPC   C2B 1187   3.601  10.348   6.830
   73POPC   C3B 1188   3.696  10.272   6.396
   73POPC   C4B 1189   3.734   9.899   6.209
   74POPC   NC3 1190   0.171   8.458   7.896
   74POPC   PO4 1191   0.834   8.707   8.140
   74POPC   GL1 1192   0.669   8.664   7.718
   74POPC   GL2 1193   0.379   8.842   7.633
   74POPC   C1A 1194   0.698   8.515   7.299
   74POPC   D2A 1195   0.645   8.769   6.944
   74POPC   C3A 1196   0.753   8.590   6.587
   74POPC   C4A 1197   0.640   8.597   6.198
   74POPC   C1B 1198   0.209   8.688   7.261
   74POPC   C2B 1199   0.156   8.835   6.859
   74POPC   C3B 1200   0.229   8.593   6.519
   74POPC   C4B 1201   0.064   8.541   6.142
   75POPC   NC3 1202   1.251   6.541   8.102
   75POPC   PO4 1203   0.856   7.086   8.138
   75POPC   GL1 1204   1.158   6.947   7.757
   75POPC   GL2 1205   1.054   6.626   7.643
   75POPC   C1A 1206   1.386   6.758   7.309
   75POPC   D2A 1207   1.209   6.538   6.934
   75POPC   C3A 1208   1.417   6.550   6.504
   75POPC   C4A 1209   1.322   6.502   6.049
   75POPC   C1B 1210   1.112   6.215   7.435
   75POPC   C2B 1211   1.027   6.041   7.020
   75POPC   C3B 1212   1.008   6.177   6.579
   75POPC   C4B 1213   0.989   6.139   6.137
   76POPC   NC3 1214   0.111   4.235   7.827
   76POPC   PO4 1215  10.082   4.508   8.157
   76POPC   GL1 1216  10.111   4.298   7.735
   76POPC   GL2 1217  10.143   3.936   7.650
   76POPC   C1A 1218   9.934   4.258   7.319
   76POPC   D2A 1219  10.117   4.305   6.915
   76POPC   C3A 1220   9.897   4.395   6.568
   76POPC   C4A 1221  10.057   4.448   6.169
   76POPC   C1B 1222  10.398   4.040   7.269
   76POPC   C2B 1223   0.005   3.962   6.841
   76POPC   C3B 1224  10.358   4.118   6.438
   76POPC   C4B 1225  10.437   4.008   6.001
   77POPC   NC3 1226   1.949   5.891   8.100
   77POPC   PO4 1227   1.509   5.421   8.185
   77POPC   GL1 1228   1.766   5.419   7.774
   77POPC   GL2 1229   2.045   5.634   7.686
   77POPC   C1A 1230   1.841   5.267   7.352
   77POPC   D2A 1231   1.917   5.354   6.926
   77POPC   C3A 1232   1.638   5.435   6.600
   77POPC   C4A 1233   1.842   5.402   6.206
   77POPC   C1B 1234   2.069   5.888   7.323
   77POPC   C2B 1235   1.855   5.880   6.935
   77POPC   C3B 1236   1.988   5.796   6.520
   77POPC   C4B 1237   2.249   5.993   6.249
   78POPC   NC3 1238   8.488   3.348   7.958
   78POPC   PO4 1239   9.132   3.116   8.042
   78POPC   GL1 1240   8.898   3.312   7.691
   78POPC   GL2 1241   8.905   3.671   7.749
   78POPC   C1A 1242   8.689   3.498   7.307
   78POPC   D2A 1243   8.528   3.290   6.930
   78POPC   C3A 1244   8.728   3.333   6.514
   78POPC   C4A 1245   8.474   3.278   6.151
   78POPC   C1B 1246   9.101   3.826   7.363
   78POPC   C2B 1247   8.892   3.966   6.990
   78POPC   C3B 1248   8.976   3.916   6.546
   78POPC   C4B 1249   8.946   3.674   6.150
   79POPC   NC3 1250   9.847   4.235   8.473
   79POPC   PO4 1251   9.231   4.357   8.122
   79POPC   GL1 1252   9.267   4.171   7.737
   79POPC   GL2 1253   9.452   3.960   7.763
   79POPC   C1A 1254   9.417   4.311   7.334
   79POPC   D2A 1255   9.254   4.307   6.905
   79POPC   C3A 1256   9.403   4.480   6.521
   79POPC   C4A 1257   9.242   4.231   6.160
   79POPC   C1B 1258   9.629   3.844   7.376
   79POPC   C2B 1259   9.677   4.007   6.955
   79POPC   C3B 1260   9.493   3.974   6.559
   79POPC   C4B 1261   9.740   4.049   6.212
   80POPC   NC3 1262   6.267   6.705   7.730
   80POPC   PO4 1263   6.657   7.129   8.120
   80POPC   GL1 1264   6.657   7.162   7.675
   80POPC   GL2 1265   6.357   7.321   7.623
   80POPC   C1A 1266   6.721   6.917   7.268
   80POPC   D2A 1267   6.661   6.918   6.806
   80POPC   C3A 1268   6.670   6.587   6.494
   80POPC   C4A 1269   6.333   6.645   6.164
   80POPC   C1B 1270   6.585   7.415   7.235
   80POPC   C2B 1271   6.428   7.366   6.841
   80POPC   C3B 1272   6.311   7.159   6.470
   80POPC   C4B 1273   6.055   7.377   6.184
   81POPC   NC3 1274   0.605   1.098   8.321
   81POPC   PO4 1275  10.485   0.788   8.158
   81POPC   GL1 1276   0.028   0.941   7.735
   81POPC   GL2 1277   0.076   1.305   7.742
   81POPC   C1A 1278   0.076   0.934   7.287
   81POPC   D2A 1279   0.422   0.995   6.988
   81POPC   C3A 1280   0.394   1.100   6.557
   81POPC   C4A 1281   0.406   0.889   6.156
   81POPC   C1B 1282   0.287   1.365   7.353
   81POPC   C2B 1283   0.195   1.476   6.915
   81POPC   C3B 1284   0.304   1.575   6.452
   81POPC   C4B 1285   0.552   1.346   6.124
   82POPC   NC3 1286   9.239   6.290   8.153
   82POPC   PO4 1287   8.816   6.813   7.868
   82POPC   GL1 1288   9.028   6.408   7.700
   82POPC   GL2 1289   9.397   6.388   7.671
   82POPC   C1A 1290   9.063   6.189   7.298
   82POPC   D2A 1291   8.851   6.272   6.886
   82POPC   C3A 1292   9.126   6.296   6.523
   82POPC   C4A 1293   9.181   6.699   6.421
   82POPC   C1B 1294   9.365   6.590   7.276
   82POPC   C2B 1295   9.450   6.509   6.845
   82POPC   C3B 1296   9.642   6.448   6.439
   82POPC   C4B 1297   9.988   6.182   6.321
   83POPC   NC3 1298   9.484   0.595   7.952
   83POPC   PO4 1299   8.996   0.296   8.291
   83POPC   GL1 1300   9.140   0.260   7.789
   83POPC   GL2 1301   9.488   0.269   7.575
   83POPC   C1A 1302   9.083   0.444   7.340
   83POPC   D2A 1303   9.282   0.322   6.927
   83POPC   C3A 1304   9.165   0.458   6.518
   83POPC   C4A 1305   9.028   0.853   6.449
   83POPC   C1B 1306   9.580   0.618   7.264
   83POPC   C2B 1307   9.612   0.703   6.805
   83POPC   C3B 1308   9.653   0.653   6.378
   83POPC   C4B 1309   9.511   0.304   6.143
   84POPC   NC3 1310   7.107   6.975   7.840
   84POPC   PO4 1311   7.361   7.332   8.395
   84POPC   GL1 1312   7.370   7.389   7.872
   84POPC   GL2 1313   7.100   7.445   7.626
   84POPC   C1A 1314   7.531   7.367   7.382
   84POPC   D2A 1315   7.612   7.168   6.946
   84POPC   C3A 1316   7.558   7.330   6.525
   84POPC   C4A 1317   7.275   7.226   6.241
   84POPC   C1B 1318   7.076   7.270   7.168
   84POPC   C2B 1319   7.009   7.265   6.696
   84POPC   C3B 1320   6.815   7.040   6.319
   84POPC   C4B 1321   6.774   6.770   5.922
   85POPC   NC3 1322   7.813   1.727   8.170
   85POPC   PO4 1323   8.084   2.143   8.163
   85POPC   GL1 1324   8.047   1.901   7.708
   85POPC   GL2 1325   7.734   1.706   7.639
   85POPC   C1A 1326   8.033   1.726   7.238
   85POPC   D2A 1327   8.191   1.767   6.832
   85POPC   C3A 1328   7.999   1.618   6.430
   85POPC   C4A 1329   8.119   1.575   5.949
   85POPC   C1B 1330   7.706   2.092   7.337
   85POPC   C2B 1331   7.841   2.168   6.944
   85POPC   C3B 1332   7.923   2.115   6.538
   85POPC   C4B 1333   8.053   2.040   6.155
   86POPC   NC3 1334   7.201   9.213   8.268
   86POPC   PO4 1335   7.512   9.824   8.340
   86POPC   GL1 1336   7.462   9.352   7.887
   86POPC   GL2 1337   7.125   9.367   7.777
   86POPC   C1A 1338   7.425   9.129   7.433
   86POPC   D2A 1339   7.320   8.936   7.010
   86POPC   C3A 1340   7.343   9.170   6.623
   86POPC   C4A 1341   7.470   9.049   6.187
   86POPC   C1B 1342   6.921   9.339   7.366
   86POPC   C2B 1343   6.903   9.265   6.919
   86POPC   C3B 1344   6.922   9.443   6.487
   86POPC   C4B 1345   7.335   9.589   6.307
   87POPC   NC3 1346   6.975   1.069   8.142
   87POPC   PO4 1347   7.421   1.507   8.135
   87POPC   GL1 1348   7.268   1.307   7.732
   87POPC   GL2 1349   6.962   1.194   7.671
   87POPC   C1A 1350   7.277   1.182   7.297
   87POPC   D2A 1351   7.300   1.111   6.887
   87POPC   C3A 1352   7.128   1.373   6.572
   87POPC   C4A 1353   7.171   1.354   6.123
   87POPC   C1B 1354   6.862   0.849   7.377
   87POPC   C2B 1355   6.947   0.701   6.950
   87POPC   C3B 1356   7.120   0.803   6.528
   87POPC   C4B 1357   6.848   1.013   6.284
   88POPC   NC3 1358   2.527   0.931   8.135
   88POPC   PO4 1359   3.189   1.029   8.191
   88POPC   GL1 1360   3.123   1.267   7.772
   88POPC   GL2 1361   2.788   1.160   7.727
   88POPC   C1A 1362   3.055   1.359   7.311
   88POPC   D2A 1363   3.019   1.112   6.958
   88POPC   C3A 1364   2.858   1.249   6.571
   88POPC   C4A 1365   3.007   1.085   6.224
   88POPC   C1B 1366   2.592   1.095   7.313
   88POPC   C2B 1367   2.502   1.297   6.925
   88POPC   C3B 1368   2.325   1.169   6.536
   88POPC   C4B 1369   2.449   1.045   6.127
   89POPC   NC3 1370   0.533   9.064   8.069
   89POPC   PO4 1371   0.415   9.734   8.003
   89POPC   GL1 1372   0.632   9.407   7.705
   89POPC   GL2 1373   0.335   9.344   7.613
   89POPC   C1A 1374   0.662   9.163   7.278
   89POPC   D2A 1375   0.431   9.274   6.868
   89POPC   C3A 1376   0.492   9.035   6.482
   89POPC   C4A 1377   0.513   9.041   5.999
   89POPC   C1B 1378   0.470   9.659   7.318
   89POPC   C2B 1379   0.342   9.781   6.947
   89POPC   C3B 1380   0.476   9.767   6.558
   89POPC   C4B 1381   0.330   9.471   6.256
   90POPC   NC3 1382   5.633   9.032   8.070
   90POPC   PO4 1383   5.471   9.691   8.140
   90POPC   GL1 1384   5.584   9.436   7.751
   90POPC   GL2 1385   5.946   9.286   7.740
   90POPC   C1A 1386   5.633   9.155   7.363
   90POPC   D2A 1387   5.391   9.110   6.967
   90POPC   C3A 1388   5.591   9.101   6.563
   90POPC   C4A 1389   5.740   9.341   6.219
   90POPC   C1B 1390   5.895   9.608   7.392
   90POPC   C2B 1391   5.637   9.561   7.032
   90POPC   C3B 1392   5.661   9.637   6.634
   90POPC   C4B 1393   6.023   9.764   6.349
   91POPC   NC3 1394   3.771   2.784   8.210
   91POPC   PO4 1395   3.124   2.937   8.259
   91POPC   GL1 1396   3.408   2.947   7.855
   91POPC   GL2 1397   3.473   2.593   7.826
   91POPC   C1A 1398   3.301   2.984   7.399
   91POPC   D2A 1399   3.083   2.818   7.028
   91POPC   C3A 1400   3.174   2.909   6.569
   91POPC   C4A 1401   3.325   3.080   6.186
   91POPC   C1B 1402   3.406   2.482   7.408
   91POPC   C2B 1403   3.422   2.457   6.966
   91POPC   C3B 1404   3.416   2.454   6.524
   91POPC   C4B 1405   3.263   2.568   6.134
   92POPC   NC3 1406   1.870   8.186   8.126
   92POPC   PO4 1407   1.738   7.544   8.248
   92POPC   GL1 1408   1.715   7.784   7.821
   92POPC   GL2 1409   1.734   8.109   7.641
   92POPC   C1A 1410   1.699   7.625   7.379
   92POPC   D2A 1411   1.694   7.892   7.004
   92POPC   C3A 1412   1.660   7.776   6.556
   92POPC   C4A 1413   1.686   8.166   6.287
   92POPC   C1B 1414   2.073   7.952   7.373
   92POPC   C2B 1415   2.176   7.766   6.965
   92POPC   C3B 1416   2.104   8.023   6.614
   92POPC   C4B 1417   2.077   7.828   6.234
   93POPC   NC3 1418   7.702   7.747   7.919
   93POPC   PO4 1419   8.125   8.185   8.194
   93POPC   GL1 1420   8.010   8.093   7.753
   93POPC   GL2 1421   7.662   8.184   7.638
   93POPC   C1A 1422   8.132   7.907   7.363
   93POPC   D2A 1423   8.102   8.111   6.965
   93POPC   C3A 1424   8.140   7.971   6.559
   93POPC   C4A 1425   8.082   8.173   6.178
   93POPC   C1B 1426   7.632   7.895   7.279
   93POPC   C2B 1427   7.621   8.028   6.874
   93POPC   C3B 1428   7.642   7.873   6.490
   93POPC   C4B 1429   7.561   8.103   6.165
   94POPC   NC3 1430   0.573   7.414   7.960
   94POPC   PO4 1431   0.210   6.888   7.783
   94POPC   GL1 1432   0.636   6.943   7.674
   94POPC   GL2 1433   0.535   7.245   7.494
   94POPC   C1A 1434   0.833   6.937   7.259
   94POPC   D2A 1435   0.492   7.134   7.001
   94POPC   C3A 1436   0.510   7.037   6.602
   94POPC   C4A 1437   0.724   7.171   6.256
   94POPC   C1B 1438   0.080   7.256   7.315
   94POPC   C2B 1439  10.416   7.391   6.999
   94POPC   C3B 1440   0.214   7.469   6.683
   94POPC   C4B 1441   0.211   7.308   6.279
   95POPC   NC3 1442   2.168   7.394   8.151
   95POPC   PO4 1443   1.581   6.892   8.092
   95POPC   GL1 1444   1.649   7.063   7.674
   95POPC   GL2 1445   1.849   7.310   7.753
   95POPC   C1A 1446   1.739   7.143   7.220
   95POPC   D2A 1447   1.667   6.895   6.866
   95POPC   C3A 1448   1.604   7.060   6.484
   95POPC   C4A 1449   1.692   6.829   6.134
   95POPC   C1B 1450   2.178   7.437   7.453
   95POPC   C2B 1451   2.233   7.196   7.088
   95POPC   C3B 1452   2.008   7.289   6.723
   95POPC   C4B 1453   2.028   7.295   6.273
   96POPC   NC3 1454   4.232   3.483   8.081
   96POPC   PO4 1455   4.632   3.936   7.815
   96POPC   GL1 1456   4.298   3.631   7.603
   96POPC   GL2 1457   4.344   3.252   7.631
   96POPC   C1A 1458   4.175   3.522   7.179
   96POPC   D2A 1459   4.484   3.408   6.863
   96POPC   C3A 1460   4.515   3.717   6.529
   96POPC   C4A 1461   4.155   3.722   6.268
   96POPC   C1B 1462   4.244   3.012   7.262
   96POPC   C2B 1463   4.066   3.087   6.865
   96POPC   C3B 1464   4.129   3.270   6.488
   96POPC   C4B 1465   4.470   3.339   6.183
   97POPC   NC3 1466   5.070   2.885   8.179
   97POPC   PO4 1467   4.503   3.074   8.128
   97POPC   GL1 1468   4.755   2.930   7.727
   97POPC   GL2 1469   5.106   2.795   7.665
   97POPC   C1A 1470   4.756   2.871   7.250
   97POPC   D2A 1471   4.961   2.787   6.799
   97POPC   C3A 1472   4.757   2.723   6.398
   97POPC   C4A 1473   4.528   2.829   6.024
   97POPC   C1B 1474   5.222   2.650   7.228
   97POPC   C2B 1475   5.211   2.358   6.835
   97POPC   C3B 1476   5.253   2.528   6.401
   97POPC   C4B 1477   5.227   2.978   6.318
   98POPC   NC3 1478   1.916   6.572   8.089
   98POPC   PO4 1479   2.337   6.141   8.010
   98POPC   GL1 1480   1.941   6.228   7.685
   98POPC   GL2 1481   1.646   6.534   7.671
   98POPC   C1A 1482   1.656   6.198   7.307
   98POPC   D2A 1483   1.704   6.397   6.924
   98POPC   C3A 1484   1.906   6.312   6.554
   98POPC   C4A 1485   1.709   6.217   6.195
   98POPC   C1B 1486   1.926   6.662   7.318
   98POPC   C2B 1487   2.138   6.720   6.906
   98POPC   C3B 1488   2.090   6.811   6.473
   98POPC   C4B 1489   2.107   6.532   6.104
   99POPC   NC3 1490   1.303   2.883   7.892
   99POPC   PO4 1491   0.907   2.222   8.016
   99POPC   GL1 1492   0.990   2.502   7.674
   99POPC   GL2 1493   0.872   2.845   7.649
   99POPC   C1A 1494   0.978   2.309   7.282
   99POPC   D2A 1495   1.181   2.306   6.885
   99POPC   C3A 1496   0.998   2.392   6.483
   99POPC   C4A 1497   1.104   2.509   6.036
   99POPC   C1B 1498   1.112   2.789   7.245
   99POPC   C2B 1499   1.080   2.800   6.798
   99POPC   C3B 1500   1.253   2.858   6.424
   99POPC   C4B 1501   0.871   2.932   6.228
  100POPC   NC3 1502   8.027  10.281   8.168
  100POPC   PO4 1503   8.292   9.726   8.001
  100POPC   GL1 1504   8.025  10.011   7.718
  100POPC   GL2 1505   7.682  10.204   7.675
  100POPC   C1A 1506   8.053  10.208   7.333
  100POPC   D2A 1507   8.075  10.020   6.926
  100POPC   C3A 1508   8.158  10.227   6.536
  100POPC   C4A 1509   7.917  10.296   6.161
  100POPC   C1B 1510   7.595  10.016   7.228
  100POPC   C2B 1511   7.580  10.037   6.784
  100POPC   C3B 1512   7.749   9.908   6.437
  100POPC   C4B 1513   7.663   9.874   6.010
  101POPC   NC3 1514   1.964   1.352   8.085
  101POPC   PO4 1515   1.882   2.020   8.116
  101POPC   GL1 1516   1.753   1.928   7.696
  101POPC   GL2 1517   1.936   2.230   7.647
  101POPC   C1A 1518   1.736   1.715   7.270
  101POPC   D2A 1519   2.072   1.786   6.910
  101POPC   C3A 1520   2.081   1.725   6.457
  101POPC   C4A 1521   1.775   1.723   6.083
  101POPC   C1B 1522   1.987   2.153   7.253
  101POPC   C2B 1523   1.830   2.310   6.913
  101POPC   C3B 1524   1.952   2.348   6.551
  101POPC   C4B 1525   1.925   2.172   6.233
  102POPC   NC3 1526   0.644   3.530   8.103
  102POPC   PO4 1527   0.023   3.330   7.909
  102POPC   GL1 1528   0.111   3.695   7.654
  102POPC   GL2 1529   0.444   3.594   7.648
  102POPC   C1A 1530   0.203   3.627   7.202
  102POPC   D2A 1531   0.205   3.238   6.969
  102POPC   C3A 1532   0.095   3.327   6.539
  102POPC   C4A 1533   0.211   3.670   6.302
  102POPC   C1B 1534   0.717   3.686   7.336
  102POPC   C2B 1535   0.682   3.502   6.935
  102POPC   C3B 1536   0.698   3.656   6.525
  102POPC   C4B 1537   0.645   3.412   6.184
  103POPC   NC3 1538   0.341  10.185   8.145
  103POPC   PO4 1539   1.080  10.200   8.155
  103POPC   GL1 1540   0.844  10.229   7.687
  103POPC   GL2 1541   0.514  10.136   7.674
  103POPC   C1A 1542   0.783  10.066   7.241
  103POPC   D2A 1543   0.529  10.245   6.907
  103POPC   C3A 1544   0.715  10.283   6.514
  103POPC   C4A 1545   0.627  10.062   6.172
  103POPC   C1B 1546   0.196  10.085   7.384
  103POPC   C2B 1547  10.489  10.144   7.015
  103POPC   C3B 1548   0.076  10.097   6.625
  103POPC   C4B 1549   0.120   9.949   6.222
  104POPC   NC3 1550   7.741   1.270   7.898
  104POPC   PO4 1551   8.260   0.965   8.185
  104POPC   GL1 1552   8.204   1.016   7.717
  104POPC   GL2 1553   8.026   1.301   7.504
  104POPC   C1A 1554   8.257   0.956   7.264
  104POPC   D2A 1555   8.162   1.252   6.904
  104POPC   C3A 1556   8.135   1.142   6.486
  104POPC   C4A 1557   8.005   1.087   6.081
  104POPC   C1B 1558   7.765   1.054   7.204
  104POPC   C2B 1559   7.757   0.943   6.760
  104POPC   C3B 1560   7.616   1.246   6.437
  104POPC   C4B 1561   7.638   1.525   6.076
  105POPC   NC3 1562   6.906   9.961   7.916
  105POPC   PO4 1563   6.232   9.648   7.966
  105POPC   GL1 1564   6.256   9.951   7.665
  105POPC   GL2 1565   6.482  10.206   7.742
  105POPC   C1A 1566   6.091  10.072   7.278
  105POPC   D2A 1567   6.070   9.872   6.884
  105POPC   C3A 1568   6.143  10.207   6.608
  105POPC   C4A 1569   6.341  10.211   6.244
  105POPC   C1B 1570   6.709  10.261   7.343
  105POPC   C2B 1571   6.697  10.081   6.936
  105POPC   C3B 1572   6.701  10.304   6.591
  105POPC   C4B 1573   6.718   0.045   6.224
  106POPC   NC3 1574   4.819   1.932   8.008
  106POPC   PO4 1575   5.138   2.435   8.119
  106POPC   GL1 1576   4.922   2.312   7.673
  106POPC   GL2 1577   4.934   1.948   7.521
  106POPC   C1A 1578   4.810   2.353   7.232
  106POPC   D2A 1579   4.651   2.240   6.851
  106POPC   C3A 1580   4.857   2.229   6.462
  106POPC   C4A 1581   4.685   2.322   6.027
  106POPC   C1B 1582   4.792   1.828   7.135
  106POPC   C2B 1583   4.954   1.808   6.748
  106POPC   C3B 1584   5.020   1.732   6.354
  106POPC   C4B 1585   5.088   2.018   6.069
  107POPC   NC3 1586  10.239   8.481   8.240
  107POPC   PO4 1587   9.787   8.992   8.112
  107POPC   GL1 1588   9.999   8.808   7.732
  107POPC   GL2 1589  10.136   8.466   7.730
  107POPC   C1A 1590  10.198   8.786   7.322
  107POPC   D2A 1591  10.000   8.816   6.937
  107POPC   C3A 1592  10.236   8.733   6.595
  107POPC   C4A 1593  10.064   8.743   6.220
  107POPC   C1B 1594  10.320   8.297   7.347
  107POPC   C2B 1595  10.406   8.406   6.940
  107POPC   C3B 1596  10.317   8.246   6.529
  107POPC   C4B 1597  10.159   8.234   6.135
  108POPC   NC3 1598   2.009   9.882   8.039
  108POPC   PO4 1599   1.594   9.347   8.246
  108POPC   GL1 1600   1.800   9.457   7.801
  108POPC   GL2 1601   2.020   9.186   7.673
  108POPC   C1A 1602   1.975   9.530   7.329
  108POPC   D2A 1603   1.775   9.404   6.949
  108POPC   C3A 1604   1.878   9.561   6.519
  108POPC   C4A 1605   1.626   9.571   6.163
  108POPC   C1B 1606   2.112   9.004   7.296
  108POPC   C2B 1607   2.139   9.046   6.872
  108POPC   C3B 1608   1.872   9.073   6.555
  108POPC   C4B 1609   1.923   9.133   6.154
  109POPC   NC3 1610   0.869   9.801   7.946
  109POPC   PO4 1611   1.556   9.974   8.056
  109POPC   GL1 1612   1.289   9.972   7.731
  109POPC   GL2 1613   1.332  10.293   7.672
  109POPC   C1A 1614   1.301   9.974   7.288
  109POPC   D2A 1615   1.353   9.753   6.934
  109POPC   C3A 1616   1.066   9.916   6.656
  109POPC   C4A 1617   1.136   9.810   6.261
  109POPC   C1B 1618   1.122  10.466   7.305
  109POPC   C2B 1619   1.042  10.427   6.875
  109POPC   C3B 1620   1.233  10.363   6.456
  109POPC   C4B 1621   1.095   0.027   6.056
  110POPC   NC3 1622   7.804   9.662   8.020
  110POPC   PO4 1623   8.064   9.119   8.235
  110POPC   GL1 1624   7.957   9.184   7.818
  110POPC   GL2 1625   8.261   9.325   7.700
  110POPC   C1A 1626   7.850   9.398   7.413
  110POPC   D2A 1627   7.607   9.513   7.078
  110POPC   C3A 1628   7.764   9.458   6.665
  110POPC   C4A 1629   7.820   9.423   6.238
  110POPC   C1B 1630   8.279   9.654   7.360
  110POPC   C2B 1631   8.186   9.519   6.955
  110POPC   C3B 1632   8.305   9.717   6.567
  110POPC   C4B 1633   8.175   9.826   6.160
  111POPC   NC3 1634   9.291   7.883   7.972
  111POPC   PO4 1635   9.939   8.161   8.085
  111POPC   GL1 1636   9.677   8.094   7.703
  111POPC   GL2 1637   9.698   7.700   7.689
  111POPC   C1A 1638   9.475   8.050   7.261
  111POPC   D2A 1639   9.550   7.916   6.888
  111POPC   C3A 1640   9.385   8.128   6.555
  111POPC   C4A 1641   9.289   7.968   6.151
  111POPC   C1B 1642   9.468   7.525   7.324
  111POPC   C2B 1643   9.287   7.468   6.916
  111POPC   C3B 1644   9.414   7.595   6.514
  111POPC   C4B 1645   9.550   7.446   6.160
  112POPC   NC3 1646   8.716   1.117   8.104
  112POPC   PO4 1647   8.157   1.482   7.974
  112POPC   GL1 1648   8.467   1.483   7.690
  112POPC   GL2 1649   8.812   1.521   7.751
  112POPC   C1A 1650   8.457   1.450   7.252
  112POPC   D2A 1651   8.652   1.528   6.855
  112POPC   C3A 1652   8.497   1.506   6.430
  112POPC   C4A 1653   8.595   1.468   5.994
  112POPC   C1B 1654   8.755   1.114   7.470
  112POPC   C2B 1655   8.695   1.033   7.036
  112POPC   C3B 1656   8.606   1.045   6.637
  112POPC   C4B 1657   8.549   1.003   6.215
  113POPC   NC3 1658   5.236   0.336   8.289
  113POPC   PO4 1659   5.790   0.705   8.166
  113POPC   GL1 1660   5.716   0.668   7.716
  113POPC   GL2 1661   5.843   0.330   7.711
  113POPC   C1A 1662   5.595   0.519   7.242
  113POPC   D2A 1663   5.523   0.654   6.793
  113POPC   C3A 1664   5.516   0.547   6.320
  113POPC   C4A 1665   5.446   0.764   5.906
  113POPC   C1B 1666   6.065   0.541   7.366
  113POPC   C2B 1667   6.015   0.345   6.981
  113POPC   C3B 1668   5.919   0.378   6.576
  113POPC   C4B 1669   5.998   0.728   6.299
  114POPC   NC3 1670   2.024   3.558   8.049
  114POPC   PO4 1671   2.104   2.950   8.264
  114POPC   GL1 1672   2.159   3.165   7.776
  114POPC   GL2 1673   1.954   3.418   7.582
  114POPC   C1A 1674   2.153   3.036   7.335
  114POPC   D2A 1675   1.897   3.124   6.984
  114POPC   C3A 1676   2.142   3.165   6.642
  114POPC   C4A 1677   2.141   3.453   6.359
  114POPC   C1B 1678   1.634   3.419   7.301
  114POPC   C2B 1679   1.599   3.632   6.912
  114POPC   C3B 1680   1.633   3.367   6.574
  114POPC   C4B 1681   1.649   3.175   6.202
  115POPC   NC3 1682   7.982   2.605   8.186
  115POPC   PO4 1683   7.599   2.071   7.945
  115POPC   GL1 1684   7.898   2.401   7.708
  115POPC   GL2 1685   7.922   2.792   7.718
  115POPC   C1A 1686   7.951   2.566   7.268
  115POPC   D2A 1687   7.709   2.682   6.937
  115POPC   C3A 1688   7.981   2.625   6.617
  115POPC   C4A 1689   7.812   2.527   6.234
  115POPC   C1B 1690   8.161   3.017   7.389
  115POPC   C2B 1691   8.064   3.043   6.964
  115POPC   C3B 1692   7.781   3.104   6.625
  115POPC   C4B 1693   8.029   3.011   6.257
  116POPC   NC3 1694   2.970   9.508   8.195
  116POPC   PO4 1695   2.309   9.513   8.014
  116POPC   GL1 1696   2.507   9.372   7.655
  116POPC   GL2 1697   2.775   9.582   7.685
  116POPC   C1A 1698   2.487   9.458   7.217
  116POPC   D2A 1699   2.287   9.597   6.840
  116POPC   C3A 1700   2.327   9.346   6.472
  116POPC   C4A 1701   2.401   9.239   6.059
  116POPC   C1B 1702   2.800   9.856   7.328
  116POPC   C2B 1703   2.935   9.741   6.938
  116POPC   C3B 1704   2.774   9.573   6.617
  116POPC   C4B 1705   2.810   9.501   6.208
  117POPC   NC3 1706   9.490   2.806   7.982
  117POPC   PO4 1707   9.538   2.247   8.323
  117POPC   GL1 1708   9.490   2.225   7.821
  117POPC   GL2 1709   9.283   2.476   7.629
  117POPC   C1A 1710   9.630   2.253   7.332
  117POPC   D2A 1711   9.430   2.369   6.939
  117POPC   C3A 1712   9.525   2.596   6.579
  117POPC   C4A 1713   9.299   2.649   6.189
  117POPC   C1B 1714   9.496   2.767   7.301
  117POPC   C2B 1715   9.304   2.954   6.958
  117POPC   C3B 1716   9.152   2.966   6.578
  117POPC   C4B 1717   9.560   3.085   6.403
  118POPC   NC3 1718   5.598   8.258   8.017
  118POPC   PO4 1719   6.061   8.808   8.099
  118POPC   GL1 1720   5.946   8.562   7.763
  118POPC   GL2 1721   5.623   8.696   7.685
  118POPC   C1A 1722   5.993   8.737   7.345
  118POPC   D2A 1723   5.853   8.885   6.957
  118POPC   C3A 1724   5.932   8.700   6.544
  118POPC   C4A 1725   6.008   8.902   6.151
  118POPC   C1B 1726   5.475   8.680   7.268
  118POPC   C2B 1727   5.519   8.510   6.841
  118POPC   C3B 1728   5.406   8.622   6.420
  118POPC   C4B 1729   5.652   8.514   6.081
  119POPC   NC3 1730   1.217   8.997   8.189
  119POPC   PO4 1731   1.510   8.462   8.084
  119POPC   GL1 1732   1.392   8.499   7.695
  119POPC   GL2 1733   1.172   8.710   7.755
  119POPC   C1A 1734   1.275   8.340   7.302
  119POPC   D2A 1735   1.501   8.346   6.913
  119POPC   C3A 1736   1.270   8.314   6.547
  119POPC   C4A 1737   1.196   8.565   6.233
  119POPC   C1B 1738   1.091   8.832   7.356
  119POPC   C2B 1739   1.146   8.715   6.959
  119POPC   C3B 1740   1.053   8.981   6.655
  119POPC   C4B 1741   0.940   8.995   6.258
  120POPC   NC3 1742   2.808  10.364   8.399
  120POPC   PO4 1743   2.620   0.450   8.203
  120POPC   GL1 1744   2.817   0.495   7.795
  120POPC   GL2 1745   3.107   0.731   7.765
  120POPC   C1A 1746   2.635   0.324   7.390
  120POPC   D2A 1747   2.626   0.066   7.023
  120POPC   C3A 1748   2.755   0.269   6.665
  120POPC   C4A 1749   2.889   0.289   6.258
  120POPC   C1B 1750   2.954   0.746   7.339
  120POPC   C2B 1751   2.696   0.720   6.951
  120POPC   C3B 1752   2.698   0.754   6.497
  120POPC   C4B 1753   2.405   0.477   6.314
  121POPC   NC3 1754   4.047   8.008   8.168
  121POPC   PO4 1755   4.312   7.385   8.044
  121POPC   GL1 1756   4.120   7.407   7.635
  121POPC   GL2 1757   4.015   7.054   7.618
  121POPC   C1A 1758   4.210   7.282   7.183
  121POPC   D2A 1759   4.466   7.428   6.828
  121POPC   C3A 1760   4.374   7.227   6.433
  121POPC   C4A 1761   4.622   6.932   6.169
  121POPC   C1B 1762   3.917   6.850   7.232
  121POPC   C2B 1763   4.082   6.954   6.797
  121POPC   C3B 1764   4.025   6.854   6.345
  121POPC   C4B 1765   4.172   7.084   5.958
  122POPC   NC3 1766   7.970   3.357   8.307
  122POPC   PO4 1767   8.435   3.803   8.002
  122POPC   GL1 1768   8.167   3.613   7.675
  122POPC   GL2 1769   7.925   3.327   7.743
  122POPC   C1A 1770   8.167   3.494   7.271
  122POPC   D2A 1771   7.971   3.526   6.909
  122POPC   C3A 1772   8.185   3.419   6.561
  122POPC   C4A 1773   8.093   3.597   6.169
  122POPC   C1B 1774   7.700   3.208   7.326
  122POPC   C2B 1775   7.483   3.424   6.974
  122POPC   C3B 1776   7.605   3.589   6.535
  122POPC   C4B 1777   7.676   3.345   6.167
  123POPC   NC3 1778   2.512   8.351   8.465
  123POPC   PO4 1779   2.237   7.917   8.008
  123POPC   GL1 1780   2.549   7.803   7.701
  123POPC   GL2 1781   2.877   7.890   7.855
  123POPC   C1A 1782   2.560   7.892   7.262
  123POPC   D2A 1783   2.548   8.150   6.922
  123POPC   C3A 1784   2.595   7.908   6.583
  123POPC   C4A 1785   2.596   8.030   6.182
  123POPC   C1B 1786   3.011   7.801   7.422
  123POPC   C2B 1787   2.999   7.792   6.959
  123POPC   C3B 1788   2.950   7.555   6.544
  123POPC   C4B 1789   2.988   7.693   6.125
  124POPC   NC3 1790   2.407   8.310   7.829
  124POPC   PO4 1791   2.930   8.295   8.265
  124POPC   GL1 1792   2.982   8.378   7.786
  124POPC   GL2 1793   2.890   8.724   7.686
  124POPC   C1A 1794   2.872   8.313   7.322
  124POPC   D2A 1795   2.741   8.637   6.974
  124POPC   C3A 1796   2.690   8.484   6.511
  124POPC   C4A 1797   3.007   8.446   6.169
  124POPC   C1B 1798   2.828   9.043   7.319
  124POPC   C2B 1799   2.642   9.128   6.870
  124POPC   C3B 1800   2.744   9.065   6.448
  124POPC   C4B 1801   2.678   8.831   6.085
  125POPC   NC3 1802   7.764   6.420   8.080
  125POPC   PO4 1803   8.218   6.847   8.216
  125POPC   GL1 1804   8.089   6.700   7.774
  125POPC   GL2 1805   8.021   6.330   7.676
  125POPC   C1A 1806   8.239   6.585   7.318
  125POPC   D2A 1807   8.134   6.348   6.940
  125POPC   C3A 1808   8.071   6.515   6.528
  125POPC   C4A 1809   8.242   6.715   6.166
  125POPC   C1B 1810   7.760   6.427   7.280
  125POPC   C2B 1811   7.622   6.534   6.852
  125POPC   C3B 1812   7.558   6.395   6.418
  125POPC   C4B 1813   7.548   6.420   5.957
  126POPC   NC3 1814   2.664   5.817   7.945
  126POPC   PO4 1815   2.354   5.222   8.099
  126POPC   GL1 1816   2.400   5.263   7.676
  126POPC   GL2 1817   2.692   5.474   7.579
  126POPC   C1A 1818   2.302   5.440   7.274
  126POPC   D2A 1819   2.324   5.678   6.915
  126POPC   C3A 1820   2.590   5.523   6.639
  126POPC   C4A 1821   2.503   5.506   6.242
  126POPC   C1B 1822   2.625   5.863   7.287
  126POPC   C2B 1823   2.695   6.040   6.855
  126POPC   C3B 1824   2.743   5.966   6.414
  126POPC   C4B 1825   2.989   5.667   6.207
  127POPC   NC3 1826   9.334   9.429   8.093
  127POPC   PO4 1827   9.915   9.759   7.977
  127POPC   GL1 1828   9.676   9.469   7.669
  127POPC   GL2 1829   9.297   9.452   7.591
  127POPC   C1A 1830   9.628   9.435   7.210
  127POPC   D2A 1831   9.835   9.322   6.828
  127POPC   C3A 1832   9.830   9.574   6.460
  127POPC   C4A 1833   9.642   9.793   6.108
  127POPC   C1B 1834   9.126   9.324   7.183
  127POPC   C2B 1835   9.317   9.456   6.783
  127POPC   C3B 1836   9.317   9.464   6.338
  127POPC   C4B 1837   9.048   9.217   6.085
  128POPC   NC3 1838   4.676   1.302   7.957
  128POPC   PO4 1839   5.177   0.770   8.057
  128POPC   GL1 1840   5.208   0.870   7.619
  128POPC   GL2 1841   4.927   1.095   7.553
  128POPC   C1A 1842   5.293   0.942   7.177
  128POPC   D2A 1843   5.013   0.889   6.823
  128POPC   C3A 1844   5.109   0.859   6.360
  128POPC   C4A 1845   5.021   1.037   5.915
  128POPC   C1B 1846   5.160   1.431   7.295
  128POPC   C2B 1847   5.246   1.382   6.834
  128POPC   C3B 1848   4.869   1.294   6.551
  128POPC   C4B 1849   4.654   1.354   6.142
  129POPC   NC3 1850   8.780   9.875   8.078
  129POPC   PO4 1851   8.479  10.395   8.235
  129POPC   GL1 1852   8.742  10.323   7.823
  129POPC   GL2 1853   8.534  10.054   7.657
  129POPC   C1A 1854   8.971  10.150   7.412
  129POPC   D2A 1855   9.173   9.937   7.017
  129POPC   C3A 1856   9.006   9.830   6.590
  129POPC   C4A 1857   8.778  10.022   6.273
  129POPC   C1B 1858   8.521  10.083   7.204
  129POPC   C2B 1859   8.699  10.189   6.805
  129POPC   C3B 1860   8.617  10.457   6.453
  129POPC   C4B 1861   8.407  10.264   6.044
  130POPC   NC3 1862   3.418   3.422   8.027
  130POPC   PO4 1863   3.977   3.103   7.957
  130POPC   GL1 1864   3.802   3.372   7.651
  130POPC   GL2 1865   3.422   3.454   7.533
  130POPC   C1A 1866   3.759   3.218   7.245
  130POPC   D2A 1867   3.527   3.039   6.923
  130POPC   C3A 1868   3.473   3.336   6.607
  130POPC   C4A 1869   3.708   3.469   6.264
  130POPC   C1B 1870   3.345   3.493   7.099
  130POPC   C2B 1871   3.187   3.751   6.750
  130POPC   C3B 1872   3.271   3.851   6.331
  130POPC   C4B 1873   3.287   3.563   5.989
  131POPC   NC3 1874   5.232  10.129   8.087
  131POPC   PO4 1875   4.707   9.769   8.077
  131POPC   GL1 1876   4.791  10.100   7.712
  131POPC   GL2 1877   5.102  10.326   7.648
  131POPC   C1A 1878   4.967   9.997   7.254
  131POPC   D2A 1879   5.212   9.854   6.882
  131POPC   C3A 1880   5.097  10.071   6.504
  131POPC   C4A 1881   4.646  10.089   6.356
  131POPC   C1B 1882   5.250  10.410   7.225
  131POPC   C2B 1883   4.951  10.470   6.879
  131POPC   C3B 1884   4.731   0.068   6.488
  131POPC   C4B 1885   4.974  10.385   6.114
  132POPC   NC3 1886   6.420   7.647   8.026
  132POPC   PO4 1887   6.729   8.103   8.335
  132POPC   GL1 1888   6.662   8.045   7.800
  132POPC   GL2 1889   6.690   7.728   7.625
  132POPC   C1A 1890   6.704   8.049   7.254
  132POPC   D2A 1891   6.782   7.740   6.881
  132POPC   C3A 1892   6.730   7.980   6.537
  132POPC   C4A 1893   6.527   8.040   6.149
  132POPC   C1B 1894   6.282   7.793   7.386
  132POPC   C2B 1895   6.285   7.884   6.940
  132POPC   C3B 1896   6.295   7.720   6.503
  132POPC   C4B 1897   6.047   7.886   6.195
  133POPC   NC3 1898   5.473   1.073   8.253
  133POPC   PO4 1899   5.939   1.465   8.068
  133POPC   GL1 1900   5.857   1.424   7.660
  133POPC   GL2 1901   5.604   1.183   7.708
  133POPC   C1A 1902   5.690   1.480   7.255
  133POPC   D2A 1903   5.885   1.610   6.933
  133POPC   C3A 1904   5.700   1.541   6.587
  133POPC   C4A 1905   5.863   1.370   6.218
  133POPC   C1B 1906   5.805   0.995   7.328
  133POPC   C2B 1907   5.715   1.105   6.905
  133POPC   C3B 1908   5.589   1.042   6.483
  133POPC   C4B 1909   5.306   1.309   6.297
  134POPC   NC3 1910   4.660   7.676   7.937
  134POPC   PO4 1911   5.307   7.884   7.988
  134POPC   GL1 1912   5.147   7.954   7.611
  134POPC   GL2 1913   4.824   8.064   7.626
  134POPC   C1A 1914   5.215   7.743   7.224
  134POPC   D2A 1915   4.955   7.598   6.905
  134POPC   C3A 1916   5.145   7.617   6.513
  134POPC   C4A 1917   5.204   7.695   6.095
  134POPC   C1B 1918   4.764   8.014   7.198
  134POPC   C2B 1919   4.610   7.954   6.803
  134POPC   C3B 1920   4.774   7.935   6.404
  134POPC   C4B 1921   4.663   7.953   6.005
  135POPC   NC3 1922   1.096   8.258   8.084
  135POPC   PO4 1923   0.536   8.202   7.889
  135POPC   GL1 1924   0.884   8.111   7.635
  135POPC   GL2 1925   1.233   7.992   7.693
  135POPC   C1A 1926   0.802   8.004   7.243
  135POPC   D2A 1927   0.927   8.233   6.906
  135POPC   C3A 1928   0.805   8.114   6.466
  135POPC   C4A 1929   0.889   8.180   6.040
  135POPC   C1B 1930   1.254   7.810   7.303
  135POPC   C2B 1931   1.318   7.568   6.957
  135POPC   C3B 1932   1.161   7.828   6.680
  135POPC   C4B 1933   1.247   7.888   6.247
  136POPC   NC3 1934   8.637   6.573   8.216
  136POPC   PO4 1935   8.135   6.085   8.200
  136POPC   GL1 1936   8.497   6.142   7.878
  136POPC   GL2 1937   8.523   6.450   7.715
  136POPC   C1A 1938   8.561   6.094   7.386
  136POPC   D2A 1939   8.466   5.940   6.984
  136POPC   C3A 1940   8.428   6.138   6.588
  136POPC   C4A 1941   8.260   6.114   6.192
  136POPC   C1B 1942   8.731   6.599   7.279
  136POPC   C2B 1943   8.516   6.697   6.872
  136POPC   C3B 1944   8.662   6.575   6.476
  136POPC   C4B 1945   8.752   6.262   6.166
  137POPC   NC3 1946   5.598   7.543   8.002
  137POPC   PO4 1947   6.106   7.981   8.037
  137POPC   GL1 1948   5.842   7.986   7.638
  137POPC   GL2 1949   5.578   8.220   7.508
  137POPC   C1A 1950   5.779   7.856   7.181
  137POPC   D2A 1951   5.884   7.569   6.797
  137POPC   C3A 1952   5.642   7.596   6.393
  137POPC   C4A 1953   5.611   7.413   5.952
  137POPC   C1B 1954   5.226   8.251   7.197
  137POPC   C2B 1955   5.116   8.091   6.797
  137POPC   C3B 1956   5.261   8.129   6.365
  137POPC   C4B 1957   5.591   8.001   6.062
  138POPC   NC3 1958   8.409   5.658   8.091
  138POPC   PO4 1959   9.051   5.873   8.095
  138POPC   GL1 1960   8.887   5.850   7.684
  138POPC   GL2 1961   8.644   5.619   7.640
  138POPC   C1A 1962   8.927   5.712   7.231
  138POPC   D2A 1963   9.140   5.860   6.867
  138POPC   C3A 1964   8.853   5.880   6.503
  138POPC   C4A 1965   8.963   5.796   6.090
  138POPC   C1B 1966   8.467   5.496   7.252
  138POPC   C2B 1967   8.669   5.519   6.813
  138POPC   C3B 1968   8.685   5.393   6.380
  138POPC   C4B 1969   8.495   5.649   6.134
  139POPC   NC3 1970   4.024   8.533   7.773
  139POPC   PO4 1971   4.485   8.099   8.010
  139POPC   GL1 1972   4.279   7.937   7.647
  139POPC   GL2 1973   3.908   7.920   7.649
  139POPC   C1A 1974   4.286   7.775   7.215
  139POPC   D2A 1975   4.032   7.681   6.849
  139POPC   C3A 1976   4.280   7.752   6.466
  139POPC   C4A 1977   4.328   7.574   6.060
  139POPC   C1B 1978   3.846   8.065   7.210
  139POPC   C2B 1979   3.677   8.026   6.773
  139POPC   C3B 1980   3.860   8.130   6.374
  139POPC   C4B 1981   3.872   7.754   6.179
  140POPC   NC3 1982   3.287   7.993   8.182
  140POPC   PO4 1983   3.579   8.396   7.790
  140POPC   GL1 1984   3.380   8.146   7.546
  140POPC   GL2 1985   3.401   7.829   7.718
  140POPC   C1A 1986   3.338   8.200   7.111
  140POPC   D2A 1987   3.061   8.291   6.814
  140POPC   C3A 1988   3.093   8.051   6.484
  140POPC   C4A 1989   3.380   8.082   6.157
  140POPC   C1B 1990   3.476   7.732   7.264
  140POPC   C2B 1991   3.452   7.572   6.850
  140POPC   C3B 1992   3.436   7.644   6.404
  140POPC   C4B 1993   3.454   7.601   5.929
  141POPC   NC3 1994   3.538   9.741   8.047
  141POPC   PO4 1995   3.227   9.123   8.149
  141POPC   GL1 1996   3.230   9.369   7.778
  141POPC   GL2 1997   3.523   9.337   7.784
  141POPC   C1A 1998   3.184   9.481   7.327
  141POPC   D2A 1999   3.126   9.239   6.936
  141POPC   C3A 2000   3.230   9.344   6.525
  141POPC   C4A 2001   3.313   9.611   6.181
  141POPC   C1B 2002   3.656   9.289   7.394
  141POPC   C2B 2003   3.637   9.212   6.955
  141POPC   C3B 2004   3.607   8.983   6.582
  141POPC   C4B 2005   3.593   9.160   6.207
  142POPC   NC3 2006   3.517   6.162   8.078
  142POPC   PO4 2007   3.541   6.800   8.125
  142POPC   GL1 2008   3.215   6.649   7.782
  142POPC   GL2 2009   3.317   6.346   7.596
  142POPC   C1A 2010   3.300   6.773   7.306
  142POPC   D2A 2011   3.179   6.754   6.856
  142POPC   C3A 2012   3.468   6.667   6.489
  142POPC   C4A 2013   3.408   6.481   6.049
  142POPC   C1B 2014   3.552   6.361   7.163
  142POPC   C2B 2015   3.675   6.161   6.751
  142POPC   C3B 2016   3.773   6.266   6.321
  142POPC   C4B 2017   3.611   6.010   5.956
  143POPC   NC3 2018   1.930   2.520   8.141
  143POPC   PO4 2019   1.673   3.167   7.936
  143POPC   GL1 2020   1.791   2.785   7.729
  143POPC   GL2 2021   2.132   2.682   7.710
  143POPC   C1A 2022   1.783   2.648   7.310
  143POPC   D2A 2023   1.552   2.737   6.944
  143POPC   C3A 2024   1.756   2.821   6.562
  143POPC   C4A 2025   1.652   2.620   6.179
  143POPC   C1B 2026   2.287   2.547   7.323
  143POPC   C2B 2027   2.147   2.690   6.883
  143POPC   C3B 2028   2.272   2.716   6.429
  143POPC   C4B 2029   2.118   3.016   6.122
  144POPC   NC3 2030   2.522   2.981   8.058
  144POPC   PO4 2031   2.410   3.586   8.308
  144POPC   GL1 2032   2.534   3.506   7.865
  144POPC   GL2 2033   2.856   3.304   7.784
  144POPC   C1A 2034   2.432   3.513   7.423
  144POPC   D2A 2035   2.469   3.299   7.021
  144POPC   C3A 2036   2.555   3.570   6.665
  144POPC   C4A 2037   2.521   3.779   6.269
  144POPC   C1B 2038   2.915   3.356   7.320
  144POPC   C2B 2039   2.964   3.300   6.848
  144POPC   C3B 2040   2.983   3.410   6.385
  144POPC   C4B 2041   2.908   3.215   5.929
  145POPC   NC3 2042   0.828   2.639   8.189
  145POPC   PO4 2043   0.168   2.463   8.137
  145POPC   GL1 2044   0.377   2.798   7.847
  145POPC   GL2 2045   0.501   2.500   7.744
  145POPC   C1A 2046   0.481   3.103   7.458
  145POPC   D2A 2047   0.689   3.017   7.041
  145POPC   C3A 2048   0.551   3.090   6.608
  145POPC   C4A 2049   0.336   3.016   6.198
  145POPC   C1B 2050   0.569   2.614   7.321
  145POPC   C2B 2051   0.669   2.523   6.893
  145POPC   C3B 2052   0.501   2.585   6.488
  145POPC   C4B 2053   0.636   2.373   6.139
  146POPC   NC3 2054   7.907   8.684   8.201
  146POPC   PO4 2055   8.503   8.720   8.045
  146POPC   GL1 2056   8.238   8.543   7.784
  146POPC   GL2 2057   7.919   8.671   7.708
  146POPC   C1A 2058   8.177   8.413   7.365
  146POPC   D2A 2059   8.108   8.619   6.973
  146POPC   C3A 2060   8.162   8.509   6.560
  146POPC   C4A 2061   8.183   8.802   6.216
  146POPC   C1B 2062   8.097   8.940   7.376
  146POPC   C2B 2063   7.864   9.068   6.990
  146POPC   C3B 2064   7.805   8.925   6.558
  146POPC   C4B 2065   7.734   8.585   6.235
  147POPC   NC3 2066   1.248   9.774   8.325
  147POPC   PO4 2067   0.901   9.333   8.110
  147POPC   GL1 2068   1.269   9.471   7.861
  147POPC   GL2 2069   1.160   9.219   7.667
  147POPC   C1A 2070   1.476   9.510   7.413
  147POPC   D2A 2071   1.281   9.251   7.051
  147POPC   C3A 2072   1.397   9.349   6.595
  147POPC   C4A 2073   1.421   9.098   6.213
  147POPC   C1B 2074   0.985   9.554   7.367
  147POPC   C2B 2075   0.838   9.578   6.958
  147POPC   C3B 2076   0.857   9.433   6.534
  147POPC   C4B 2077   0.809   9.458   6.093
  148POPC   NC3 2078   9.683   4.358   7.994
  148POPC   PO4 2079   9.541   4.956   8.263
  148POPC   GL1 2080   9.483   4.757   7.800
  148POPC   GL2 2081   9.211   4.662   7.693
  148POPC   C1A 2082   9.760   4.725   7.395
  148POPC   D2A 2083   9.659   4.605   6.980
  148POPC   C3A 2084   9.700   4.930   6.660
  148POPC   C4A 2085   9.774   4.869   6.237
  148POPC   C1B 2086   9.275   4.835   7.297
  148POPC   C2B 2087   9.188   4.827   6.877
  148POPC   C3B 2088   9.228   4.976   6.483
  148POPC   C4B 2089   9.288   4.767   6.114
  149POPC   NC3 2090   0.841   1.337   7.827
  149POPC   PO4 2091   1.473   1.397   8.041
  149POPC   GL1 2092   1.264   1.109   7.628
  149POPC   GL2 2093   0.868   0.967   7.501
  149POPC   C1A 2094   1.261   0.876   7.218
  149POPC   D2A 2095   1.090   1.024   6.808
  149POPC   C3A 2096   1.372   0.988   6.432
  149POPC   C4A 2097   1.432   1.292   6.080
  149POPC   C1B 2098   0.780   1.312   7.177
  149POPC   C2B 2099   0.693   1.508   6.766
  149POPC   C3B 2100   0.951   1.376   6.429
  149POPC   C4B 2101   0.875   0.941   6.323
  150POPC   NC3 2102   7.800   7.088   8.309
  150POPC   PO4 2103   8.156   7.559   7.960
  150POPC   GL1 2104   7.997   7.402   7.631
  150POPC   GL2 2105   7.813   7.144   7.782
  150POPC   C1A 2106   8.009   7.423   7.203
  150POPC   D2A 2107   7.902   7.602   6.842
  150POPC   C3A 2108   8.036   7.495   6.425
  150POPC   C4A 2109   7.831   7.665   6.055
  150POPC   C1B 2110   7.899   6.959   7.375
  150POPC   C2B 2111   8.014   6.855   6.952
  150POPC   C3B 2112   7.944   7.001   6.540
  150POPC   C4B 2113   7.678   6.877   6.211
  151POPC   NC3 2114   5.914   9.971   8.045
  151POPC   PO4 2115   5.495   0.016   8.017
  151POPC   GL1 2116   5.634  10.323   7.651
  151POPC   GL2 2117   5.555   9.965   7.694
  151POPC   C1A 2118   5.753  10.487   7.241
  151POPC   D2A 2119   5.504   0.155   6.864
  151POPC   C3A 2120   5.417   0.054   6.431
  151POPC   C4A 2121   5.800   0.063   6.188
  151POPC   C1B 2122   5.512   9.977   7.283
  151POPC   C2B 2123   5.636  10.145   6.885
  151POPC   C3B 2124   5.652  10.116   6.461
  151POPC   C4B 2125   5.513   9.811   6.194
  152POPC   NC3 2126   6.306   2.527   8.080
  152POPC   PO4 2127   6.927   2.373   8.222
  152POPC   GL1 2128   6.774   2.550   7.774
  152POPC   GL2 2129   6.393   2.574   7.598
  152POPC   C1A 2130   6.783   2.570   7.311
  152POPC   D2A 2131   6.450   2.618   6.995
  152POPC   C3A 2132   6.654   2.674   6.625
  152POPC   C4A 2133   6.824   2.434   6.293
  152POPC   C1B 2134   6.089   2.789   7.320
  152POPC   C2B 2135   6.001   2.856   6.860
  152POPC   C3B 2136   6.193   2.792   6.447
  152POPC   C4B 2137   6.316   2.360   6.334
  153POPC   NC3 2138  10.167   5.933   8.061
  153POPC   PO4 2139   0.045   6.506   8.214
  153POPC   GL1 2140  10.260   6.420   7.813
  153POPC   GL2 2141   9.894   6.260   7.772
  153POPC   C1A 2142  10.263   6.177   7.406
  153POPC   D2A 2143   0.046   6.075   7.045
  153POPC   C3A 2144  10.383   6.207   6.645
  153POPC   C4A 2145  10.470   6.388   6.244
  153POPC   C1B 2146   9.867   6.496   7.360
  153POPC   C2B 2147  10.118   6.525   6.969
  153POPC   C3B 2148  10.106   6.653   6.516
  153POPC   C4B 2149   9.997   6.615   6.034
  154POPC   NC3 2150   8.227   5.008   8.024
  154POPC   PO4 2151   7.734   4.515   8.013
  154POPC   GL1 2152   7.866   4.642   7.607
  154POPC   GL2 2153   8.197   4.675   7.626
  154POPC   C1A 2154   7.792   4.684   7.157
  154POPC   D2A 2155   7.860   4.836   6.747
  154POPC   C3A 2156   7.541   4.865   6.436
  154POPC   C4A 2157   7.449   5.011   6.007
  154POPC   C1B 2158   8.128   5.044   7.328
  154POPC   C2B 2159   8.197   5.237   6.910
  154POPC   C3B 2160   8.271   5.123   6.517
  154POPC   C4B 2161   8.035   4.876   6.276
  155POPC   NC3 2162   6.304   8.372   8.220
  155POPC   PO4 2163   6.758   8.828   8.053
  155POPC   GL1 2164   6.545   8.832   7.668
  155POPC   GL2 2165   6.470   8.509   7.729
  155POPC   C1A 2166   6.489   8.785   7.202
  155POPC   D2A 2167   6.343   8.923   6.773
  155POPC   C3A 2168   6.483   8.878   6.322
  155POPC   C4A 2169   6.418   8.946   5.834
  155POPC   C1B 2170   6.259   8.306   7.395
  155POPC   C2B 2171   6.167   8.423   6.952
  155POPC   C3B 2172   6.397   8.410   6.548
  155POPC   C4B 2173   6.791   8.460   6.318
  156POPC   NC3 2174   9.373   0.853   8.391
  156POPC   PO4 2175   9.089   1.406   8.199
  156POPC   GL1 2176   9.231   1.216   7.785
  156POPC   GL2 2177   9.566   1.074   7.753
  156POPC   C1A 2178   9.230   0.969   7.383
  156POPC   D2A 2179   9.162   0.868   6.958
  156POPC   C3A 2180   9.070   1.273   6.723
  156POPC   C4A 2181   8.986   1.337   6.287
  156POPC   C1B 2182   9.708   1.158   7.290
  156POPC   C2B 2183   9.548   1.200   6.853
  156POPC   C3B 2184   9.488   1.153   6.382
  156POPC   C4B 2185   9.697   1.048   5.971
  157POPC   NC3 2186   1.695   4.403   8.115
  157POPC   PO4 2187   2.149   3.993   7.931
  157POPC   GL1 2188   1.812   4.082   7.687
  157POPC   GL2 2189   1.860   4.444   7.650
  157POPC   C1A 2190   1.836   3.896   7.290
  157POPC   D2A 2191   2.122   3.705   6.984
  157POPC   C3A 2192   1.970   3.855   6.599
  157POPC   C4A 2193   2.031   3.919   6.183
  157POPC   C1B 2194   2.031   4.375   7.256
  157POPC   C2B 2195   1.830   4.254   6.885
  157POPC   C3B 2196   1.890   4.356   6.444
  157POPC   C4B 2197   1.985   4.369   5.964
  158POPC   NC3 2198   3.989   1.819   8.066
  158POPC   PO4 2199   4.552   1.688   7.740
  158POPC   GL1 2200   4.416   1.996   7.478
  158POPC   GL2 2201   4.095   2.007   7.601
  158POPC   C1A 2202   4.220   1.995   7.072
  158POPC   D2A 2203   4.145   2.319   6.788
  158POPC   C3A 2204   4.354   2.252   6.434
  158POPC   C4A 2205   4.530   1.848   6.326
  158POPC   C1B 2206   3.987   1.628   7.377
  158POPC   C2B 2207   4.051   1.373   7.004
  158POPC   C3B 2208   4.202   1.577   6.635
  158POPC   C4B 2209   3.996   1.873   6.374
  159POPC   NC3 2210   2.773   2.881   8.540
  159POPC   PO4 2211   2.407   2.531   8.108
  159POPC   GL1 2212   2.630   2.608   7.751
  159POPC   GL2 2213   2.964   2.703   7.778
  159POPC   C1A 2214   2.666   2.924   7.416
  159POPC   D2A 2215   2.600   2.787   7.025
  159POPC   C3A 2216   2.663   2.947   6.667
  159POPC   C4A 2217   2.565   3.143   6.318
  159POPC   C1B 2218   2.895   2.448   7.378
  159POPC   C2B 2219   2.837   2.322   6.994
  159POPC   C3B 2220   2.912   2.472   6.624
  159POPC   C4B 2221   2.775   2.653   6.254
  160POPC   NC3 2222   7.496   3.463   8.001
  160POPC   PO4 2223   6.876   3.298   8.319
  160POPC   GL1 2224   6.996   3.244   7.775
  160POPC   GL2 2225   7.293   3.365   7.570
  160POPC   C1A 2226   6.905   3.498   7.284
  160POPC   D2A 2227   7.040   3.652   6.824
  160POPC   C3A 2228   6.785   3.648   6.402
  160POPC   C4A 2229   6.830   3.718   5.925
  160POPC   C1B 2230   7.147   3.053   7.316
  160POPC   C2B 2231   7.053   3.136   6.906
  160POPC   C3B 2232   7.240   3.253   6.528
  160POPC   C4B 2233   7.201   3.496   6.179
  161POPC   NC3 2234   6.680   3.559   8.009
  161POPC   PO4 2235   6.526   2.919   8.028
  161POPC   GL1 2236   6.561   3.045   7.612
  161POPC   GL2 2237   6.475   3.380   7.557
  161POPC   C1A 2238   6.638   3.053   7.182
  161POPC   D2A 2239   6.595   3.364   6.857
  161POPC   C3A 2240   6.495   3.211   6.451
  161POPC   C4A 2241   6.444   3.412   6.066
  161POPC   C1B 2242   6.183   3.285   7.175
  161POPC   C2B 2243   6.072   3.345   6.720
  161POPC   C3B 2244   6.005   3.559   6.323
  161POPC   C4B 2245   5.868   3.969   6.086
  162POPC   NC3 2246   3.406   2.203   8.162
  162POPC   PO4 2247   2.871   1.976   8.144
  162POPC   GL1 2248   3.207   1.845   7.786
  162POPC   GL2 2249   3.572   2.003   7.705
  162POPC   C1A 2250   3.190   1.998   7.316
  162POPC   D2A 2251   3.209   2.029   6.830
  162POPC   C3A 2252   3.167   1.651   6.621
  162POPC   C4A 2253   3.030   1.590   6.206
  162POPC   C1B 2254   3.730   2.116   7.256
  162POPC   C2B 2255   3.719   2.049   6.791
  162POPC   C3B 2256   3.502   1.978   6.396
  162POPC   C4B 2257   3.678   2.269   6.111
  163POPC   NC3 2258   3.926   7.074   8.112
  163POPC   PO4 2259   3.426   7.546   8.194
  163POPC   GL1 2260   3.617   7.373   7.782
  163POPC   GL2 2261   3.479   7.075   7.681
  163POPC   C1A 2262   3.715   7.307   7.304
  163POPC   D2A 2263   3.585   7.085   6.926
  163POPC   C3A 2264   3.794   7.299   6.568
  163POPC   C4A 2265   3.753   7.263   6.153
  163POPC   C1B 2266   3.210   7.282   7.348
  163POPC   C2B 2267   3.063   7.239   6.928
  163POPC   C3B 2268   3.284   7.165   6.510
  163POPC   C4B 2269   3.335   7.000   6.083
  164POPC   NC3 2270   1.890   5.144   8.183
  164POPC   PO4 2271   1.357   4.717   8.034
  164POPC   GL1 2272   1.592   4.924   7.725
  164POPC   GL2 2273   1.974   4.942   7.722
  164POPC   C1A 2274   1.690   4.775   7.305
  164POPC   D2A 2275   1.944   4.775   6.918
  164POPC   C3A 2276   1.773   4.932   6.553
  164POPC   C4A 2277   1.620   4.720   6.199
  164POPC   C1B 2278   2.218   4.926   7.319
  164POPC   C2B 2279   2.360   5.101   6.898
  164POPC   C3B 2280   2.244   5.130   6.474
  164POPC   C4B 2281   2.143   4.755   6.243
  165POPC   NC3 2282   6.960   8.406   8.040
  165POPC   PO4 2283   7.464   8.838   8.180
  165POPC   GL1 2284   7.211   8.852   7.814
  165POPC   GL2 2285   7.407   8.635   7.634
  165POPC   C1A 2286   6.991   8.826   7.397
  165POPC   D2A 2287   6.915   8.565   7.026
  165POPC   C3A 2288   6.851   8.815   6.686
  165POPC   C4A 2289   6.983   8.953   6.298
  165POPC   C1B 2290   7.678   8.641   7.265
  165POPC   C2B 2291   7.616   8.535   6.834
  165POPC   C3B 2292   7.328   8.665   6.535
  165POPC   C4B 2293   7.246   8.537   6.100
  166POPC   NC3 2294   3.113   0.535   8.244
  166POPC   PO4 2295   3.716   0.809   8.443
  166POPC   GL1 2296   3.574   0.611   7.980
  166POPC   GL2 2297   3.411   0.293   7.858
  166POPC   C1A 2298   3.612   0.565   7.474
  166POPC   D2A 2299   3.377   0.687   7.061
  166POPC   C3A 2300   3.403   0.534   6.631
  166POPC   C4A 2301   3.234   0.630   6.236
  166POPC   C1B 2302   3.171   0.298   7.457
  166POPC   C2B 2303   3.149   0.220   6.987
  166POPC   C3B 2304   3.218   0.025   6.548
  166POPC   C4B 2305   3.420   0.125   6.133
  167POPC   NC3 2306   3.806   8.970   8.301
  167POPC   PO4 2307   4.154   9.012   7.793
  167POPC   GL1 2308   4.411   8.778   7.534
  167POPC   GL2 2309   4.486   8.441   7.639
  167POPC   C1A 2310   4.270   8.746   7.121
  167POPC   D2A 2311   4.057   8.930   6.820
  167POPC   C3A 2312   3.994   8.660   6.469
  167POPC   C4A 2313   3.994   8.897   6.087
  167POPC   C1B 2314   4.321   8.270   7.250
  167POPC   C2B 2315   4.171   8.202   6.820
  167POPC   C3B 2316   4.372   8.260   6.435
  167POPC   C4B 2317   4.359   8.520   6.115
  168POPC   NC3 2318   9.975   2.314   8.177
  168POPC   PO4 2319  10.041   1.684   8.157
  168POPC   GL1 2320  10.305   1.748   7.812
  168POPC   GL2 2321  10.178   2.085   7.727
  168POPC   C1A 2322   0.009   1.786   7.413
  168POPC   D2A 2323  10.423   2.009   7.037
  168POPC   C3A 2324  10.445   1.846   6.663
  168POPC   C4A 2325  10.334   1.706   6.282
  168POPC   C1B 2326  10.012   1.914   7.334
  168POPC   C2B 2327   9.912   2.073   6.903
  168POPC   C3B 2328  10.041   2.096   6.482
  168POPC   C4B 2329  10.210   2.357   6.161
  169POPC   NC3 2330   1.328   7.289   8.179
  169POPC   PO4 2331   0.877   7.734   8.091
  169POPC   GL1 2332   0.954   7.556   7.652
  169POPC   GL2 2333   1.313   7.476   7.705
  169POPC   C1A 2334   0.862   7.488   7.180
  169POPC   D2A 2335   0.854   7.386   6.733
  169POPC   C3A 2336   1.197   7.376   6.472
  169POPC   C4A 2337   1.164   7.420   6.044
  169POPC   C1B 2338   1.261   7.246   7.355
  169POPC   C2B 2339   1.201   7.073   6.937
  169POPC   C3B 2340   1.018   6.886   6.582
  169POPC   C4B 2341   1.198   6.953   6.191
  170POPC   NC3 2342  10.381   2.893   7.993
  170POPC   PO4 2343   9.854   2.585   7.828
  170POPC   GL1 2344  10.185   2.595   7.606
  170POPC   GL2 2345  10.498   2.488   7.656
  170POPC   C1A 2346  10.194   2.434   7.219
  170POPC   D2A 2347   9.895   2.579   6.957
  170POPC   C3A 2348  10.046   2.617   6.566
  170POPC   C4A 2349   9.851   2.740   6.192
  170POPC   C1B 2350   0.056   2.815   7.333
  170POPC   C2B 2351  10.360   2.859   6.924
  170POPC   C3B 2352   0.029   2.827   6.551
  170POPC   C4B 2353  10.338   2.888   6.175
  171POPC   NC3 2354  10.075   9.343   8.009
  171POPC   PO4 2355  10.456   8.845   8.011
  171POPC   GL1 2356  10.365   9.162   7.644
  171POPC   GL2 2357  10.384   9.571   7.688
  171POPC   C1A 2358  10.107   9.277   7.279
  171POPC   D2A 2359  10.333   9.232   6.882
  171POPC   C3A 2360  10.166   9.191   6.456
  171POPC   C4A 2361   0.029   9.038   6.224
  171POPC   C1B 2362  10.465   9.627   7.265
  171POPC   C2B 2363  10.192   9.721   6.937
  171POPC   C3B 2364  10.368   9.643   6.551
  171POPC   C4B 2365  10.337   9.522   6.122
  172POPC   NC3 2366  10.337   6.918   8.054
  172POPC   PO4 2367   9.742   7.376   8.115
  172POPC   GL1 2368   9.991   7.174   7.771
  172POPC   GL2 2369  10.242   7.385   7.677
  172POPC   C1A 2370  10.168   6.950   7.360
  172POPC   D2A 2371  10.017   7.042   6.920
  172POPC   C3A 2372  10.304   7.139   6.579
  172POPC   C4A 2373  10.343   6.978   6.192
  172POPC   C1B 2374  10.001   7.439   7.329
  172POPC   C2B 2375   9.884   7.550   6.940
  172POPC   C3B 2376   9.900   7.440   6.535
  172POPC   C4B 2377  10.067   7.409   6.137
  173POPC   NC3 2378   8.775   2.584   8.081
  173POPC   PO4 2379   8.209   3.019   8.086
  173POPC   GL1 2380   8.515   2.885   7.740
  173POPC   GL2 2381   8.414   2.623   7.494
  173POPC   C1A 2382   8.711   2.974   7.312
  173POPC   D2A 2383   8.481   2.756   6.973
  173POPC   C3A 2384   8.448   2.905   6.543
  173POPC   C4A 2385   8.782   2.888   6.202
  173POPC   C1B 2386   8.763   2.413   7.276
  173POPC   C2B 2387   8.946   2.521   6.871
  173POPC   C3B 2388   8.726   2.461   6.490
  173POPC   C4B 2389   8.333   2.461   6.261
  174POPC   NC3 2390   6.360   0.658   3.926
  174POPC   PO4 2391   6.815   0.167   3.916
  174POPC   GL1 2392   6.608   0.379   4.249
  174POPC   GL2 2393   6.270   0.238   4.215
  174POPC   C1A 2394   6.735   0.561   4.640
  174POPC   D2A 2395   6.706   0.292   5.001
  174POPC   C3A 2396   6.589   0.470   5.374
  174POPC   C4A 2397   6.607   0.223   5.747
  174POPC   C1B 2398   6.258   0.385   4.641
  174POPC   C2B 2399   6.174   0.250   5.059
  174POPC   C3B 2400   6.126   0.332   5.497
  174POPC   C4B 2401   6.320   0.651   5.828
  175POPC   NC3 2402   5.621   2.164   3.917
  175POPC   PO4 2403   6.073   1.584   3.844
  175POPC   GL1 2404   6.107   1.712   4.280
  175POPC   GL2 2405   5.746   1.813   4.286
  175POPC   C1A 2406   5.971   1.714   4.735
  175POPC   D2A 2407   5.657   1.770   5.062
  175POPC   C3A 2408   5.816   1.939   5.453
  175POPC   C4A 2409   5.868   1.684   5.810
  175POPC   C1B 2410   5.632   2.089   4.643
  175POPC   C2B 2411   5.319   2.144   4.966
  175POPC   C3B 2412   5.343   2.235   5.378
  175POPC   C4B 2413   5.315   2.348   5.783
  176POPC   NC3 2414  10.452   9.539   3.986
  176POPC   PO4 2415   0.553   9.836   3.737
  176POPC   GL1 2416   0.570   9.596   4.138
  176POPC   GL2 2417   0.427   9.264   4.081
  176POPC   C1A 2418   0.756   9.586   4.548
  176POPC   D2A 2419   0.909   9.587   4.972
  176POPC   C3A 2420   0.645   9.373   5.213
  176POPC   C4A 2421   0.630   9.369   5.628
  176POPC   C1B 2422   0.257   9.233   4.528
  176POPC   C2B 2423   0.176   9.359   4.960
  176POPC   C3B 2424   0.187   9.218   5.370
  176POPC   C4B 2425   0.139   9.338   5.781
  177POPC   NC3 2426   3.530   0.976   3.743
  177POPC   PO4 2427   3.402   0.336   3.958
  177POPC   GL1 2428   3.447   0.398   4.348
  177POPC   GL2 2429   3.640   0.136   4.390
  177POPC   C1A 2430   3.477   0.492   4.775
  177POPC   D2A 2431   3.702   0.583   5.119
  177POPC   C3A 2432   3.603   0.797   5.475
  177POPC   C4A 2433   3.556   0.563   5.856
  177POPC   C1B 2434   3.281   0.028   4.653
  177POPC   C2B 2435   3.148   0.197   5.037
  177POPC   C3B 2436   3.259   0.426   5.392
  177POPC   C4B 2437   3.098   0.365   5.795
  178POPC   NC3 2438   2.989   4.354   4.008
  178POPC   PO4 2439   2.404   4.479   3.730
  178POPC   GL1 2440   2.464   4.389   4.175
  178POPC   GL2 2441   2.598   4.072   4.209
  178POPC   C1A 2442   2.627   4.387   4.611
  178POPC   D2A 2443   2.524   4.207   5.027
  178POPC   C3A 2444   2.619   4.412   5.435
  178POPC   C4A 2445   2.972   4.493   5.727
  178POPC   C1B 2446   2.942   3.989   4.578
  178POPC   C2B 2447   3.007   3.967   5.033
  178POPC   C3B 2448   3.211   4.111   5.422
  178POPC   C4B 2449   3.257   4.055   5.853
  179POPC   NC3 2450   9.534   8.132   3.605
  179POPC   PO4 2451   8.943   8.064   3.927
  179POPC   GL1 2452   9.121   8.141   4.316
  179POPC   GL2 2453   9.421   7.959   4.368
  179POPC   C1A 2454   9.092   7.955   4.731
  179POPC   D2A 2455   9.435   7.974   5.031
  179POPC   C3A 2456   9.219   7.875   5.394
  179POPC   C4A 2457   9.484   7.914   5.701
  179POPC   C1B 2458   9.612   7.645   4.627
  179POPC   C2B 2459   9.867   7.615   4.972
  179POPC   C3B 2460   9.843   7.684   5.373
  179POPC   C4B 2461   9.804   7.501   5.720
  180POPC   NC3 2462   9.414   6.525   3.876
  180POPC   PO4 2463   9.917   6.986   3.940
  180POPC   GL1 2464   9.777   6.751   4.346
  180POPC   GL2 2465   9.418   6.623   4.376
  180POPC   C1A 2466   9.698   6.627   4.778
  180POPC   D2A 2467   9.669   6.355   5.145
  180POPC   C3A 2468   9.688   6.582   5.566
  180POPC   C4A 2469   9.477   6.621   5.991
  180POPC   C1B 2470   9.339   6.280   4.745
  180POPC   C2B 2471   9.154   6.240   5.144
  180POPC   C3B 2472   9.207   6.385   5.536
  180POPC   C4B 2473   9.206   6.197   5.925
  181POPC   NC3 2474   3.145   7.317   4.055
  181POPC   PO4 2475   3.780   7.536   3.949
  181POPC   GL1 2476   3.626   7.382   4.403
  181POPC   GL2 2477   3.250   7.405   4.533
  181POPC   C1A 2478   3.607   7.437   4.895
  181POPC   D2A 2479   3.389   7.271   5.276
  181POPC   C3A 2480   3.590   7.148   5.657
  181POPC   C4A 2481   3.767   6.789   5.904
  181POPC   C1B 2482   3.094   7.010   4.753
  181POPC   C2B 2483   3.128   6.824   5.180
  181POPC   C3B 2484   3.037   7.015   5.587
  181POPC   C4B 2485   3.058   7.451   5.673
  182POPC   NC3 2486   9.673   9.948   3.859
  182POPC   PO4 2487   9.075   9.834   4.177
  182POPC   GL1 2488   9.145  10.114   4.442
  182POPC   GL2 2489   9.394  10.242   4.196
  182POPC   C1A 2490   9.189   9.987   4.885
  182POPC   D2A 2491   9.471   9.907   5.225
  182POPC   C3A 2492   9.431   9.954   5.682
  182POPC   C4A 2493   9.261  10.117   6.117
  182POPC   C1B 2494   9.597  10.366   4.570
  182POPC   C2B 2495   9.509  10.400   4.991
  182POPC   C3B 2496   9.649  10.369   5.399
  182POPC   C4B 2497   9.456  10.450   5.795
  183POPC   NC3 2498   9.298   2.845   3.820
  183POPC   PO4 2499   9.637   2.486   4.110
  183POPC   GL1 2500   9.336   2.602   4.353
  183POPC   GL2 2501   9.059   2.799   4.257
  183POPC   C1A 2502   9.561   2.745   4.715
  183POPC   D2A 2503   9.584   2.537   5.059
  183POPC   C3A 2504   9.441   2.725   5.417
  183POPC   C4A 2505   9.610   2.587   5.772
  183POPC   C1B 2506   9.124   2.976   4.636
  183POPC   C2B 2507   9.248   3.013   5.038
  183POPC   C3B 2508   9.015   3.046   5.383
  183POPC   C4B 2509   9.101   2.862   5.780
  184POPC   NC3 2510   8.823   7.633   4.074
  184POPC   PO4 2511   8.370   8.121   4.123
  184POPC   GL1 2512   8.636   8.039   4.397
  184POPC   GL2 2513   8.571   7.744   4.489
  184POPC   C1A 2514   8.633   8.142   4.822
  184POPC   D2A 2515   8.588   7.933   5.214
  184POPC   C3A 2516   8.579   8.141   5.583
  184POPC   C4A 2517   8.962   8.155   5.777
  184POPC   C1B 2518   8.710   7.593   4.840
  184POPC   C2B 2519   8.470   7.438   5.150
  184POPC   C3B 2520   8.467   7.449   5.565
  184POPC   C4B 2521   8.799   7.689   5.721
  185POPC   NC3 2522   4.675   0.569   3.817
  185POPC   PO4 2523   5.300   0.176   3.924
  185POPC   GL1 2524   5.108   0.354   4.300
  185POPC   GL2 2525   4.761   0.393   4.286
  185POPC   C1A 2526   5.292   0.627   4.657
  185POPC   D2A 2527   5.152   0.811   5.032
  185POPC   C3A 2528   5.054   0.486   5.301
  185POPC   C4A 2529   5.002   0.503   5.733
  185POPC   C1B 2530   4.823   0.443   4.732
  185POPC   C2B 2531   4.604   0.331   5.097
  185POPC   C3B 2532   4.678   0.154   5.504
  185POPC   C4B 2533   4.623   0.182   5.952
  186POPC   NC3 2534   5.712  10.449   3.908
  186POPC   PO4 2535   5.378  10.060   3.582
  186POPC   GL1 2536   5.419  10.212   4.195
  186POPC   GL2 2537   5.751  10.193   4.359
  186POPC   C1A 2538   5.355  10.102   4.675
  186POPC   D2A 2539   5.410  10.157   5.136
  186POPC   C3A 2540   5.272  10.334   5.544
  186POPC   C4A 2541   5.421  10.244   5.988
  186POPC   C1B 2542   5.796  10.353   4.801
  186POPC   C2B 2543   5.832  10.430   5.250
  186POPC   C3B 2544   5.766  10.392   5.660
  186POPC   C4B 2545   5.902  10.116   6.010
  187POPC   NC3 2546  10.396   7.933   4.048
  187POPC   PO4 2547   9.919   8.268   3.837
  187POPC   GL1 2548   9.909   8.119   4.232
  187POPC   GL2 2549   9.943   7.749   4.247
  187POPC   C1A 2550   9.813   8.119   4.662
  187POPC   D2A 2551  10.036   8.107   5.000
  187POPC   C3A 2552   9.847   8.172   5.328
  187POPC   C4A 2553   9.854   8.245   5.736
  187POPC   C1B 2554  10.222   7.748   4.630
  187POPC   C2B 2555  10.468   7.822   5.003
  187POPC   C3B 2556  10.315   7.919   5.394
  187POPC   C4B 2557  10.185   7.823   5.786
  188POPC   NC3 2558   2.898   1.590   3.975
  188POPC   PO4 2559   2.744   0.941   3.843
  188POPC   GL1 2560   2.612   1.211   4.139
  188POPC   GL2 2561   2.968   1.171   4.274
  188POPC   C1A 2562   2.537   1.212   4.552
  188POPC   D2A 2563   2.740   1.001   4.885
  188POPC   C3A 2564   2.418   0.853   5.190
  188POPC   C4A 2565   2.373   0.983   5.609
  188POPC   C1B 2566   3.034   1.403   4.646
  188POPC   C2B 2567   2.921   1.456   5.060
  188POPC   C3B 2568   2.736   1.222   5.363
  188POPC   C4B 2569   2.803   1.265   5.803
  189POPC   NC3 2570   5.640   8.837   3.845
  189POPC   PO4 2571   6.138   8.315   3.835
  189POPC   GL1 2572   5.828   8.402   4.193
  189POPC   GL2 2573   5.786   8.736   4.311
  189POPC   C1A 2574   5.853   8.389   4.663
  189POPC   D2A 2575   6.051   8.509   5.047
  189POPC   C3A 2576   5.911   8.225   5.334
  189POPC   C4A 2577   5.607   8.247   5.628
  189POPC   C1B 2578   5.651   8.997   4.651
  189POPC   C2B 2579   5.760   9.001   5.068
  189POPC   C3B 2580   5.587   8.860   5.446
  189POPC   C4B 2581   5.606   9.000   5.856
  190POPC   NC3 2582   7.347   1.230   3.887
  190POPC   PO4 2583   6.764   0.864   3.899
  190POPC   GL1 2584   7.048   0.946   4.236
  190POPC   GL2 2585   7.075   1.288   4.306
  190POPC   C1A 2586   7.015   0.987   4.706
  190POPC   D2A 2587   7.071   1.139   5.124
  190POPC   C3A 2588   6.900   0.867   5.450
  190POPC   C4A 2589   7.110   0.832   5.897
  190POPC   C1B 2590   7.267   1.434   4.696
  190POPC   C2B 2591   7.107   1.657   4.990
  190POPC   C3B 2592   7.057   1.627   5.381
  190POPC   C4B 2593   7.104   1.275   5.637
  191POPC   NC3 2594   5.849   7.951   3.945
  191POPC   PO4 2595   5.218   8.081   3.947
  191POPC   GL1 2596   5.455   8.082   4.328
  191POPC   GL2 2597   5.785   7.914   4.439
  191POPC   C1A 2598   5.387   8.061   4.750
  191POPC   D2A 2599   5.111   8.216   5.022
  191POPC   C3A 2600   5.105   7.977   5.369
  191POPC   C4A 2601   5.396   7.753   5.627
  191POPC   C1B 2602   5.852   7.919   4.894
  191POPC   C2B 2603   5.772   7.702   5.280
  191POPC   C3B 2604   5.910   7.775   5.687
  191POPC   C4B 2605   6.179   8.119   5.756
  192POPC   NC3 2606   7.931   4.182   3.616
  192POPC   PO4 2607   7.923   4.800   3.994
  192POPC   GL1 2608   7.922   4.474   4.441
  192POPC   GL2 2609   8.099   4.054   4.558
  192POPC   C1A 2610   7.915   4.365   4.886
  192POPC   D2A 2611   8.150   4.041   5.064
  192POPC   C3A 2612   8.066   4.149   5.439
  192POPC   C4A 2613   7.912   4.294   5.836
  192POPC   C1B 2614   7.739   3.882   4.792
  192POPC   C2B 2615   7.666   3.910   5.232
  192POPC   C3B 2616   7.529   3.990   5.669
  192POPC   C4B 2617   7.681   3.896   6.107
  193POPC   NC3 2618   0.335   0.489   3.652
  193POPC   PO4 2619  10.084   0.428   3.793
  193POPC   GL1 2620   9.965   0.228   4.206
  193POPC   GL2 2621  10.146   0.509   4.318
  193POPC   C1A 2622  10.152  10.474   4.579
  193POPC   D2A 2623  10.276   0.019   4.998
  193POPC   C3A 2624  10.212   0.281   5.346
  193POPC   C4A 2625  10.150   0.161   5.754
  193POPC   C1B 2626   9.909   0.377   4.694
  193POPC   C2B 2627   9.742   0.336   5.112
  193POPC   C3B 2628   9.727   0.337   5.570
  193POPC   C4B 2629   9.879   0.581   5.907
  194POPC   NC3 2630   7.230   8.553   3.973
  194POPC   PO4 2631   6.837   8.979   3.663
  194POPC   GL1 2632   6.867   8.863   4.226
  194POPC   GL2 2633   7.125   8.621   4.443
  194POPC   C1A 2634   6.820   8.851   4.725
  194POPC   D2A 2635   7.170   8.771   5.040
  194POPC   C3A 2636   7.081   8.561   5.469
  194POPC   C4A 2637   6.840   8.689   5.848
  194POPC   C1B 2638   7.496   8.436   4.620
  194POPC   C2B 2639   7.731   8.457   5.017
  194POPC   C3B 2640   7.604   8.466   5.441
  194POPC   C4B 2641   7.485   8.794   5.729
  195POPC   NC3 2642   3.825   9.568   3.857
  195POPC   PO4 2643   4.482   9.714   3.859
  195POPC   GL1 2644   4.410   9.380   4.230
  195POPC   GL2 2645   4.184   9.121   4.218
  195POPC   C1A 2646   4.454   9.105   4.646
  195POPC   D2A 2647   4.246   9.181   5.077
  195POPC   C3A 2648   4.498   9.190   5.471
  195POPC   C4A 2649   4.390   9.253   5.917
  195POPC   C1B 2650   4.040   9.401   4.620
  195POPC   C2B 2651   4.071   9.660   5.052
  195POPC   C3B 2652   4.132   9.558   5.495
  195POPC   C4B 2653   3.963   9.162   5.629
  196POPC   NC3 2654   8.765   0.390   3.878
  196POPC   PO4 2655   9.168   0.943   4.007
  196POPC   GL1 2656   9.096   0.643   4.308
  196POPC   GL2 2657   8.961   0.311   4.322
  196POPC   C1A 2658   9.131   0.796   4.698
  196POPC   D2A 2659   8.931   0.878   5.054
  196POPC   C3A 2660   8.987   0.679   5.412
  196POPC   C4A 2661   8.621   0.612   5.606
  196POPC   C1B 2662   8.730   0.477   4.670
  196POPC   C2B 2663   8.680   0.378   5.103
  196POPC   C3B 2664   8.787   0.151   5.470
  196POPC   C4B 2665   8.605   0.175   5.870
  197POPC   NC3 2666  10.039   2.721   4.004
  197POPC   PO4 2667   9.837   2.170   3.685
  197POPC   GL1 2668  10.057   2.257   4.157
  197POPC   GL2 2669  10.293   2.489   4.408
  197POPC   C1A 2670   9.919   2.298   4.651
  197POPC   D2A 2671  10.108   2.610   4.939
  197POPC   C3A 2672   9.965   2.632   5.375
  197POPC   C4A 2673  10.060   2.849   5.747
  197POPC   C1B 2674  10.441   2.920   4.530
  197POPC   C2B 2675  10.432   3.087   4.940
  197POPC   C3B 2676  10.475   2.829   5.312
  197POPC   C4B 2677   0.070   2.914   5.729
  198POPC   NC3 2678   8.402   3.470   3.687
  198POPC   PO4 2679   8.983   3.192   3.838
  198POPC   GL1 2680   8.943   3.304   4.238
  198POPC   GL2 2681   8.717   3.575   4.200
  198POPC   C1A 2682   8.724   3.265   4.652
  198POPC   D2A 2683   8.444   3.173   5.005
  198POPC   C3A 2684   8.534   3.332   5.423
  198POPC   C4A 2685   8.807   3.289   5.782
  198POPC   C1B 2686   8.524   3.737   4.602
  198POPC   C2B 2687   8.558   3.713   5.035
  198POPC   C3B 2688   8.502   3.862   5.427
  198POPC   C4B 2689   8.498   3.692   5.846
  199POPC   NC3 2690   7.990   7.157   3.786
  199POPC   PO4 2691   8.630   7.225   3.927
  199POPC   GL1 2692   8.292   7.379   4.240
  199POPC   GL2 2693   7.956   7.295   4.295
  199POPC   C1A 2694   8.265   7.263   4.714
  199POPC   D2A 2695   7.978   7.093   5.087
  199POPC   C3A 2696   7.982   7.284   5.523
  199POPC   C4A 2697   8.061   7.204   6.009
  199POPC   C1B 2698   7.728   7.339   4.694
  199POPC   C2B 2699   7.545   7.437   5.119
  199POPC   C3B 2700   7.321   7.408   5.514
  199POPC   C4B 2701   7.585   7.268   5.852
  200POPC   NC3 2702   0.395   7.801   3.751
  200POPC   PO4 2703   0.105   8.345   3.980
  200POPC   GL1 2704   0.367   8.047   4.223
  200POPC   GL2 2705   0.271   7.701   4.257
  200POPC   C1A 2706   0.341   8.086   4.690
  200POPC   D2A 2707   0.487   8.002   5.122
  200POPC   C3A 2708   0.245   8.197   5.397
  200POPC   C4A 2709   0.048   8.174   5.787
  200POPC   C1B 2710   0.286   7.593   4.653
  200POPC   C2B 2711   0.352   7.492   5.077
  200POPC   C3B 2712   0.274   7.683   5.487
  200POPC   C4B 2713   0.576   7.981   5.697
  201POPC   NC3 2714   7.347   7.134   3.815
  201POPC   PO4 2715   7.767   6.721   3.944
  201POPC   GL1 2716   7.564   6.980   4.268
  201POPC   GL2 2717   7.429   7.336   4.275
  201POPC   C1A 2718   7.435   6.910   4.688
  201POPC   D2A 2719   7.429   6.735   5.093
  201POPC   C3A 2720   7.530   6.944   5.459
  201POPC   C4A 2721   7.298   6.854   5.864
  201POPC   C1B 2722   7.197   7.351   4.655
  201POPC   C2B 2723   7.124   7.164   5.061
  201POPC   C3B 2724   6.998   7.009   5.474
  201POPC   C4B 2725   6.961   7.241   5.856
  202POPC   NC3 2726   8.877  10.206   3.974
  202POPC   PO4 2727   8.468   9.620   3.902
  202POPC   GL1 2728   8.582   9.955   4.306
  202POPC   GL2 2729   8.625  10.360   4.382
  202POPC   C1A 2730   8.682  10.052   4.767
  202POPC   D2A 2731   8.504  10.391   5.051
  202POPC   C3A 2732   8.460  10.242   5.493
  202POPC   C4A 2733   8.492   9.845   5.756
  202POPC   C1B 2734   8.927  10.496   4.695
  202POPC   C2B 2735   9.008  10.416   5.079
  202POPC   C3B 2736   9.130  10.273   5.436
  202POPC   C4B 2737   8.880  10.231   5.804
  203POPC   NC3 2738   9.549   5.738   3.646
  203POPC   PO4 2739   9.648   6.224   4.171
  203POPC   GL1 2740   9.709   5.901   4.421
  203POPC   GL2 2741   9.559   5.616   4.276
  203POPC   C1A 2742   9.716   5.907   4.831
  203POPC   D2A 2743   9.511   5.850   5.180
  203POPC   C3A 2744   9.598   6.050   5.533
  203POPC   C4A 2745   9.717   6.169   5.913
  203POPC   C1B 2746   9.307   5.599   4.676
  203POPC   C2B 2747   9.419   5.369   5.053
  203POPC   C3B 2748   9.318   5.466   5.468
  203POPC   C4B 2749   9.390   5.699   5.827
  204POPC   NC3 2750   6.420   1.936   3.918
  204POPC   PO4 2751   6.055   2.448   3.876
  204POPC   GL1 2752   6.101   2.222   4.269
  204POPC   GL2 2753   6.447   2.107   4.374
  204POPC   C1A 2754   6.133   2.265   4.730
  204POPC   D2A 2755   6.167   2.033   5.098
  204POPC   C3A 2756   6.231   2.249   5.470
  204POPC   C4A 2757   6.159   2.099   5.879
  204POPC   C1B 2758   6.445   1.853   4.709
  204POPC   C2B 2759   6.617   1.790   5.131
  204POPC   C3B 2760   6.480   1.796   5.568
  204POPC   C4B 2761   6.773   1.597   5.841
  205POPC   NC3 2762   1.858   3.382   3.872
  205POPC   PO4 2763   1.579   2.892   4.079
  205POPC   GL1 2764   1.786   3.199   4.346
  205POPC   GL2 2765   1.739   3.589   4.319
  205POPC   C1A 2766   1.707   3.157   4.769
  205POPC   D2A 2767   1.880   3.001   5.120
  205POPC   C3A 2768   1.823   3.274   5.425
  205POPC   C4A 2769   2.190   3.122   5.608
  205POPC   C1B 2770   1.999   3.594   4.697
  205POPC   C2B 2771   1.944   3.740   5.136
  205POPC   C3B 2772   2.165   3.640   5.528
  205POPC   C4B 2773   1.946   3.475   5.900
  206POPC   NC3 2774   6.288   3.532   3.911
  206POPC   PO4 2775   6.740   3.853   3.918
  206POPC   GL1 2776   6.678   3.667   4.331
  206POPC   GL2 2777   6.395   3.476   4.397
  206POPC   C1A 2778   6.614   3.674   4.808
  206POPC   D2A 2779   6.564   3.465   5.201
  206POPC   C3A 2780   6.440   3.760   5.565
  206POPC   C4A 2781   6.376   3.924   6.009
  206POPC   C1B 2782   6.221   3.322   4.776
  206POPC   C2B 2783   6.155   3.151   5.196
  206POPC   C3B 2784   6.271   3.273   5.603
  206POPC   C4B 2785   6.020   3.559   5.816
  207POPC   NC3 2786   9.769   7.413   3.773
  207POPC   PO4 2787   0.004   7.537   3.823
  207POPC   GL1 2788  10.359   7.400   4.249
  207POPC   GL2 2789  10.298   7.048   4.269
  207POPC   C1A 2790  10.426   7.263   4.709
  207POPC   D2A 2791  10.315   7.124   5.109
  207POPC   C3A 2792  10.280   7.415   5.426
  207POPC   C4A 2793  10.452   7.389   5.822
  207POPC   C1B 2794   9.941   7.243   4.545
  207POPC   C2B 2795   9.751   7.119   4.947
  207POPC   C3B 2796   9.851   7.105   5.380
  207POPC   C4B 2797  10.096   7.044   5.751
  208POPC   NC3 2798   0.129  10.007   3.665
  208POPC   PO4 2799   0.473   0.083   3.884
  208POPC   GL1 2800   0.268  10.365   4.229
  208POPC   GL2 2801   0.282  10.020   4.155
  208POPC   C1A 2802   0.217  10.471   4.688
  208POPC   D2A 2803   0.503  10.481   5.059
  208POPC   C3A 2804   0.484  10.249   5.460
  208POPC   C4A 2805   0.239  10.247   5.822
  208POPC   C1B 2806   0.455  10.020   4.584
  208POPC   C2B 2807   0.443   9.808   4.985
  208POPC   C3B 2808   0.242   9.735   5.402
  208POPC   C4B 2809   0.381   9.768   5.827
  209POPC   NC3 2810   3.883   0.419   3.982
  209POPC   PO4 2811   4.284   0.781   3.671
  209POPC   GL1 2812   4.309   0.642   4.161
  209POPC   GL2 2813   4.243   0.298   4.329
  209POPC   C1A 2814   4.361   0.702   4.618
  209POPC   D2A 2815   4.172   0.726   5.042
  209POPC   C3A 2816   4.357   0.625   5.424
  209POPC   C4A 2817   4.303   0.532   5.821
  209POPC   C1B 2818   3.998   0.328   4.721
  209POPC   C2B 2819   4.098   0.222   5.155
  209POPC   C3B 2820   3.905   0.359   5.542
  209POPC   C4B 2821   3.923   0.244   5.989
  210POPC   NC3 2822   1.932   8.153   3.807
  210POPC   PO4 2823   2.065   7.461   3.742
  210POPC   GL1 2824   2.130   7.615   4.179
  210POPC   GL2 2825   2.038   7.984   4.287
  210POPC   C1A 2826   2.302   7.623   4.599
  210POPC   D2A 2827   2.437   7.761   5.018
  210POPC   C3A 2828   2.244   7.623   5.410
  210POPC   C4A 2829   2.098   7.526   5.818
  210POPC   C1B 2830   1.954   7.961   4.744
  210POPC   C2B 2831   2.017   8.014   5.176
  210POPC   C3B 2832   1.807   7.887   5.521
  210POPC   C4B 2833   1.648   7.807   5.923
  211POPC   NC3 2834   1.752   9.700   3.974
  211POPC   PO4 2835   2.029  10.338   3.813
  211POPC   GL1 2836   1.922  10.162   4.197
  211POPC   GL2 2837   1.545  10.160   4.210
  211POPC   C1A 2838   2.068  10.151   4.643
  211POPC   D2A 2839   2.197  10.351   5.053
  211POPC   C3A 2840   2.087  10.118   5.430
  211POPC   C4A 2841   1.963  10.277   5.787
  211POPC   C1B 2842   1.488  10.203   4.658
  211POPC   C2B 2843   1.728  10.146   5.036
  211POPC   C3B 2844   1.578  10.188   5.441
  211POPC   C4B 2845   1.699   9.854   5.722
  212POPC   NC3 2846   2.316   5.659   3.782
  212POPC   PO4 2847   1.684   5.367   3.708
  212POPC   GL1 2848   1.829   5.450   4.164
  212POPC   GL2 2849   1.495   5.479   4.310
  212POPC   C1A 2850   1.963   5.563   4.647
  212POPC   D2A 2851   2.172   5.856   4.999
  212POPC   C3A 2852   2.321   5.778   5.441
  212POPC   C4A 2853   2.217   5.608   5.862
  212POPC   C1B 2854   1.505   5.775   4.673
  212POPC   C2B 2855   1.694   5.769   5.088
  212POPC   C3B 2856   1.829   5.612   5.531
  212POPC   C4B 2857   1.776   5.812   5.926
  213POPC   NC3 2858   3.100   9.502   3.933
  213POPC   PO4 2859   3.754   9.116   3.776
  213POPC   GL1 2860   3.703   9.247   4.250
  213POPC   GL2 2861   3.596   9.597   4.316
  213POPC   C1A 2862   3.590   9.168   4.695
  213POPC   D2A 2863   3.726   9.108   5.106
  213POPC   C3A 2864   3.648   9.459   5.344
  213POPC   C4A 2865   3.508   9.399   5.776
  213POPC   C1B 2866   3.310   9.590   4.647
  213POPC   C2B 2867   3.214   9.357   5.044
  213POPC   C3B 2868   3.157   9.519   5.448
  213POPC   C4B 2869   2.982   9.767   5.795
  214POPC   NC3 2870   1.705   7.179   3.807
  214POPC   PO4 2871   2.188   6.785   3.902
  214POPC   GL1 2872   2.054   7.082   4.206
  214POPC   GL2 2873   1.732   7.076   4.324
  214POPC   C1A 2874   2.124   7.145   4.658
  214POPC   D2A 2875   2.332   7.262   5.024
  214POPC   C3A 2876   2.180   7.108   5.423
  214POPC   C4A 2877   2.064   7.001   5.843
  214POPC   C1B 2878   1.757   7.488   4.584
  214POPC   C2B 2879   1.867   7.535   5.049
  214POPC   C3B 2880   1.736   7.373   5.483
  214POPC   C4B 2881   1.637   7.295   5.935
  215POPC   NC3 2882   1.754   6.462   3.981
  215POPC   PO4 2883   2.338   6.095   3.917
  215POPC   GL1 2884   2.083   6.148   4.235
  215POPC   GL2 2885   2.177   6.476   4.303
  215POPC   C1A 2886   1.917   6.107   4.643
  215POPC   D2A 2887   1.836   6.304   5.049
  215POPC   C3A 2888   1.891   6.101   5.433
  215POPC   C4A 2889   2.125   6.137   5.787
  215POPC   C1B 2890   2.000   6.641   4.658
  215POPC   C2B 2891   2.149   6.732   5.072
  215POPC   C3B 2892   2.090   6.599   5.520
  215POPC   C4B 2893   1.732   6.492   5.751
  216POPC   NC3 2894   4.639   2.096   4.093
  216POPC   PO4 2895   5.268   1.849   4.017
  216POPC   GL1 2896   5.203   1.994   4.397
  216POPC   GL2 2897   4.886   2.104   4.530
  216POPC   C1A 2898   5.166   1.715   4.749
  216POPC   D2A 2899   4.989   1.783   5.133
  216POPC   C3A 2900   5.275   1.632   5.400
  216POPC   C4A 2901   5.404   1.858   5.707
  216POPC   C1B 2902   4.814   2.398   4.866
  216POPC   C2B 2903   4.850   2.421   5.318
  216POPC   C3B 2904   4.917   2.054   5.590
  216POPC   C4B 2905   4.646   1.803   5.836
  217POPC   NC3 2906   7.919   9.970   3.810
  217POPC   PO4 2907   7.637   0.145   3.883
  217POPC   GL1 2908   7.847   0.179   4.285
  217POPC   GL2 2909   8.104  10.431   4.243
  217POPC   C1A 2910   7.782   0.067   4.723
  217POPC   D2A 2911   7.992  10.425   5.094
  217POPC   C3A 2912   7.705  10.358   5.405
  217POPC   C4A 2913   7.583  10.468   5.799
  217POPC   C1B 2914   8.194  10.218   4.633
  217POPC   C2B 2915   8.225   9.948   4.978
  217POPC   C3B 2916   8.115   9.858   5.372
  217POPC   C4B 2917   8.020  10.091   5.720
  218POPC   NC3 2918   4.995   7.672   3.961
  218POPC   PO4 2919   4.607   7.971   4.237
  218POPC   GL1 2920   4.962   7.910   4.449
  218POPC   GL2 2921   4.967   8.252   4.513
  218POPC   C1A 2922   4.951   7.748   4.892
  218POPC   D2A 2923   4.719   7.587   5.268
  218POPC   C3A 2924   4.887   7.636   5.701
  218POPC   C4A 2925   4.790   7.446   6.169
  218POPC   C1B 2926   4.637   8.163   4.850
  218POPC   C2B 2927   4.595   8.096   5.291
  218POPC   C3B 2928   4.775   8.280   5.637
  218POPC   C4B 2929   5.152   8.148   5.850
  219POPC   NC3 2930   2.697   8.633   3.993
  219POPC   PO4 2931   3.241   9.121   4.143
  219POPC   GL1 2932   3.049   8.729   4.322
  219POPC   GL2 2933   2.706   8.841   4.440
  219POPC   C1A 2934   2.907   8.435   4.677
  219POPC   D2A 2935   2.846   8.576   5.060
  219POPC   C3A 2936   2.966   8.393   5.409
  219POPC   C4A 2937   2.985   8.720   5.705
  219POPC   C1B 2938   2.438   8.698   4.791
  219POPC   C2B 2939   2.335   8.823   5.180
  219POPC   C3B 2940   2.500   8.635   5.517
  219POPC   C4B 2941   2.568   8.403   5.859
  220POPC   NC3 2942   6.363   7.189   4.095
  220POPC   PO4 2943   6.973   7.327   3.990
  220POPC   GL1 2944   6.767   7.419   4.377
  220POPC   GL2 2945   6.731   7.086   4.515
  220POPC   C1A 2946   6.724   7.476   4.841
  220POPC   D2A 2947   6.630   7.176   5.166
  220POPC   C3A 2948   6.537   7.272   5.566
  220POPC   C4A 2949   6.444   7.142   5.976
  220POPC   C1B 2950   6.334   7.096   4.766
  220POPC   C2B 2951   6.163   6.926   5.167
  220POPC   C3B 2952   6.218   6.835   5.614
  220POPC   C4B 2953   5.932   6.930   5.976
  221POPC   NC3 2954   1.055   4.672   3.772
  221POPC   PO4 2955   1.116   5.273   4.007
  221POPC   GL1 2956   1.170   5.059   4.349
  221POPC   GL2 2957   1.167   4.740   4.271
  221POPC   C1A 2958   1.355   5.006   4.716
  221POPC   D2A 2959   1.519   5.308   4.951
  221POPC   C3A 2960   1.485   5.216   5.380
  221POPC   C4A 2961   1.538   4.968   5.769
  221POPC   C1B 2962   0.914   4.745   4.677
  221POPC   C2B 2963   1.010   4.976   5.072
  221POPC   C3B 2964   1.144   4.818   5.465
  221POPC   C4B 2965   1.045   5.139   5.765
  222POPC   NC3 2966   3.006   0.611   4.018
  222POPC   PO4 2967   2.412   0.240   4.059
  222POPC   GL1 2968   2.579   0.341   4.414
  222POPC   GL2 2969   2.942   0.245   4.343
  222POPC   C1A 2970   2.379   0.259   4.803
  222POPC   D2A 2971   2.378   0.317   5.226
  222POPC   C3A 2972   2.369   0.043   5.545
  222POPC   C4A 2973   2.540   0.205   5.904
  222POPC   C1B 2974   2.956   0.533   4.700
  222POPC   C2B 2975   2.818   0.554   5.122
  222POPC   C3B 2976   2.841   0.743   5.517
  222POPC   C4B 2977   2.764   0.701   5.964
  223POPC   NC3 2978   8.463   5.736   3.933
  223POPC   PO4 2979   9.199   5.634   3.921
  223POPC   GL1 2980   8.877   5.611   4.250
  223POPC   GL2 2981   8.750   5.924   4.333
  223POPC   C1A 2982   8.742   5.494   4.670
  223POPC   D2A 2983   8.918   5.265   5.005
  223POPC   C3A 2984   8.831   5.312   5.420
  223POPC   C4A 2985   8.803   5.405   5.814
  223POPC   C1B 2986   8.912   5.972   4.755
  223POPC   C2B 2987   9.027   5.743   5.121
  223POPC   C3B 2988   8.964   5.858   5.552
  223POPC   C4B 2989   8.572   5.963   5.767
  224POPC   NC3 2990   3.373  10.357   3.948
  224POPC   PO4 2991   2.807   9.891   3.860
  224POPC   GL1 2992   3.164   9.910   4.249
  224POPC   GL2 2993   3.492  10.116   4.407
  224POPC   C1A 2994   3.089  10.039   4.705
  224POPC   D2A 2995   3.248  10.214   5.088
  224POPC   C3A 2996   3.278  10.033   5.489
  224POPC   C4A 2997   3.349  10.090   5.950
  224POPC   C1B 2998   3.717  10.339   4.799
  224POPC   C2B 2999   3.612   0.072   5.181
  224POPC   C3B 3000   3.509   0.007   5.618
  224POPC   C4B 3001   3.803  10.285   5.882
  225POPC   NC3 3002   6.677  10.210   3.946
  225POPC   PO4 3003   6.038  10.038   3.950
  225POPC   GL1 3004   6.274  10.232   4.305
  225POPC   GL2 3005   6.622  10.391   4.406
  225POPC   C1A 3006   6.286  10.199   4.749
  225POPC   D2A 3007   6.155  10.041   5.153
  225POPC   C3A 3008   6.331  10.366   5.430
  225POPC   C4A 3009   6.204  10.478   5.850
  225POPC   C1B 3010   6.806  10.168   4.747
  225POPC   C2B 3011   6.681  10.097   5.144
  225POPC   C3B 3012   6.726   9.911   5.534
  225POPC   C4B 3013   6.641  10.213   5.827
  226POPC   NC3 3014   6.540   8.673   3.898
  226POPC   PO4 3015   6.863   8.109   3.948
  226POPC   GL1 3016   6.672   8.377   4.326
  226POPC   GL2 3017   6.314   8.510   4.325
  226POPC   C1A 3018   6.549   8.442   4.793
  226POPC   D2A 3019   6.666   8.659   5.184
  226POPC   C3A 3020   6.423   8.529   5.535
  226POPC   C4A 3021   6.359   8.494   6.022
  226POPC   C1B 3022   6.191   8.821   4.649
  226POPC   C2B 3023   6.279   8.974   5.072
  226POPC   C3B 3024   6.076   9.016   5.475
  226POPC   C4B 3025   5.963   8.632   5.707
  227POPC   NC3 3026   7.135   1.868   3.860
  227POPC   PO4 3027   6.707   2.364   3.969
  227POPC   GL1 3028   6.949   2.161   4.307
  227POPC   GL2 3029   7.021   1.817   4.369
  227POPC   C1A 3030   6.889   2.057   4.764
  227POPC   D2A 3031   7.087   2.150   5.110
  227POPC   C3A 3032   6.882   2.097   5.510
  227POPC   C4A 3033   7.053   2.213   5.897
  227POPC   C1B 3034   7.372   1.987   4.664
  227POPC   C2B 3035   7.565   1.901   5.058
  227POPC   C3B 3036   7.413   2.006   5.455
  227POPC   C4B 3037   7.270   1.773   5.813
  228POPC   NC3 3038   9.418   1.314   4.032
  228POPC   PO4 3039  10.024   1.449   3.895
  228POPC   GL1 3040   9.813   1.462   4.306
  228POPC   GL2 3041   9.746   1.099   4.352
  228POPC   C1A 3042   9.898   1.367   4.747
  228POPC   D2A 3043   9.834   1.096   5.072
  228POPC   C3A 3044   9.712   1.193   5.470
  228POPC   C4A 3045   9.782   1.519   5.735
  228POPC   C1B 3046   9.412   1.226   4.645
  228POPC   C2B 3047   9.318   1.230   5.034
  228POPC   C3B 3048   9.221   1.143   5.437
  228POPC   C4B 3049   9.306   1.332   5.870
  229POPC   NC3 3050   9.419   5.068   3.922
  229POPC   PO4 3051   9.863   5.461   3.888
  229POPC   GL1 3052   9.793   5.108   4.274
  229POPC   GL2 3053   9.618   4.819   4.299
  229POPC   C1A 3054   9.786   4.889   4.746
  229POPC   D2A 3055   9.676   4.745   5.167
  229POPC   C3A 3056   9.690   5.088   5.453
  229POPC   C4A 3057   9.629   5.229   5.896
  229POPC   C1B 3058   9.351   5.091   4.562
  229POPC   C2B 3059   9.255   4.914   4.909
  229POPC   C3B 3060   9.212   4.952   5.318
  229POPC   C4B 3061   9.194   5.053   5.720
  230POPC   NC3 3062   7.079   0.545   3.790
  230POPC   PO4 3063   7.687   0.851   3.905
  230POPC   GL1 3064   7.463   0.558   4.220
  230POPC   GL2 3065   7.100   0.449   4.282
  230POPC   C1A 3066   7.335   0.581   4.682
  230POPC   D2A 3067   7.134   0.604   5.080
  230POPC   C3A 3068   7.402   0.749   5.438
  230POPC   C4A 3069   7.491   0.502   5.818
  230POPC   C1B 3070   7.048   0.147   4.648
  230POPC   C2B 3071   7.312   0.111   5.013
  230POPC   C3B 3072   7.342   0.226   5.408
  230POPC   C4B 3073   7.039   0.418   5.623
  231POPC   NC3 3074   1.993   4.370   3.941
  231POPC   PO4 3075   2.139   3.715   3.986
  231POPC   GL1 3076   2.075   4.008   4.328
  231POPC   GL2 3077   1.724   4.128   4.315
  231POPC   C1A 3078   2.126   4.316   4.672
  231POPC   D2A 3079   2.101   4.490   5.108
  231POPC   C3A 3080   2.167   4.156   5.428
  231POPC   C4A 3081   2.374   4.011   5.822
  231POPC   C1B 3082   1.710   4.023   4.737
  231POPC   C2B 3083   1.654   4.283   5.083
  231POPC   C3B 3084   1.683   4.331   5.529
  231POPC   C4B 3085   1.804   3.941   5.737
  232POPC   NC3 3086   2.430   7.190   3.867
  232POPC   PO4 3087   2.893   7.620   3.825
  232POPC   GL1 3088   2.695   7.445   4.255
  232POPC   GL2 3089   2.541   7.106   4.356
  232POPC   C1A 3090   2.742   7.385   4.716
  232POPC   D2A 3091   2.919   7.358   5.105
  232POPC   C3A 3092   2.649   7.319   5.415
  232POPC   C4A 3093   2.518   7.237   5.790
  232POPC   C1B 3094   2.546   6.870   4.751
  232POPC   C2B 3095   2.624   6.857   5.205
  232POPC   C3B 3096   2.563   6.755   5.656
  232POPC   C4B 3097   2.479   6.872   6.130
  233POPC   NC3 3098   3.978   1.352   3.980
  233POPC   PO4 3099   3.293   1.328   3.910
  233POPC   GL1 3100   3.534   1.206   4.228
  233POPC   GL2 3101   3.431   0.886   4.238
  233POPC   C1A 3102   3.606   1.343   4.630
  233POPC   D2A 3103   3.424   1.463   5.017
  233POPC   C3A 3104   3.663   1.464   5.399
  233POPC   C4A 3105   3.690   1.306   5.790
  233POPC   C1B 3106   3.272   0.947   4.638
  233POPC   C2B 3107   3.240   0.893   5.070
  233POPC   C3B 3108   3.235   1.150   5.422
  233POPC   C4B 3109   3.222   0.946   5.797
  234POPC   NC3 3110   2.062   8.759   3.703
  234POPC   PO4 3111   2.228   8.909   4.262
  234POPC   GL1 3112   1.928   8.776   4.563
  234POPC   GL2 3113   1.750   8.423   4.571
  234POPC   C1A 3114   1.891   8.980   4.938
  234POPC   D2A 3115   1.769   8.976   5.328
  234POPC   C3A 3116   2.098   9.041   5.602
  234POPC   C4A 3117   2.199   8.769   5.914
  234POPC   C1B 3118   1.988   8.465   4.951
  234POPC   C2B 3119   1.989   8.494   5.402
  234POPC   C3B 3120   1.865   8.383   5.821
  234POPC   C4B 3121   2.166   8.348   6.206
  235POPC   NC3 3122   6.840   2.785   4.129
  235POPC   PO4 3123   7.402   3.106   3.865
  235POPC   GL1 3124   7.386   2.884   4.253
  235POPC   GL2 3125   7.326   2.520   4.209
  235POPC   C1A 3126   7.283   2.977   4.690
  235POPC   D2A 3127   7.456   2.937   5.100
  235POPC   C3A 3128   7.300   3.015   5.528
  235POPC   C4A 3129   7.342   3.015   5.991
  235POPC   C1B 3130   7.163   2.477   4.646
  235POPC   C2B 3131   7.022   2.651   5.035
  235POPC   C3B 3132   7.141   2.533   5.459
  235POPC   C4B 3133   6.968   2.707   5.836
  236POPC   NC3 3134   7.116   3.607   3.832
  236POPC   PO4 3135   7.739   3.829   3.920
  236POPC   GL1 3136   7.409   3.571   4.227
  236POPC   GL2 3137   7.084   3.308   4.233
  236POPC   C1A 3138   7.364   3.484   4.651
  236POPC   D2A 3139   7.626   3.412   4.989
  236POPC   C3A 3140   7.454   3.469   5.341
  236POPC   C4A 3141   7.448   3.486   5.747
  236POPC   C1B 3142   6.859   3.259   4.632
  236POPC   C2B 3143   7.045   3.275   5.061
  236POPC   C3B 3144   6.975   3.434   5.496
  236POPC   C4B 3145   6.876   3.215   5.849
  237POPC   NC3 3146   2.507   3.537   3.734
  237POPC   PO4 3147   3.084   3.880   3.940
  237POPC   GL1 3148   2.769   3.612   4.279
  237POPC   GL2 3149   2.419   3.424   4.297
  237POPC   C1A 3150   2.474   3.822   4.641
  237POPC   D2A 3151   2.446   3.712   5.092
  237POPC   C3A 3152   2.691   3.880   5.437
  237POPC   C4A 3153   2.828   3.742   5.858
  237POPC   C1B 3154   2.568   3.335   4.732
  237POPC   C2B 3155   2.419   3.209   5.144
  237POPC   C3B 3156   2.621   3.367   5.522
  237POPC   C4B 3157   2.441   3.425   5.924
  238POPC   NC3 3158   9.627   0.444   3.777
  238POPC   PO4 3159   9.146   0.087   3.878
  238POPC   GL1 3160   9.454   0.251   4.215
  238POPC   GL2 3161   9.614   0.605   4.275
  238POPC   C1A 3162   9.393   0.325   4.649
  238POPC   D2A 3163   9.165   0.386   4.984
  238POPC   C3A 3164   9.284   0.258   5.360
  238POPC   C4A 3165   9.151   0.353   5.766
  238POPC   C1B 3166   9.630   0.778   4.736
  238POPC   C2B 3167   9.461   0.757   5.173
  238POPC   C3B 3168   9.463   0.751   5.624
  238POPC   C4B 3169   9.292   0.766   6.035
  239POPC   NC3 3170   8.563   8.536   4.012
  239POPC   PO4 3171   9.130   8.872   3.947
  239POPC   GL1 3172   9.005   8.659   4.373
  239POPC   GL2 3173   8.695   8.536   4.476
  239POPC   C1A 3174   8.962   8.663   4.863
  239POPC   D2A 3175   9.016   8.326   5.150
  239POPC   C3A 3176   8.961   8.582   5.512
  239POPC   C4A 3177   8.865   8.758   5.924
  239POPC   C1B 3178   8.436   8.631   4.808
  239POPC   C2B 3179   8.526   8.480   5.189
  239POPC   C3B 3180   8.462   8.640   5.556
  239POPC   C4B 3181   8.391   8.941   5.784
  240POPC   NC3 3182   1.949   0.245   3.982
  240POPC   PO4 3183   1.822   0.872   3.845
  240POPC   GL1 3184   2.166   0.694   4.215
  240POPC   GL2 3185   2.037   0.437   4.436
  240POPC   C1A 3186   2.318   0.753   4.685
  240POPC   D2A 3187   1.989   0.551   4.992
  240POPC   C3A 3188   2.041   0.603   5.459
  240POPC   C4A 3189   2.166   0.666   5.919
  240POPC   C1B 3190   1.856   0.118   4.683
  240POPC   C2B 3191   1.644   0.137   5.061
  240POPC   C3B 3192   1.874   0.119   5.406
  240POPC   C4B 3193   1.900   0.263   5.819
  241POPC   NC3 3194   4.288   3.631   3.924
  241POPC   PO4 3195   4.682   3.248   3.899
  241POPC   GL1 3196   4.540   3.234   4.322
  241POPC   GL2 3197   4.194   3.230   4.332
  241POPC   C1A 3198   4.443   3.276   4.786
  241POPC   D2A 3199   4.481   3.299   5.237
  241POPC   C3A 3200   4.399   3.674   5.521
  241POPC   C4A 3201   4.297   4.000   5.879
  241POPC   C1B 3202   3.984   3.055   4.667
  241POPC   C2B 3203   3.966   3.149   5.102
  241POPC   C3B 3204   4.053   3.275   5.515
  241POPC   C4B 3205   4.001   3.582   5.821
  242POPC   NC3 3206   0.378   8.733   3.991
  242POPC   PO4 3207   0.730   8.165   3.786
  242POPC   GL1 3208   0.770   8.405   4.239
  242POPC   GL2 3209   0.453   8.499   4.423
  242POPC   C1A 3210   0.835   8.758   4.601
  242POPC   D2A 3211   0.563   8.933   4.975
  242POPC   C3A 3212   0.655   8.861   5.456
  242POPC   C4A 3213   0.482   8.491   5.735
  242POPC   C1B 3214   0.101   8.726   4.597
  242POPC   C2B 3215   0.034   8.867   4.988
  242POPC   C3B 3216   0.188   8.708   5.343
  242POPC   C4B 3217   0.134   8.845   5.741
  243POPC   NC3 3218   1.165   2.709   4.132
  243POPC   PO4 3219   1.385   3.390   3.818
  243POPC   GL1 3220   1.286   3.343   4.255
  243POPC   GL2 3221   1.225   3.698   4.393
  243POPC   C1A 3222   1.167   3.139   4.659
  243POPC   D2A 3223   0.831   3.234   4.946
  243POPC   C3A 3224   0.895   3.136   5.362
  243POPC   C4A 3225   0.916   3.204   5.785
  243POPC   C1B 3226   1.435   3.580   4.743
  243POPC   C2B 3227   1.332   3.370   5.105
  243POPC   C3B 3228   1.208   3.496   5.493
  243POPC   C4B 3229   1.463   3.428   5.797
  244POPC   NC3 3230   6.029   2.831   4.132
  244POPC   PO4 3231   5.470   2.813   3.892
  244POPC   GL1 3232   5.518   2.831   4.328
  244POPC   GL2 3233   5.663   2.498   4.312
  244POPC   C1A 3234   5.479   3.005   4.787
  244POPC   D2A 3235   5.719   2.860   5.197
  244POPC   C3A 3236   5.727   3.040   5.605
  244POPC   C4A 3237   5.399   3.220   5.878
  244POPC   C1B 3238   5.743   2.576   4.755
  244POPC   C2B 3239   5.772   2.354   5.142
  244POPC   C3B 3240   5.780   2.472   5.597
  244POPC   C4B 3241   6.039   2.582   5.980
  245POPC   NC3 3242   0.392   4.455   3.943
  245POPC   PO4 3243   0.757   4.992   3.675
  245POPC   GL1 3244   0.705   4.997   4.140
  245POPC   GL2 3245   0.542   4.762   4.339
  245POPC   C1A 3246   0.663   5.186   4.596
  245POPC   D2A 3247   0.506   5.031   5.020
  245POPC   C3A 3248   0.661   4.987   5.449
  245POPC   C4A 3249   0.676   4.648   5.707
  245POPC   C1B 3250   0.191   4.908   4.648
  245POPC   C2B 3251   0.055   4.754   5.069
  245POPC   C3B 3252   0.182   4.785   5.511
  245POPC   C4B 3253   0.191   5.091   5.852
  246POPC   NC3 3254   4.348  10.138   3.947
  246POPC   PO4 3255   3.661  10.001   3.920
  246POPC   GL1 3256   3.957   9.968   4.218
  246POPC   GL2 3257   4.010  10.322   4.273
  246POPC   C1A 3258   3.927   9.901   4.628
  246POPC   D2A 3259   3.607   9.863   4.949
  246POPC   C3A 3260   3.761  10.058   5.315
  246POPC   C4A 3261   3.729   9.833   5.692
  246POPC   C1B 3262   4.213  10.337   4.661
  246POPC   C2B 3263   4.410  10.062   4.979
  246POPC   C3B 3264   4.292  10.057   5.408
  246POPC   C4B 3265   4.216  10.458   5.633
  247POPC   NC3 3266   6.232   9.599   3.993
  247POPC   PO4 3267   6.827   9.802   4.068
  247POPC   GL1 3268   6.521   9.801   4.415
  247POPC   GL2 3269   6.311   9.483   4.469
  247POPC   C1A 3270   6.449   9.735   4.872
  247POPC   D2A 3271   6.140   9.463   5.041
  247POPC   C3A 3272   6.152   9.546   5.457
  247POPC   C4A 3273   6.229   9.936   5.674
  247POPC   C1B 3274   6.564   9.267   4.747
  247POPC   C2B 3275   6.741   9.204   5.161
  247POPC   C3B 3276   6.668   9.361   5.607
  247POPC   C4B 3277   6.670   9.293   6.083
  248POPC   NC3 3278   0.767   7.020   4.114
  248POPC   PO4 3279   1.420   6.827   3.962
  248POPC   GL1 3280   1.226   7.005   4.333
  248POPC   GL2 3281   1.119   7.360   4.340
  248POPC   C1A 3282   1.157   7.050   4.763
  248POPC   D2A 3283   1.262   6.968   5.173
  248POPC   C3A 3284   0.894   6.933   5.398
  248POPC   C4A 3285   0.871   7.024   5.801
  248POPC   C1B 3286   1.235   7.556   4.754
  248POPC   C2B 3287   1.355   7.609   5.192
  248POPC   C3B 3288   1.214   7.343   5.541
  248POPC   C4B 3289   1.366   6.913   5.700
  249POPC   NC3 3290   4.106   7.213   3.947
  249POPC   PO4 3291   4.627   7.473   3.781
  249POPC   GL1 3292   4.493   7.460   4.241
  249POPC   GL2 3293   4.157   7.358   4.414
  249POPC   C1A 3294   4.549   7.383   4.723
  249POPC   D2A 3295   4.389   7.068   5.043
  249POPC   C3A 3296   4.326   7.262   5.422
  249POPC   C4A 3297   4.592   7.239   5.748
  249POPC   C1B 3298   3.971   7.099   4.738
  249POPC   C2B 3299   3.883   7.109   5.198
  249POPC   C3B 3300   4.065   6.843   5.511
  249POPC   C4B 3301   4.316   6.607   5.819
  250POPC   NC3 3302   4.800   8.311   3.986
  250POPC   PO4 3303   4.717   8.946   3.984
  250POPC   GL1 3304   4.935   8.722   4.305
  250POPC   GL2 3305   5.252   8.552   4.168
  250POPC   C1A 3306   4.915   8.755   4.765
  250POPC   D2A 3307   4.802   8.572   5.166
  250POPC   C3A 3308   4.791   8.783   5.592
  250POPC   C4A 3309   4.736   8.880   6.041
  250POPC   C1B 3310   5.373   8.554   4.604
  250POPC   C2B 3311   5.499   8.535   5.052
  250POPC   C3B 3312   5.219   8.513   5.448
  250POPC   C4B 3313   5.204   8.672   5.882
  251POPC   NC3 3314   7.766   5.114   4.288
  251POPC   PO4 3315   8.309   5.279   3.961
  251POPC   GL1 3316   8.269   5.160   4.356
  251POPC   GL2 3317   8.275   4.836   4.375
  251POPC   C1A 3318   8.175   5.313   4.770
  251POPC   D2A 3319   7.919   5.099   5.135
  251POPC   C3A 3320   7.901   5.265   5.568
  251POPC   C4A 3321   7.889   5.287   6.021
  251POPC   C1B 3322   8.114   4.816   4.752
  251POPC   C2B 3323   8.251   4.691   5.104
  251POPC   C3B 3324   8.000   4.651   5.439
  251POPC   C4B 3325   7.885   4.805   5.816
  252POPC   NC3 3326   7.545   9.045   3.748
  252POPC   PO4 3327   8.160   8.674   3.803
  252POPC   GL1 3328   7.903   8.659   4.176
  252POPC   GL2 3329   8.217   8.712   4.346
  252POPC   C1A 3330   7.823   8.820   4.631
  252POPC   D2A 3331   8.041   9.017   4.980
  252POPC   C3A 3332   7.990   8.884   5.422
  252POPC   C4A 3333   7.896   9.055   5.870
  252POPC   C1B 3334   8.053   8.357   4.620
  252POPC   C2B 3335   8.138   8.131   4.996
  252POPC   C3B 3336   8.096   8.317   5.402
  252POPC   C4B 3337   8.015   8.547   5.803
  253POPC   NC3 3338   8.814   1.268   4.032
  253POPC   PO4 3339   8.389   0.741   3.847
  253POPC   GL1 3340   8.389   1.070   4.208
  253POPC   GL2 3341   8.663   0.937   4.420
  253POPC   C1A 3342   8.401   1.415   4.578
  253POPC   D2A 3343   8.458   1.682   4.975
  253POPC   C3A 3344   8.411   1.469   5.429
  253POPC   C4A 3345   8.416   1.073   5.717
  253POPC   C1B 3346   8.881   1.259   4.700
  253POPC   C2B 3347   8.842   1.386   5.139
  253POPC   C3B 3348   8.883   1.453   5.588
  253POPC   C4B 3349   8.902   1.037   5.843
  254POPC   NC3 3350   1.317   5.643   3.813
  254POPC   PO4 3351   0.726   5.973   3.741
  254POPC   GL1 3352   0.955   6.004   4.125
  254POPC   GL2 3353   0.945   5.673   4.238
  254POPC   C1A 3354   1.065   6.016   4.594
  254POPC   D2A 3355   0.819   6.035   4.994
  254POPC   C3A 3356   0.975   6.018   5.406
  254POPC   C4A 3357   0.980   5.754   5.786
  254POPC   C1B 3358   1.084   5.481   4.647
  254POPC   C2B 3359   1.133   5.631   5.063
  254POPC   C3B 3360   1.349   5.701   5.441
  254POPC   C4B 3361   1.423   5.477   5.818
  255POPC   NC3 3362   7.230   9.553   3.970
  255POPC   PO4 3363   7.354   8.957   4.148
  255POPC   GL1 3364   7.204   9.267   4.391
  255POPC   GL2 3365   6.866   9.374   4.338
  255POPC   C1A 3366   7.128   9.238   4.789
  255POPC   D2A 3367   7.310   9.292   5.120
  255POPC   C3A 3368   7.148   9.080   5.451
  255POPC   C4A 3369   7.086   9.133   5.846
  255POPC   C1B 3370   6.915   9.668   4.687
  255POPC   C2B 3371   6.958   9.670   5.107
  255POPC   C3B 3372   7.137   9.597   5.499
  255POPC   C4B 3373   7.001   9.640   5.924
  256POPC   NC3 3374   0.331   3.711   4.107
  256POPC   PO4 3375   0.641   3.151   3.789
  256POPC   GL1 3376   0.493   3.242   4.205
  256POPC   GL2 3377   0.763   3.423   4.326
  256POPC   C1A 3378   0.315   3.306   4.624
  256POPC   D2A 3379   0.388   3.510   5.014
  256POPC   C3A 3380   0.221   3.320   5.376
  256POPC   C4A 3381   0.426   3.255   5.750
  256POPC   C1B 3382   0.800   3.688   4.693
  256POPC   C2B 3383   0.902   3.692   5.125
  256POPC   C3B 3384   0.697   3.596   5.465
  256POPC   C4B 3385   0.852   3.710   5.841
  257POPC   NC3 3386   7.237   0.033   4.054
  257POPC   PO4 3387   7.491   9.933   3.979
  257POPC   GL1 3388   7.277   9.833   4.376
  257POPC   GL2 3389   7.087  10.139   4.336
  257POPC   C1A 3390   7.406   9.723   4.813
  257POPC   D2A 3391   7.703   9.962   5.064
  257POPC   C3A 3392   7.600   9.849   5.491
  257POPC   C4A 3393   7.260  10.042   5.743
  257POPC   C1B 3394   7.335  10.208   4.718
  257POPC   C2B 3395   7.218  10.123   5.171
  257POPC   C3B 3396   6.974  10.381   5.469
  257POPC   C4B 3397   7.084  10.496   5.894
  258POPC   NC3 3398   0.246   3.578   3.615
  258POPC   PO4 3399   0.651   4.047   3.986
  258POPC   GL1 3400   0.369   4.154   4.350
  258POPC   GL2 3401   0.153   4.443   4.419
  258POPC   C1A 3402   0.340   3.952   4.714
  258POPC   D2A 3403   0.525   4.019   5.082
  258POPC   C3A 3404   0.277   3.869   5.384
  258POPC   C4A 3405   0.317   3.730   5.796
  258POPC   C1B 3406   0.460   4.489   4.789
  258POPC   C2B 3407   0.734   4.489   5.184
  258POPC   C3B 3408   0.714   4.158   5.539
  258POPC   C4B 3409   0.336   4.242   5.756
  259POPC   NC3 3410   9.116   7.329   3.692
  259POPC   PO4 3411   9.539   7.786   3.923
  259POPC   GL1 3412   9.310   7.470   4.167
  259POPC   GL2 3413   9.444   7.143   4.271
  259POPC   C1A 3414   9.158   7.439   4.593
  259POPC   D2A 3415   9.203   7.532   4.997
  259POPC   C3A 3416   9.431   7.383   5.322
  259POPC   C4A 3417   9.283   7.457   5.739
  259POPC   C1B 3418   9.312   6.976   4.716
  259POPC   C2B 3419   9.336   6.748   5.134
  259POPC   C3B 3420   9.301   6.931   5.552
  259POPC   C4B 3421   9.602   7.062   5.816
  260POPC   NC3 3422   2.802   2.507   3.837
  260POPC   PO4 3423   2.339   3.090   3.802
  260POPC   GL1 3424   2.300   2.876   4.247
  260POPC   GL2 3425   2.472   2.531   4.302
  260POPC   C1A 3426   2.454   2.849   4.688
  260POPC   D2A 3427   2.781   2.878   5.006
  260POPC   C3A 3428   2.625   2.840   5.440
  260POPC   C4A 3429   2.524   2.853   5.870
  260POPC   C1B 3430   2.879   2.559   4.563
  260POPC   C2B 3431   3.195   2.538   4.894
  260POPC   C3B 3432   3.095   2.595   5.323
  260POPC   C4B 3433   2.931   2.566   5.754
  261POPC   NC3 3434   8.992   4.299   3.912
  261POPC   PO4 3435   9.610   3.889   3.889
  261POPC   GL1 3436   9.466   4.078   4.217
  261POPC   GL2 3437   9.478   4.368   4.164
  261POPC   C1A 3438   9.406   3.997   4.628
  261POPC   D2A 3439   9.464   3.747   4.994
  261POPC   C3A 3440   9.374   3.956   5.361
  261POPC   C4A 3441   9.494   3.992   5.776
  261POPC   C1B 3442   9.358   4.503   4.627
  261POPC   C2B 3443   9.204   4.460   5.111
  261POPC   C3B 3444   9.318   4.491   5.556
  261POPC   C4B 3445   9.621   4.466   5.901
  262POPC   NC3 3446   5.055   2.988   3.917
  262POPC   PO4 3447   4.520   2.502   3.895
  262POPC   GL1 3448   4.769   2.583   4.284
  262POPC   GL2 3449   5.118   2.489   4.190
  262POPC   C1A 3450   4.894   2.870   4.653
  262POPC   D2A 3451   4.867   2.935   5.128
  262POPC   C3A 3452   4.747   2.945   5.572
  262POPC   C4A 3453   4.895   3.189   5.976
  262POPC   C1B 3454   5.251   2.495   4.614
  262POPC   C2B 3455   5.272   2.635   5.063
  262POPC   C3B 3456   5.253   2.769   5.516
  262POPC   C4B 3457   5.026   2.708   5.939
  263POPC   NC3 3458   0.286   6.125   3.868
  263POPC   PO4 3459   0.596   6.732   3.819
  263POPC   GL1 3460   0.587   6.407   4.160
  263POPC   GL2 3461   0.250   6.325   4.317
  263POPC   C1A 3462   0.625   6.250   4.590
  263POPC   D2A 3463   0.512   6.475   4.965
  263POPC   C3A 3464   0.542   6.281   5.356
  263POPC   C4A 3465   0.653   6.150   5.764
  263POPC   C1B 3466   0.099   6.233   4.723
  263POPC   C2B 3467  10.478   6.469   5.054
  263POPC   C3B 3468   0.197   6.646   5.367
  263POPC   C4B 3469   0.498   6.643   5.720
  264POPC   NC3 3470   0.602   1.442   3.797
  264POPC   PO4 3471   0.883   0.832   3.730
  264POPC   GL1 3472   0.669   1.033   4.115
  264POPC   GL2 3473   0.357   1.214   4.178
  264POPC   C1A 3474   0.644   1.175   4.587
  264POPC   D2A 3475   0.545   1.041   5.006
  264POPC   C3A 3476   0.662   1.122   5.412
  264POPC   C4A 3477   0.764   1.000   5.801
  264POPC   C1B 3478   0.151   1.082   4.581
  264POPC   C2B 3479   0.102   0.836   4.943
  264POPC   C3B 3480   0.039   0.829   5.396
  264POPC   C4B 3481   0.241   1.097   5.712
  265POPC   NC3 3482   6.455   7.974   3.778
  265POPC   PO4 3483   6.050   7.530   4.008
  265POPC   GL1 3484   6.283   7.649   4.332
  265POPC   GL2 3485   6.542   7.880   4.287
  265POPC   C1A 3486   6.239   7.607   4.759
  265POPC   D2A 3487   6.221   7.474   5.171
  265POPC   C3A 3488   6.396   7.752   5.464
  265POPC   C4A 3489   6.368   7.643   5.886
  265POPC   C1B 3490   6.258   8.083   4.588
  265POPC   C2B 3491   6.321   8.056   5.045
  265POPC   C3B 3492   6.696   8.143   5.285
  265POPC   C4B 3493   6.772   8.208   5.720
  266POPC   NC3 3494   8.078   1.111   3.792
  266POPC   PO4 3495   7.611   1.537   3.645
  266POPC   GL1 3496   7.783   1.308   4.137
  266POPC   GL2 3497   7.535   1.075   4.349
  266POPC   C1A 3498   7.994   1.109   4.516
  266POPC   D2A 3499   8.118   0.912   4.897
  266POPC   C3A 3500   7.848   0.951   5.255
  266POPC   C4A 3501   7.968   1.227   5.585
  266POPC   C1B 3502   7.564   1.033   4.818
  266POPC   C2B 3503   7.531   1.379   5.132
  266POPC   C3B 3504   7.544   1.465   5.539
  266POPC   C4B 3505   7.543   1.089   5.830
  267POPC   NC3 3506   0.591   5.426   3.825
  267POPC   PO4 3507   0.168   4.868   4.004
  267POPC   GL1 3508   0.295   5.276   4.236
  267POPC   GL2 3509   0.392   5.683   4.226
  267POPC   C1A 3510   0.196   5.437   4.659
  267POPC   D2A 3511   0.063   5.284   5.047
  267POPC   C3A 3512   0.286   5.312   5.409
  267POPC   C4A 3513   0.568   5.434   5.771
  267POPC   C1B 3514   0.616   5.721   4.627
  267POPC   C2B 3515   0.536   5.603   5.070
  267POPC   C3B 3516   0.366   5.819   5.469
  267POPC   C4B 3517   0.193   6.017   5.884
  268POPC   NC3 3518   9.235   6.022   4.157
  268POPC   PO4 3519   8.631   6.222   3.871
  268POPC   GL1 3520   8.689   6.412   4.250
  268POPC   GL2 3521   8.987   6.480   4.163
  268POPC   C1A 3522   8.548   6.322   4.652
  268POPC   D2A 3523   8.396   6.289   5.046
  268POPC   C3A 3524   8.645   6.277   5.387
  268POPC   C4A 3525   8.494   6.468   5.778
  268POPC   C1B 3526   8.971   6.605   4.627
  268POPC   C2B 3527   8.821   6.618   5.044
  268POPC   C3B 3528   8.845   6.739   5.488
  268POPC   C4B 3529   8.975   6.663   5.911
  269POPC   NC3 3530   5.601   9.835   3.902
  269POPC   PO4 3531   5.909   9.228   3.939
  269POPC   GL1 3532   5.831   9.583   4.289
  269POPC   GL2 3533   5.518   9.724   4.381
  269POPC   C1A 3534   5.937   9.810   4.682
  269POPC   D2A 3535   5.689   9.741   5.055
  269POPC   C3A 3536   5.743   9.910   5.466
  269POPC   C4A 3537   5.824   9.671   5.828
  269POPC   C1B 3538   5.351   9.504   4.699
  269POPC   C2B 3539   5.370   9.336   5.108
  269POPC   C3B 3540   5.612   9.377   5.471
  269POPC   C4B 3541   5.377   9.469   5.858
  270POPC   NC3 3542   4.343   2.937   3.930
  270POPC   PO4 3543   3.922   2.427   4.007
  270POPC   GL1 3544   4.218   2.404   4.282
  270POPC   GL2 3545   4.267   2.718   4.378
  270POPC   C1A 3546   4.301   2.264   4.662
  270POPC   D2A 3547   4.362   2.303   5.083
  270POPC   C3A 3548   4.006   2.266   5.288
  270POPC   C4A 3549   3.913   2.342   5.676
  270POPC   C1B 3550   4.415   2.755   4.797
  270POPC   C2B 3551   4.367   2.791   5.242
  270POPC   C3B 3552   4.167   2.791   5.645
  270POPC   C4B 3553   4.076   3.080   6.007
  271POPC   NC3 3554   3.471   2.196   4.010
  271POPC   PO4 3555   3.936   1.718   3.700
  271POPC   GL1 3556   3.654   1.716   4.169
  271POPC   GL2 3557   3.284   1.666   4.291
  271POPC   C1A 3558   3.546   1.854   4.654
  271POPC   D2A 3559   3.667   1.941   5.097
  271POPC   C3A 3560   3.474   1.918   5.497
  271POPC   C4A 3561   3.235   1.581   5.727
  271POPC   C1B 3562   3.040   1.916   4.662
  271POPC   C2B 3563   3.108   2.011   5.105
  271POPC   C3B 3564   3.021   2.118   5.540
  271POPC   C4B 3565   3.226   2.049   5.956
  272POPC   NC3 3566   7.788   3.363   3.951
  272POPC   PO4 3567   8.239   3.883   3.782
  272POPC   GL1 3568   8.197   3.619   4.157
  272POPC   GL2 3569   7.889   3.620   4.379
  272POPC   C1A 3570   8.256   3.312   4.504
  272POPC   D2A 3571   8.101   3.532   4.862
  272POPC   C3A 3572   8.085   3.579   5.306
  272POPC   C4A 3573   7.983   3.752   5.712
  272POPC   C1B 3574   7.776   3.166   4.564
  272POPC   C2B 3575   7.942   3.005   4.958
  272POPC   C3B 3576   7.841   3.142   5.395
  272POPC   C4B 3577   8.119   3.264   5.761
  273POPC   NC3 3578   2.277   0.982   3.817
  273POPC   PO4 3579   2.380   1.668   3.901
  273POPC   GL1 3580   2.161   1.473   4.257
  273POPC   GL2 3581   1.994   1.171   4.234
  273POPC   C1A 3582   2.080   1.436   4.686
  273POPC   D2A 3583   2.359   1.341   5.027
  273POPC   C3A 3584   2.191   1.434   5.394
  273POPC   C4A 3585   2.326   1.451   5.792
  273POPC   C1B 3586   1.861   0.968   4.649
  273POPC   C2B 3587   1.943   1.045   5.098
  273POPC   C3B 3588   1.857   1.052   5.539
  273POPC   C4B 3589   1.752   1.397   5.698
  274POPC   NC3 3590   7.192   7.733   3.962
  274POPC   PO4 3591   7.548   8.266   3.837
  274POPC   GL1 3592   7.265   8.138   4.262
  274POPC   GL2 3593   7.321   7.815   4.458
  274POPC   C1A 3594   7.026   8.181   4.666
  274POPC   D2A 3595   7.238   8.268   5.053
  274POPC   C3A 3596   7.186   8.023   5.403
  274POPC   C4A 3597   7.313   8.169   5.742
  274POPC   C1B 3598   7.187   7.766   4.940
  274POPC   C2B 3599   6.898   7.614   5.303
  274POPC   C3B 3600   6.853   7.715   5.750
  274POPC   C4B 3601   6.755   7.561   6.208
  275POPC   NC3 3602   4.195   2.117   3.788
  275POPC   PO4 3603   4.541   1.645   4.084
  275POPC   GL1 3604   4.438   1.782   4.446
  275POPC   GL2 3605   4.124   1.901   4.290
  275POPC   C1A 3606   4.546   1.872   4.876
  275POPC   D2A 3607   4.520   1.854   5.323
  275POPC   C3A 3608   4.415   2.201   5.591
  275POPC   C4A 3609   4.220   2.084   5.972
  275POPC   C1B 3610   4.039   1.816   4.742
  275POPC   C2B 3611   4.084   1.642   5.146
  275POPC   C3B 3612   4.000   1.835   5.557
  275POPC   C4B 3613   3.741   1.808   5.920
  276POPC   NC3 3614   2.459   9.290   4.200
  276POPC   PO4 3615   1.981   9.342   3.731
  276POPC   GL1 3616   1.926   9.308   4.231
  276POPC   GL2 3617   1.661   9.077   4.250
  276POPC   C1A 3618   2.094   9.391   4.709
  276POPC   D2A 3619   2.347   9.334   5.092
  276POPC   C3A 3620   2.139   9.551   5.431
  276POPC   C4A 3621   2.023   9.505   5.845
  276POPC   C1B 3622   1.601   9.278   4.633
  276POPC   C2B 3623   1.697   9.517   5.007
  276POPC   C3B 3624   1.625   9.462   5.417
  276POPC   C4B 3625   1.616   9.212   5.756
  277POPC   NC3 3626   4.978   1.477   4.157
  277POPC   PO4 3627   4.940   0.948   3.731
  277POPC   GL1 3628   4.729   0.927   4.182
  277POPC   GL2 3629   4.532   1.197   4.327
  277POPC   C1A 3630   4.818   0.934   4.655
  277POPC   D2A 3631   4.652   0.839   5.041
  277POPC   C3A 3632   4.789   0.905   5.455
  277POPC   C4A 3633   4.485   1.023   5.777
  277POPC   C1B 3634   4.719   1.415   4.739
  277POPC   C2B 3635   4.940   1.281   5.115
  277POPC   C3B 3636   4.843   1.402   5.547
  277POPC   C4B 3637   5.069   1.539   5.893
  278POPC   NC3 3638   0.808   0.523   4.080
  278POPC   PO4 3639   0.186   0.793   3.954
  278POPC   GL1 3640   0.366   0.669   4.344
  278POPC   GL2 3641   0.191   0.371   4.312
  278POPC   C1A 3642   0.536   0.401   4.702
  278POPC   D2A 3643   0.768   0.411   5.092
  278POPC   C3A 3644   0.533   0.637   5.356
  278POPC   C4A 3645   0.440   0.588   5.759
  278POPC   C1B 3646  10.463   0.416   4.699
  278POPC   C2B 3647   0.163   0.362   5.098
  278POPC   C3B 3648   0.225   0.187   5.492
  278POPC   C4B 3649   0.119   0.227   5.917
  279POPC   NC3 3650   0.446   2.300   3.956
  279POPC   PO4 3651   0.668   1.706   4.164
  279POPC   GL1 3652   0.368   1.745   4.445
  279POPC   GL2 3653   0.456   2.128   4.441
  279POPC   C1A 3654   0.348   1.510   4.845
  279POPC   D2A 3655   0.245   1.376   5.271
  279POPC   C3A 3656   0.496   1.540   5.631
  279POPC   C4A 3657   0.217   1.654   5.955
  279POPC   C1B 3658   0.470   2.031   4.850
  279POPC   C2B 3659   0.442   1.856   5.210
  279POPC   C3B 3660   0.226   1.958   5.523
  279POPC   C4B 3661   0.481   2.039   5.824
  280POPC   NC3 3662   9.903   4.335   3.858
  280POPC   PO4 3663  -0.000   3.916   3.850
  280POPC   GL1 3664  10.310   4.128   4.186
  280POPC   GL2 3665   9.989   4.000   4.244
  280POPC   C1A 3666  10.317   4.111   4.653
  280POPC   D2A 3667   0.058   4.227   5.031
  280POPC   C3A 3668  10.389   4.196   5.439
  280POPC   C4A 3669  10.392   4.481   5.802
  280POPC   C1B 3670   9.833   4.289   4.568
  280POPC   C2B 3671   9.638   4.259   4.988
  280POPC   C3B 3672   9.771   4.283   5.411
  280POPC   C4B 3673   9.997   4.155   5.754
  281POPC   NC3 3674   2.548   6.497   3.910
  281POPC   PO4 3675   2.880   6.952   4.017
  281POPC   GL1 3676   2.771   6.625   4.357
  281POPC   GL2 3677   2.639   6.253   4.352
  281POPC   C1A 3678   2.901   6.507   4.785
  281POPC   D2A 3679   2.836   6.386   5.206
  281POPC   C3A 3680   3.043   6.488   5.596
  281POPC   C4A 3681   2.947   6.693   5.991
  281POPC   C1B 3682   2.400   6.316   4.770
  281POPC   C2B 3683   2.340   6.278   5.227
  281POPC   C3B 3684   2.573   6.237   5.611
  281POPC   C4B 3685   2.628   5.888   5.894
  282POPC   NC3 3686   2.459  10.274   3.982
  282POPC   PO4 3687   2.250   9.710   4.159
  282POPC   GL1 3688   2.634   9.894   4.354
  282POPC   GL2 3689   2.798  10.249   4.344
  282POPC   C1A 3690   2.564  10.041   4.768
  282POPC   D2A 3691   2.403   9.878   5.123
  282POPC   C3A 3692   2.604  10.071   5.503
  282POPC   C4A 3693   2.462  10.182   5.912
  282POPC   C1B 3694   2.789  10.481   4.733
  282POPC   C2B 3695   2.715  10.422   5.142
  282POPC   C3B 3696   2.967  10.460   5.499
  282POPC   C4B 3697   2.951  10.389   5.940
  283POPC   NC3 3698   5.350   0.678   4.000
  283POPC   PO4 3699   5.977   0.911   3.887
  283POPC   GL1 3700   5.873   0.566   4.276
  283POPC   GL2 3701   5.632   0.259   4.304
  283POPC   C1A 3702   5.769   0.446   4.752
  283POPC   D2A 3703   5.628   0.690   5.112
  283POPC   C3A 3704   5.813   0.722   5.492
  283POPC   C4A 3705   5.854   0.465   5.892
  283POPC   C1B 3706   5.361   0.109   4.652
  283POPC   C2B 3707   5.424   0.190   5.078
  283POPC   C3B 3708   5.516   0.312   5.493
  283POPC   C4B 3709   5.402   0.233   5.907
  284POPC   NC3 3710   4.512   1.165   3.753
  284POPC   PO4 3711   3.888   0.892   4.006
  284POPC   GL1 3712   4.016   1.021   4.376
  284POPC   GL2 3713   4.077   1.388   4.463
  284POPC   C1A 3714   3.824   0.883   4.712
  284POPC   D2A 3715   3.814   1.116   5.075
  284POPC   C3A 3716   4.050   1.046   5.451
  284POPC   C4A 3717   3.950   0.881   5.852
  284POPC   C1B 3718   4.273   1.182   4.809
  284POPC   C2B 3719   4.445   1.276   5.211
  284POPC   C3B 3720   4.330   1.461   5.591
  284POPC   C4B 3721   4.207   1.578   5.993
  285POPC   NC3 3722   3.230   5.246   4.042
  285POPC   PO4 3723   2.665   5.363   3.801
  285POPC   GL1 3724   2.380   5.330   4.171
  285POPC   GL2 3725   2.304   5.677   4.285
  285POPC   C1A 3726   2.396   5.293   4.636
  285POPC   D2A 3727   2.472   5.443   5.043
  285POPC   C3A 3728   2.738   5.434   5.390
  285POPC   C4A 3729   2.769   5.392   5.818
  285POPC   C1B 3730   2.540   5.810   4.651
  285POPC   C2B 3731   2.682   5.913   5.092
  285POPC   C3B 3732   2.946   5.924   5.478
  285POPC   C4B 3733   3.214   5.682   5.755
  286POPC   NC3 3734   4.804   9.383   3.906
  286POPC   PO4 3735   5.136   9.851   4.059
  286POPC   GL1 3736   4.852   9.626   4.355
  286POPC   GL2 3737   4.897   9.254   4.389
  286POPC   C1A 3738   4.511   9.631   4.688
  286POPC   D2A 3739   4.574   9.579   5.147
  286POPC   C3A 3740   4.633   9.695   5.591
  286POPC   C4A 3741   4.605   9.695   6.053
  286POPC   C1B 3742   4.892   9.307   4.825
  286POPC   C2B 3743   4.939   9.071   5.187
  286POPC   C3B 3744   5.156   9.121   5.563
  286POPC   C4B 3745   4.894   9.327   5.849
  287POPC   NC3 3746   7.930   5.183   3.725
  287POPC   PO4 3747   7.934   5.799   3.884
  287POPC   GL1 3748   8.004   5.599   4.277
  287POPC   GL2 3749   8.314   5.668   4.414
  287POPC   C1A 3750   7.876   5.697   4.716
  287POPC   D2A 3751   8.022   5.601   5.181
  287POPC   C3A 3752   7.711   5.742   5.528
  287POPC   C4A 3753   7.493   5.581   5.929
  287POPC   C1B 3754   8.379   5.827   4.827
  287POPC   C2B 3755   8.532   5.720   5.235
  287POPC   C3B 3756   8.353   5.530   5.592
  287POPC   C4B 3757   8.081   5.735   5.868
  288POPC   NC3 3758   9.741   9.016   3.743
  288POPC   PO4 3759  10.457   9.069   3.853
  288POPC   GL1 3760  10.177   9.138   4.193
  288POPC   GL2 3761  10.048   9.498   4.277
  288POPC   C1A 3762  10.198   9.063   4.633
  288POPC   D2A 3763  10.157   9.212   5.048
  288POPC   C3A 3764  10.239   8.981   5.421
  288POPC   C4A 3765  10.185   9.096   5.854
  288POPC   C1B 3766  10.304   9.566   4.651
  288POPC   C2B 3767  10.308   9.709   5.090
  288POPC   C3B 3768  10.249   9.504   5.482
  288POPC   C4B 3769   9.956   9.575   5.800
  289POPC   NC3 3770   9.220   9.232   4.229
  289POPC   PO4 3771   9.370   9.623   3.735
  289POPC   GL1 3772   9.561   9.648   4.253
  289POPC   GL2 3773   9.359   9.642   4.535
  289POPC   C1A 3774   9.797   9.469   4.725
  289POPC   D2A 3775   9.782   9.506   5.220
  289POPC   C3A 3776   9.765   9.175   5.564
  289POPC   C4A 3777   9.743   9.189   6.089
  289POPC   C1B 3778   9.323   9.395   4.884
  289POPC   C2B 3779   9.066   9.143   5.081
  289POPC   C3B 3780   9.196   9.361   5.456
  289POPC   C4B 3781   9.425   9.456   5.806
  290POPC   NC3 3782   8.921   9.505   3.888
  290POPC   PO4 3783   8.646   8.983   4.175
  290POPC   GL1 3784   8.761   9.369   4.359
  290POPC   GL2 3785   8.475   9.463   4.394
  290POPC   C1A 3786   8.842   9.557   4.771
  290POPC   D2A 3787   8.763   9.532   5.226
  290POPC   C3A 3788   8.949   9.804   5.505
  290POPC   C4A 3789   9.023   9.726   5.934
  290POPC   C1B 3790   8.493   9.152   4.755
  290POPC   C2B 3791   8.546   8.995   5.168
  290POPC   C3B 3792   8.790   9.062   5.504
  290POPC   C4B 3793   8.698   9.382   5.754
  291POPC   NC3 3794   2.476   4.925   3.840
  291POPC   PO4 3795   3.147   4.796   4.027
  291POPC   GL1 3796   2.812   5.033   4.218
  291POPC   GL2 3797   2.561   4.864   4.367
  291POPC   C1A 3798   2.885   5.205   4.631
  291POPC   D2A 3799   2.811   5.042   5.046
  291POPC   C3A 3800   3.086   5.022   5.416
  291POPC   C4A 3801   3.107   4.981   5.867
  291POPC   C1B 3802   2.364   4.789   4.763
  291POPC   C2B 3803   2.355   4.917   5.182
  291POPC   C3B 3804   2.612   4.927   5.584
  291POPC   C4B 3805   2.520   5.001   6.020
  292POPC   NC3 3806  10.260   8.593   3.788
  292POPC   PO4 3807   9.619   8.603   3.616
  292POPC   GL1 3808   9.874   8.683   4.111
  292POPC   GL2 3809  10.202   8.595   4.274
  292POPC   C1A 3810   9.883   8.667   4.644
  292POPC   D2A 3811  10.061   8.666   5.029
  292POPC   C3A 3812   9.839   8.673   5.425
  292POPC   C4A 3813   9.739   8.745   5.839
  292POPC   C1B 3814  10.302   8.300   4.598
  292POPC   C2B 3815  10.482   8.349   4.997
  292POPC   C3B 3816  10.286   8.418   5.403
  292POPC   C4B 3817  10.217   8.587   5.769
  293POPC   NC3 3818   8.271   9.124   3.936
  293POPC   PO4 3819   7.704   9.475   3.716
  293POPC   GL1 3820   7.711   9.328   4.190
  293POPC   GL2 3821   8.025   9.204   4.365
  293POPC   C1A 3822   7.639   9.295   4.682
  293POPC   D2A 3823   7.789   9.466   5.112
  293POPC   C3A 3824   7.654   9.282   5.482
  293POPC   C4A 3825   7.484   9.432   5.841
  293POPC   C1B 3826   8.102   9.505   4.710
  293POPC   C2B 3827   8.293   9.454   5.102
  293POPC   C3B 3828   8.233   9.345   5.504
  293POPC   C4B 3829   7.975   9.568   5.764
  294POPC   NC3 3830   1.009   8.538   3.805
  294POPC   PO4 3831   1.482   8.172   3.967
  294POPC   GL1 3832   1.292   8.409   4.277
  294POPC   GL2 3833   1.249   8.766   4.195
  294POPC   C1A 3834   1.153   8.376   4.708
  294POPC   D2A 3835   0.995   8.576   5.077
  294POPC   C3A 3836   0.902   8.341   5.450
  294POPC   C4A 3837   0.969   8.607   5.791
  294POPC   C1B 3838   1.400   8.810   4.613
  294POPC   C2B 3839   1.511   8.638   4.998
  294POPC   C3B 3840   1.445   8.580   5.425
  294POPC   C4B 3841   1.458   8.748   5.822
  295POPC   NC3 3842   1.468   1.036   4.128
  295POPC   PO4 3843   1.123   1.484   3.719
  295POPC   GL1 3844   1.066   1.383   4.199
  295POPC   GL2 3845   1.084   1.060   4.417
  295POPC   C1A 3846   1.033   1.501   4.678
  295POPC   D2A 3847   0.805   1.506   5.081
  295POPC   C3A 3848   1.047   1.440   5.459
  295POPC   C4A 3849   0.979   1.485   5.901
  295POPC   C1B 3850   1.362   1.100   4.799
  295POPC   C2B 3851   1.471   1.255   5.227
  295POPC   C3B 3852   1.346   1.065   5.617
  295POPC   C4B 3853   1.211   0.848   5.953
  296POPC   NC3 3854   7.947   1.736   3.881
  296POPC   PO4 3855   7.401   1.622   4.127
  296POPC   GL1 3856   7.710   1.777   4.343
  296POPC   GL2 3857   7.677   2.116   4.224
  296POPC   C1A 3858   7.914   1.618   4.704
  296POPC   D2A 3859   8.031   1.416   5.080
  296POPC   C3A 3860   7.967   1.708   5.425
  296POPC   C4A 3861   7.772   1.905   5.774
  296POPC   C1B 3862   7.863   2.161   4.653
  296POPC   C2B 3863   8.058   2.013   5.027
  296POPC   C3B 3864   7.970   2.209   5.428
  296POPC   C4B 3865   8.030   2.398   5.814
  297POPC   NC3 3866   2.550   2.018   3.664
  297POPC   PO4 3867   3.044   2.026   4.031
  297POPC   GL1 3868   2.682   2.041   4.234
  297POPC   GL2 3869   2.609   1.714   4.356
  297POPC   C1A 3870   2.565   2.173   4.665
  297POPC   D2A 3871   2.720   2.367   5.046
  297POPC   C3A 3872   2.570   2.332   5.467
  297POPC   C4A 3873   2.556   2.297   5.930
  297POPC   C1B 3874   2.586   1.680   4.744
  297POPC   C2B 3875   2.596   1.860   5.126
  297POPC   C3B 3876   2.759   1.698   5.489
  297POPC   C4B 3877   2.748   1.823   5.874
  298POPC   NC3 3878  10.394   0.131   3.981
  298POPC   PO4 3879  10.218   9.941   3.872
  298POPC   GL1 3880  10.279  10.110   4.251
  298POPC   GL2 3881   9.930  10.197   4.225
  298POPC   C1A 3882  10.422  10.057   4.704
  298POPC   D2A 3883   0.105  10.161   5.112
  298POPC   C3A 3884  10.361  10.256   5.472
  298POPC   C4A 3885  10.353   9.917   5.782
  298POPC   C1B 3886   9.917   9.955   4.597
  298POPC   C2B 3887   9.956  10.090   5.026
  298POPC   C3B 3888   9.945   9.950   5.450
  298POPC   C4B 3889   9.903  10.189   5.830
  299POPC   NC3 3890   0.934   9.535   3.799
  299POPC   PO4 3891   0.809   8.912   3.951
  299POPC   GL1 3892   0.929   9.190   4.272
  299POPC   GL2 3893   1.202   9.421   4.283
  299POPC   C1A 3894   1.079   9.194   4.709
  299POPC   D2A 3895   1.341   9.137   5.061
  299POPC   C3A 3896   1.125   9.298   5.403
  299POPC   C4A 3897   1.049   9.102   5.785
  299POPC   C1B 3898   1.315   9.689   4.639
  299POPC   C2B 3899   1.314   9.871   5.058
  299POPC   C3B 3900   1.251   9.803   5.467
  299POPC   C4B 3901   1.262   9.558   5.830
  300POPC   NC3 3902   7.993   0.464   3.881
  300POPC   PO4 3903   8.505   0.011   3.915
  300POPC   GL1 3904   8.425   0.328   4.257
  300POPC   GL2 3905   8.202   0.608   4.333
  300POPC   C1A 3906   8.282   0.222   4.671
  300POPC   D2A 3907   8.171   0.418   5.041
  300POPC   C3A 3908   8.290   0.230   5.423
  300POPC   C4A 3909   8.082   0.104   5.778
  300POPC   C1B 3910   7.844   0.581   4.617
  300POPC   C2B 3911   7.668   0.483   5.043
  300POPC   C3B 3912   7.816   0.407   5.438
  300POPC   C4B 3913   7.920   0.733   5.722
  301POPC   NC3 3914   4.088   8.788   3.807
  301POPC   PO4 3915   4.431   8.259   3.687
  301POPC   GL1 3916   4.328   8.418   4.133
  301POPC   GL2 3917   4.066   8.626   4.274
  301POPC   C1A 3918   4.474   8.557   4.562
  301POPC   D2A 3919   4.348   8.705   4.967
  301POPC   C3A 3920   4.365   8.561   5.392
  301POPC   C4A 3921   4.300   8.790   5.712
  301POPC   C1B 3922   3.965   8.821   4.647
  301POPC   C2B 3923   3.776   8.604   4.994
  301POPC   C3B 3924   3.869   8.691   5.425
  301POPC   C4B 3925   3.889   8.482   5.836
  302POPC   NC3 3926   9.965   3.575   3.966
  302POPC   PO4 3927   0.056   3.334   3.954
  302POPC   GL1 3928  10.360   3.587   4.310
  302POPC   GL2 3929  10.042   3.392   4.432
  302POPC   C1A 3930  10.407   3.619   4.780
  302POPC   D2A 3931  10.244   3.494   5.193
  302POPC   C3A 3932  10.358   3.660   5.589
  302POPC   C4A 3933  10.453   3.380   5.962
  302POPC   C1B 3934   9.888   3.748   4.676
  302POPC   C2B 3935  10.002   3.928   5.075
  302POPC   C3B 3936   9.847   3.744   5.459
  302POPC   C4B 3937   9.963   3.333   5.623
  303POPC   NC3 3938   0.902   6.396   3.741
  303POPC   PO4 3939   1.452   6.108   3.887
  303POPC   GL1 3940   1.368   6.291   4.266
  303POPC   GL2 3941   1.090   6.506   4.241
  303POPC   C1A 3942   1.465   6.351   4.681
  303POPC   D2A 3943   1.331   6.121   5.028
  303POPC   C3A 3944   1.413   6.289   5.406
  303POPC   C4A 3945   1.377   6.085   5.782
  303POPC   C1B 3946   0.998   6.562   4.706
  303POPC   C2B 3947   0.995   6.492   5.172
  303POPC   C3B 3948   0.997   6.504   5.658
  303POPC   C4B 3949   0.828   6.626   6.113
  304POPC   NC3 3950  10.018   5.882   4.016
  304POPC   PO4 3951   0.144   5.572   3.797
  304POPC   GL1 3952  10.368   5.524   4.278
  304POPC   GL2 3953  10.068   5.509   4.340
  304POPC   C1A 3954  10.261   5.748   4.720
  304POPC   D2A 3955   0.047   5.823   5.035
  304POPC   C3A 3956  10.370   5.625   5.361
  304POPC   C4A 3957   0.016   5.572   5.748
  304POPC   C1B 3958   9.798   5.424   4.684
  304POPC   C2B 3959   9.918   5.499   5.093
  304POPC   C3B 3960   9.824   5.573   5.495
  304POPC   C4B 3961  10.050   5.825   5.688
  305POPC   NC3 3962   8.473   4.812   3.929
  305POPC   PO4 3963   9.133   4.717   4.033
  305POPC   GL1 3964   8.830   4.724   4.333
  305POPC   GL2 3965   8.769   5.080   4.322
  305POPC   C1A 3966   8.874   4.608   4.759
  305POPC   D2A 3967   8.752   4.786   5.160
  305POPC   C3A 3968   8.799   4.792   5.586
  305POPC   C4A 3969   8.910   4.508   5.869
  305POPC   C1B 3970   8.577   5.011   4.740
  305POPC   C2B 3971   8.422   5.174   5.172
  305POPC   C3B 3972   8.344   5.009   5.582
  305POPC   C4B 3973   8.373   5.172   6.003
  306POPC   NC3 3974   1.022   2.875   3.663
  306POPC   PO4 3975   0.864   2.344   4.159
  306POPC   GL1 3976   0.857   2.455   4.488
  306POPC   GL2 3977   1.183   2.424   4.576
  306POPC   C1A 3978   0.697   2.495   4.832
  306POPC   D2A 3979   0.905   2.744   5.055
  306POPC   C3A 3980   1.063   2.609   5.441
  306POPC   C4A 3981   0.785   2.382   5.628
  306POPC   C1B 3982   1.294   2.400   4.996
  306POPC   C2B 3983   1.399   2.835   5.114
  306POPC   C3B 3984   1.377   3.020   5.492
  306POPC   C4B 3985   1.307   2.941   5.919
  307POPC   NC3 3986   8.001   8.163   3.866
  307POPC   PO4 3987   7.645   7.495   3.838
  307POPC   GL1 3988   7.824   7.766   4.190
  307POPC   GL2 3989   7.764   8.092   4.312
  307POPC   C1A 3990   8.076   7.740   4.592
  307POPC   D2A 3991   8.011   7.615   5.029
  307POPC   C3A 3992   8.132   7.806   5.413
  307POPC   C4A 3993   8.267   7.826   5.846
  307POPC   C1B 3994   7.675   7.985   4.765
  307POPC   C2B 3995   7.649   7.957   5.187
  307POPC   C3B 3996   7.643   7.782   5.568
  307POPC   C4B 3997   7.828   8.082   5.753
  308POPC   NC3 3998   4.357   7.853   3.866
  308POPC   PO4 3999   3.862   8.390   3.860
  308POPC   GL1 4000   3.885   8.146   4.229
  308POPC   GL2 4001   4.081   7.847   4.276
  308POPC   C1A 4002   4.012   8.276   4.644
  308POPC   D2A 4003   4.173   8.241   5.043
  308POPC   C3A 4004   4.062   8.168   5.467
  308POPC   C4A 4005   4.183   8.078   5.936
  308POPC   C1B 4006   4.222   7.799   4.724
  308POPC   C2B 4007   4.230   7.741   5.157
  308POPC   C3B 4008   4.318   7.738   5.581
  308POPC   C4B 4009   3.954   7.502   5.739
  309POPC   NC3 4010   0.791  10.202   3.878
  309POPC   PO4 4011   1.275   9.794   3.955
  309POPC   GL1 4012   1.022   9.961   4.279
  309POPC   GL2 4013   1.043  10.354   4.333
  309POPC   C1A 4014   0.954  10.032   4.714
  309POPC   D2A 4015   0.857  10.119   5.115
  309POPC   C3A 4016   0.754   9.827   5.409
  309POPC   C4A 4017   0.874   9.864   5.802
  309POPC   C1B 4018   0.935   0.034   4.773
  309POPC   C2B 4019   1.129   0.052   5.202
  309POPC   C3B 4020   1.061  10.279   5.570
  309POPC   C4B 4021   1.325  10.111   5.908
  310POPC   NC3 4022   3.417   8.804   3.877
  310POPC   PO4 4023   3.211   8.284   3.596
  310POPC   GL1 4024   3.423   8.382   4.140
  310POPC   GL2 4025   3.564   8.717   4.342
  310POPC   C1A 4026   3.493   8.289   4.592
  310POPC   D2A 4027   3.305   8.291   5.008
  310POPC   C3A 4028   3.535   8.319   5.372
  310POPC   C4A 4029   3.374   8.409   5.768
  310POPC   C1B 4030   3.320   8.744   4.744
  310POPC   C2B 4031   3.285   8.800   5.160
  310POPC   C3B 4032   3.326   9.033   5.476
  310POPC   C4B 4033   3.558   8.886   5.790
  311POPC   NC3 4034   8.638   2.905   3.995
  311POPC   PO4 4035   9.005   2.447   3.775
  311POPC   GL1 4036   8.879   2.330   4.185
  311POPC   GL2 4037   8.578   2.505   4.319
  311POPC   C1A 4038   8.921   2.302   4.641
  311POPC   D2A 4039   9.073   2.520   5.030
  311POPC   C3A 4040   8.939   2.475   5.479
  311POPC   C4A 4041   8.833   2.450   5.951
  311POPC   C1B 4042   8.663   2.738   4.725
  311POPC   C2B 4043   8.586   2.700   5.176
  311POPC   C3B 4044   8.605   2.843   5.605
  311POPC   C4B 4045   8.345   2.821   5.919
  312POPC   NC3 4046   8.833   2.005   3.606
  312POPC   PO4 4047   8.367   1.529   3.887
  312POPC   GL1 4048   8.378   1.827   4.252
  312POPC   GL2 4049   8.735   1.867   4.371
  312POPC   C1A 4050   8.380   2.112   4.630
  312POPC   D2A 4051   8.579   2.200   5.012
  312POPC   C3A 4052   8.435   2.003   5.384
  312POPC   C4A 4053   8.472   2.338   5.628
  312POPC   C1B 4054   8.945   1.797   4.781
  312POPC   C2B 4055   8.912   1.875   5.234
  312POPC   C3B 4056   8.881   1.980   5.640
  312POPC   C4B 4057   9.012   1.759   5.987
  313POPC   NC3 4058   8.022   4.146   4.099
  313POPC   PO4 4059   8.561   4.380   3.778
  313POPC   GL1 4060   8.467   4.378   4.204
  313POPC   GL2 4061   8.524   4.055   4.215
  313POPC   C1A 4062   8.419   4.421   4.653
  313POPC   D2A 4063   8.590   4.287   5.043
  313POPC   C3A 4064   8.483   4.428   5.461
  313POPC   C4A 4065   8.428   4.191   5.796
  313POPC   C1B 4066   8.865   4.122   4.554
  313POPC   C2B 4067   9.003   3.998   4.979
  313POPC   C3B 4068   8.919   4.167   5.410
  313POPC   C4B 4069   8.945   4.005   5.784
  314POPC   NC3 4070   3.542   8.027   3.810
  314POPC   PO4 4071   2.951   8.242   4.081
  314POPC   GL1 4072   3.125   7.866   4.256
  314POPC   GL2 4073   3.464   7.841   4.263
  314POPC   C1A 4074   3.240   7.863   4.725
  314POPC   D2A 4075   3.277   7.746   5.151
  314POPC   C3A 4076   3.256   7.938   5.555
  314POPC   C4A 4077   2.964   8.091   5.818
  314POPC   C1B 4078   3.727   7.839   4.614
  314POPC   C2B 4079   3.735   7.980   5.009
  314POPC   C3B 4080   3.726   7.794   5.395
  314POPC   C4B 4081   3.705   8.011   5.782
  315POPC   NC3 4082   2.791   8.054   3.697
  315POPC   PO4 4083   2.284   8.415   3.950
  315POPC   GL1 4084   2.484   8.268   4.302
  315POPC   GL2 4085   2.554   7.931   4.176
  315POPC   C1A 4086   2.396   8.193   4.723
  315POPC   D2A 4087   2.435   8.313   5.128
  315POPC   C3A 4088   2.435   8.112   5.460
  315POPC   C4A 4089   2.213   8.025   5.798
  315POPC   C1B 4090   2.754   7.880   4.592
  315POPC   C2B 4091   2.856   8.039   5.014
  315POPC   C3B 4092   2.813   7.803   5.375
  315POPC   C4B 4093   2.618   7.726   5.758
  316POPC   NC3 4094   0.220   2.907   3.888
  316POPC   PO4 4095   0.683   2.577   3.673
  316POPC   GL1 4096   0.641   2.772   4.126
  316POPC   GL2 4097   0.354   2.638   4.332
  316POPC   C1A 4098   0.681   2.934   4.571
  316POPC   D2A 4099   0.411   2.928   4.967
  316POPC   C3A 4100   0.497   2.845   5.399
  316POPC   C4A 4101   0.602   2.791   5.831
  316POPC   C1B 4102   0.195   2.503   4.748
  316POPC   C2B 4103   0.332   2.396   5.190
  316POPC   C3B 4104   0.268   2.456   5.631
  316POPC   C4B 4105   0.176   2.542   6.065
  317POPC   NC3 4106   1.967   2.712   3.899
  317POPC   PO4 4107   1.317   2.392   3.834
  317POPC   GL1 4108   1.575   2.395   4.251
  317POPC   GL2 4109   1.928   2.448   4.315
  317POPC   C1A 4110   1.640   2.646   4.689
  317POPC   D2A 4111   1.793   2.496   5.113
  317POPC   C3A 4112   1.608   2.555   5.521
  317POPC   C4A 4113   1.779   2.892   5.773
  317POPC   C1B 4114   2.131   2.445   4.720
  317POPC   C2B 4115   2.283   2.645   5.115
  317POPC   C3B 4116   2.139   2.606   5.528
  317POPC   C4B 4117   2.118   2.542   5.965
  318POPC   NC3 4118  10.206   1.888   3.816
  318POPC   PO4 4119   0.005   2.491   3.968
  318POPC   GL1 4120   0.001   2.050   4.227
  318POPC   GL2 4121  10.149   1.841   4.377
  318POPC   C1A 4122  10.485   2.028   4.699
  318POPC   D2A 4123  10.453   1.770   5.096
  318POPC   C3A 4124  10.227   1.937   5.462
  318POPC   C4A 4125  10.269   2.347   5.665
  318POPC   C1B 4126  10.013   1.845   4.844
  318POPC   C2B 4127   9.836   2.111   5.184
  318POPC   C3B 4128   9.780   2.103   5.653
  318POPC   C4B 4129   9.999   1.920   5.983
  319POPC   NC3 4130   7.837   6.264   3.868
  319POPC   PO4 4131   8.201   6.794   3.584
  319POPC   GL1 4132   8.181   6.866   4.148
  319POPC   GL2 4133   8.178   6.506   4.246
  319POPC   C1A 4134   7.972   6.856   4.582
  319POPC   D2A 4135   7.897   6.574   4.946
  319POPC   C3A 4136   8.103   6.603   5.371
  319POPC   C4A 4137   7.920   6.781   5.760
  319POPC   C1B 4138   8.056   6.194   4.593
  319POPC   C2B 4139   7.946   6.077   5.040
  319POPC   C3B 4140   8.157   6.041   5.441
  319POPC   C4B 4141   8.014   6.269   5.791
  320POPC   NC3 4142   5.040  10.242   3.833
  320POPC   PO4 4143   4.472   0.085   3.917
  320POPC   GL1 4144   4.599  10.400   4.315
  320POPC   GL2 4145   4.954  10.339   4.345
  320POPC   C1A 4146   4.688  10.467   4.757
  320POPC   D2A 4147   4.972  10.437   5.094
  320POPC   C3A 4148   4.820  10.137   5.397
  320POPC   C4A 4149   4.616  10.173   5.814
  320POPC   C1B 4150   4.861  10.007   4.688
  320POPC   C2B 4151   5.052   9.776   5.032
  320POPC   C3B 4152   5.221   9.758   5.449
  320POPC   C4B 4153   5.060   9.912   5.845
  321POPC   NC3 4154   7.681   2.762   3.744
  321POPC   PO4 4155   8.225   3.067   3.864
  321POPC   GL1 4156   8.125   2.868   4.257
  321POPC   GL2 4157   7.851   2.626   4.223
  321POPC   C1A 4158   8.174   2.625   4.640
  321POPC   D2A 4159   8.071   2.515   5.046
  321POPC   C3A 4160   8.127   2.736   5.447
  321POPC   C4A 4161   7.809   2.855   5.816
  321POPC   C1B 4162   7.659   2.637   4.637
  321POPC   C2B 4163   7.542   2.427   5.013
  321POPC   C3B 4164   7.638   2.580   5.411
  321POPC   C4B 4165   7.532   2.388   5.781
  322POPC   NC3 4166   3.744   2.858   3.949
  322POPC   PO4 4167   3.221   2.609   4.011
  322POPC   GL1 4168   3.433   2.476   4.420
  322POPC   GL2 4169   3.737   2.694   4.420
  322POPC   C1A 4170   3.753   2.322   4.741
  322POPC   D2A 4171   3.934   2.652   4.984
  322POPC   C3A 4172   3.684   2.725   5.386
  322POPC   C4A 4173   3.424   2.418   5.657
  322POPC   C1B 4174   3.401   2.949   4.610
  322POPC   C2B 4175   3.248   3.091   5.001
  322POPC   C3B 4176   3.059   3.096   5.407
  322POPC   C4B 4177   3.270   2.917   5.711
  323POPC   NC3 4178   1.178   3.793   3.906
  323POPC   PO4 4179   1.431   4.412   3.866
  323POPC   GL1 4180   1.209   4.220   4.208
  323POPC   GL2 4181   0.862   4.341   4.338
  323POPC   C1A 4182   1.335   4.373   4.607
  323POPC   D2A 4183   1.221   4.527   5.006
  323POPC   C3A 4184   1.186   4.296   5.374
  323POPC   C4A 4185   1.115   4.389   5.802
  323POPC   C1B 4186   0.886   4.194   4.762
  323POPC   C2B 4187   1.244   4.002   4.950
  323POPC   C3B 4188   1.476   3.871   5.315
  323POPC   C4B 4189   1.307   3.922   5.741
  324POPC   NC3 4190   9.349   8.477   3.966
  324POPC   PO4 4191   9.667   9.158   4.163
  324POPC   GL1 4192   9.474   8.819   4.370
  324POPC   GL2 4193   9.531   8.455   4.402
  324POPC   C1A 4194   9.417   8.889   4.765
  324POPC   D2A 4195   9.656   9.014   5.075
  324POPC   C3A 4196   9.381   8.874   5.372
  324POPC   C4A 4197   9.290   8.955   5.740
  324POPC   C1B 4198   9.359   8.383   4.720
  324POPC   C2B 4199   9.533   8.482   5.066
  324POPC   C3B 4200   9.415   8.366   5.468
  324POPC   C4B 4201   9.334   8.454   5.856
  325POPC   NC3 4202   5.667   1.307   3.828
  325POPC   PO4 4203   5.202   1.074   4.185
  325POPC   GL1 4204   5.626   1.006   4.301
  325POPC   GL2 4205   5.906   1.249   4.286
  325POPC   C1A 4206   5.815   0.964   4.714
  325POPC   D2A 4207   5.991   1.264   5.024
  325POPC   C3A 4208   5.829   1.244   5.455
  325POPC   C4A 4209   5.925   1.006   5.879
  325POPC   C1B 4210   5.586   1.415   4.615
  325POPC   C2B 4211   5.453   1.253   5.035
  325POPC   C3B 4212   5.317   1.104   5.461
  325POPC   C4B 4213   5.502   1.297   5.838
  326POPC   NC3 4214  10.361   1.119   3.844
  326POPC   PO4 4215   0.203   1.702   3.742
  326POPC   GL1 4216  10.470   1.529   4.159
  326POPC   GL2 4217  10.252   1.212   4.307
  326POPC   C1A 4218  10.396   1.523   4.646
  326POPC   D2A 4219  10.329   1.253   4.995
  326POPC   C3A 4220  10.153   1.428   5.357
  326POPC   C4A 4221  10.278   1.532   5.782
  326POPC   C1B 4222  10.148   0.908   4.642
  326POPC   C2B 4223  10.129   0.683   5.031
  326POPC   C3B 4224   9.995   0.757   5.436
  326POPC   C4B 4225  10.151   1.048   5.739
  327POPC   NC3 4226   1.049   1.935   4.004
  327POPC   PO4 4227   1.610   1.471   4.089
  327POPC   GL1 4228   1.478   1.581   4.441
  327POPC   GL2 4229   1.307   1.915   4.442
  327POPC   C1A 4230   1.518   1.609   4.851
  327POPC   D2A 4231   1.222   1.809   5.128
  327POPC   C3A 4232   1.331   2.095   5.467
  327POPC   C4A 4233   1.390   1.745   5.736
  327POPC   C1B 4234   0.962   2.013   4.741
  327POPC   C2B 4235   0.859   2.159   5.167
  327POPC   C3B 4236   0.860   1.898   5.517
  327POPC   C4B 4237   0.999   2.023   5.914
  328POPC   NC3 4238   9.328   3.517   3.836
  328POPC   PO4 4239   9.806   3.137   3.938
  328POPC   GL1 4240   9.477   3.211   4.252
  328POPC   GL2 4241   9.502   3.580   4.311
  328POPC   C1A 4242   9.528   3.296   4.714
  328POPC   D2A 4243   9.753   3.338   5.100
  328POPC   C3A 4244   9.494   3.241   5.449
  328POPC   C4A 4245   9.565   3.082   5.871
  328POPC   C1B 4246   9.113   3.597   4.603
  328POPC   C2B 4247   9.008   3.467   5.021
  328POPC   C3B 4248   8.967   3.629   5.413
  328POPC   C4B 4249   9.239   3.560   5.745
  329POPC   NC3 4250   9.403   2.186   3.857
  329POPC   PO4 4251   9.099   1.631   4.104
  329POPC   GL1 4252   9.271   2.011   4.317
  329POPC   GL2 4253   9.640   1.975   4.295
  329POPC   C1A 4254   9.412   2.223   4.689
  329POPC   D2A 4255   9.342   2.042   5.050
  329POPC   C3A 4256   9.361   2.226   5.407
  329POPC   C4A 4257   9.283   2.213   5.832
  329POPC   C1B 4258   9.531   1.722   4.692
  329POPC   C2B 4259   9.616   1.625   5.170
  329POPC   C3B 4260   9.366   1.746   5.576
  329POPC   C4B 4261   9.503   1.789   6.066
  330POPC   NC3 4262   0.224   7.123   3.843
  330POPC   PO4 4263   0.048   6.542   3.905
  330POPC   GL1 4264   0.263   6.819   4.254
  330POPC   GL2 4265   0.327   7.177   4.355
  330POPC   C1A 4266   0.214   6.820   4.715
  330POPC   D2A 4267   0.460   6.988   5.079
  330POPC   C3A 4268   0.228   7.144   5.439
  330POPC   C4A 4269   0.375   7.126   5.839
  330POPC   C1B 4270   0.676   7.261   4.690
  330POPC   C2B 4271   0.875   7.362   5.089
  330POPC   C3B 4272   0.683   7.383   5.479
  330POPC   C4B 4273   0.700   7.519   5.882
  331POPC   NC3 4274   1.498   5.021   3.938
  331POPC   PO4 4275   2.132   4.781   4.113
  331POPC   GL1 4276   2.032   5.031   4.414
  331POPC   GL2 4277   1.714   4.995   4.384
  331POPC   C1A 4278   1.968   5.086   4.849
  331POPC   D2A 4279   1.996   5.359   5.143
  331POPC   C3A 4280   2.232   5.269   5.506
  331POPC   C4A 4281   2.042   5.090   5.868
  331POPC   C1B 4282   1.740   4.662   4.696
  331POPC   C2B 4283   1.632   4.795   5.110
  331POPC   C3B 4284   1.889   4.898   5.401
  331POPC   C4B 4285   2.175   4.662   5.599
  332POPC   NC3 4286   1.080   7.941   3.975
  332POPC   PO4 4287   0.585   7.428   3.974
  332POPC   GL1 4288   0.762   7.723   4.325
  332POPC   GL2 4289   1.064   7.945   4.454
  332POPC   C1A 4290   0.751   7.759   4.769
  332POPC   D2A 4291   1.021   7.982   5.014
  332POPC   C3A 4292   0.922   7.814   5.374
  332POPC   C4A 4293   1.096   7.816   5.757
  332POPC   C1B 4294   1.466   7.987   4.624
  332POPC   C2B 4295   1.542   8.123   5.035
  332POPC   C3B 4296   1.356   8.089   5.427
  332POPC   C4B 4297   1.367   8.244   5.860
  333POPC   NC3 4298  10.080   6.536   4.007
  333POPC   PO4 4299  10.447   5.979   4.140
  333POPC   GL1 4300  10.177   6.218   4.389
  333POPC   GL2 4301  10.324   6.559   4.435
  333POPC   C1A 4302  10.071   6.271   4.805
  333POPC   D2A 4303  10.077   6.017   5.179
  333POPC   C3A 4304  10.412   6.133   5.452
  333POPC   C4A 4305  10.245   6.240   5.839
  333POPC   C1B 4306  10.170   6.804   4.732
  333POPC   C2B 4307  10.033   6.704   5.138
  333POPC   C3B 4308  10.197   6.613   5.501
  333POPC   C4B 4309  10.496   6.694   5.821
  334POPC   NC3 4310   3.484   3.735   3.809
  334POPC   PO4 4311   3.930   3.309   3.919
  334POPC   GL1 4312   3.656   3.262   4.281
  334POPC   GL2 4313   3.325   3.477   4.279
  334POPC   C1A 4314   3.609   3.410   4.713
  334POPC   D2A 4315   3.449   3.566   5.093
  334POPC   C3A 4316   3.543   3.256   5.401
  334POPC   C4A 4317   3.634   3.243   5.815
  334POPC   C1B 4318   3.079   3.482   4.685
  334POPC   C2B 4319   2.910   3.476   5.108
  334POPC   C3B 4320   3.134   3.594   5.491
  334POPC   C4B 4321   3.563   3.734   5.598
  335POPC   NC3 4322  10.368   5.217   3.885
  335POPC   PO4 4323   9.786   4.777   3.827
  335POPC   GL1 4324  10.129   4.701   4.176
  335POPC   GL2 4325  10.294   5.000   4.319
  335POPC   C1A 4326  10.231   4.633   4.646
  335POPC   D2A 4327  10.102   4.448   5.020
  335POPC   C3A 4328  10.141   4.643   5.400
  335POPC   C4A 4329   9.967   4.804   5.763
  335POPC   C1B 4330  10.230   5.168   4.689
  335POPC   C2B 4331  10.121   5.036   5.092
  335POPC   C3B 4332  10.286   5.131   5.484
  335POPC   C4B 4333  10.116   5.303   5.829
  336POPC   NC3 4334   6.347   1.220   3.884
  336POPC   PO4 4335   6.732   1.753   3.634
  336POPC   GL1 4336   6.655   1.542   4.145
  336POPC   GL2 4337   6.580   1.158   4.309
  336POPC   C1A 4338   6.754   1.471   4.645
  336POPC   D2A 4339   6.567   1.208   4.977
  336POPC   C3A 4340   6.649   1.321   5.406
  336POPC   C4A 4341   6.657   1.087   5.826
  336POPC   C1B 4342   6.318   0.909   4.597
  336POPC   C2B 4343   6.206   0.775   5.038
  336POPC   C3B 4344   6.274   0.977   5.446
  336POPC   C4B 4345   6.252   1.363   5.728
  337POPC   NC3 4346   2.364   9.628   3.726
  337POPC   PO4 4347   2.765   9.130   3.887
  337POPC   GL1 4348   2.898   9.388   4.372
  337POPC   GL2 4349   3.064   9.165   4.600
  337POPC   C1A 4350   2.800   9.589   4.759
  337POPC   D2A 4351   2.903   9.812   5.132
  337POPC   C3A 4352   2.662   9.570   5.439
  337POPC   C4A 4353   2.486   9.679   5.828
  337POPC   C1B 4354   2.774   9.077   4.885
  337POPC   C2B 4355   2.805   9.034   5.288
  337POPC   C3B 4356   2.619   9.106   5.630
  337POPC   C4B 4357   2.957   9.243   5.820
  338POPC   NC3 4358   6.443   2.556   3.640
  338POPC   PO4 4359   6.417   3.099   4.040
  338POPC   GL1 4360   6.468   2.956   4.443
  338POPC   GL2 4361   6.419   2.615   4.354
  338POPC   C1A 4362   6.508   2.904   4.893
  338POPC   D2A 4363   6.203   2.642   5.126
  338POPC   C3A 4364   6.201   2.778   5.562
  338POPC   C4A 4365   6.468   2.907   5.969
  338POPC   C1B 4366   6.626   2.465   4.685
  338POPC   C2B 4367   6.601   2.323   5.089
  338POPC   C3B 4368   6.641   2.562   5.437
  338POPC   C4B 4369   6.542   2.433   5.842
  339POPC   NC3 4370   1.294   1.037   3.639
  339POPC   PO4 4371   1.265   0.612   4.187
  339POPC   GL1 4372   1.069   0.462   4.516
  339POPC   GL2 4373   1.356   0.224   4.588
  339POPC   C1A 4374   0.912   0.774   4.787
  339POPC   D2A 4375   1.059   0.923   5.189
  339POPC   C3A 4376   1.035   0.606   5.518
  339POPC   C4A 4377   0.784   0.218   5.575
  339POPC   C1B 4378   1.319   0.516   4.950
  339POPC   C2B 4379   1.548   0.741   5.239
  339POPC   C3B 4380   1.550   0.575   5.617
  339POPC   C4B 4381   1.419   0.132   5.664
  340POPC   NC3 4382   1.915   1.763   3.935
  340POPC   PO4 4383   2.276   2.300   3.906
  340POPC   GL1 4384   2.183   2.011   4.310
  340POPC   GL2 4385   1.840   1.938   4.384
  340POPC   C1A 4386   2.137   1.932   4.797
  340POPC   D2A 4387   2.170   2.149   5.200
  340POPC   C3A 4388   2.311   1.914   5.568
  340POPC   C4A 4389   2.266   1.896   6.013
  340POPC   C1B 4390   1.670   2.144   4.708
  340POPC   C2B 4391   1.682   2.012   5.096
  340POPC   C3B 4392   1.812   1.837   5.443
  340POPC   C4B 4393   1.897   2.152   5.722
  341POPC   NC3 4394   8.551   6.717   3.884
  341POPC   PO4 4395   9.145   6.912   3.893
  341POPC   GL1 4396   8.906   6.970   4.286
  341POPC   GL2 4397   8.743   7.256   4.415
  341POPC   C1A 4398   8.509   6.819   4.518
  341POPC   D2A 4399   8.356   6.778   4.917
  341POPC   C3A 4400   8.458   6.971   5.292
  341POPC   C4A 4401   8.413   6.966   5.738
  341POPC   C1B 4402   8.797   7.090   4.805
  341POPC   C2B 4403   8.982   7.098   5.125
  341POPC   C3B 4404   8.928   7.322   5.397
  341POPC   C4B 4405   8.865   7.183   5.771
  342W        W 4406   1.295   4.696  10.435
  343W        W 4407   6.559   2.887   1.432
  344W        W 4408   6.477   8.532   9.176
  345W        W 4409   2.643   8.756  11.382
  346W        W 4410   6.236   6.132   1.293
  347W        W 4411   8.642   1.950   1.210
  348W        W 4412   3.768   7.521  11.546
  349W        W 4413   3.850   1.827   1.730
  350W        W 4414   6.950   3.258   0.069
  351W        W 4415   3.735   7.484   2.328
  352W        W 4416   7.674   7.471   3.065
  353W        W 4417   7.256   2.905  10.945
  354W        W 4418   6.631   6.080   2.508
  355W        W 4419  10.423   4.079   2.358
  356W        W 4420   0.727   2.894  11.584
  357W        W 4421   2.103   0.965  11.405
  358W        W 4422   0.833   2.628   8.792
  359W        W 4423   3.836   2.358  10.511
  360W        W 4424   7.592   0.747  11.930
  361W        W 4425   7.974   6.290  10.348
  362W        W 4426   9.616   5.031   1.977
  363W        W 4427   2.657   7.887   2.239
  364W        W 4428   3.739   6.456  10.492
  365W        W 4429   3.676   8.979   2.265
  366W        W 4430   5.591   9.692   1.310
  367W        W 4431   2.557   8.894   9.203
  368W        W 4432   4.950   4.813   1.653
  369W        W 4433   6.097   8.020   0.889
  370W        W 4434   9.174   3.293   9.384
  371W        W 4435  10.274   4.682   1.612
  372W        W 4436   8.567   9.345   3.238
  373W        W 4437   9.808   1.686  10.502
  374W        W 4438   4.627   4.395  10.884
  375W        W 4439   2.845   9.558   0.897
  376W        W 4440   3.922   8.620  11.476
  377W        W 4441  10.439   0.152   9.916
  378W        W 4442   8.550   8.328  10.383
  379W        W 4443   2.237   4.333   3.267
  380W        W 4444   3.349   9.678   0.978
  381W        W 4445   1.126   4.463   1.810
  382W        W 4446   6.134   8.576  10.941
  383W        W 4447   1.656   6.050   3.412
  384W        W 4448   1.528   9.246   0.401
  385W        W 4449   0.481   1.172   3.101
  386W        W 4450   2.165   7.846  11.054
  387W        W 4451   6.800   9.041  10.327
  388W        W 4452   3.061   7.712  11.941
  389W        W 4453   6.088   7.783  10.633
  390W        W 4454   2.596   5.247   2.834
  391W        W 4455   6.644   8.449  11.092
  392W        W 4456   9.020   9.524   3.023
  393W        W 4457   4.629  10.266   0.045
  394W        W 4458   7.307   6.253   3.909
  395W        W 4459   3.551   4.136   2.673
  396W        W 4460   1.513   9.639   3.523
  397W        W 4461  10.206   9.582   0.156
  398W        W 4462   3.772   7.713  10.025
  399W        W 4463   7.525  10.480   1.372
  400W        W 4464   5.143   4.555   8.244
  401W        W 4465   0.301   9.557  10.126
  402W        W 4466   9.687   9.508   2.476
  403W        W 4467   6.039   3.963   1.265
  404W        W 4468   7.207   1.322  10.338
  405W        W 4469   8.397   7.656   0.766
  406W        W 4470   3.800   0.256  10.059
  407W        W 4471   9.374   4.458   3.132
  408W        W 4472   2.378   3.252   9.367
  409W        W 4473   7.903   4.481  10.885
  410W        W 4474   7.984   7.622   3.461
  411W        W 4475   5.627   6.975   0.438
  412W        W 4476   9.060   9.161   2.154
  413W        W 4477   5.600   7.296   1.861
  414W        W 4478   8.416   6.289   8.589
  415W        W 4479   1.095   9.231   9.642
  416W        W 4480   8.076  10.167  10.159
  417W        W 4481   1.908  10.471   3.301
  418W        W 4482   7.857   0.973   2.256
  419W        W 4483   6.849   4.670   0.049
  420W        W 4484   8.863   3.486   2.385
  421W        W 4485   1.684   2.027   2.291
  422W        W 4486   9.665   8.337   0.795
  423W        W 4487   5.462   7.440  10.011
  424W        W 4488   1.281   7.445  10.966
  425W        W 4489   6.052   4.772  11.439
  426W        W 4490   0.926   9.560   0.418
  427W        W 4491   1.378   9.892   2.409
  428W        W 4492   4.125   4.497   0.201
  429W        W 4493   4.076   9.459   9.888
  430W        W 4494   4.808   3.208  10.293
  431W        W 4495   5.115   7.924   8.967
  432W        W 4496   6.045   9.990   2.704
  433W        W 4497   8.855   4.804  11.835
  434W        W 4498   0.835   7.532   3.110
  435W        W 4499   0.868   4.941   2.680
  436W        W 4500   4.343  10.412   9.996
  437W        W 4501   3.851   0.438  11.448
  438W        W 4502   0.032   7.005  11.321
  439W        W 4503   8.425   3.121   8.814
  440W        W 4504   3.583   6.422   3.661
  441W        W 4505   4.257   8.465   0.743
  442W        W 4506   4.267   8.837  11.110
  443W        W 4507   1.927   5.616   3.333
  444W        W 4508   7.588   8.600   1.214
  445W        W 4509   4.972   7.194   4.122
  446W        W 4510   6.444   9.797  11.499
  447W        W 4511   7.174   0.903   9.195
  448W        W 4512   4.786  10.461  10.592
  449W        W 4513   9.019   5.682   3.442
  450W        W 4514   1.678   6.626   9.323
  451W        W 4515   8.430   4.008   2.199
  452W        W 4516   9.019   6.555   1.451
  453W        W 4517   7.461   7.707   2.668
  454W        W 4518   7.053   5.917   3.104
  455W        W 4519   1.834   6.651  10.806
  456W        W 4520   8.706   3.404   0.092
  457W        W 4521   7.167   0.801   1.021
  458W        W 4522   1.907   5.278   9.101
  459W        W 4523   9.029   5.479  10.125
  460W        W 4524  10.238   5.013   0.724
  461W        W 4525   2.861   4.719   3.576
  462W        W 4526   0.974   7.019   1.329
  463W        W 4527   0.873   4.452  10.274
  464W        W 4528   6.994   4.906   0.999
  465W        W 4529   6.415   2.042   9.545
  466W        W 4530   7.502   0.508  11.303
  467W        W 4531   5.623   8.496  10.841
  468W        W 4532   3.771   7.100   9.135
  469W        W 4533  10.137   7.584  10.416
  470W        W 4534   9.338   1.842  10.363
  471W        W 4535   1.586   1.912   1.764
  472W        W 4536   7.056   3.107   3.060
  473W        W 4537   3.992   0.369   8.672
  474W        W 4538   4.792   4.903   8.451
  475W        W 4539   5.043   2.583   0.342
  476W        W 4540   6.698   6.688  11.922
  477W        W 4541   7.753   0.472   2.284
  478W        W 4542   4.524   9.664   8.536
  479W        W 4543   8.373   0.858   2.314
  480W        W 4544   5.272   9.153  11.958
  481W        W 4545   4.705   6.602  10.716
  482W        W 4546   6.734   3.089   0.987
  483W        W 4547   0.847   2.130   0.689
  484W        W 4548   8.439   7.354   3.452
  485W        W 4549   1.337  10.349   3.304
  486W        W 4550   6.472   6.980   3.257
  487W        W 4551   3.764   8.484   0.904
  488W        W 4552   5.709   8.443   2.699
  489W        W 4553   2.703   6.102   8.359
  490W        W 4554   3.713   8.697   3.484
  491W        W 4555   2.112   8.521   1.612
  492W        W 4556   7.275   6.496  10.718
  493W        W 4557   1.154   5.651   9.063
  494W        W 4558   7.744   6.881   9.269
  495W        W 4559   4.559   7.128  10.727
  496W        W 4560   5.399   3.672   8.224
  497W        W 4561   3.168   4.096   9.748
  498W        W 4562   8.955   1.324   9.722
  499W        W 4563   0.019   3.137   2.670
  500W        W 4564   6.001   4.755   2.468
  501W        W 4565   7.729   8.973  11.487
  502W        W 4566   4.112   2.600   9.439
  503W        W 4567  10.017   0.186  10.211
  504W        W 4568   7.545   0.049   3.385
  505W        W 4569   0.739   2.517  10.752
  506W        W 4570   3.196   6.742   2.455
  507W        W 4571   1.136   2.355   9.698
  508W        W 4572   4.099   6.251   1.971
  509W        W 4573   3.826   5.013  10.635
  510W        W 4574   9.239   2.778  11.356
  511W        W 4575   5.398   4.877   3.635
  512W        W 4576   8.578   9.859   1.686
  513W        W 4577   2.447   9.208   1.167
  514W        W 4578   4.516   4.550   9.994
  515W        W 4579   6.760   7.538   1.319
  516W        W 4580   4.636   9.289  11.564
  517W        W 4581   5.169   3.633   3.234
  518W        W 4582   8.937   5.988   0.839
  519W        W 4583   2.768   3.688   3.185
  520W        W 4584   6.900   4.350   3.913
  521W        W 4585   4.835   9.834  10.309
  522W        W 4586  10.413   6.070   8.907
  523W        W 4587   5.278   4.067   0.196
  524W        W 4588   9.491   4.240   0.743
  525W        W 4589   5.310   4.120  10.324
  526W        W 4590  10.264   4.256  10.090
  527W        W 4591   4.304  10.114   2.699
  528W        W 4592   2.590   1.319   3.092
  529W        W 4593   6.179   3.491   3.104
  530W        W 4594   6.940   0.359   2.009
  531W        W 4595   2.782   1.420   1.006
  532W        W 4596   5.997   3.124   8.863
  533W        W 4597   3.144   2.219   9.530
  534W        W 4598   9.120   4.182   9.563
  535W        W 4599   8.460   2.450   0.387
  536W        W 4600   5.695   5.455   9.499
  537W        W 4601   2.603   1.551   9.019
  538W        W 4602   8.894   4.299  10.533
  539W        W 4603   2.206   9.940   8.996
  540W        W 4604   5.755   7.177  11.882
  541W        W 4605   8.482   3.855   2.708
  542W        W 4606  10.186   9.580   2.418
  543W        W 4607   9.326   5.083  11.011
  544W        W 4608   7.920   6.439   2.261
  545W        W 4609   6.929   4.757   9.765
  546W        W 4610   1.270   5.146   2.382
  547W        W 4611   9.638   0.427  10.443
  548W        W 4612   9.813   0.359   1.234
  549W        W 4613   4.797   1.769   1.933
  550W        W 4614   5.319   7.362   0.295
  551W        W 4615   0.533   4.006  11.397
  552W        W 4616   8.109   5.582   3.441
  553W        W 4617   4.241   8.289  11.177
  554W        W 4618   4.747   9.854   2.688
  555W        W 4619   1.334   9.776   1.375
  556W        W 4620  10.322   1.166   1.401
  557W        W 4621   7.931   5.445   9.378
  558W        W 4622   3.870   0.673   9.770
  559W        W 4623   0.493   0.820   2.745
  560W        W 4624   3.779   9.537   0.646
  561W        W 4625   1.586   1.979  10.986
  562W        W 4626   5.468   2.612   9.252
  563W        W 4627   3.506   3.384   0.359
  564W        W 4628   4.040   8.242  10.301
  565W        W 4629   9.064   1.478   8.721
  566W        W 4630   8.049   6.247  11.718
  567W        W 4631   8.084   4.616  10.436
  568W        W 4632   3.260   0.898   8.687
  569W        W 4633   2.331   8.200   1.300
  570W        W 4634   0.626   5.986   3.242
  571W        W 4635   3.533   6.782   3.260
  572W        W 4636   8.229   3.410   0.267
  573W        W 4637   3.023   0.114   0.946
  574W        W 4638   2.617  10.240   8.850
  575W        W 4639   3.762   1.422   1.394
  576W        W 4640   2.071   5.092   9.744
  577W        W 4641   4.245   0.228  11.753
  578W        W 4642   9.917   4.884  10.032
  579W        W 4643   5.448   1.295  10.028
  580W        W 4644   9.869   8.567   9.516
  581W        W 4645   0.747   4.045   9.976
  582W        W 4646   9.319   0.486   9.518
  583W        W 4647   3.922   5.932   3.211
  584W        W 4648  10.257   7.445   8.532
  585W        W 4649   5.189   8.216   1.451
  586W        W 4650   7.063   1.543  10.820
  587W        W 4651  10.310   1.576   2.900
  588W        W 4652   2.298   2.684   0.662
  589W        W 4653  10.340   9.402   8.986
  590W        W 4654   1.748   3.330  11.486
  591W        W 4655   7.875   9.354   2.126
  592W        W 4656   9.954   3.765   1.153
  593W        W 4657   1.240   0.037  10.315
  594W        W 4658   1.500   8.965   9.427
  595W        W 4659   7.937   8.508  10.709
  596W        W 4660  10.073   4.342   3.329
  597W        W 4661   5.558   5.002  11.356
  598W        W 4662   1.699   2.691   2.906
  599W        W 4663   0.047   4.331   3.566
  600W        W 4664   8.370   0.480  11.254
  601W        W 4665  10.366  10.366   1.247
  602W        W 4666   1.043   4.787   3.179
  603W        W 4667   4.519   6.212   8.543
  604W        W 4668  10.231   3.433   3.506
  605W        W 4669  10.396   5.143  10.083
  606W        W 4670   8.921   5.256   2.227
  607W        W 4671   9.393   6.120   3.253
  608W        W 4672  10.302   0.623  10.064
  609W        W 4673   4.276   3.767   2.708
  610W        W 4674  10.347  10.079  10.767
  611W        W 4675   7.127   3.279  10.592
  612W        W 4676   4.952   2.121   9.693
  613W        W 4677   6.429   3.580   8.477
  614W        W 4678  10.403   3.789   1.442
  615W        W 4679   9.554   5.843   2.395
  616W        W 4680   5.079   2.590   9.585
  617W        W 4681   1.766  10.274  11.655
  618W        W 4682   3.630   1.306  10.402
  619W        W 4683   8.358  10.045  10.923
  620W        W 4684   2.888   1.267   0.223
  621W        W 4685   2.387   8.380   9.210
  622W        W 4686  10.256  10.192   1.744
  623W        W 4687   9.730   2.672   0.456
  624W        W 4688   0.376   1.161   1.749
  625W        W 4689   2.107   5.557   9.536
  626W        W 4690   8.059   6.956   1.426
  627W        W 4691   0.308   9.499   9.609
  628W        W 4692   5.319   5.017   1.376
  629W        W 4693   5.347   0.203   1.177
  630W        W 4694   9.486   7.945   9.914
  631W        W 4695   9.745   7.830  11.843
  632W        W 4696   3.759   2.315   3.559
  633W        W 4697   9.887   3.851   9.310
  634W        W 4698   6.535   7.455  10.156
  635W        W 4699   7.675   3.183   9.251
  636W        W 4700   3.212   0.600   3.546
  637W        W 4701   0.864   3.970   8.963
  638W        W 4702   8.455   0.352  11.726
  639W        W 4703   0.851   0.457   8.976
  640W        W 4704   7.087   4.109   2.568
  641W        W 4705   9.506   0.118   8.551
  642W        W 4706   5.138   7.218   1.659
  643W        W 4707   6.058   2.060   2.140
  644W        W 4708   9.588   7.027  11.512
  645W        W 4709   5.178   7.654   2.577
  646W        W 4710   7.449   7.661   8.876
  647W        W 4711   3.581   5.153   1.224
  648W        W 4712   7.865   3.976  10.998
  649W        W 4713   6.172   5.980   2.737
  650W        W 4714   6.159   1.872   9.125
  651W        W 4715   7.902   4.342   0.462
  652W        W 4716   5.803   8.374  10.005
  653W        W 4717   7.133   5.952  11.797
  654W        W 4718   0.924   1.413   9.804
  655W        W 4719   9.958   6.225   0.904
  656W        W 4720   8.172   5.636   0.569
  657W        W 4721   2.823   5.036   9.553
  658W        W 4722   0.393   1.242  11.848
  659W        W 4723   8.037   5.443   1.295
  660W        W 4724   4.551   9.867   2.202
  661W        W 4725   2.599   1.982  11.795
  662W        W 4726   1.835   4.747   8.494
  663W        W 4727   6.020   3.236   0.742
  664W        W 4728   0.141   9.346   2.492
  665W        W 4729   6.542   1.397   1.342
  666W        W 4730   7.187   0.393   9.406
  667W        W 4731   2.131   6.597   9.006
  668W        W 4732   7.002   3.201   0.568
  669W        W 4733   2.431   9.656   0.195
  670W        W 4734   4.024   3.276  10.035
  671W        W 4735   5.050   3.490   2.777
  672W        W 4736   8.816   8.411  11.874
  673W        W 4737   4.581   0.597  10.497
  674W        W 4738   4.245   0.934   9.973
  675W        W 4739   5.155   0.878   8.907
  676W        W 4740   9.945   0.315   0.208
  677W        W 4741   6.040   9.656   0.017
  678W        W 4742   6.517   4.753  11.668
  679W        W 4743   2.315   1.280   8.537
  680W        W 4744   1.759   4.671  10.616
  681W        W 4745   4.210   7.999   1.638
  682W        W 4746   4.620   0.524   1.029
  683W        W 4747   7.479   0.145  10.861
  684W        W 4748   0.111   4.943  11.263
  685W        W 4749   4.044   2.884  10.380
  686W        W 4750   7.962   6.808   0.929
  687W        W 4751   7.866   9.043   1.334
  688W        W 4752   5.673   4.515  10.295
  689W        W 4753   2.106   8.569  11.445
  690W        W 4754   5.649   7.550   2.316
  691W        W 4755   7.729   1.891  11.406
  692W        W 4756   0.522   6.967  11.137
  693W        W 4757   2.815   4.507   1.506
  694W        W 4758   9.840   1.198  10.650
  695W        W 4759   6.010   0.639   1.480
  696W        W 4760   0.708   0.671  10.357
  697W        W 4761   9.573   2.627   9.988
  698W        W 4762   3.594   9.188   1.783
  699W        W 4763   1.497   5.613   2.398
  700W        W 4764   4.944   6.569   9.055
  701W        W 4765   6.381   0.686   9.524
  702W        W 4766   2.362   3.063  10.970
  703W        W 4767   4.611   6.064   2.848
  704W        W 4768   5.201   2.223   0.020
  705W        W 4769   3.786   9.869   2.728
  706W        W 4770   3.028   8.014  10.068
  707W        W 4771   3.828   8.222   1.892
  708W        W 4772   2.474   0.968   2.168
  709W        W 4773   3.011   1.104  11.358
  710W        W 4774   0.333   2.379   9.173
  711W        W 4775   8.488   7.207   1.594
  712W        W 4776   2.332   1.219   1.718
  713W        W 4777   4.153   1.768   0.204
  714W        W 4778   5.633   7.941   2.843
  715W        W 4779   2.760   7.014  11.314
  716W        W 4780   7.194   1.691   2.331
  717W        W 4781   7.306   8.564  11.513
  718W        W 4782   1.367   3.293   8.731
  719W        W 4783   0.946   3.703  11.254
  720W        W 4784   1.864   4.128   1.231
  721W        W 4785   8.018   8.356   9.724
  722W        W 4786   2.045   7.627  10.079
  723W        W 4787   6.169   3.041   2.237
  724W        W 4788   1.215  10.017  11.688
  725W        W 4789   6.433   6.991  10.539
  726W        W 4790   5.745   6.589   8.508
  727W        W 4791   0.859   2.637   0.618
  728W        W 4792   9.958   6.119  11.990
  729W        W 4793   9.397   8.721  11.313
  730W        W 4794   9.216   5.243  10.533
  731W        W 4795   8.777   2.696   2.928
  732W        W 4796   0.589   9.466   3.391
  733W        W 4797   1.412   6.714   1.401
  734W        W 4798   6.531   8.042  11.399
  735W        W 4799   6.097   8.437   8.854
  736W        W 4800   1.011  10.194   2.244
  737W        W 4801   2.811   2.179   1.257
  738W        W 4802   5.139   3.604   0.032
  739W        W 4803   7.577   4.551   3.690
  740W        W 4804   6.007   0.560  10.631
  741W        W 4805   0.798   0.146   2.298
  742W        W 4806  10.153  10.238   9.982
  743W        W 4807   3.516   8.843  11.693
  744W        W 4808   2.830   5.076   1.870
  745W        W 4809   1.485   0.950   2.502
  746W        W 4810   6.599   6.501   2.173
  747W        W 4811   2.600   7.032   9.748
  748W        W 4812   4.752   7.511   2.277
  749W        W 4813   0.006   3.447  11.956
  750W        W 4814   3.247   8.955   1.469
  751W        W 4815   4.621  10.224   3.501
  752W        W 4816   9.124   8.805   1.808
  753W        W 4817   6.126  10.480   2.691
  754W        W 4818   6.449   3.394   2.665
  755W        W 4819   4.518   3.084   8.950
  756W        W 4820   4.671   0.762   3.349
  757W        W 4821   2.175   8.047   2.403
  758W        W 4822   8.680   1.789   1.978
  759W        W 4823   9.492   6.976   8.805
  760W        W 4824   7.387   2.300   8.815
  761W        W 4825   2.760   1.657   0.553
  762W        W 4826   7.736   8.605   8.877
  763W        W 4827   3.257   4.530   1.763
  764W        W 4828   9.870   8.740   1.021
  765W        W 4829   0.231   9.859  10.549
  766W        W 4830   9.363   5.117  10.031
  767W        W 4831   7.909   4.571   1.529
  768W        W 4832   3.372   9.469   1.428
  769W        W 4833   0.668   5.645   9.562
  770W        W 4834   4.031   6.640   9.211
  771W        W 4835   5.841   1.654   1.932
  772W        W 4836   7.309  10.026   9.200
  773W        W 4837   6.742   4.686   9.098
  774W        W 4838   2.302   8.213  10.711
  775W        W 4839   4.442   8.334   8.452
  776W        W 4840   5.604   8.772   9.702
  777W        W 4841   8.308   9.478  11.781
  778W        W 4842   7.339   7.853  11.029
  779W        W 4843   6.839   9.823   1.674
  780W        W 4844   7.685   2.640  10.955
  781W        W 4845   7.074   6.888   0.798
  782W        W 4846   0.456  10.300  10.474
  783W        W 4847   1.257   7.919   9.117
  784W        W 4848   1.838   8.387   0.267
  785W        W 4849   1.681   3.826   0.436
  786W        W 4850   8.392   9.043   9.284
  787W        W 4851   2.384   5.724  11.874
  788W        W 4852   6.385   4.005   9.717
  789W        W 4853   9.782   2.833   1.459
  790W        W 4854   3.178   7.484   0.385
  791W        W 4855   1.807   5.707   0.539
  792W        W 4856   6.241   5.536   3.018
  793W        W 4857   9.981   9.988   0.363
  794W        W 4858   4.580  10.404   9.160
  795W        W 4859   0.004   7.962   1.835
  796W        W 4860   3.714   7.067  11.836
  797W        W 4861   8.367   1.301   9.071
  798W        W 4862   9.144   8.058   0.619
  799W        W 4863   1.251   5.540   0.615
  800W        W 4864   2.286  10.001   2.524
  801W        W 4865   3.759   8.436  11.946
  802W        W 4866   0.782   0.178  10.479
  803W        W 4867   9.564   8.929   0.189
  804W        W 4868   4.909   1.648   3.682
  805W        W 4869   3.414  10.370  10.369
  806W        W 4870   3.092   8.531  10.356
  807W        W 4871   4.910   4.173  11.268
  808W        W 4872   6.199   1.406   0.250
  809W        W 4873   9.100   5.540  10.947
  810W        W 4874   0.419   6.051   8.791
  811W        W 4875   7.017   2.733   1.709
  812W        W 4876   2.626   3.231   1.992
  813W        W 4877   1.896   7.972   1.451
  814W        W 4878   1.936  10.374   2.657
  815W        W 4879   8.575   4.684  10.581
  816W        W 4880   9.970   8.337   3.327
  817W        W 4881   3.916   3.390   0.703
  818W        W 4882   4.996   4.533   3.611
  819W        W 4883   3.592   7.864   9.436
  820W        W 4884   5.089   8.465   8.872
  821W        W 4885   4.597   6.850   3.441
  822W        W 4886   6.971   8.047   2.520
  823W        W 4887  10.472   3.676   8.856
  824W        W 4888   8.510  10.020   2.172
  825W        W 4889   0.346   9.890   1.714
  826W        W 4890   6.918  10.495   9.693
  827W        W 4891   6.503   6.635   9.782
  828W        W 4892  10.196   6.196   3.642
  829W        W 4893   7.659   8.895   1.972
  830W        W 4894   9.113   7.567  11.953
  831W        W 4895  10.013   3.283  10.981
  832W        W 4896   6.125   0.059   0.718
  833W        W 4897   1.217   3.608  10.084
  834W        W 4898   9.814   1.900   8.584
  835W        W 4899   0.263   2.687   1.516
  836W        W 4900   9.359   8.346   1.992
  837W        W 4901   2.842   7.381   3.380
  838W        W 4902   0.104   6.580   0.711
  839W        W 4903   8.174   9.393   8.642
  840W        W 4904   2.917   1.618  10.511
  841W        W 4905   2.373   7.024   8.769
  842W        W 4906   3.266   8.442  10.943
  843W        W 4907   4.011   6.181   8.320
  844W        W 4908   5.509   3.858   3.541
  845W        W 4909   1.710   8.000   9.362
  846W        W 4910   7.523   8.399   1.836
  847W        W 4911  10.442   4.225   1.179
  848W        W 4912   7.773   6.420  10.781
  849W        W 4913   7.156   7.479   3.178
  850W        W 4914   9.689   6.472  10.737
  851W        W 4915   3.176   2.648   0.981
  852W        W 4916   2.990   1.768   0.059
  853W        W 4917   3.281   4.894  11.532
  854W        W 4918   5.161   5.753  11.857
  855W        W 4919   1.368   3.317   1.174
  856W        W 4920   9.029   3.573  10.806
  857W        W 4921   8.195   8.800   0.411
  858W        W 4922   2.744   6.971   1.443
  859W        W 4923   9.823   7.349   1.767
  860W        W 4924   5.160  10.479  11.355
  861W        W 4925   5.756   8.087   3.401
  862W        W 4926   3.335   9.361   3.482
  863W        W 4927  10.419   0.850   1.821
  864W        W 4928   7.386   6.668   3.619
  865W        W 4929   7.487   4.900  11.804
  866W        W 4930   6.467   8.835   2.527
  867W        W 4931   6.978   7.486   1.791
  868W        W 4932   1.908   4.776   2.572
  869W        W 4933   7.627   9.135   9.984
  870W        W 4934   0.265   4.263   0.464
  871W        W 4935   7.036   2.689   8.758
  872W        W 4936   8.150   3.236   1.510
  873W        W 4937   1.282   6.230   1.491
  874W        W 4938   4.243   4.681  11.725
  875W        W 4939  10.443   7.517  10.021
  876W        W 4940   9.595   0.662   9.930
  877W        W 4941   9.929   0.715  10.779
  878W        W 4942   4.116   4.538   3.695
  879W        W 4943   3.564   9.079   9.100
  880W        W 4944   3.316   9.267   2.464
  881W        W 4945   5.002   7.631   0.016
  882W        W 4946   8.617   5.056  11.379
  883W        W 4947   0.420   0.484   9.264
  884W        W 4948   0.936   8.522  10.218
  885W        W 4949   4.216   2.340   2.982
  886W        W 4950   0.481   8.330   1.221
  887W        W 4951   1.829   8.866   1.868
  888W        W 4952   5.488   3.182   8.052
  889W        W 4953   3.816   0.385   0.447
  890W        W 4954   1.183   5.184   9.737
  891W        W 4955   9.089   9.311   3.454
  892W        W 4956   1.622   0.953   1.096
  893W        W 4957   7.613   1.055   1.146
  894W        W 4958   9.992  10.035   1.224
  895W        W 4959   1.247   5.008   0.399
  896W        W 4960   1.739   0.702   9.488
  897W        W 4961   1.804   6.660   2.271
  898W        W 4962   7.832   8.973  10.437
  899W        W 4963  10.422   3.152   8.749
  900W        W 4964  10.253   7.965   8.714
  901W        W 4965   9.133   9.604  10.960
  902W        W 4966  10.109   9.958   8.987
  903W        W 4967   2.393   7.266   0.938
  904W        W 4968  10.052   9.083   0.358
  905W        W 4969   0.285   0.700  10.684
  906W        W 4970   4.788   0.812   2.171
  907W        W 4971   4.541   8.728   3.565
  908W        W 4972  10.396   8.575   0.240
  909W        W 4973   3.269   2.093  10.797
  910W        W 4974   6.519   0.735  11.279
  911W        W 4975   0.052   3.284   2.175
  912W        W 4976   5.141   7.189   2.192
  913W        W 4977   1.102   3.797   2.405
  914W        W 4978   7.625   9.275  11.906
  915W        W 4979   9.834   1.249   0.503
  916W        W 4980   5.631   7.704  10.416
  917W        W 4981   2.821   7.437   0.732
  918W        W 4982   8.477   3.668   3.206
  919W        W 4983   0.652   5.592  11.861
  920W        W 4984   2.171   9.543   1.466
  921W        W 4985   5.463   7.674   3.732
  922W        W 4986   0.464   8.455   0.380
  923W        W 4987   5.952   7.567  11.579
  924W        W 4988   6.630   7.201   0.824
  925W        W 4989   8.758   7.316   0.906
  926W        W 4990   4.970   0.777   2.673
  927W        W 4991   4.439   6.935  11.203
  928W        W 4992   7.476   5.036   3.558
  929W        W 4993   3.034   3.021   1.755
  930W        W 4994   8.624   3.290   1.739
  931W        W 4995   1.239   2.730   3.172
  932W        W 4996   7.555   8.558  10.273
  933W        W 4997   4.856   3.094   2.262
  934W        W 4998   5.806   2.234   9.212
  935W        W 4999   6.501   9.348  10.729
  936W        W 5000   7.119   7.386   0.935
  937W        W 5001   4.983   5.504   2.136
  938W        W 5002   4.538   7.702   9.041
  939W        W 5003   0.535   9.912   0.265
  940W        W 5004   3.093   2.835  10.317
  941W        W 5005   0.295   5.553   1.860
  942W        W 5006  10.381   9.965   2.751
  943W        W 5007   9.915   9.570   9.274
  944W        W 5008   7.116   9.886   2.129
  945W        W 5009   5.679   6.002   2.963
  946W        W 5010  10.051   2.521   2.842
  947W        W 5011   8.390   2.946   0.298
  948W        W 5012   3.807   7.062  11.323
  949W        W 5013   6.099   6.549  10.093
  950W        W 5014   8.009   5.573   2.388
  951W        W 5015   5.198   7.659   2.040
  952W        W 5016   6.005   9.573   0.517
  953W        W 5017   9.729  10.457   3.829
  954W        W 5018   6.070   0.021  11.271
  955W        W 5019   6.528   4.014   0.023
  956W        W 5020   7.730   2.479   0.644
  957W        W 5021   1.946   4.798   3.636
  958W        W 5022   6.606   9.146   9.865
  959W        W 5023   1.414   0.591   2.915
  960W        W 5024   9.533   6.967  10.747
  961W        W 5025   9.116   3.040   2.343
  962W        W 5026   9.859   0.912   3.887
  963W        W 5027   0.663   4.697   8.725
  964W        W 5028   3.309   6.158  10.507
  965W        W 5029   6.195   7.210   3.607
  966W        W 5030   2.798   3.717   2.113
  967W        W 5031   3.565   6.480   2.195
  968W        W 5032   5.237   2.102   1.222
  969W        W 5033   3.390   5.000   0.784
  970W        W 5034   2.664   0.175   9.288
  971W        W 5035   4.589   4.592   1.938
  972W        W 5036  10.039   7.284   2.271
  973W        W 5037   7.093   8.340   8.582
  974W        W 5038   5.224   2.221   2.094
  975W        W 5039   1.208   5.244   2.954
  976W        W 5040   8.130   1.806   9.014
  977W        W 5041   6.662   5.422   9.498
  978W        W 5042   6.501   4.133   0.949
  979W        W 5043   4.987   1.411  10.198
  980W        W 5044   2.186   6.101   8.527
  981W        W 5045   0.949   6.838   2.814
  982W        W 5046   7.174   3.126   2.056
  983W        W 5047   7.471   6.604   0.990
  984W        W 5048   2.936   9.543  11.762
  985W        W 5049   0.724   2.350   2.124
  986W        W 5050   4.532   8.221   9.948
  987W        W 5051   2.434   9.399   3.200
  988W        W 5052   4.543   1.238   9.426
  989W        W 5053   3.892   3.631   3.504
  990W        W 5054   6.267   1.536   9.472
  991W        W 5055   4.708   6.603   4.247
  992W        W 5056   6.243   1.400   3.259
  993W        W 5057   9.516   4.135  11.339
  994W        W 5058   2.309   7.907   3.590
  995W        W 5059   1.636   5.535   1.895
  996W        W 5060   8.721   1.555   1.524
  997W        W 5061   1.293   9.464   9.241
  998W        W 5062   0.836   6.906   8.665
  999W        W 5063   2.927   1.446   2.743
 1000W        W 5064   5.644   9.527   9.939
 1001W        W 5065   0.547   1.806   1.369
 1002W        W 5066   5.529   6.971   0.955
 1003W        W 5067   5.505   4.863  10.855
 1004W        W 5068   1.753   9.972  10.831
 1005W        W 5069   3.787   4.946  11.614
 1006W        W 5070   0.026   6.234  10.901
 1007W        W 5071   8.359   2.797  11.431
 1008W        W 5072   6.778   8.496  11.572
 1009W        W 5073   1.326   0.545   1.165
 1010W        W 5074   0.930   7.320   2.654
 1011W        W 5075   1.224   0.605   1.682
 1012W        W 5076   5.209   5.614   9.431
 1013W        W 5077   7.660   4.737   8.727
 1014W        W 5078   3.746   4.573   2.442
 1015W        W 5079   9.543   9.739   9.606
 1016W        W 5080   5.835   3.215   3.887
 1017W        W 5081   9.080   3.121  11.005
 1018W        W 5082   8.184   1.734   1.275
 1019W        W 5083   0.722   9.895  11.773
 1020W        W 5084   8.696   8.996   0.504
 1021W        W 5085   6.928   7.969   9.367
 1022W        W 5086   9.073   2.624  10.884
 1023W        W 5087   7.577   0.999   8.872
 1024W        W 5088   4.092   4.712  10.274
 1025W        W 5089   4.514   8.938   1.645
 1026W        W 5090   3.558   0.016   0.188
 1027W        W 5091   6.768   6.128   1.295
 1028W        W 5092   7.693   1.812   2.348
 1029W        W 5093   7.987   1.951  10.041
 1030W        W 5094   6.001   4.487   3.859
 1031W        W 5095   2.837   6.003   0.569
 1032W        W 5096   4.900  10.498   0.417
 1033W        W 5097   1.899   6.112   8.968
 1034W        W 5098   8.941   9.418   0.806
 1035W        W 5099   6.527   8.930  11.565
 1036W        W 5100   8.653   0.209  10.389
 1037W        W 5101  10.043   2.642  10.139
 1038W        W 5102   1.350   2.325   2.815
 1039W        W 5103   1.995   7.617   2.647
 1040W        W 5104   4.228   9.956   0.151
 1041W        W 5105   0.195   8.599   9.881
 1042W        W 5106   9.409   6.578  11.674
 1043W        W 5107   2.060   7.585   8.693
 1044W        W 5108   7.481   3.151  11.821
 1045W        W 5109   4.067   6.618   0.436
 1046W        W 5110   4.098   6.616   0.950
 1047W        W 5111   8.415  10.033   0.771
 1048W        W 5112   5.041   6.720   3.873
 1049W        W 5113   6.506   3.506   0.066
 1050W        W 5114   0.279   3.740   2.229
 1051W        W 5115   0.698   6.440   9.010
 1052W        W 5116   9.074   5.007   0.358
 1053W        W 5117   9.601   3.162   2.283
 1054W        W 5118   3.455   4.659   9.122
 1055W        W 5119   9.726   7.287  10.387
 1056W        W 5120   6.797   4.037   8.483
 1057W        W 5121   1.266   4.106   9.916
 1058W        W 5122   4.250   4.698  10.762
 1059W        W 5123   8.140   9.556  10.894
 1060W        W 5124   4.521   6.848   9.335
 1061W        W 5125   9.773   9.891   2.159
 1062W        W 5126   7.409   4.671   0.284
 1063W        W 5127   8.568   3.781   0.925
 1064W        W 5128   0.066   1.960  10.708
 1065W        W 5129   4.371   5.239   1.011
 1066W        W 5130   9.288   8.810   9.898
 1067W        W 5131   5.850   0.446   9.120
 1068W        W 5132   9.913   2.194   9.288
 1069W        W 5133   4.109   7.883   9.287
 1070W        W 5134   6.555   2.793   1.937
 1071W        W 5135   3.568   1.421   3.496
 1072W        W 5136   1.748   1.651   9.102
 1073W        W 5137   5.985  10.407   1.172
 1074W        W 5138   9.989   6.129   9.638
 1075W        W 5139   2.778   4.726   3.047
 1076W        W 5140   8.997   0.973   1.684
 1077W        W 5141   2.724   5.512   0.252
 1078W        W 5142   5.894   4.849   1.966
 1079W        W 5143   2.658  10.209   0.193
 1080W        W 5144   5.592   9.742   3.225
 1081W        W 5145   0.002   2.310   0.426
 1082W        W 5146   5.705   1.903   2.528
 1083W        W 5147   5.997  10.086   0.464
 1084W        W 5148   2.645   2.688  11.264
 1085W        W 5149   4.844   8.590   1.470
 1086W        W 5150   8.097   8.122   3.382
 1087W        W 5151   0.818  10.314   3.265
 1088W        W 5152   5.628   5.937   9.484
 1089W        W 5153   2.870   7.888   0.979
 1090W        W 5154   0.217   2.649   3.365
 1091W        W 5155   6.590   1.186  11.519
 1092W        W 5156   5.972   0.848   0.956
 1093W        W 5157   7.909   7.796   0.679
 1094W        W 5158   1.831   5.513   1.406
 1095W        W 5159   2.700   3.396  11.739
 1096W        W 5160   1.370   6.468   3.529
 1097W        W 5161   3.325   8.409   2.107
 1098W        W 5162   6.611   6.697   0.875
 1099W        W 5163   3.304   8.676   1.038
 1100W        W 5164   7.422   0.254   2.893
 1101W        W 5165   0.509   3.380  11.832
 1102W        W 5166   3.791   8.809   2.761
 1103W        W 5167   2.760   4.314   1.027
 1104W        W 5168   6.013   3.673   0.474
 1105W        W 5169   2.310   8.120   0.377
 1106W        W 5170   9.960   6.339  10.315
 1107W        W 5171   9.782   8.971   9.948
 1108W        W 5172   1.591   3.892   2.271
 1109W        W 5173   2.812   9.490   3.526
 1110W        W 5174   9.906   5.465   1.921
 1111W        W 5175   2.186   7.342   9.154
 1112W        W 5176  10.498   1.116   9.856
 1113W        W 5177   3.128  10.270   1.942
 1114W        W 5178   7.010  10.357   1.233
 1115W        W 5179   0.405   9.336   1.007
 1116W        W 5180   4.514   0.448   2.994
 1117W        W 5181   3.411   3.553   0.842
 1118W        W 5182   7.207  10.349  10.530
 1119W        W 5183   5.071  10.483  11.913
 1120W        W 5184   4.799  10.000   9.375
 1121W        W 5185   7.238   8.846   0.819
 1122W        W 5186   5.405   5.766   9.906
 1123W        W 5187   9.332   9.112   3.000
 1124W        W 5188   3.534   3.106  10.093
 1125W        W 5189   1.302   8.135  10.193
 1126W        W 5190   4.115   4.172  10.870
 1127W        W 5191   9.434   3.250   2.764
 1128W        W 5192   5.748  10.041   9.840
 1129W        W 5193   4.602   9.444   1.505
 1130W        W 5194   9.235   8.645   8.878
 1131W        W 5195   3.422   1.804  11.752
 1132W        W 5196   3.509   6.253   3.185
 1133W        W 5197   0.033   4.059  11.312
 1134W        W 5198   6.514   6.126  10.988
 1135W        W 5199   5.600   8.755   1.514
 1136W        W 5200   1.326   6.913  10.535
 1137W        W 5201   4.742   1.682   9.572
 1138W        W 5202   4.547   9.592   9.542
 1139W        W 5203   6.021   1.041   9.468
 1140W        W 5204   9.626   6.712   2.687
 1141W        W 5205   6.688   7.933  10.378
 1142W        W 5206   9.939   2.597   9.622
 1143W        W 5207  10.401   4.733   1.130
 1144W        W 5208   4.315   2.226   2.485
 1145W        W 5209   3.850   9.816  10.866
 1146W        W 5210   7.786   7.024   2.824
 1147W        W 5211   9.016   7.913  10.121
 1148W        W 5212   3.234   7.299  11.679
 1149W        W 5213   7.482   7.361  10.956
 1150W        W 5214  10.438   3.278   9.239
 1151W        W 5215   4.025   6.542   2.443
 1152W        W 5216   3.273   6.226   1.370
 1153W        W 5217   5.539   5.334  11.753
 1154W        W 5218   3.701   4.584   9.908
 1155W        W 5219  10.226   9.363   1.584
 1156W        W 5220   1.253   7.584   1.173
 1157W        W 5221   0.665   1.975  10.905
 1158W        W 5222   9.054   0.373   3.476
 1159W        W 5223  10.357   6.165   9.971
 1160W        W 5224   0.811  10.243   9.573
 1161W        W 5225   9.890   8.585   0.419
 1162W        W 5226   6.061   9.436   1.435
 1163W        W 5227   0.869   1.665   0.998
 1164W        W 5228   0.354   3.704  11.029
 1165W        W 5229   8.125   8.707  11.220
 1166W        W 5230   0.364   7.864   1.433
 1167W        W 5231   4.750   8.608   0.969
 1168W        W 5232   4.690   5.143   0.272
 1169W        W 5233   5.657   2.136   1.842
 1170W        W 5234   5.436   6.474   0.364
 1171W        W 5235   9.289   9.655   0.533
 1172W        W 5236   2.724   8.042   9.019
 1173W        W 5237   3.562   9.382  10.812
 1174W        W 5238   7.622   2.692   9.064
 1175W        W 5239   0.390   6.696  10.392
 1176W        W 5240   9.392   3.928  10.874
 1177W        W 5241   9.728   0.870   2.235
 1178W        W 5242   9.103   4.452   1.272
 1179W        W 5243   8.455  10.005   9.864
 1180W        W 5244   3.771   4.551  10.867
 1181W        W 5245   7.249   0.313   2.407
 1182W        W 5246   2.111   0.279   0.124
 1183W        W 5247   7.596   5.167   0.251
 1184W        W 5248   8.065   0.844   0.937
 1185W        W 5249   6.398  10.287  11.585
 1186W        W 5250   5.013   5.682   8.947
 1187W        W 5251   8.166   0.727  10.860
 1188W        W 5252   0.670   2.397   1.621
 1189W        W 5253   6.492   5.076   9.959
 1190W        W 5254   5.624   3.120  11.405
 1191W        W 5255   9.787   2.571  10.577
 1192W        W 5256   8.303   2.636   3.068
 1193W        W 5257   3.152   8.826  11.277
 1194W        W 5258   4.121   7.975   9.787
 1195W        W 5259   6.026   2.784  11.454
 1196W        W 5260   9.815   5.302   2.395
 1197W        W 5261   2.621   2.397   9.762
 1198W        W 5262   3.632   0.352   2.498
 1199W        W 5263   4.647   3.251   3.111
 1200W        W 5264   0.235   7.934   2.324
 1201W        W 5265   4.236   5.442   3.224
 1202W        W 5266   3.360   5.483   2.729
 1203W        W 5267   3.852   7.452   9.505
 1204W        W 5268   3.914   5.779   7.983
 1205W        W 5269   0.789   3.572   9.767
 1206W        W 5270   9.829   6.279   2.355
 1207W        W 5271   1.672   0.323  11.366
 1208W        W 5272   9.570   3.660  11.949
 1209W        W 5273   2.573   8.886   3.159
 1210W        W 5274   5.146   8.616   2.381
 1211W        W 5275   8.865   4.566   8.643
 1212W        W 5276   2.184   4.191   9.558
 1213W        W 5277   9.829   3.059  10.363
 1214W        W 5278   9.710   2.652   9.167
 1215W        W 5279   8.492   8.596   0.776
 1216W        W 5280   2.113   3.920   3.534
 1217W        W 5281   2.437   7.507   9.608
 1218W        W 5282   3.635   8.998  11.209
 1219W        W 5283   4.357   3.992   2.267
 1220W        W 5284   5.225   7.165  11.823
 1221W        W 5285   0.761   3.278   1.086
 1222W        W 5286   1.437   2.589  11.105
 1223W        W 5287   2.253   6.996  11.469
 1224W        W 5288   5.679   6.402   9.356
 1225W        W 5289   4.323   3.136  10.964
 1226W        W 5290   7.644   5.846  11.801
 1227W        W 5291   1.642   5.362   9.603
 1228W        W 5292   4.232   3.143   9.426
 1229W        W 5293   0.424   2.306   3.000
 1230W        W 5294   0.386   6.388   1.626
 1231W        W 5295   1.424  10.231   8.986
 1232W        W 5296   7.095   4.710  11.014
 1233W        W 5297   9.708   3.651  11.449
 1234W        W 5298   4.454   5.732   8.786
 1235W        W 5299   8.868   8.927   9.113
 1236W        W 5300   4.988   1.346   8.677
 1237W        W 5301   5.500  10.359  11.698
 1238W        W 5302   8.046   2.806   1.209
 1239W        W 5303   9.385  10.500   0.029
 1240W        W 5304   4.146   8.933   9.029
 1241W        W 5305   2.171   1.854   2.482
 1242W        W 5306  10.035   0.500   2.025
 1243W        W 5307   3.494   8.102   9.871
 1244W        W 5308   6.452   6.793   1.773
 1245W        W 5309   6.173   3.252  10.204
 1246W        W 5310   3.302   8.584   0.130
 1247W        W 5311   0.688   9.890   8.413
 1248W        W 5312   8.823   2.755   8.587
 1249W        W 5313   5.502   6.496   4.021
 1250W        W 5314   9.535   1.698   8.988
 1251W        W 5315   9.607   4.278   9.466
 1252W        W 5316   4.554   4.214   2.746
 1253W        W 5317   5.611   5.170   0.225
 1254W        W 5318   1.590   9.128  11.289
 1255W        W 5319   9.287   7.680  11.465
 1256W        W 5320   9.918   0.798   0.723
 1257W        W 5321   3.741   5.999   1.691
 1258W        W 5322   0.371   2.131   3.475
 1259W        W 5323   5.608  10.283  11.195
 1260W        W 5324   6.026  10.473   8.967
 1261W        W 5325   7.826   2.300   9.459
 1262W        W 5326   4.618   1.203   2.483
 1263W        W 5327   6.467   4.405   9.419
 1264W        W 5328   9.618   4.757  10.760
 1265W        W 5329   3.359   5.218  10.757
 1266W        W 5330   4.523   6.413   3.213
 1267W        W 5331   2.189  10.403   0.454
 1268W        W 5332   9.804   5.637   9.432
 1269W        W 5333   4.276   2.157   1.978
 1270W        W 5334  10.367   6.861   3.282
 1271W        W 5335   7.057   1.273  11.255
 1272W        W 5336   7.433   8.284  10.736
 1273W        W 5337   9.693  10.099   9.261
 1274W        W 5338   6.546   2.804   8.973
 1275W        W 5339   0.009  10.408   2.542
 1276W        W 5340   4.507   2.311   9.839
 1277W        W 5341   6.621   2.186   3.325
 1278W        W 5342   9.873   1.280   2.564
 1279W        W 5343   2.421   5.949   9.477
 1280W        W 5344   5.763   3.810   3.106
 1281W        W 5345   8.193   1.805   3.400
 1282W        W 5346   2.692   1.508   2.300
 1283W        W 5347   1.849   2.580  10.058
 1284W        W 5348   8.964   3.693   2.888
 1285W        W 5349   1.202   5.602  11.863
 1286W        W 5350   0.919   1.292  11.232
 1287W        W 5351   0.345   4.486   0.952
 1288W        W 5352   1.219   3.126  10.321
 1289W        W 5353  10.481   4.624   3.158
 1290W        W 5354   7.054   3.555   3.296
 1291W        W 5355   3.730   0.960   9.384
 1292W        W 5356   4.858   1.854  10.583
 1293W        W 5357   5.595  10.391   0.791
 1294W        W 5358   3.627   6.202  10.932
 1295W        W 5359  10.309   8.235   2.219
 1296W        W 5360   4.069   4.708  11.247
 1297W        W 5361  10.353   3.489   2.996
 1298W        W 5362   1.560  10.151  10.386
 1299W        W 5363   8.046  10.369   1.322
 1300W        W 5364   4.742   2.071   2.746
 1301W        W 5365   7.433   4.535   1.833
 1302W        W 5366   3.135   3.802  10.596
 1303W        W 5367   5.171   5.147   0.489
 1304W        W 5368   4.745   4.510  11.623
 1305W        W 5369   8.264   1.345   2.253
 1306W        W 5370   4.678   8.485   0.458
 1307W        W 5371   5.176   1.581   1.277
 1308W        W 5372  10.274   4.755   3.649
 1309W        W 5373   1.349   9.402  10.088
 1310W        W 5374   5.492   3.821  10.717
 1311W        W 5375   3.813  10.303   9.826
 1312W        W 5376   9.209   4.475   0.099
 1313W        W 5377   5.031   4.066   1.143
 1314W        W 5378   4.911   5.591   1.210
 1315W        W 5379   7.524   1.780  10.869
 1316W        W 5380   2.307   9.422   9.152
 1317W        W 5381   2.648   7.965   3.209
 1318W        W 5382   7.480   7.152   8.905
 1319W        W 5383   3.788   6.266   0.717
 1320W        W 5384   0.568   0.344   0.272
 1321W        W 5385   3.106   3.319   2.202
 1322W        W 5386   4.905   2.071   0.402
 1323W        W 5387   6.894   2.199   8.908
 1324W        W 5388   6.482  10.193   2.427
 1325W        W 5389  10.344   6.604   9.574
 1326W        W 5390   4.565   5.030  10.106
 1327W        W 5391   9.497   0.556   0.905
 1328W        W 5392   7.497   3.244   3.264
 1329W        W 5393   3.358   5.886   4.048
 1330W        W 5394   0.032   1.829   0.590
 1331W        W 5395   8.090   1.711  11.055
 1332W        W 5396   7.876   3.464  11.131
 1333W        W 5397   4.799   2.015  11.086
 1334W        W 5398   4.477   5.703   0.217
 1335W        W 5399   8.805   6.062   2.749
 1336W        W 5400   4.015   3.620   0.265
 1337W        W 5401   4.170   2.730   0.689
 1338W        W 5402   7.460   9.855  10.597
 1339W        W 5403   9.824   6.638   3.592
 1340W        W 5404   8.550   1.878   9.277
 1341W        W 5405   3.133   7.837   3.355
 1342W        W 5406   7.474   6.075  10.476
 1343W        W 5407   0.239   2.194   1.797
 1344W        W 5408   3.106   8.475   9.823
 1345W        W 5409   9.809   9.836  10.110
 1346W        W 5410   5.886   1.081   3.401
 1347W        W 5411   3.843   2.676   1.212
 1348W        W 5412   7.302   8.999  10.347
 1349W        W 5413   9.795  10.351   1.920
 1350W        W 5414   9.782   0.368   9.236
 1351W        W 5415   5.961   2.174   9.680
 1352W        W 5416   5.673   0.882   8.689
 1353W        W 5417   0.435   6.796   9.897
 1354W        W 5418   2.548   5.593   0.729
 1355W        W 5419   1.209   3.209   9.769
 1356W        W 5420   0.769   5.691  10.908
 1357W        W 5421   0.351   3.407   0.781
 1358W        W 5422   8.025   4.797   2.951
 1359W        W 5423   7.014   6.978   8.994
 1360W        W 5424   5.574   9.325   0.405
 1361W        W 5425   2.711   3.885   0.718
 1362W        W 5426   8.317   8.528  11.706
 1363W        W 5427   2.469   6.856   0.081
 1364W        W 5428   7.755   8.644   0.733
 1365W        W 5429   1.790   9.869   2.695
 1366W        W 5430   5.065   4.181  10.760
 1367W        W 5431   0.377   5.540   3.320
 1368W        W 5432   7.267   0.293   1.067
 1369W        W 5433   7.545   2.197   2.748
 1370W        W 5434   5.686   2.471  10.001
 1371W        W 5435   0.335   4.192  10.920
 1372W        W 5436   6.961   3.740   1.711
 1373W        W 5437   3.836   9.640   0.165
 1374W        W 5438   3.256   9.301   9.490
 1375W        W 5439   8.153  10.482  11.887
 1376W        W 5440   3.875   5.767   0.674
 1377W        W 5441   8.371   0.218   1.515
 1378W        W 5442   8.850   2.308   9.356
 1379W        W 5443   1.899   2.816  10.907
 1380W        W 5444   7.115   6.614   9.871
 1381W        W 5445   2.470   3.783   1.144
 1382W        W 5446   6.079   7.038   1.496
 1383W        W 5447   1.811   7.466   1.292
 1384W        W 5448   5.951   6.126  10.389
 1385W        W 5449   9.310   1.490   9.389
 1386W        W 5450   9.494   4.208   1.752
 1387W        W 5451   8.918   8.588  11.086
 1388W        W 5452   8.934   4.285   3.405
 1389W        W 5453   3.720   7.195   3.533
 1390W        W 5454   3.138   4.035   1.834
 1391W        W 5455   2.815   7.899  11.518
 1392W        W 5456   3.411   8.040   0.192
 1393W        W 5457   3.835   5.057   8.565
 1394W        W 5458   0.486   7.349   0.563
 1395W        W 5459   2.841   7.642  10.414
 1396W        W 5460   5.950   3.563  10.808
 1397W        W 5461   2.201   6.911   9.415
 1398W        W 5462   5.057   5.495   2.650
 1399W        W 5463   9.345   1.013   0.424
 1400W        W 5464   4.978   8.110  10.806
 1401W        W 5465   0.370   8.178   3.390
 1402W        W 5466   4.642   0.832   0.157
 1403W        W 5467   6.643   4.236   2.807
 1404W        W 5468   0.027   7.072   9.761
 1405W        W 5469   1.283   3.558  10.598
 1406W        W 5470   2.627   5.525   1.731
 1407W        W 5471   0.678   9.842  10.324
 1408W        W 5472   3.120   9.693   2.269
 1409W        W 5473   1.699   8.005   8.813
 1410W        W 5474   8.556   9.462  11.327
 1411W        W 5475   5.915   3.079  10.615
 1412W        W 5476   7.002  10.436   9.196
 1413W        W 5477   0.681   2.252  10.015
 1414W        W 5478   6.003   7.317   3.095
 1415W        W 5479   5.463   6.077  10.299
 1416W        W 5480   5.481   9.412  11.437
 1417W        W 5481   4.175   4.432   3.205
 1418W        W 5482   7.227   5.185   2.408
 1419W        W 5483   3.420   6.999   2.818
 1420W        W 5484   1.866   5.847   3.835
 1421W        W 5485   8.786   6.873  10.265
 1422W        W 5486   1.256   7.636  10.032
 1423W        W 5487   3.960   8.760  10.290
 1424W        W 5488   5.083  10.068   1.373
 1425W        W 5489   6.897   5.651   8.678
 1426W        W 5490   2.890  10.375   9.657
 1427W        W 5491   6.776   2.945  10.782
 1428W        W 5492   3.008  10.276   9.176
 1429W        W 5493   8.102   2.922   9.952
 1430W        W 5494   0.922   5.608   3.449
 1431W        W 5495   3.426   9.770   9.364
 1432W        W 5496   1.687   1.680   8.530
 1433W        W 5497   9.872   4.712   9.533
 1434W        W 5498   1.189   3.466   0.736
 1435W        W 5499   9.807   5.323   3.404
 1436W        W 5500   7.857   2.447  11.410
 1437W        W 5501   7.109   5.774   9.555
 1438W        W 5502   4.199   5.277   1.975
 1439W        W 5503   5.971   4.770  10.680
 1440W        W 5504   8.489   2.875   0.922
 1441W        W 5505   0.907   6.558   3.258
 1442W        W 5506   9.511   1.342  10.254
 1443W        W 5507   3.389   4.356   0.299
 1444W        W 5508   9.356   4.983   2.410
 1445W        W 5509   9.299   3.284  11.447
 1446W        W 5510   9.509   4.691  10.260
 1447W        W 5511   2.859   8.351   2.320
 1448W        W 5512   0.421   5.890   1.510
 1449W        W 5513   8.548   8.262   3.593
 1450W        W 5514   5.346   1.845   3.516
 1451W        W 5515   7.649   5.815   9.610
 1452W        W 5516   3.533   8.004  10.935
 1453W        W 5517   3.158   6.248   2.380
 1454W        W 5518   1.393   0.940  10.389
 1455W        W 5519   5.164   5.194  11.065
 1456W        W 5520   5.704   4.381  11.965
 1457W        W 5521   6.960   6.474   8.992
 1458W        W 5522   7.022   2.833  10.279
 1459W        W 5523   7.929   8.610   1.613
 1460W        W 5524   9.782   9.789  11.918
 1461W        W 5525   1.732   1.150  11.698
 1462W        W 5526  10.371   4.503   0.692
 1463W        W 5527   5.649   4.230   0.482
 1464W        W 5528   9.836   3.052   3.450
 1465W        W 5529   6.025   1.289   1.205
 1466W        W 5530   0.242   0.971   2.258
 1467W        W 5531   3.618   0.745  10.217
 1468W        W 5532   4.432  10.474   1.527
 1469W        W 5533   8.872   3.370   3.314
 1470W        W 5534   4.241   0.830   9.449
 1471W        W 5535   6.471   2.485   0.399
 1472W        W 5536   6.567   0.307  10.934
 1473W        W 5537   2.719  10.316  11.134
 1474W        W 5538   5.310   9.764   1.730
 1475W        W 5539   3.272   1.374   1.186
 1476W        W 5540   2.273   0.050  11.041
 1477W        W 5541   1.374   5.734   1.484
 1478W        W 5542   7.945   0.292  11.544
 1479W        W 5543   9.080   3.743   0.171
 1480W        W 5544   1.709   1.159   9.262
 1481W        W 5545   7.135   1.283   1.219
 1482W        W 5546   9.792   3.312   1.285
 1483W        W 5547   3.641   5.074   3.129
 1484W        W 5548   8.510   5.192   1.242
 1485W        W 5549   8.344   3.647   9.415
 1486W        W 5550   2.675   8.151  10.392
 1487W        W 5551   3.620   7.470   0.695
 1488W        W 5552   6.004   5.113   9.317
 1489W        W 5553   8.346   9.256   0.237
 1490W        W 5554   7.060   9.419   1.456
 1491W        W 5555   6.190   7.539   9.331
 1492W        W 5556   8.113   4.019   0.818
 1493W        W 5557   8.178   9.935   9.444
 1494W        W 5558   0.822   0.587   1.021
 1495W        W 5559   7.317   5.091   0.661
 1496W        W 5560  10.457   1.344  11.364
 1497W        W 5561   3.828   9.303  10.354
 1498W        W 5562   2.760   7.396   2.297
 1499W        W 5563   8.975   3.164   0.922
 1500W        W 5564   4.025   7.455  11.983
 1501W        W 5565   6.755   7.760  11.056
 1502W        W 5566   9.608   4.081   3.416
 1503W        W 5567   1.662   5.157   3.234
 1504W        W 5568   4.655   9.984   9.863
 1505W        W 5569   0.939   8.189   0.387
 1506W        W 5570   9.962   3.641   1.668
 1507W        W 5571   8.812   6.107  11.363
 1508W        W 5572   5.142   8.002   3.186
 1509W        W 5573   1.267   2.108  11.395
 1510W        W 5574   6.495   6.530   2.687
 1511W        W 5575   0.641   5.665   9.049
 1512W        W 5576   1.799   4.386   9.272
 1513W        W 5577   8.526   4.711   0.980
 1514W        W 5578   0.925   8.994  10.860
 1515W        W 5579   6.189   7.976   8.566
 1516W        W 5580   6.008   9.006   1.706
 1517W        W 5581   8.149   5.000   9.548
 1518W        W 5582   2.753   4.205   8.879
 1519W        W 5583   9.498   9.383  10.647
 1520W        W 5584   3.740   7.656   3.257
 1521W        W 5585   0.833   6.011  11.350
 1522W        W 5586   9.939   2.413   1.158
 1523W        W 5587   8.599   1.462   1.059
 1524W        W 5588   3.264   2.912   0.491
 1525W        W 5589   4.112   4.935   3.269
 1526W        W 5590   0.269   7.847   8.729
 1527W        W 5591   3.766   0.917   2.241
 1528W        W 5592  10.258   0.829  11.430
 1529W        W 5593  10.232   0.948   2.279
 1530W        W 5594   3.366   4.263   2.222
 1531W        W 5595   0.856   7.398   9.457
 1532W        W 5596   5.773   6.311  11.643
 1533W        W 5597   1.943   1.553   0.220
 1534W        W 5598   2.826   0.923   2.892
 1535W        W 5599   1.947   2.201   1.438
 1536W        W 5600   2.612   8.011   9.523
 1537W        W 5601   4.204   2.754   9.917
 1538W        W 5602   6.972   7.912   1.038
 1539W        W 5603   6.831  10.029   8.908
 1540W        W 5604   3.193   6.667   1.043
 1541W        W 5605   4.267   7.517   2.052
 1542W        W 5606   5.989   5.754   2.196
 1543W        W 5607   8.834   7.417  11.499
 1544W        W 5608   3.333   0.423   0.666
 1545W        W 5609  10.211   0.453  11.797
 1546W        W 5610   2.438  10.412  10.037
 1547W        W 5611   7.738   6.485   3.292
 1548W        W 5612   9.033   9.851   1.463
 1549W        W 5613   5.142   9.579  10.747
 1550W        W 5614   7.878   5.716  11.200
 1551W        W 5615  10.369   1.666   1.560
 1552W        W 5616   1.757   3.550   0.850
 1553W        W 5617   4.957   5.023   3.387
 1554W        W 5618   3.753   3.668   2.627
 1555W        W 5619   4.182   4.197   0.912
 1556W        W 5620   3.672   0.309  10.543
 1557W        W 5621   6.683   0.638   3.219
 1558W        W 5622   0.762   4.766   0.313
 1559W        W 5623   6.807   2.683   3.268
 1560W        W 5624   0.946   1.736   9.399
 1561W        W 5625   7.711   9.037   8.575
 1562W        W 5626   8.176   3.187   9.262
 1563W        W 5627   5.474   8.012  10.811
 1564W        W 5628   3.580   3.655  10.890
 1565W        W 5629   5.061   7.831   9.899
 1566W        W 5630   3.272   6.200   0.824
 1567W        W 5631   1.124   9.471   2.258
 1568W        W 5632   2.574   8.086   2.718
 1569W        W 5633   5.090  10.440   9.304
 1570W        W 5634   8.325   4.353   2.847
 1571W        W 5635   9.989   4.156   1.488
 1572W        W 5636   2.157   2.749   2.593
 1573W        W 5637   9.234   0.299  11.503
 1574W        W 5638   9.850   7.961  10.629
 1575W        W 5639   5.073   7.487   8.244
 1576W        W 5640   1.611   9.879   9.956
 1577W        W 5641   1.218   5.682   9.573
 1578W        W 5642   6.555   6.005  11.501
 1579W        W 5643   4.503   4.481   0.574
 1580W        W 5644   1.210   4.777   9.408
 1581W        W 5645   8.660   6.269   1.223
 1582W        W 5646   3.558  10.010   1.405
 1583W        W 5647  10.488   2.827  11.130
 1584W        W 5648   6.142   4.679   2.935
 1585W        W 5649  10.388   9.466   1.091
 1586W        W 5650   9.835   9.280  11.940
 1587W        W 5651   4.961   3.703   8.540
 1588W        W 5652   2.682   0.664   9.458
 1589W        W 5653   7.931   5.405  10.766
 1590W        W 5654   5.133   2.351   0.782
 1591W        W 5655   8.277   7.851   2.278
 1592W        W 5656   1.905   2.356  11.156
 1593W        W 5657   3.218   3.793   2.445
 1594W        W 5658   7.042   8.503   2.782
 1595W        W 5659   7.471   3.274   2.743
 1596W        W 5660   1.469   4.757   3.479
 1597W        W 5661   3.242   1.977   2.977
 1598W        W 5662   8.302  10.299   1.782
 1599W        W 5663   2.417   2.451   1.376
 1600W        W 5664   3.457   6.907   1.955
 1601W        W 5665   7.671   0.013   2.518
 1602W        W 5666   1.345   6.929   8.960
 1603W        W 5667   7.185  10.351   2.653
 1604W        W 5668   6.540   2.231   2.323
 1605W        W 5669   1.850   9.108   2.333
 1606W        W 5670   3.685   7.224  10.047
 1607W        W 5671   2.796   2.590   1.901
 1608W        W 5672   4.897   0.258   2.588
 1609W        W 5673   7.700   1.863   3.217
 1610W        W 5674   2.954   3.613   1.086
 1611W        W 5675   3.567   2.615   0.194
 1612W        W 5676   6.738   0.139   1.574
 1613W        W 5677   8.413   4.599   1.987
 1614W        W 5678   7.956   6.011   3.163
 1615W        W 5679   1.060   9.966   9.233
 1616W        W 5680   8.554   9.250  10.409
 1617W        W 5681   8.081   0.529   9.690
 1618W        W 5682   0.227  10.403   1.597
 1619W        W 5683   8.411   0.726   9.049
 1620W        W 5684   4.736   6.382   9.485
 1621W        W 5685   3.204   9.122  11.975
 1622W        W 5686  10.050   9.944   9.577
 1623W        W 5687  10.085   4.738  10.942
 1624W        W 5688   2.164   1.668  11.719
 1625W        W 5689   1.067   0.785  11.172
 1626W        W 5690   8.875   7.995   0.151
 1627W        W 5691   3.898   5.132   0.810
 1628W        W 5692   5.556   5.856   1.014
 1629W        W 5693  10.244   8.851   9.726
 1630W        W 5694   0.252   7.982   9.255
 1631W        W 5695   6.225   6.480   3.153
 1632W        W 5696   3.190   6.053   3.578
 1633W        W 5697   9.505   2.943   9.562
 1634W        W 5698   6.451   1.856   0.480
 1635W        W 5699   0.907   1.363   2.856
 1636W        W 5700   1.643   1.510   2.237
 1637W        W 5701   5.273   7.472   9.260
 1638W        W 5702   8.835   9.974  10.733
 1639W        W 5703   8.242   7.863   0.292
 1640W        W 5704   1.393   1.960   9.542
 1641W        W 5705   4.159   9.945  10.000
 1642W        W 5706   4.939   6.487   1.455
 1643W        W 5707   2.013   8.014   0.936
 1644W        W 5708   1.325   0.765   9.056
 1645W        W 5709   6.961   0.408  10.011
 1646W        W 5710   7.187   1.851   3.343
 1647W        W 5711   3.645   1.743   0.205
 1648W        W 5712   3.199   3.564   2.910
 1649W        W 5713   2.112   3.848   0.167
 1650W        W 5714   9.440   3.209  10.008
 1651W        W 5715   8.279   6.284  10.802
 1652W        W 5716   6.642   4.979   0.435
 1653W        W 5717   1.090   5.167  11.403
 1654W        W 5718   0.464   1.310  10.017
 1655W        W 5719   9.810   7.652   2.655
 1656W        W 5720  10.411   6.927   2.324
 1657W        W 5721   4.231   5.140  11.029
 1658W        W 5722   3.103   8.213  11.822
 1659W        W 5723   1.034  10.007   0.170
 1660W        W 5724   9.607   6.234   9.955
 1661W        W 5725   8.693   6.009   2.247
 1662W        W 5726   7.513   2.362   3.253
 1663W        W 5727   4.097   0.335   2.282
 1664W        W 5728   1.941   1.710  10.647
 1665W        W 5729   1.737   4.058  11.817
 1666W        W 5730   0.487   2.689  10.201
 1667W        W 5731   6.922   2.572   9.270
 1668W        W 5732   6.966   5.869   0.868
 1669W        W 5733   6.222   0.912  11.935
 1670W        W 5734   2.919   5.613   2.952
 1671W        W 5735  10.349   3.729   1.970
 1672W        W 5736   9.190   3.765  11.336
 1673W        W 5737   6.235   4.067   3.084
 1674W        W 5738   6.282  10.101   0.875
 1675W        W 5739   0.676   0.877   1.414
 1676W        W 5740   8.764   4.619   0.320
 1677W        W 5741   4.574   4.776  11.236
 1678W        W 5742   1.420   1.876  10.501
 1679W        W 5743   5.813   9.836   1.752
 1680W        W 5744   5.143   8.506  11.618
 1681W        W 5745   4.063   7.512   0.968
 1682W        W 5746   4.683   5.573   2.972
 1683W        W 5747   4.560   0.310   2.078
 1684W        W 5748   9.421   1.202   8.977
 1685W        W 5749  10.213   1.849  11.064
 1686W        W 5750   6.590   7.649   8.519
 1687W        W 5751   7.909   6.035   2.645
 1688W        W 5752   5.013   3.345   8.966
 1689W        W 5753   3.676   6.355  11.764
 1690W        W 5754   7.892   5.926  10.707
 1691W        W 5755   3.791   5.956   2.704
 1692W        W 5756   4.223   5.185  11.556
 1693W        W 5757   6.620   5.724   3.337
 1694W        W 5758   2.993   4.713   8.945
 1695W        W 5759   2.718   3.754   2.652
 1696W        W 5760   0.705   2.761   3.216
 1697W        W 5761   6.007   9.157   0.193
 1698W        W 5762   5.515   8.933   1.987
 1699W        W 5763   7.018   6.082  11.300
 1700W        W 5764   1.353   9.133  11.760
 1701W        W 5765   3.446   7.988   2.957
 1702W        W 5766   2.654   4.080   9.380
 1703W        W 5767   5.035   3.667   3.737
 1704W        W 5768   7.080   2.829  11.847
 1705W        W 5769   8.173   4.167   1.320
 1706W        W 5770   5.169   3.288  11.235
 1707W        W 5771   5.652   1.876   1.392
 1708W        W 5772   4.029   3.231   1.884
 1709W        W 5773   7.378   0.776   2.120
 1710W        W 5774   7.029   1.440  11.724
 1711W        W 5775   7.987   3.957   2.845
 1712W        W 5776   5.241   1.684   0.507
 1713W        W 5777   9.342   0.797   3.577
 1714W        W 5778   8.362   8.849   1.378
 1715W        W 5779  10.120   7.119  10.076
 1716W        W 5780   0.416   2.252  10.470
 1717W        W 5781   4.058   1.983   3.305
 1718W        W 5782   3.050   1.692   1.993
 1719W        W 5783   8.416   5.978  10.417
 1720W        W 5784   2.226   0.928   9.471
 1721W        W 5785   0.429   3.886  11.894
 1722W        W 5786   9.958   1.757   2.312
 1723W        W 5787   4.216   9.622  10.395
 1724W        W 5788   5.225   6.632   9.484
 1725W        W 5789   9.107   1.263   3.587
 1726W        W 5790   5.400   5.563   1.395
 1727W        W 5791   7.462   6.231   9.364
 1728W        W 5792   5.200   4.797   0.862
 1729W        W 5793   1.708   9.448  11.947
 1730W        W 5794   2.848   8.841   0.219
 1731W        W 5795   0.280   5.055   3.111
 1732W        W 5796   8.905   4.594   1.704
 1733W        W 5797   4.755  10.330   2.950
 1734W        W 5798   5.702   4.520  11.185
 1735W        W 5799   7.712  10.424  10.435
 1736W        W 5800   8.155   6.766  11.554
 1737W        W 5801   0.468   7.239   0.048
 1738W        W 5802   7.430   4.816   9.462
 1739W        W 5803   6.011   7.878  10.128
 1740W        W 5804   0.135   7.522  10.509
 1741W        W 5805   7.960   9.238   9.599
 1742W        W 5806   6.274   7.018  10.051
 1743W        W 5807   8.596   5.123   0.357
 1744W        W 5808   9.397   4.673   0.521
 1745W        W 5809   5.524   4.785   2.317
 1746W        W 5810   5.584   3.626  11.245
 1747W        W 5811   8.007   8.814   9.921
 1748W        W 5812   9.457   0.356   0.433
 1749W        W 5813   8.977   7.208   9.412
 1750W        W 5814   8.910   8.061   9.630
 1751W        W 5815   7.634   5.572  10.393
 1752W        W 5816   5.055   1.279   2.843
 1753W        W 5817   2.207   0.765   0.293
 1754W        W 5818   3.615   3.533   9.838
 1755W        W 5819  10.337   6.026   1.979
 1756W        W 5820   4.258   3.683   0.979
 1757W        W 5821   9.327   7.431   9.089
 1758W        W 5822   2.168   3.799   1.548
 1759W        W 5823   9.040   6.225  11.823
 1760W        W 5824   4.723   1.314   3.308
 1761W        W 5825  10.440   1.852   2.100
 1762W        W 5826   9.710   5.141  10.435
 1763W        W 5827   1.500   1.697  10.010
 1764W        W 5828   1.222   3.403   3.336
 1765W        W 5829   4.694   9.832   0.301
 1766W        W 5830  10.013   8.491   1.434
 1767W        W 5831   2.189   5.044  10.715
 1768W        W 5832   9.565   2.220   8.915
 1769W        W 5833   4.778   7.644  10.719
 1770W        W 5834   8.200   5.373  11.413
 1771W        W 5835   6.933   0.386   2.835
 1772W        W 5836   7.077   9.843   1.187
 1773W        W 5837   2.952   8.363  11.354
 1774W        W 5838   3.247   1.046   3.312
 1775W        W 5839   6.533   5.718   9.073
 1776W        W 5840   7.864   4.531   9.557
 1777W        W 5841   4.275   4.051   0.405
 1778W        W 5842   9.638   0.332   1.727
 1779W        W 5843   9.619   7.929   3.148
 1780W        W 5844   2.202   6.405   2.057
 1781W        W 5845   9.995   6.855  10.506
 1782W        W 5846   2.649   0.799   1.681
 1783W        W 5847   8.325   2.327   9.236
 1784W        W 5848  10.119   7.461  11.788
 1785W        W 5849   7.539   4.383   9.176
 1786W        W 5850   0.439   3.675   3.163
 1787W        W 5851   7.921   7.382   8.737
 1788W        W 5852   1.066   8.366   0.964
 1789W        W 5853   0.800   1.661   2.428
 1790W        W 5854   0.333   1.398   0.733
 1791W        W 5855   9.409   0.805   1.397
 1792W        W 5856   0.486   4.797  11.873
 1793W        W 5857   6.145   2.745   9.974
 1794W        W 5858   6.652   0.865   9.116
 1795W        W 5859   7.240   8.322   9.522
 1796W        W 5860   4.570   9.489  10.047
 1797W        W 5861   7.065   3.684   8.759
 1798W        W 5862   0.849   7.055   0.333
 1799W        W 5863   6.403   8.740   3.429
 1800W        W 5864   8.045  10.367   3.315
 1801W        W 5865   8.319   3.743  11.028
 1802W        W 5866  10.145   6.619   2.728
 1803W        W 5867   7.387   5.720  11.372
 1804W        W 5868   5.995   5.638  10.829
 1805W        W 5869   1.648   7.345   9.904
 1806W        W 5870   3.821   2.732   1.778
 1807W        W 5871   2.107   0.079   1.356
 1808W        W 5872   8.373   7.427   2.033
 1809W        W 5873   4.228   4.960   2.353
 1810W        W 5874   8.850   2.106  10.362
 1811W        W 5875   4.693   5.490   0.710
 1812W        W 5876   4.664   7.892   0.423
 1813W        W 5877   7.439   2.733  11.473
 1814W        W 5878   9.137   7.070  11.734
 1815W        W 5879  10.498   7.060   2.816
 1816W        W 5880   6.503   4.914   9.491
 1817W        W 5881   6.023   5.236  10.462
 1818W        W 5882   1.609   9.636  10.463
 1819W        W 5883   0.190   9.003  10.391
 1820W        W 5884   9.948   9.461   9.783
 1821W        W 5885   2.862   4.726  11.162
 1822W        W 5886   5.410   4.091  11.160
 1823W        W 5887  10.418   0.199   3.454
 1824W        W 5888   3.735   2.872   2.764
 1825W        W 5889   2.367   3.634  11.154
 1826W        W 5890   4.198   7.062   1.225
 1827W        W 5891   7.040   5.447   1.821
 1828W        W 5892   5.930   9.454   9.158
 1829W        W 5893   1.180   6.508   9.180
 1830W        W 5894   4.656   4.045   0.785
 1831W        W 5895  10.236   8.810  11.238
 1832W        W 5896   1.201   1.865   2.156
 1833W        W 5897  10.007   0.950   9.810
 1834W        W 5898   7.104   0.862   2.962
 1835W        W 5899   0.183   0.791   1.395
 1836W        W 5900   2.905   5.784   9.857
 1837W        W 5901   8.115   7.741   1.740
 1838W        W 5902   2.203   9.832   2.994
 1839W        W 5903   0.274   2.589  11.530
 1840W        W 5904   2.977   5.232  11.318
 1841W        W 5905   0.256   5.228  11.687
 1842W        W 5906   2.798   3.192   1.332
 1843W        W 5907   6.727   6.562   3.192
 1844W        W 5908   7.871   5.790   0.939
 1845W        W 5909   7.546   4.662  11.282
 1846W        W 5910   0.252   0.928  11.458
 1847W        W 5911   1.535   1.818   3.586
 1848W        W 5912   8.534   6.374   9.435
 1849W        W 5913   5.145   4.263   0.672
 1850W        W 5914   5.699  10.257   2.968
 1851W        W 5915   5.682   2.887   1.430
 1852W        W 5916   0.226  10.062  11.850
 1853W        W 5917   2.718   2.348   0.794
 1854W        W 5918   4.495   0.268  10.909
 1855W        W 5919   3.385   9.464   2.945
 1856W        W 5920   9.985   9.367  10.284
 1857W        W 5921   9.029   9.382   9.987
 1858W        W 5922   3.626   4.525  11.407
 1859W        W 5923   1.846   1.196   1.883
 1860W        W 5924   6.750   5.085   8.328
 1861W        W 5925   8.537   9.520   9.977
 1862W        W 5926   9.421   1.469   0.213
 1863W        W 5927   6.088   5.440   0.807
 1864W        W 5928   9.225   0.409   2.683
 1865W        W 5929   2.915   5.496  10.833
 1866W        W 5930   4.132   3.607  10.866
 1867W        W 5931   1.474  10.390   2.377
 1868W        W 5932   4.993   2.714  10.557
 1869W        W 5933   4.064   1.279   9.633
 1870W        W 5934   1.780   4.783  11.106
 1871W        W 5935   9.370  10.181   2.280
 1872W        W 5936   3.243   7.533   1.022
 1873W        W 5937   5.631   0.749  10.234
 1874W        W 5938   3.289   2.728   9.826
 1875W        W 5939   3.274   9.144   8.669
 1876W        W 5940   9.930   0.205  10.812
 1877W        W 5941   5.595   5.506   0.642
 1878W        W 5942   2.294   6.891  10.426
 1879W        W 5943   5.799   4.000  10.339
 1880W        W 5944   8.587  10.273  11.699
 1881W        W 5945   3.735   5.051  10.109
 1882W        W 5946   1.932   3.371   0.368
 1883W        W 5947   6.482   3.854   0.505
 1884W        W 5948   8.905   0.181  11.901
 1885W        W 5949   6.438   6.337   9.192
 1886W        W 5950   8.290   4.705   0.498
 1887W        W 5951   6.143   2.292   3.120
 1888W        W 5952   4.534   6.660  11.657
 1889W        W 5953   9.164   1.926  11.985
 1890W        W 5954   1.470   0.747  10.841
 1891W        W 5955   1.692   8.850   8.389
 1892W        W 5956   3.805   5.197   1.668
 1893W        W 5957   2.481   6.244   2.835
 1894W        W 5958  10.240   0.331   8.973
 1895W        W 5959   9.998   2.761  11.015
 1896W        W 5960   6.198   7.463   8.812
 1897W        W 5961   5.494   4.292   9.882
 1898W        W 5962   8.810   8.919  10.095
 1899W        W 5963   8.371   2.690  10.553
 1900W        W 5964   5.437   9.187   1.266
 1901W        W 5965   3.288   2.621  10.860
 1902W        W 5966   9.194   0.977   9.392
 1903W        W 5967   7.387   3.400   8.474
 1904W        W 5968   6.133   7.001   0.985
 1905W        W 5969   5.688   0.237  10.415
 1906W        W 5970   9.698   8.442   9.976
 1907W        W 5971   0.439   7.054   9.441
 1908W        W 5972   2.594   3.355   0.818
 1909W        W 5973   0.736   6.504   9.524
 1910W        W 5974   1.698   8.183   2.306
 1911W        W 5975   7.907   2.892  10.418
 1912W        W 5976   4.688   0.825   9.707
 1913W        W 5977   9.801   1.021   8.692
 1914W        W 5978   5.723   2.956  10.164
 1915W        W 5979   4.272   8.995   9.966
 1916W        W 5980   5.507   8.359   0.204
 1917W        W 5981   1.464   0.464   0.668
 1918W        W 5982   4.176   9.734   1.265
 1919W        W 5983   2.035   5.528  10.513
 1920W        W 5984   7.812   7.511   9.740
 1921W        W 5985   2.310   8.770  11.870
 1922W        W 5986   3.004   1.753   8.714
 1923W        W 5987   5.211   8.913   3.314
 1924W        W 5988   6.055   0.915   9.999
 1925W        W 5989   6.170   7.592   2.177
 1926W        W 5990   2.161   7.744   0.078
 1927W        W 5991   7.504   9.953   2.514
 1928W        W 5992   8.529   2.623   3.555
 1929W        W 5993  10.500   5.143   1.705
 1930W        W 5994   9.840   4.574   1.834
 1931W        W 5995   7.888   7.191  10.645
 1932W        W 5996   8.145   8.166   1.477
 1933W        W 5997   4.685   3.438  11.171
 1934W        W 5998   9.159   0.320   2.193
 1935W        W 5999   7.450   0.834  10.450
 1936W        W 6000   0.055   0.345   1.151
 1937W        W 6001   1.381   3.685  11.593
 1938W        W 6002   9.995   5.439   0.519
 1939W        W 6003  10.120   9.308   3.300
 1940W        W 6004   3.625   4.058  11.229
 1941W        W 6005   4.967   9.072   1.422
 1942W        W 6006   4.634   8.405  11.955
 1943W        W 6007   1.575   5.273  11.293
 1944W        W 6008   1.690   0.721   2.082
 1945W        W 6009   3.822   9.616   1.626
 1946W        W 6010   2.737   1.817   3.171
 1947W        W 6011   1.831   4.011   3.116
 1948W        W 6012   9.839   2.087   2.669
 1949W        W 6013   6.435   8.006   2.341
 1950W        W 6014   2.851   6.429  10.580
 1951W        W 6015   3.079   5.059   2.763
 1952W        W 6016   1.242   9.061  10.460
 1953W        W 6017   2.190   7.035   3.426
 1954W        W 6018   5.138   4.681   9.234
 1955W        W 6019   8.749   6.204   9.893
 1956W        W 6020   2.248   7.345   0.427
 1957W        W 6021   6.861   4.241   9.850
 1958W        W 6022   4.642   6.083  10.959
 1959W        W 6023   7.472   4.561   4.186
 1960W        W 6024   2.758   0.989  11.802
 1961W        W 6025   8.994   8.044  11.093
 1962W        W 6026   8.872   6.371   9.051
 1963W        W 6027   7.629   4.132  11.440
 1964W        W 6028   9.714   6.225   2.852
 1965W        W 6029   9.309   2.345  10.509
 1966W        W 6030   8.141   4.651   2.462
 1967W        W 6031   0.427   7.013   2.421
 1968W        W 6032  10.452   2.240  11.349
 1969W        W 6033   2.685   6.892   3.543
 1970W        W 6034   7.989   9.058   3.507
 1971W        W 6035   5.483   8.849   0.308
 1972W        W 6036   2.549   9.890  11.765
 1973W        W 6037   4.503   3.176   9.877
 1974W        W 6038   2.242  10.276   0.961
 1975W        W 6039   0.858   9.006  11.787
 1976W        W 6040   3.602  10.490   1.206
 1977W        W 6041   8.294   5.141   0.780
 1978W        W 6042   7.502   0.692   8.474
 1979W        W 6043   0.698   1.148   2.404
 1980W        W 6044   9.548   0.167   9.969
 1981W        W 6045   8.961   2.878   3.418
 1982W        W 6046   6.609   7.106  11.010
 1983W        W 6047   5.568   7.881   9.215
 1984W        W 6048   1.987   6.966   0.220
 1985W        W 6049   5.988   4.074   3.529
 1986W        W 6050   2.761  10.055   0.995
 1987W        W 6051   9.682   3.431   9.554
 1988W        W 6052   0.616   8.541   2.483
 1989W        W 6053   0.673   8.666   0.810
 1990W        W 6054   5.776   9.986   8.942
 1991W        W 6055   7.638   3.185  10.756
 1992W        W 6056   3.571   0.225   9.045
 1993W        W 6057   2.893   2.120  10.455
 1994W        W 6058   3.907   1.319   0.318
 1995W        W 6059   0.353   5.858  10.643
 1996W        W 6060   8.336   4.735  11.039
 1997W        W 6061   3.325   9.465  10.360
 1998W        W 6062   5.088   6.216   3.764
 1999W        W 6063   7.159   4.283  11.341
 2000W        W 6064   5.468   0.931   2.638
 2001W        W 6065   7.864   2.757   3.279
 2002W        W 6066   0.373   2.516   9.672
 2003W        W 6067  10.345   7.450   3.323
 2004W        W 6068   5.774   2.715   0.937
 2005W        W 6069   7.448   2.696  10.515
 2006W        W 6070   2.250   2.890   9.022
 2007W        W 6071   6.885   8.084   1.505
 2008W        W 6072   6.522   0.614   1.680
 2009W        W 6073  10.048   8.346   9.084
 2010W        W 6074   7.373   8.703   9.211
 2011W        W 6075   3.388   3.223   3.835
 2012W        W 6076   8.336   1.306   2.757
 2013W        W 6077   9.383   1.551   3.215
 2014W        W 6078   7.246   7.634   1.380
 2015W        W 6079   0.729   1.881   2.881
 2016W        W 6080   1.295   8.051   2.035
 2017W        W 6081   5.759   3.894   2.263
 2018W        W 6082   4.991   0.410   9.677
 2019W        W 6083  10.322   7.469   9.524
 2020W        W 6084   9.662  10.251   3.138
 2021W        W 6085   5.123   8.083   9.457
 2022W        W 6086   0.421   4.506  10.003
 2023W        W 6087   5.220   8.988  11.475
 2024W        W 6088   9.136   8.339  11.479
 2025W        W 6089   2.854   9.232   2.238
 2026W        W 6090   7.750   9.394   3.197
 2027W        W 6091  10.217   8.404   9.998
 2028W        W 6092   2.725   0.727   0.242
 2029W        W 6093   1.483   7.604   0.724
 2030W        W 6094   8.076   1.417  10.373
 2031W        W 6095   3.822   7.589  11.021
 2032W        W 6096   4.220   4.473   2.270
 2033W        W 6097   7.410   7.942   0.744
 2034W        W 6098   9.038   1.601  11.578
 2035W        W 6099   1.240   8.572   3.252
 2036W        W 6100   0.462   1.392  11.361
 2037W        W 6101   9.879   8.400  10.979
 2038W        W 6102   3.792   0.395   0.949
 2039W        W 6103   8.545   1.374   0.568
 2040W        W 6104   5.714   2.877   2.362
 2041W        W 6105   3.406   5.750   3.204
 2042W        W 6106   8.406   2.792   9.527
 2043W        W 6107   8.883   6.196   1.775
 2044W        W 6108   2.343   0.325   3.229
 2045W        W 6109   8.651   9.021   1.785
 2046W        W 6110   6.702   1.788   9.200
 2047W        W 6111   1.501   9.939   9.456
 2048W        W 6112   1.884   8.077  11.469
 2049W        W 6113   1.668   6.079   8.528
 2050W        W 6114   1.348   1.059   1.883
 2051W        W 6115  10.094   6.973  11.587
 2052W        W 6116   3.564   2.282   9.114
 2053W        W 6117   2.313   5.689   2.748
 2054W        W 6118   7.412   2.609   9.517
 2055W        W 6119   2.400   9.677  11.305
 2056W        W 6120   1.241   9.403  11.032
 2057W        W 6121  10.430   5.715  10.881
 2058W        W 6122   9.962   1.350  11.531
 2059W        W 6123   0.348   1.453   9.518
 2060W        W 6124  10.398   2.404   9.527
 2061W        W 6125   6.171   6.502   0.755
 2062W        W 6126   2.368   9.635  10.126
 2063W        W 6127   1.091   7.367  10.445
 2064W        W 6128   4.595   5.168   8.840
 2065W        W 6129   5.145   9.529   2.653
 2066W        W 6130   2.364   2.107   0.513
 2067W        W 6131   3.841   4.140   3.995
 2068W        W 6132   4.703   2.450   3.144
 2069W        W 6133   2.738   4.586   8.521
 2070W        W 6134   5.561   4.383   3.564
 2071W        W 6135   5.245   0.884  11.434
 2072W        W 6136   4.510   4.666   1.427
 2073W        W 6137   5.622   0.748   3.102
 2074W        W 6138   1.487   8.892   1.507
 2075W        W 6139   1.112   8.986  11.329
 2076W        W 6140   2.327   6.026   2.363
 2077W        W 6141   0.757   2.635   9.296
 2078W        W 6142   3.902   1.901  10.246
 2079W        W 6143   0.868   7.706   1.886
 2080W        W 6144   5.293   4.445  11.506
 2081W        W 6145   5.257  10.498  10.842
 2082W        W 6146   2.859   3.996   1.412
 2083W        W 6147   7.455   6.115  11.020
 2084W        W 6148   5.918   3.188   9.754
 2085W        W 6149   8.477   9.511   9.475
 2086W        W 6150   9.615  10.186  11.612
 2087W        W 6151   8.292   5.099  10.484
 2088W        W 6152   2.653   7.101   9.199
 2089W        W 6153   6.334   9.413   8.847
 2090W        W 6154   0.824   5.253   0.525
 2091W        W 6155  10.111   1.422   9.689
 2092W        W 6156   6.509   1.131   1.863
 2093W        W 6157   0.056   9.537   2.979
 2094W        W 6158   9.475   2.903  11.791
 2095W        W 6159   3.673   9.338  11.785
 2096W        W 6160   9.863   5.195   2.906
 2097W        W 6161   6.557   4.344   0.436
 2098W        W 6162   8.290  10.457  11.284
 2099W        W 6163   9.199   6.110   2.162
 2100W        W 6164   0.447   2.048   0.382
 2101W        W 6165   3.010   8.711  11.742
 2102W        W 6166   5.477   2.138   0.449
 2103W        W 6167   8.996   7.542  11.026
 2104W        W 6168   8.749   3.556  11.237
 2105W        W 6169   5.062   5.175   9.081
 2106W        W 6170   8.985   8.358  10.632
 2107W        W 6171   2.313   4.888   8.465
 2108W        W 6172   3.690   0.863   0.184
 2109W        W 6173   4.276   9.258   3.726
 2110W        W 6174   9.092   2.404   8.907
 2111W        W 6175   2.684   0.567   2.498
 2112W        W 6176   8.497   7.939  10.975
 2113W        W 6177   7.013   3.587   2.243
 2114W        W 6178   3.694  10.378   8.673
 2115W        W 6179   6.233   6.757  11.038
 2116W        W 6180   3.543   1.723   2.161
 2117W        W 6181   9.825   1.508  11.041
 2118W        W 6182   3.761   0.407   1.472
 2119W        W 6183  10.069  10.253   3.493
 2120W        W 6184   8.390   8.120   1.024
 2121W        W 6185   8.801   9.250  11.833
 2122W        W 6186   2.944   7.631   2.937
 2123W        W 6187   9.982   9.273  10.771
 2124W        W 6188   5.658   6.693   9.763
 2125W        W 6189   7.949   6.226  11.211
 2126W        W 6190   7.460   0.294   1.910
 2127W        W 6191   6.817   9.396  11.588
 2128W        W 6192   8.147   1.336   0.874
 2129W        W 6193   1.177   2.636  11.566
 2130W        W 6194   8.912   9.964   2.499
 2131W        W 6195   4.959   5.984  10.071
 2132W        W 6196   1.007   4.709   2.237
 2133W        W 6197   2.800   8.900  10.894
 2134W        W 6198   4.263   0.322   0.717
 2135W        W 6199  10.380   0.394  10.518
 2136W        W 6200   4.050   9.845   2.284
 2137W        W 6201   9.110   3.866  10.407
 2138W        W 6202   5.735   0.200   1.490
 2139W        W 6203   3.120   3.303   8.626
 2140W        W 6204   3.648   9.052   0.802
 2141W        W 6205   0.839   0.750   9.394
 2142W        W 6206   2.387   1.241   0.342
 2143W        W 6207   0.868   6.961   9.736
 2144W        W 6208   1.741   2.116   8.816
 2145W        W 6209   3.424   1.411  11.364
 2146W        W 6210   5.778   7.372   1.234
 2147W        W 6211   0.807   5.841   0.776
 2148W        W 6212   6.046   7.977   9.080
 2149W        W 6213   1.936  10.405  10.149
 2150W        W 6214   6.160   1.682   2.452
 2151W        W 6215   1.792   6.745   3.577
 2152W        W 6216   1.385   5.936  10.957
 2153W        W 6217   1.479   2.682   1.737
 2154W        W 6218   7.881   1.698   0.586
 2155W        W 6219   9.752   1.821   0.366
 2156W        W 6220   2.076   5.423   0.930
 2157W        W 6221   3.968   6.504   3.314
 2158W        W 6222   4.254   9.542   1.873
 2159W        W 6223   2.880   5.563  11.721
 2160W        W 6224   9.268   9.900   3.310
 2161W        W 6225   8.011   2.220   3.010
 2162W        W 6226   2.360   2.174   3.227
 2163W        W 6227   7.990  10.130   2.345
 2164W        W 6228   6.910  10.333  11.461
 2165W        W 6229   2.725   3.630   8.755
 2166W        W 6230   7.823   8.498  11.618
 2167W        W 6231   9.106  10.292  11.573
 2168W        W 6232   6.956   2.721   0.345
 2169W        W 6233   3.136   0.898   1.456
 2170W        W 6234   1.052   4.973   8.935
 2171W        W 6235   0.696  10.348   1.420
 2172W        W 6236   7.084   2.314   0.058
 2173W        W 6237   6.523   4.675   2.575
 2174W        W 6238   8.573   2.764  10.032
 2175W        W 6239   3.607   7.979  10.421
 2176W        W 6240   9.068   6.972   1.163
 2177W        W 6241   7.927   4.345   3.150
 2178W        W 6242   1.409   4.660  11.466
 2179W        W 6243   4.711   8.921  10.728
 2180W        W 6244   6.702   7.209  11.899
 2181W        W 6245   8.008   9.875   8.503
 2182W        W 6246   9.507   4.111   2.284
 2183W        W 6247   9.372   8.026  10.474
 2184W        W 6248   5.012   3.292  10.751
 2185W        W 6249   5.655   5.819  11.672
 2186W        W 6250   3.661   9.559   8.951
 2187W        W 6251   4.086  10.465   9.011
 2188W        W 6252   5.643   8.483   2.198
 2189W        W 6253   3.311   6.644  10.856
 2190W        W 6254   1.649   6.619   0.067
 2191W        W 6255   8.064   1.227  10.877
 2192W        W 6256   3.259   6.653  10.331
 2193W        W 6257   9.443   1.783   2.410
 2194W        W 6258   8.888   0.859   3.335
 2195W        W 6259   7.338   4.372  11.840
 2196W        W 6260   1.186   2.747  10.681
 2197W        W 6261   1.167   4.505   0.528
 2198W        W 6262   3.366   2.047   1.821
 2199W        W 6263   2.179   7.022  10.940
 2200W        W 6264   4.515   3.180   0.804
 2201W        W 6265   5.638   6.039   0.565
 2202W        W 6266   5.334   6.811   1.907
 2203W        W 6267   1.749   3.618   1.345
 2204W        W 6268   7.610   4.061   9.577
 2205W        W 6269   9.330   7.579   1.766
 2206W        W 6270   6.978   1.948  11.709
 2207W        W 6271   1.715   5.216  10.799
 2208W        W 6272   2.830   0.573   0.805
 2209W        W 6273   9.524   6.995   9.333
 2210W        W 6274   2.612   4.128   1.860
 2211W        W 6275   2.441   6.264  11.938
 2212W        W 6276   6.201   4.728   1.580
 2213W        W 6277   0.619   8.157   0.780
 2214W        W 6278   8.999   8.314   9.199
 2215W        W 6279   9.540   1.448   8.508
 2216W        W 6280   6.450   5.212   9.087
 2217W        W 6281   3.688   5.721  11.207
 2218W        W 6282   2.550   5.576  10.448
 2219W        W 6283   5.358   1.741  10.387
 2220W        W 6284   5.280   1.283   0.157
 2221W        W 6285   8.840   7.841   1.003
 2222W        W 6286   8.778   5.079  10.339
 2223W        W 6287   6.684   5.687   2.828
 2224W        W 6288   3.177   5.311   0.428
 2225W        W 6289   8.660   2.257   0.803
 2226W        W 6290   0.704   7.932  10.953
 2227W        W 6291   8.563   8.989   8.631
 2228W        W 6292   3.345   3.014   3.111
 2229W        W 6293   2.304   0.248   2.712
 2230W        W 6294   5.243   2.135   2.617
 2231W        W 6295   6.961   8.037   9.880
 2232W        W 6296   1.895   0.126   2.204
 2233W        W 6297   2.884   9.886  10.868
 2234W        W 6298   4.037   9.116  11.483
 2235W        W 6299   1.794   2.235   3.761
 2236W        W 6300   7.019   4.000   3.536
 2237W        W 6301   0.293   0.510   9.774
 2238W        W 6302   8.978   2.231   2.800
 2239W        W 6303   2.881   2.678   1.401
 2240W        W 6304   7.106   7.968   3.008
 2241W        W 6305   3.250   1.829   9.187
 2242W        W 6306   4.642   1.286   2.003
 2243W        W 6307   9.393   9.249   9.625
 2244W        W 6308   0.441   0.723   8.749
 2245W        W 6309  10.314   8.308  11.244
 2246W        W 6310   5.407   0.439   8.822
 2247W        W 6311   0.826  10.321  11.484
 2248W        W 6312   8.463   9.513   0.686
 2249W        W 6313   8.009   2.309   3.515
 2250W        W 6314   3.489   8.932  10.343
 2251W        W 6315   4.218   6.067   0.949
 2252W        W 6316   5.264  10.495   9.780
 2253W        W 6317   7.368   8.408   3.199
 2254W        W 6318   6.660   0.219   2.453
 2255W        W 6319   1.613   9.570   2.078
 2256W        W 6320   4.369   1.962  10.463
 2257W        W 6321   1.518   4.703   2.275
 2258W        W 6322   3.152   9.503   9.022
 2259W        W 6323   8.955   1.117  11.357
 2260W        W 6324   3.074   2.199  11.734
 2261W        W 6325   3.356   8.320   9.360
 2262W        W 6326   1.405   7.554   9.507
 2263W        W 6327   0.927   7.393  11.892
 2264W        W 6328   5.151   9.041   2.819
 2265W        W 6329   6.929   6.954   1.850
 2266W        W 6330   1.863   2.140  10.360
 2267W        W 6331   8.993   0.531   0.289
 2268W        W 6332   7.616   6.853   9.768
 2269W        W 6333   6.659   1.181   0.013
 2270W        W 6334   1.424   5.145  11.783
 2271W        W 6335   4.565   9.291  11.056
 2272W        W 6336   4.684   9.348   3.423
 2273W        W 6337   3.372   7.874  11.554
 2274W        W 6338   1.062  10.483  11.925
 2275W        W 6339   8.917   1.533   0.267
 2276W        W 6340   3.652   5.565   1.972
 2277W        W 6341   6.205   1.865  10.457
 2278W        W 6342   3.028   6.933   3.147
 2279W        W 6343   1.101   1.869   1.413
 2280W        W 6344   7.339   9.662  11.058
 2281W        W 6345   8.154   9.407   2.902
 2282W        W 6346   3.285   4.290   8.783
 2283W        W 6347   2.266   9.068  11.444
 2284W        W 6348   1.505   6.166   2.927
 2285W        W 6349   8.189   2.563  11.016
 2286W        W 6350   5.669   2.046  11.989
 2287W        W 6351   1.576   1.781   1.250
 2288W        W 6352   0.432   7.138  10.655
 2289W        W 6353   0.448   2.112  11.440
 2290W        W 6354   1.362   4.112   8.864
 2291W        W 6355   1.954   7.013   0.958
 2292W        W 6356   0.973   0.284   0.631
 2293W        W 6357   3.702   2.207   3.039
 2294W        W 6358   8.995   4.166   0.445
 2295W        W 6359   2.402   8.614   0.358
 2296W        W 6360   1.771   4.244  10.980
 2297W        W 6361   1.917   8.421   8.575
 2298W        W 6362   4.265   7.049   0.182
 2299W        W 6363   9.177   7.458   2.256
 2300W        W 6364   0.694   3.983   2.855
 2301W        W 6365   2.142   7.981   9.715
 2302W        W 6366   7.143   6.741   4.084
 2303W        W 6367   9.442   6.161   0.705
 2304W        W 6368   7.689   9.720   0.841
 2305W        W 6369   1.060   9.424   2.779
 2306W        W 6370   6.890   1.291   2.187
 2307W        W 6371   2.335   4.820   3.296
 2308W        W 6372   3.847   8.467   1.412
 2309W        W 6373   8.909   8.380   0.968
 2310W        W 6374   3.951   6.727   1.978
 2311W        W 6375   9.229   3.569   8.898
 2312W        W 6376   5.553   9.884   2.181
 2313W        W 6377   0.444   6.168  11.656
 2314W        W 6378   8.810   6.682   0.557
 2315W        W 6379   6.128   1.848  11.547
 2316W        W 6380  10.431   1.337   1.930
 2317W        W 6381   9.869   1.750   9.994
 2318W        W 6382   9.990   1.168   0.014
 2319W        W 6383   8.993   2.000   1.588
 2320W        W 6384   7.982   2.731   1.722
 2321W        W 6385   1.547   5.380   0.218
 2322W        W 6386   0.832   8.099  10.500
 2323W        W 6387   6.682   7.990   0.269
 2324W        W 6388   5.485   5.211   2.641
 2325W        W 6389   0.040   8.474   2.627
 2326W        W 6390   9.965   2.573   3.353
 2327W        W 6391   3.151   3.534   1.742
 2328W        W 6392   9.864   3.237  11.835
 2329W        W 6393   7.196   3.033   9.319
 2330W        W 6394   1.380   0.516   8.597
 2331W        W 6395   3.467   4.162  10.750
 2332W        W 6396   7.650   5.997   8.371
 2333W        W 6397   4.839   2.787   0.920
 2334W        W 6398   1.718   5.850   9.721
 2335W        W 6399   7.375   6.044   1.784
 2336W        W 6400   4.152   8.829   2.398
 2337W        W 6401   4.529   3.629  10.126
 2338W        W 6402   0.736   1.652   0.498
 2339W        W 6403   1.565   6.440   1.869
 2340W        W 6404   4.337   1.001  11.403
 2341W        W 6405   7.017   7.598  10.161
 2342W        W 6406   1.698   0.071   0.372
 2343W        W 6407   4.395   2.640  11.065
 2344W        W 6408   4.233   3.402  11.422
 2345W        W 6409   3.551   1.718   0.872
 2346W        W 6410   6.452   0.208   1.993
 2347W        W 6411   5.032   4.045   8.146
 2348W        W 6412   3.197   4.656  10.049
 2349W        W 6413   1.454   0.771  11.887
 2350W        W 6414   8.981   8.423  10.095
 2351W        W 6415   8.988   7.919   1.523
 2352W        W 6416   2.920   0.279   0.400
 2353W        W 6417   9.982   8.776  11.946
 2354W        W 6418   2.214   6.039  10.995
 2355W        W 6419   3.637   2.597   0.733
 2356W        W 6420  10.163   8.747  10.729
 2357W        W 6421   1.878   7.417  11.172
 2358W        W 6422   0.232   0.240   8.851
 2359W        W 6423   7.456   7.544  11.434
 2360W        W 6424   8.534   6.544  11.790
 2361W        W 6425   9.639   6.614   0.893
 2362W        W 6426   7.248   3.205   1.016
 2363W        W 6427   7.681   9.100   9.072
 2364W        W 6428   8.897   7.850  10.617
 2365W        W 6429   3.372   7.015   8.598
 2366W        W 6430   6.712   1.660  10.269
 2367W        W 6431   3.294   7.886   0.665
 2368W        W 6432   4.589   9.830   3.167
 2369W        W 6433   9.678  10.202   9.790
 2370W        W 6434   9.873   5.439  11.522
 2371W        W 6435   7.929  10.195   0.859
 2372W        W 6436   6.624   8.730   2.990
 2373W        W 6437   0.233   1.319   2.708
 2374W        W 6438   0.151   6.753  10.874
 2375W        W 6439   7.520   5.533   1.678
 2376W        W 6440   6.692   1.656   9.745
 2377W        W 6441   6.390   5.737   1.602
 2378W        W 6442   3.393   9.763  11.626
 2379W        W 6443   4.758   1.237  11.860
 2380W        W 6444   1.133   6.070   3.290
 2381W        W 6445   6.283   3.655   0.937
 2382W        W 6446   8.143   3.070  10.839
 2383W        W 6447   7.133   5.473   2.822
 2384W        W 6448   5.667  10.284   2.466
 2385W        W 6449   1.386   6.553  10.191
 2386W        W 6450   8.075   7.563  10.340
 2387W        W 6451   8.024   2.227   2.482
 2388W        W 6452   7.049   3.360  11.584
 2389W        W 6453   2.739   8.822  10.068
 2390W        W 6454  10.091   0.142   1.601
 2391W        W 6455   1.831   6.464   3.170
 2392W        W 6456   1.664   9.221  10.766
 2393W        W 6457   2.697   4.483   0.038
 2394W        W 6458   4.488   6.602   2.716
 2395W        W 6459   1.411   7.228   1.512
 2396W        W 6460   2.231   6.005  10.453
 2397W        W 6461   7.431   4.555   1.320
 2398W        W 6462   4.698   9.359   0.068
 2399W        W 6463   8.850   5.202   3.266
 2400W        W 6464   9.776   6.947   0.529
 2401W        W 6465   4.838   5.045   1.207
 2402W        W 6466   3.155   6.423   8.333
 2403W        W 6467   2.580   3.861  11.930
 2404W        W 6468   7.489   7.486   1.827
 2405W        W 6469   6.940   0.862   1.902
 2406W        W 6470   9.483   1.523   0.738
 2407W        W 6471   7.526   5.482   1.167
 2408W        W 6472   5.036   9.660   2.170
 2409W        W 6473   2.000   2.862   9.464
 2410W        W 6474   6.907   5.597  11.513
 2411W        W 6475   9.817   5.602   0.039
 2412W        W 6476   4.244   8.394   9.165
 2413W        W 6477   2.364   2.282   2.744
 2414W        W 6478   6.986   4.195   0.192
 2415W        W 6479   0.389   7.426   3.396
 2416W        W 6480   7.008   9.854  11.771
 2417W        W 6481   5.102   5.388  11.515
 2418W        W 6482   3.812   6.471   9.635
 2419W        W 6483   2.942   9.862   9.479
 2420W        W 6484   7.928   3.334  11.625
 2421W        W 6485   3.545   4.324   9.508
 2422W        W 6486   0.788   1.164   0.972
 2423W        W 6487   7.067   5.810   4.078
 2424W        W 6488   3.829   9.881   8.577
 2425W        W 6489   4.209   7.939   0.675
 2426W        W 6490   9.090   2.373   0.563
 2427W        W 6491   8.460   2.834   1.556
 2428W        W 6492   9.402   4.582   2.100
 2429W        W 6493   8.200   1.032   1.844
 2430W        W 6494   2.954   9.230   3.125
 2431W        W 6495   5.007   0.370   3.071
 2432W        W 6496   8.553   7.995   1.857
 2433W        W 6497   8.107   6.630   9.523
 2434W        W 6498   5.206   4.634  10.513
 2435W        W 6499   6.042  10.132   9.378
 2436W        W 6500   8.328   1.716   0.267
 2437W        W 6501   1.927   7.366   1.797
 2438W        W 6502   3.249   9.409   0.569
 2439W        W 6503   3.980   1.139   3.523
 2440W        W 6504   9.861   1.277   9.244
 2441W        W 6505   5.907   4.098  11.408
 2442W        W 6506   7.995   5.652   1.861
 2443W        W 6507   7.455   8.214   2.714
 2444W        W 6508  10.329   8.011   2.665
 2445W        W 6509  10.144   6.745   0.867
 2446W        W 6510   5.721  10.292  10.676
 2447W        W 6511   5.667   0.731  11.700
 2448W        W 6512   4.225  10.319  10.833
 2449W        W 6513   3.709   6.952   2.404
 2450W        W 6514   6.950   9.787   3.576
 2451W        W 6515   3.261   3.815  11.503
 2452W        W 6516   1.203   5.669  11.357
 2453W        W 6517   2.115   3.166   0.784
 2454W        W 6518  10.487   7.021  10.412
 2455W        W 6519   4.010   2.261   9.877
 2456W        W 6520   5.916   2.651   9.535
 2457W        W 6521   3.575   6.577  11.319
 2458W        W 6522   4.743   3.209   9.400
 2459W        W 6523   3.858   2.399   2.598
 2460W        W 6524   6.355   6.669   3.641
 2461W        W 6525   0.161   6.605   2.641
 2462W        W 6526   8.618   6.533   3.410
 2463W        W 6527   4.572   8.051   9.450
 2464W        W 6528   3.662   1.360  11.836
 2465W        W 6529   5.682   7.913   8.707
 2466W        W 6530   0.862   5.029   1.279
 2467W        W 6531   0.973   3.295  10.917
 2468W        W 6532   6.562   4.380   1.399
 2469W        W 6533   6.999   2.020  10.961
 2470W        W 6534   7.611   6.698  10.343
 2471W        W 6535   4.101   9.620   9.229
 2472W        W 6536   5.014   7.729   1.582
 2473W        W 6537   1.126   8.973   3.552
 2474W        W 6538   4.096   3.096   1.058
 2475W        W 6539   1.464   1.397   3.311
 2476W        W 6540   3.847   9.845   9.614
 2477W        W 6541   3.310   1.374   1.690
 2478W        W 6542   8.467  10.254   0.243
 2479W        W 6543   3.280   8.942   2.865
 2480W        W 6544   8.001   8.212   1.998
 2481W        W 6545   0.720   8.999  10.384
 2482W        W 6546   7.266   2.808   3.450
 2483W        W 6547   9.233  10.308   0.569
 2484W        W 6548   5.963   0.342   1.921
 2485W        W 6549   7.152   4.201   1.569
 2486W        W 6550   6.131   9.102   3.208
 2487W        W 6551   8.641   3.572   8.997
 2488W        W 6552  10.484   5.299   0.381
 2489W        W 6553   8.937   2.517   1.485
 2490W        W 6554   6.486   1.923   8.719
 2491W        W 6555   6.233   7.773   3.171
 2492W        W 6556  10.000   9.213   0.857
 2493W        W 6557  10.443   7.998  10.254
 2494W        W 6558   7.980   7.311   0.785
 2495W        W 6559   3.349   9.999   8.893
 2496W        W 6560   5.970   9.105   9.541
 2497W        W 6561   8.838   0.401   3.029
 2498W        W 6562   4.388   7.057   8.442
 2499W        W 6563   1.108   8.535   2.347
 2500W        W 6564   8.633   7.040  11.776
 2501W        W 6565   5.244   8.696   1.156
 2502W        W 6566   3.579   3.836   3.095
 2503W        W 6567   6.040   1.229   1.709
 2504W        W 6568  10.309   5.656   3.089
 2505W        W 6569   3.281   0.249   2.132
 2506W        W 6570  10.414   5.748   0.684
 2507W        W 6571   9.457   2.655   3.388
 2508W        W 6572  10.081   3.035   0.359
 2509W        W 6573   1.705   7.068   3.207
 2510W        W 6574   3.621   6.740   0.691
 2511W        W 6575   8.134   7.105   9.693
 2512W        W 6576   4.209   7.034   2.330
 2513W        W 6577   5.620   8.918   9.184
 2514W        W 6578   9.306   3.311   1.407
 2515W        W 6579   8.797   7.132   2.168
 2516W        W 6580   3.528   7.518   0.023
 2517W        W 6581   2.786   6.445   1.364
 2518W        W 6582   3.079   3.151   0.896
 2519W        W 6583   8.595   3.314   0.621
 2520W        W 6584   7.458   1.379   9.190
 2521W        W 6585   0.475   9.415  10.584
 2522W        W 6586   7.365   6.735   1.538
 2523W        W 6587   5.345   3.891   4.312
 2524W        W 6588   1.242   9.470   1.747
 2525W        W 6589   8.022   3.811   9.809
 2526W        W 6590   8.189   7.089   9.136
 2527W        W 6591   1.267   0.470   9.472
 2528W        W 6592   5.581   3.178   1.006
 2529W        W 6593   1.693   2.205   0.942
 2530W        W 6594   8.516   0.186   3.441
 2531W        W 6595   2.864   8.356   1.208
 2532W        W 6596   5.266   9.891   8.592
 2533W        W 6597   0.775   6.111  10.366
 2534W        W 6598   6.691   0.154   3.388
 2535W        W 6599   2.298   6.261   1.269
 2536W        W 6600   8.526   2.197   3.245
 2537W        W 6601   2.255   0.453  10.735
 2538W        W 6602   3.074   2.754   2.747
 2539W        W 6603   0.358   0.188   2.037
 2540W        W 6604   7.516   7.681  10.107
 2541W        W 6605   6.965   8.419   9.092
 2542W        W 6606   7.271   9.408   3.396
 2543W        W 6607   2.383   0.796  10.387
 2544W        W 6608   4.695   8.368   1.918
 2545W        W 6609   5.540   8.132  11.746
 2546W        W 6610   0.191   3.615  11.508
 2547W        W 6611   8.889   9.121  11.089
 2548W        W 6612  10.391   6.511  10.515
 2549W        W 6613   0.331   2.798   8.837
 2550W        W 6614   0.046   1.641   9.887
 2551W        W 6615   1.425  10.044  11.223
 2552W        W 6616   4.470   5.178   1.542
 2553W        W 6617   6.120   2.551   2.166
 2554W        W 6618   3.250   0.902  11.926
 2555W        W 6619   2.154   6.630   9.852
 2556W        W 6620   8.079   4.113   1.816
 2557W        W 6621   7.942   8.118   2.537
 2558W        W 6622   7.058   8.569  10.502
 2559W        W 6623   7.600   2.302   1.709
 2560W        W 6624   9.289   4.098   2.764
 2561W        W 6625   9.986   4.227   0.956
 2562W        W 6626   7.471   9.453   0.428
 2563W        W 6627   9.055   0.775   0.775
 2564W        W 6628   3.076   5.629  10.350
 2565W        W 6629   6.447   5.403   8.622
 2566W        W 6630   5.677   3.023  11.944
 2567W        W 6631   4.265   0.781   1.391
 2568W        W 6632   2.765   9.272  11.285
 2569W        W 6633   3.615   2.727  11.252
 2570W        W 6634   7.188   9.363   0.931
 2571W        W 6635   5.694   1.864   9.981
 2572W        W 6636   3.680   2.128   0.539
 2573W        W 6637   0.002   5.194   9.055
 2574W        W 6638   4.663   9.827  11.266
 2575W        W 6639  10.113   5.001   1.974
 2576W        W 6640   7.462   9.339   1.780
 2577W        W 6641   4.284   7.603  10.787
 2578W        W 6642   3.176   4.590  11.908
 2579W        W 6643  10.181   4.980  10.503
 2580W        W 6644   5.596   5.527  11.225
 2581W        W 6645   0.485   4.639   2.893
 2582W        W 6646   8.120   3.889   0.311
 2583W        W 6647   2.416   8.534   2.484
 2584W        W 6648   1.328   4.182   9.364
 2585W        W 6649   7.967   0.789  11.366
 2586W        W 6650   3.367   0.896   1.919
 2587W        W 6651   5.654   5.004   0.706
 2588W        W 6652   1.976   1.614   1.561
 2589W        W 6653   4.071   5.759   9.185
 2590W        W 6654   6.555   8.454   1.254
 2591W        W 6655   3.673   6.693   8.857
 2592W        W 6656   1.808   1.061   0.178
 2593W        W 6657   5.115   7.370   3.016
 2594W        W 6658   6.136   8.641   2.930
 2595W        W 6659   1.384   5.877   0.255
 2596W        W 6660   3.056   6.530  11.357
 2597W        W 6661   0.847   9.300   8.990
 2598W        W 6662   3.102   9.962  10.272
 2599W        W 6663   2.509   7.204   1.898
 2600W        W 6664   0.392   7.759  10.129
 2601W        W 6665   7.269   3.661   0.769
 2602W        W 6666   2.947   1.722   1.456
 2603W        W 6667   1.933   3.075   3.204
 2604W        W 6668   3.730   1.872  10.752
 2605W        W 6669   9.357   2.845  10.408
 2606W        W 6670   0.830   1.384   1.459
 2607W        W 6671   1.293   3.488   2.021
 2608W        W 6672   3.075   8.806   2.426
 2609W        W 6673  10.282   9.877  10.305
 2610W        W 6674   3.786  10.432  11.698
 2611W        W 6675   1.410   5.224   9.177
 2612W        W 6676   1.325   8.301   0.066
 2613W        W 6677   6.083   4.791  10.168
 2614W        W 6678   1.372   2.253   3.348
 2615W        W 6679   3.430   5.030   3.628
 2616W        W 6680   3.974   5.724   0.175
 2617W        W 6681   6.698   3.667  10.521
 2618W        W 6682   8.483   1.872   9.879
 2619W        W 6683   2.712   6.713   2.732
 2620W        W 6684   4.235   9.867   0.731
 2621W        W 6685   8.213   6.489   1.283
 2622W        W 6686   8.944   0.112   9.507
 2623W        W 6687   5.071   9.399  10.243
 2624W        W 6688   6.513  10.304  11.109
 2625W        W 6689   7.222   7.275  11.800
 2626W        W 6690   6.602   1.236  11.019
 2627W        W 6691   2.017   1.836  11.223
 2628W        W 6692   9.575   5.515  10.772
 2629W        W 6693   0.509   4.662   2.348
 2630W        W 6694   9.433   4.713   1.559
 2631W        W 6695   8.467   4.251   8.993
 2632W        W 6696   8.321   8.800  10.416
 2633W        W 6697   6.745   8.421   9.615
 2634W        W 6698   6.436   8.072   9.411
 2635W        W 6699   2.257   3.402  11.975
 2636W        W 6700   6.464   7.918   9.907
 2637W        W 6701   0.725   5.416   2.768
 2638W        W 6702   2.768   0.749   8.581
 2639W        W 6703   8.611   0.483  10.807
 2640W        W 6704   7.497   6.225  11.509
 2641W        W 6705   1.964   0.838  10.930
 2642W        W 6706   6.068   9.972   3.251
 2643W        W 6707   8.900  10.389   2.203
 2644W        W 6708   6.420   5.519  11.654
 2645W        W 6709   7.071   4.417   9.403
 2646W        W 6710   8.612   5.909   0.460
 2647W        W 6711   5.806   9.920   0.892
 2648W        W 6712   1.939   3.891   2.630
 2649W        W 6713   7.386   2.261  11.231
 2650W        W 6714   5.661   7.813   1.877
 2651W        W 6715  10.268   0.791   8.635
 2652W        W 6716   1.424   8.480   8.634
 2653W        W 6717   9.836   3.846   0.659
 2654W        W 6718   0.867   2.214  11.733
 2655W        W 6719   9.712   0.260  11.722
 2656W        W 6720   2.216   0.904   3.299
 2657W        W 6721   4.818   6.888   1.926
 2658W        W 6722   0.266  10.381   0.306
 2659W        W 6723   1.621   0.732   9.982
 2660W        W 6724   9.241   2.726   0.201
 2661W        W 6725   8.804   0.698   2.087
 2662W        W 6726   4.415   6.598   8.192
 2663W        W 6727   4.021   2.891   9.019
 2664W        W 6728   8.567   3.358  10.776
 2665W        W 6729   9.937   3.523  10.542
 2666W        W 6730   8.889   4.521   9.169
 2667W        W 6731   0.525   9.039   1.630
 2668W        W 6732   5.151   0.406   0.205
 2669W        W 6733   8.254   8.024   8.673
 2670W        W 6734   4.425   1.690   3.603
 2671W        W 6735   7.711   0.319   9.412
 2672W        W 6736   8.948   4.725   3.104
 2673W        W 6737   3.814   5.371  11.863
 2674W        W 6738   2.834   2.110   1.757
 2675W        W 6739   7.497   0.018   9.039
 2676W        W 6740   2.521  10.153   9.357
 2677W        W 6741   7.807   5.314   0.753
 2678W        W 6742   6.550   7.723  11.835
 2679W        W 6743   3.102   4.295   9.263
 2680W        W 6744   4.785   7.342   0.368
 2681W        W 6745   7.918   8.045  11.811
 2682W        W 6746   3.798   3.318  10.544
 2683W        W 6747   2.201   5.705   9.061
 2684W        W 6748   0.006   6.103  11.907
 2685W        W 6749  10.187   0.335   2.547
 2686W        W 6750   3.214   9.100   9.955
 2687W        W 6751   9.450   4.720   1.030
 2688W        W 6752   5.988   1.253   2.236
 2689W        W 6753   8.729   6.725   8.707
 2690W        W 6754   2.843   2.871  10.807
 2691W        W 6755   5.084   8.119  11.946
 2692W        W 6756   9.310   2.861   0.674
 2693W        W 6757   1.382   4.171   1.461
 2694W        W 6758   7.394   9.503  10.241
 2695W        W 6759   4.083   0.591  10.353
 2696W        W 6760   4.266   1.915   8.897
 2697W        W 6761   8.963   5.587   2.942
 2698W        W 6762   4.503   2.836  10.585
 2699W        W 6763   2.822   4.582   2.029
 2700W        W 6764   7.657   8.498  11.144
 2701W        W 6765  10.280   2.377   1.966
 2702W        W 6766  10.260  10.431   0.340
 2703W        W 6767  10.179   2.664  11.502
 2704W        W 6768   7.892   2.264   8.941
 2705W        W 6769   8.086   0.922  11.888
 2706W        W 6770   4.105   5.157   2.801
 2707W        W 6771   3.238   4.681   8.445
 2708W        W 6772   8.495  10.226  10.433
 2709W        W 6773   8.131   5.692   9.792
 2710W        W 6774   3.188   3.951   3.417
 2711W        W 6775   9.510   6.222   1.229
 2712W        W 6776   5.001   1.253   9.711
 2713W        W 6777   3.053   8.269   3.110
 2714W        W 6778   0.430   9.998  11.367
 2715W        W 6779   0.700   4.812   9.266
 2716W        W 6780   1.840   4.676   3.096
 2717W        W 6781   8.405  10.102   3.598
 2718W        W 6782   2.452   8.217  11.269
 2719W        W 6783   7.153  10.420   1.737
 2720W        W 6784   2.873   1.851  10.992
 2721W        W 6785   1.171   5.112   0.893
 2722W        W 6786   6.385   5.285  10.819
 2723W        W 6787   5.653   6.493   2.193
 2724W        W 6788   4.544   1.475  10.433
 2725W        W 6789   2.414   1.226   2.624
 2726W        W 6790   4.153   7.413   9.911
 2727W        W 6791   5.442   1.319   8.930
 2728W        W 6792   3.721   6.008   2.213
 2729W        W 6793   6.128   0.810   1.991
 2730W        W 6794   0.281   6.352   9.748
 2731W        W 6795   6.254   8.506  11.445
 2732W        W 6796  10.317   8.963   1.197
 2733W        W 6797   4.221   2.520   3.464
 2734W        W 6798   7.662   1.170  10.078
 2735W        W 6799  10.190   2.630   0.689
 2736W        W 6800   3.658   6.520   1.178
 2737W        W 6801   6.245   6.938   2.822
 2738W        W 6802   9.026   1.302   0.737
 2739W        W 6803   9.074   7.930   2.029
 2740W        W 6804   2.797   8.998   1.671
 2741W        W 6805   2.643   1.478  11.804
 2742W        W 6806   0.294   9.450   1.993
 2743W        W 6807   1.307   6.840   0.432
 2744W        W 6808   4.738   2.142   3.587
 2745W        W 6809  10.229   3.073   1.203
 2746W        W 6810   5.516   3.794   9.961
 2747W        W 6811   7.811   4.233  10.034
 2748W        W 6812   4.877   1.675  11.471
 2749W        W 6813   6.474  10.337   0.413
 2750W        W 6814   2.540   1.879   0.965
 2751W        W 6815   6.988   7.923   8.873
 2752W        W 6816   0.298  10.216  10.940
 2753W        W 6817  10.442   6.124   9.408
 2754W        W 6818   3.800   7.935  11.865
 2755W        W 6819   1.195   0.897   0.836
 2756W        W 6820   5.229   1.344   3.427
 2757W        W 6821   2.284   5.244   1.402
 2758W        W 6822   2.730   4.995   1.366
 2759W        W 6823   0.781   9.584   9.408
 2760W        W 6824   3.419   4.379   4.283
 2761W        W 6825   4.056   9.307  10.959
 2762W        W 6826   3.036   7.128  10.864
 2763W        W 6827   0.903   2.132   3.579
 2764W        W 6828   9.628   5.142   9.596
 2765W        W 6829   8.609   3.804   0.403
 2766W        W 6830   0.415  10.457   9.248
 2767W        W 6831   4.534   5.677  10.060
 2768W        W 6832   3.180  10.478   8.744
 2769W        W 6833   7.078   8.829   3.193
 2770W        W 6834   7.895   2.803   9.505
 2771W        W 6835   9.305   9.074  11.694
 2772W        W 6836   5.595   0.915   9.729
 2773W        W 6837   8.260   4.189  11.776
 2774W        W 6838   8.822   5.468   9.150
 2775W        W 6839   5.047   3.439   4.213
 2776W        W 6840   4.385   4.304  11.336
 2777W        W 6841   9.503   5.935  11.798
 2778W        W 6842   2.783   4.402   9.787
 2779W        W 6843   2.155   6.052   3.193
 2780W        W 6844   5.147   1.074   1.405
 2781W        W 6845   7.767  10.426   9.853
 2782W        W 6846   4.714   2.184   8.844
 2783W        W 6847   0.411   0.009   9.769
 2784W        W 6848   8.493   0.801   2.822
 2785W        W 6849   6.543   7.407  11.426
 2786W        W 6850   4.381   8.772  11.647
 2787W        W 6851   3.775   9.964   0.951
 2788W        W 6852   8.406   2.656   2.035
 2789W        W 6853   9.576   8.653   1.623
 2790W        W 6854   2.081   9.407  10.508
 2791W        W 6855   0.022   4.549   2.637
 2792W        W 6856   8.470   4.638   3.269
 2793W        W 6857   8.519   9.736   8.497
 2794W        W 6858   2.652   7.848  10.864
 2795W        W 6859   4.425   1.991   0.997
 2796W        W 6860   6.043   7.663   2.703
 2797W        W 6861   1.704   6.347   9.852
 2798W        W 6862   7.966   0.328   1.105
 2799W        W 6863   1.832   0.486   1.210
 2800W        W 6864   8.062   1.462   9.864
 2801W        W 6865   7.433   2.651  10.016
 2802W        W 6866   8.909   3.988   2.444
 2803W        W 6867   3.164   0.210   3.226
 2804W        W 6868   9.969   5.658  11.062
 2805W        W 6869   2.880   5.664   3.448
 2806W        W 6870   8.807   4.213   9.997
 2807W        W 6871   9.898   7.061  11.120
 2808W        W 6872   8.371   5.836   2.667
 2809W        W 6873   8.348   3.511   2.328
 2810W        W 6874   4.595   2.754   9.577
 2811W        W 6875   4.469   6.136   9.867
 2812W        W 6876   0.434   9.784   0.766
 2813W        W 6877   0.508   4.646  11.043
 2814W        W 6878   1.780   4.598   1.486
 2815W        W 6879   5.262   8.387   9.884
 2816W        W 6880   5.483   4.633   1.731
 2817W        W 6881   0.992   4.449   9.076
 2818W        W 6882   2.767   8.552   8.867
 2819W        W 6883   0.979   0.986  10.716
 2820W        W 6884   0.338   7.510   9.677
 2821W        W 6885   4.793   4.590   2.997
 2822W        W 6886   5.096   5.916   1.828
 2823W        W 6887   8.425   4.244  10.328
 2824W        W 6888   6.972   9.408   1.958
 2825W        W 6889   2.240   6.476   3.495
 2826W        W 6890   5.261   1.393  11.176
 2827W        W 6891   7.403   4.197   0.500
 2828W        W 6892   0.305   8.910   2.648
 2829W        W 6893   2.483   0.236   1.020
 2830W        W 6894   7.852   1.372   2.569
 2831W        W 6895   8.195   6.003   2.210
 2832W        W 6896  10.196   8.868  10.244
 2833W        W 6897   1.400   8.807  10.897
 2834W        W 6898   4.265   1.251  10.965
 2835W        W 6899   1.843   8.468   1.180
 2836W        W 6900   3.915   8.813   9.485
 2837W        W 6901   5.200   2.328   3.708
 2838W        W 6902   0.817   9.031   1.145
 2839W        W 6903   7.420   1.816   1.869
 2840W        W 6904   7.694   9.528   8.749
 2841W        W 6905   5.942   0.443   8.622
 2842W        W 6906   8.033   3.825  11.468
 2843W        W 6907   1.322   4.468  10.954
 2844W        W 6908   0.413   4.979   0.670
 2845W        W 6909   8.908   5.795   0.065
 2846W        W 6910   6.981   1.348   8.965
 2847W        W 6911   7.808   9.855  11.146
 2848W        W 6912   6.851   8.474   0.403
 2849W        W 6913   5.150   0.834   9.965
 2850W        W 6914   5.585   5.011  10.341
 2851W        W 6915   3.586   8.577   9.987
 2852W        W 6916   8.804  10.358   1.693
 2853W        W 6917   2.572   3.565   0.332
 2854W        W 6918   8.479   1.459   9.562
 2855W        W 6919   5.023   5.691  10.907
 2856W        W 6920   8.583   9.130   1.018
 2857W        W 6921   3.355   2.648  11.687
 2858W        W 6922   0.104   7.410   2.382
 2859W        W 6923   5.691   2.157  10.414
 2860W        W 6924   5.956   6.055   9.058
 2861W        W 6925   9.470   6.655   9.717
 2862W        W 6926   1.155   4.705   9.933
 2863W        W 6927   9.386   2.286   2.494
 2864W        W 6928   4.710   4.633   8.910
 2865W        W 6929   4.241   2.748   2.678
 2866W        W 6930   3.118   5.321   1.399
 2867W        W 6931   0.914   6.989   2.258
 2868W        W 6932   8.415   0.261   0.249
 2869W        W 6933   1.737   1.239  10.730
 2870W        W 6934  10.421   8.105   0.523
 2871W        W 6935   7.203  10.000   9.742
 2872W        W 6936   3.566   2.859  10.530
 2873W        W 6937   4.123   4.771   4.148
 2874W        W 6938   3.938  10.314  10.341
 2875W        W 6939   0.429   9.960   9.358
 2876W        W 6940   6.083  10.425   2.193
 2877W        W 6941   6.545   8.614  10.596
 2878W        W 6942   2.459   0.571   8.986
 2879W        W 6943   5.607   6.004   1.975
 2880W        W 6944   7.595   4.036   1.936
 2881W        W 6945   9.481   8.573  11.809
 2882W        W 6946   1.900   0.319   9.822
 2883W        W 6947   8.825   7.529   1.829
 2884W        W 6948   7.488   4.158   3.343
 2885W        W 6949   3.224   7.888   9.061
 2886W        W 6950   3.712   8.708   0.407
 2887W        W 6951   1.287   2.367   8.671
 2888W        W 6952   1.221   2.433   0.931
 2889W        W 6953   3.748   9.051   9.904
 2890W        W 6954   0.352   3.240   0.304
 2891W        W 6955   4.367   2.625  11.723
 2892W        W 6956   0.235   7.466   9.166
 2893W        W 6957   8.515   7.516  10.609
 2894W        W 6958   5.250   6.166   2.283
 2895W        W 6959  10.396   0.438   0.666
 2896W        W 6960   1.357   1.200   9.966
 2897W        W 6961   6.973   5.567   8.183
 2898W        W 6962   4.206   8.272  11.706
 2899W        W 6963  10.373   5.438   2.141
 2900W        W 6964   4.449   6.477   8.990
 2901W        W 6965   4.238   4.903   9.100
 2902W        W 6966   1.360   8.408   1.383
 2903W        W 6967   3.450   5.373  11.514
 2904W        W 6968   3.246   3.329  10.455
 2905W        W 6969   3.653   4.037   9.921
 2906W        W 6970   1.782   9.864   1.695
 2907W        W 6971   4.033   2.102   9.375
 2908W        W 6972   9.347   7.504  10.102
 2909W        W 6973   7.552   0.526   3.571
 2910W        W 6974   2.054   9.590   2.347
 2911W        W 6975   0.623   5.368   0.978
 2912W        W 6976   0.418   3.303   8.988
 2913W        W 6977   6.702   5.996   8.306
 2914W        W 6978   2.443   1.678  10.787
 2915W        W 6979   9.221   7.528   0.823
 2916W        W 6980   8.959   1.191  11.879
 2917W        W 6981   6.063   4.658   9.574
 2918W        W 6982   3.119   5.681   9.406
 2919W        W 6983   6.742   6.419   0.429
 2920W        W 6984   0.046   0.762   9.069
 2921W        W 6985   5.502   1.806   2.998
 2922W        W 6986   3.768   5.471   9.801
 2923W        W 6987   6.969   9.371   9.503
 2924W        W 6988   5.792   7.431   8.494
 2925W        W 6989   8.437   9.374   1.455
 2926W        W 6990   2.121   8.895  10.576
 2927W        W 6991   1.688   9.378   1.490
 2928W        W 6992   9.884   5.931   3.271
 2929W        W 6993   1.089   9.428   3.313
 2930W        W 6994   6.437   4.219   3.740
 2931W        W 6995   6.511   8.925  11.011
 2932W        W 6996   6.779   3.610   0.852
 2933W        W 6997   1.749   3.565  11.938
 2934W        W 6998   1.503   8.035   1.038
 2935W        W 6999   0.767   5.708   1.941
 2936W        W 7000   1.690   1.786   3.033
 2937W        W 7001   7.250   6.742   9.394
 2938W        W 7002   2.162   5.691  11.385
 2939W        W 7003   4.777   9.962  10.781
 2940W        W 7004   7.804   5.087  10.361
 2941W        W 7005   9.742   5.018   0.421
 2942W        W 7006   3.411   8.808   9.539
 2943W        W 7007  10.409   8.859  11.715
 2944W        W 7008   6.426   5.587   9.913
 2945W        W 7009   1.188   4.046   2.839
 2946W        W 7010   9.513   9.125   1.851
 2947W        W 7011   1.867  10.230   9.241
 2948W        W 7012   8.366   4.661  11.952
 2949W        W 7013   4.062  10.461   0.142
 2950W        W 7014   2.569   1.647   1.826
 2951W        W 7015   0.356   9.086   9.900
 2952W        W 7016   8.488   1.217   0.072
 2953W        W 7017   5.062  10.384   0.910
 2954W        W 7018   7.443   0.346   9.840
 2955W        W 7019   6.052   9.546   2.974
 2956W        W 7020   8.796   4.534  11.011
 2957W        W 7021   8.495   4.715  10.061
 2958W        W 7022   0.980   2.609   0.064
 2959W        W 7023   6.692   2.415   1.315
 2960W        W 7024   3.837   2.206   0.049
 2961W        W 7025   7.057   4.631   2.431
 2962W        W 7026   6.008   6.158  10.899
 2963W        W 7027   2.478   3.048   3.297
 2964W        W 7028   6.621   7.290   9.118
 2965W        W 7029  10.271   8.783   0.708
 2966W        W 7030   4.142   0.018  11.308
 2967W        W 7031   2.655  10.418   0.658
 2968W        W 7032   7.915   6.370   8.590
 2969W        W 7033   2.710   9.046   2.688
 2970W        W 7034   0.703   2.165   9.511
 2971W        W 7035   5.994   3.759   1.809
 2972W        W 7036   2.144   2.872  10.421
 2973W        W 7037   7.714   5.946   7.862
 2974W        W 7038  10.477   3.887   3.311
 2975W        W 7039   1.354   1.199  11.038
 2976W        W 7040   2.620   8.385  11.743
 2977W        W 7041   2.872   4.169   2.345
 2978W        W 7042   1.372   7.195   2.290
 2979W        W 7043   9.330   4.266   9.030
 2980W        W 7044   8.781   7.107   8.342
 2981W        W 7045   9.926   5.721   0.938
 2982W        W 7046   7.541   6.795   2.430
 2983W        W 7047   7.193   5.137   7.979
 2984W        W 7048   4.089   3.650   9.358
 2985W        W 7049   2.165   7.961   3.033
 2986W        W 7050   8.566   0.241   8.868
 2987W        W 7051   0.269   8.427   2.147
 2988W        W 7052   9.593   8.102  11.415
 2989W        W 7053   2.819   9.548  10.347
 2990W        W 7054   3.853   2.671  11.766
 2991W        W 7055   8.899   7.307   2.693
 2992W        W 7056   2.355   2.538   0.189
 2993W        W 7057   8.408   8.827   3.350
 2994W        W 7058   1.775   3.334  10.514
 2995W        W 7059  10.374   0.591  10.984
 2996W        W 7060   1.127   0.690   9.991
 2997W        W 7061   9.434   1.305  11.326
 2998W        W 7062   9.511   6.051   9.484
 2999W        W 7063   6.136   4.240   1.700
 3000W        W 7064   5.416   7.106   8.265
 3001W        W 7065   5.587   9.335   2.849
 3002W        W 7066   0.959   8.182   1.686
 3003W        W 7067   4.617   7.516   0.812
 3004W        W 7068   4.130   3.806  10.388
 3005W        W 7069   0.269   0.729   0.464
 3006W        W 7070   3.671   7.476   1.374
 3007W        W 7071   3.829   5.252   8.086
 3008W        W 7072   1.254   8.591   1.860
 3009W        W 7073   4.775   2.247   1.722
 3010W        W 7074   6.526   2.214  10.977
 3011W        W 7075   8.929   8.189   2.444
 3012W        W 7076   9.159   3.796   3.424
 3013W        W 7077  10.432   3.809   9.364
 3014W        W 7078   6.608   8.187   0.779
 3015W        W 7079   8.860   9.463   0.291
 3016W        W 7080   5.609   8.362   9.016
 3017W        W 7081   2.244   3.769   9.256
 3018W        W 7082   9.120   6.519  10.064
 3019W        W 7083   3.363   3.155   9.589
 3020W        W 7084   5.217   1.768   9.329
 3021W        W 7085   3.995   8.035  10.780
 3022W        W 7086   6.914   4.234  10.878
 3023W        W 7087   0.827   8.029   3.239
 3024W        W 7088   8.341   9.728  10.411
 3025W        W 7089   5.002   7.126  10.466
 3026W        W 7090   0.966   0.924   0.025
 3027W        W 7091   0.897  10.427   9.072
 3028W        W 7092   7.821   4.016   8.957
 3029W        W 7093   3.720   5.473   3.948
 3030W        W 7094   6.525   2.637  11.394
 3031W        W 7095   8.756   7.719   3.590
 3032W        W 7096   6.921   1.772   0.211
 3033W        W 7097   1.245   3.971  10.917
 3034W        W 7098   4.095   3.073   8.495
 3035W        W 7099  10.357   9.724   1.926
 3036W        W 7100   3.060   2.618   0.085
 3037W        W 7101   0.434   1.004   3.575
 3038W        W 7102   0.039   2.636   2.833
 3039W        W 7103   7.585   2.298   2.232
 3040W        W 7104   1.293   8.109   3.044
 3041W        W 7105   9.448   7.326  11.099
 3042W        W 7106   1.764   4.326   3.493
 3043W        W 7107   3.146   1.829   2.483
 3044W        W 7108   4.403   2.011  11.402
 3045W        W 7109   4.519   1.274   8.914
 3046W        W 7110   2.223   0.657   0.906
 3047W        W 7111   9.956   5.867  10.089
 3048W        W 7112   9.369   3.801   9.329
 3049W        W 7113   3.439   4.321   3.135
 3050W        W 7114   6.669   1.141   3.124
 3051W        W 7115   9.371   2.021   9.359
 3052W        W 7116   5.661   0.329   0.481
 3053W        W 7117   8.386   7.355   0.348
 3054W        W 7118   3.655   4.628   3.913
 3055W        W 7119   0.834   6.181   1.769
 3056W        W 7120   0.161   5.603   8.754
 3057W        W 7121   9.024   6.229   0.375
 3058W        W 7122   8.744   3.537  10.230
 3059W        W 7123   8.566   6.926  11.256
 3060W        W 7124   9.865   6.610  11.927
 3061W        W 7125   3.809   4.642   2.925
 3062W        W 7126   4.967   9.034   0.359
 3063W        W 7127   6.717  10.054   9.882
 3064W        W 7128   6.231   5.881   8.650
 3065W        W 7129   8.992   7.449   1.340
 3066W        W 7130   5.550   7.956   0.800
 3067W        W 7131   5.306   3.101  10.394
 3068W        W 7132   5.953   1.388   0.706
 3069W        W 7133   5.783   3.639   0.947
 3070W        W 7134   1.377   6.344   0.443
 3071W        W 7135   3.637   3.107  11.565
 3072W        W 7136   0.544   6.394   2.929
 3073W        W 7137   4.630   6.949   0.943
 3074W        W 7138   0.822   6.908  11.828
 3075W        W 7139   9.445   3.779   0.974
 3076W        W 7140   7.547   1.159   2.938
 3077W        W 7141   7.027   2.141   1.020
 3078W        W 7142   8.901   4.035  10.989
 3079W        W 7143   3.567   7.611   8.755
 3080W        W 7144   3.288   0.738   9.294
 3081W        W 7145   3.682   4.157   1.076
 3082W        W 7146  10.349   7.476   1.730
 3083W        W 7147   6.058   9.935   1.318
 3084W        W 7148  10.424  10.344   9.095
 3085W        W 7149   8.623   8.084   0.587
 3086W        W 7150   7.600   7.563   1.019
 3087W        W 7151   5.344   7.503   8.744
 3088W        W 7152   2.200   1.441   2.172
 3089W        W 7153   6.448   4.061  10.757
 3090W        W 7154   9.915   8.430  10.433
 3091W        W 7155   1.614   4.317   2.759
 3092W        W 7156   2.367   8.145   1.889
 3093W        W 7157   8.364   3.141  11.814
 3094W        W 7158   6.730  10.235  11.951
 3095W        W 7159   9.894   3.515  10.034
 3096W        W 7160   5.257   4.515   1.269
 3097W        W 7161   3.046   1.828   3.560
 3098W        W 7162   0.961   4.305   8.589
 3099W        W 7163   7.181   8.041   3.532
 3100W        W 7164   6.844   8.353   3.257
 3101W        W 7165   5.546   6.370  10.739
 3102W        W 7166   2.075   9.008   3.227
 3103W        W 7167   6.061   8.523   1.381
 3104W        W 7168   1.857   4.539  11.985
 3105W        W 7169   9.977   0.386   9.721
 3106W        W 7170   6.116   8.144   2.823
 3107W        W 7171   3.930   5.923   4.092
 3108W        W 7172   5.049   5.151   9.595
 3109W        W 7173   7.006   9.001  10.786
 3110W        W 7174   8.925   1.704  10.069
 3111W        W 7175   7.326   0.959   1.571
 3112W        W 7176   9.871   4.822   9.012
 3113W        W 7177   2.904   2.764   3.294
 3114W        W 7178   7.900   2.465  10.030
 3115W        W 7179   4.702   1.076  10.704
 3116W        W 7180   7.123   5.669  10.486
 3117W        W 7181   2.701   3.037   2.470
 3118W        W 7182   5.990   5.238   9.911
 3119W        W 7183   1.340   6.698   2.515
 3120W        W 7184   7.849   5.194   3.216
 3121W        W 7185   9.754   1.718   9.481
 3122W        W 7186   6.526   3.147  11.211
 3123W        W 7187   7.023   0.954   3.466
 3124W        W 7188   5.981   0.025   0.242
 3125W        W 7189   7.408   8.522   0.381
 3126W        W 7190   8.475   4.780   8.930
 3127W        W 7191   8.610   5.750   1.269
 3128W        W 7192   8.894   6.442   2.437
 3129W        W 7193   7.444   2.739   2.476
 3130W        W 7194   3.722   5.116  11.139
 3131W        W 7195   3.008   9.383  10.813
 3132W        W 7196   4.029   0.432   9.217
 3133W        W 7197   4.017   1.827   2.296
 3134W        W 7198   8.164   0.535   1.948
 3135W        W 7199   8.136   5.568  10.308
 3136W        W 7200   3.795  10.364   3.223
 3137W        W 7201   5.110   9.040   9.437
 3138W        W 7202   0.191   3.096  11.528
 3139W        W 7203   8.828   5.074  10.893
 3140W        W 7204   0.902   9.993   0.665
 3141W        W 7205   5.442   5.136   3.163
 3142W        W 7206   7.913   0.764   9.194
 3143W        W 7207   9.577   1.238   9.749
 3144W        W 7208   2.286   4.322   9.072
 3145W        W 7209   9.298   8.059  11.860
 3146W        W 7210   5.133   9.957   3.046
 3147W        W 7211   5.571   5.356  10.741
 3148W        W 7212   2.254   6.603   2.519
 3149W        W 7213   5.689   2.140  11.486
 3150W        W 7214   5.915   1.392   9.110
 3151W        W 7215   7.725   5.173   8.436
 3152W        W 7216   9.872   0.213   3.357
 3153W        W 7217   0.448   4.230   8.767
 3154W        W 7218  10.402   2.339  10.386
 3155W        W 7219   4.836   6.934   2.993
 3156W        W 7220   9.430   1.020  10.893
 3157W        W 7221   9.896   9.418   1.996
 3158W        W 7222   3.651   2.635   8.715
 3159W        W 7223   7.889   6.844   8.772
 3160W        W 7224   4.665   5.267  11.297
 3161W        W 7225   1.884   7.553  11.666
 3162W        W 7226   4.616   7.312   3.276
 3163W        W 7227   6.236   6.425  11.882
 3164W        W 7228   8.470   5.545   2.153
 3165W        W 7229   0.799   0.326  11.328
 3166W        W 7230   5.180   2.304  11.505
 3167W        W 7231   5.006   8.461   3.499
 3168W        W 7232   2.637   0.825   9.949
 3169W        W 7233   8.739   7.683   2.341
 3170W        W 7234   1.046   1.905   9.921
 3171W        W 7235   8.386  10.363   9.190
 3172W        W 7236   6.061   3.774   2.684
 3173W        W 7237   9.815  10.016   2.669
 3174W        W 7238   7.435   9.741   2.985
 3175W        W 7239   6.891   5.187  10.728
 3176W        W 7240   9.480   3.707   3.041
 3177W        W 7241   4.175   7.271  10.405
 3178W        W 7242   8.524   7.843  10.232
 3179W        W 7243   9.334   1.058   3.158
 3180W        W 7244   1.347   2.749   9.970
 3181W        W 7245   2.174   3.976  10.816
 3182W        W 7246   2.205   5.448   0.346
 3183W        W 7247   4.765   2.744   1.460
 3184W        W 7248   6.186   5.613   9.467
 3185W        W 7249   6.928   0.230  11.772
 3186W        W 7250   0.609   6.451   8.515
 3187W        W 7251   1.885   3.387   9.287
 3188W        W 7252   5.161   6.116   9.618
 3189W        W 7253   6.409   5.118  11.313
 3190W        W 7254   2.331   5.553  10.909
 3191W        W 7255   8.687   5.520  10.584
 3192W        W 7256   0.748   7.439  11.031
 3193W        W 7257   4.536   1.742   0.548
 3194W        W 7258   1.964   2.730   1.561
 3195W        W 7259   0.751   5.192   3.215
 3196W        W 7260   8.605   7.568  11.939
 3197W        W 7261   9.625   1.233   3.556
 3198W        W 7262   2.429   9.113   0.281
 3199W        W 7263   5.994   6.568   8.981
 3200W        W 7264   4.705   2.441  11.396
 3201W        W 7265   2.338   9.159  10.962
 3202W        W 7266   9.080   0.245  10.985
 3203W        W 7267   1.043   1.251   0.506
 3204W        W 7268   7.230   6.032   8.073
 3205W        W 7269   0.515   0.294   3.183
 3206W        W 7270   9.144   8.394   1.516
 3207W        W 7271   6.995   5.982   3.600
 3208W        W 7272   8.320   7.114  10.245
 3209W        W 7273   1.421   3.541  11.111
 3210W        W 7274   3.719   3.587  11.429
 3211W        W 7275   8.101   1.873   9.535
 3212W        W 7276   1.222   2.384   2.288
 3213W        W 7277   5.253   2.411   1.625
 3214W        W 7278   1.233   1.846   2.670
 3215W        W 7279   8.905   9.796   9.711
 3216W        W 7280   9.901  10.445   2.399
 3217W        W 7281   3.422   9.900   0.515
 3218W        W 7282   4.525   5.549  10.878
 3219W        W 7283   3.820   4.372   0.598
 3220W        W 7284   5.316   2.848   0.702
 3221W        W 7285   7.870   7.928   9.003
 3222W        W 7286   0.186   6.453   0.227
 3223W        W 7287   5.241   6.701  11.003
 3224W        W 7288   3.495   5.513   4.405
 3225W        W 7289   7.834   4.419   1.007
 3226W        W 7290   4.743   5.535   3.469
 3227W        W 7291   9.794   3.639   2.170
 3228W        W 7292   8.007   1.306  11.377
 3229W        W 7293   2.180   5.218   2.512
 3230W        W 7294   5.794   0.351   0.972
 3231W        W 7295   0.231   9.082   3.133
 3232W        W 7296   0.887   8.269   9.279
 3233W        W 7297   3.850   8.296   2.816
 3234W        W 7298   2.745  10.464   2.710
 3235W        W 7299   8.644   5.035   1.785
 3236W        W 7300   3.584   3.063   0.951
 3237W        W 7301  10.016   0.799   2.704
 3238W        W 7302   6.136   4.349  10.482
 3239W        W 7303   8.386   4.144   3.346
 3240W        W 7304   0.008  10.338   8.586
 3241W        W 7305   7.361   3.517   9.477
 3242W        W 7306   9.291   8.082   1.128
 3243W        W 7307   5.570   5.235   8.963
 3244W        W 7308   4.178   8.530  10.712
 3245W        W 7309   1.964   0.217   0.798
 3246W        W 7310   1.007   0.837   2.674
 3247W        W 7311   2.709   0.238   8.713
 3248W        W 7312   8.432   9.058   9.780
 3249W        W 7313   9.912   7.557   0.249
 3250W        W 7314  10.292   9.340  11.730
 3251W        W 7315   0.256   4.726   9.022
 3252W        W 7316   3.776   9.436   1.135
 3253W        W 7317   4.712  10.340  11.106
 3254W        W 7318   2.679   6.000   1.059
 3255W        W 7319   2.428   0.365   0.521
 3256W        W 7320   9.351   0.855  10.390
 3257W        W 7321   5.980   9.534  11.482
 3258W        W 7322   0.722   1.470  10.797
 3259W        W 7323   6.878   7.215  10.471
 3260W        W 7324   6.154   7.495   9.835
 3261W        W 7325  10.062   1.776   0.775
 3262W        W 7326   6.244   3.930   9.235
 3263W        W 7327   8.526   6.666   9.853
 3264W        W 7328   2.179   0.552   2.318
 3265W        W 7329   4.116   8.452   3.287
 3266W        W 7330   4.169   5.649   3.697
 3267W        W 7331   1.398   3.224   9.267
 3268W        W 7332   8.926   3.174   2.808
 3269W        W 7333   9.165   2.276  11.299
 3270W        W 7334   8.949   5.421   1.497
 3271W        W 7335   6.216   4.461  11.038
 3272W        W 7336   0.433   3.246  10.811
 3273W        W 7337   5.626   6.027   3.807
 3274W        W 7338   1.706   8.952   2.812
 3275W        W 7339   8.004   5.570   2.900
 3276W        W 7340   5.668   1.205  11.448
 3277W        W 7341   2.909   5.460   2.462
 3278W        W 7342   0.511  10.247   2.429
 3279W        W 7343   1.899   8.391   9.086
 3280W        W 7344   3.105   6.154  10.983
 3281W        W 7345   3.251   5.322   9.762
 3282W        W 7346   7.818   3.658   1.608
 3283W        W 7347   6.781  10.089   0.800
 3284W        W 7348   1.171   0.503  10.514
 3285W        W 7349   0.233  10.097  10.060
 3286W        W 7350   0.944  10.380   2.746
 3287W        W 7351   3.312   8.933  10.812
 3288W        W 7352   8.120   8.943   8.885
 3289W        W 7353  10.357   8.360  11.759
 3290W        W 7354   2.160   2.756  11.383
 3291W        W 7355   6.374   0.903   1.264
 3292W        W 7356   0.757   9.474   1.398
 3293W        W 7357   6.580   8.246   8.783
 3294W        W 7358   7.548   8.666   9.745
 3295W        W 7359   6.242  10.115   0.021
 3296W        W 7360   9.550   1.953   0.983
 3297W        W 7361   0.848   6.522   1.380
 3298W        W 7362  10.357   2.415  10.878
 3299W        W 7363   6.932  10.365   2.208
 3300W        W 7364   1.821   2.357   1.911
 3301W        W 7365   1.990   4.604   9.909
 3302W        W 7366   5.165   9.438   3.177
 3303W        W 7367   5.444   0.907   3.566
 3304W        W 7368   8.938   3.230   9.847
 3305W        W 7369  10.183   4.905   0.214
 3306W        W 7370   3.861   7.788   2.752
 3307W        W 7371   3.843   8.235   0.455
 3308W        W 7372   8.680   9.955   9.285
 3309W        W 7373   4.625   6.891   1.449
 3310W        W 7374   3.795   5.950  10.509
 3311W        W 7375   9.294   4.454  11.023
 3312W        W 7376   8.322   7.556   9.872
 3313W        W 7377   9.895   4.617   1.270
 3314W        W 7378   9.482   7.624   1.260
 3315W        W 7379   3.181   4.019   0.865
 3316W        W 7380   2.892   4.394   0.538
 3317W        W 7381   0.484   2.831  11.122
 3318W        W 7382   8.806   2.587  11.574
 3319W        W 7383   8.163   6.011   0.192
 3320W        W 7384   3.407   0.275  11.686
 3321W        W 7385   6.467   7.957   1.247
 3322W        W 7386   0.788   3.504   1.551
 3323W        W 7387   9.479   6.661  11.166
 3324W        W 7388   6.482   5.693   0.622
 3325W        W 7389   7.454   9.815   0.035
 3326W        W 7390   4.290   0.853   2.075
 3327W        W 7391   3.677   2.296  11.023
 3328W        W 7392   7.809   4.827   0.642
 3329W        W 7393  10.316   1.313   0.777
 3330W        W 7394   4.606   3.202   1.305
 3331W        W 7395   8.000   0.751   8.660
 3332W        W 7396   2.067   1.804   3.454
 3333W        W 7397   5.940   4.055  10.895
 3334W        W 7398   4.043   8.526   8.706
 3335W        W 7399   8.777   4.276  11.889
 3336W        W 7400   6.024   5.100   8.763
 3337W        W 7401   1.536   9.432   2.552
 3338W        W 7402   2.215   8.936   2.734
 3339W        W 7403   8.064   8.403  10.223
 3340W        W 7404   1.067   0.254   3.124
 3341W        W 7405   7.308   4.007   9.986
 3342W        W 7406   1.860   2.230   3.247
 3343W        W 7407   0.915   5.277   9.317
 3344W        W 7408   8.151   5.044   1.621
 3345W        W 7409   2.572   9.910   3.345
 3346W        W 7410   5.460   4.821  11.831
 3347W        W 7411  10.293   9.808   3.336
 3348W        W 7412  10.457   6.134   1.485
 3349W        W 7413   4.221   7.493   2.546
 3350W        W 7414   6.614   9.757   2.128
 3351W        W 7415  10.414   1.415  11.878
 3352W        W 7416   8.951   7.036   1.661
 3353W        W 7417   0.231   9.432   1.483
 3354W        W 7418   7.872   3.615   2.117
 3355W        W 7419   2.965   5.125  11.998
 3356W        W 7420   5.452   6.561   8.943
 3357W        W 7421   6.060   2.231   8.771
 3358W        W 7422   3.871   7.134   8.621
 3359W        W 7423   3.825   8.910  10.749
 3360W        W 7424   8.126   8.982   0.879
 3361W        W 7425   5.210   2.660  10.102
 3362W        W 7426   0.976   9.478  10.570
 3363W        W 7427   3.145   1.365  11.789
 3364W        W 7428   7.494   5.553   8.147
 3365W        W 7429   6.779  10.458  10.178
 3366W        W 7430   6.756   5.026   2.277
 3367W        W 7431   0.331   0.299   2.535
 3368W        W 7432   6.896   9.408  11.061
 3369W        W 7433   5.989   8.947   2.216
 3370W        W 7434  10.126   4.286   9.424
 3371W        W 7435   9.169   6.442   2.877
 3372W        W 7436   7.150   1.898  10.457
 3373W        W 7437   5.941   5.135  11.027
 3374W        W 7438   2.683   5.519   1.227
 3375W        W 7439   6.934   2.518  11.049
 3376W        W 7440   9.500   1.157   1.787
 3377W        W 7441   1.770   0.340  10.870
 3378W        W 7442   4.953  10.073  11.598
 3379W        W 7443   6.483   3.096   9.825
 3380W        W 7444   1.183   3.966   0.577
 3381W        W 7445   0.441   6.250   1.145
 3382W        W 7446   5.136   5.732   0.750
 3383W        W 7447   2.573   8.639  10.506
 3384W        W 7448   9.524   9.604   2.951
 3385W        W 7449   1.322   7.037  11.946
 3386W        W 7450   2.233   8.083   8.791
 3387W        W 7451   6.441   8.839   1.958
 3388W        W 7452   9.343   8.661   0.582
 3389W        W 7453  10.344   5.019   2.879
 3390W        W 7454   4.624   7.802   3.213
 3391W        W 7455   7.558   8.074  11.438
 3392W        W 7456   4.728   7.040  11.956
 3393W        W 7457   3.347   2.163   0.130
 3394W        W 7458   4.651   9.416   2.444
 3395W        W 7459   4.981   9.071   0.903
 3396W        W 7460   1.108  10.473   1.830
 3397W        W 7461   6.316   9.304  11.799
 3398W        W 7462   4.574   0.808   8.155
 3399W        W 7463   8.103   6.723  11.044
 3400W        W 7464  10.360   2.284   3.507
 3401W        W 7465   8.759   8.022   8.815
 3402W        W 7466   4.672   3.636  10.622
 3403W        W 7467   7.224   4.730   8.991
 3404W        W 7468   4.141   8.140   1.143
 3405W        W 7469   3.529   5.605   1.464
 3406W        W 7470   8.471   2.155   2.748
 3407W        W 7471  10.324   1.786   3.350
 3408W        W 7472   6.562   6.123  10.433
 3409W        W 7473   9.025   2.395   3.272
 3410W        W 7474   4.241   4.906   0.476
 3411W        W 7475   5.069   7.577  11.513
 3412W        W 7476   8.865   0.625  11.253
 3413W        W 7477   5.118   0.490   3.548
 3414W        W 7478   2.042   8.850   9.317
 3415W        W 7479   5.550   1.423   2.536
 3416W        W 7480   5.041   4.302   1.677
 3417W        W 7481   7.058  10.319   3.620
 3418W        W 7482   9.416   4.532  11.646
 3419W        W 7483   4.609   1.502   1.014
 3420W        W 7484   6.596  10.369  10.627
 3421W        W 7485   6.489   3.529   9.505
 3422W        W 7486   6.098   5.096   0.414
 3423W        W 7487   2.872   1.328   3.533
 3424W        W 7488   4.448   8.598  10.287
 3425W        W 7489   3.518   1.909   3.421
 3426W        W 7490   5.757   5.557   3.205
 3427W        W 7491   7.026   7.358  11.175
 3428W        W 7492   7.396   3.396   0.285
 3429W        W 7493   3.691   5.985   1.145
 3430W        W 7494   6.288   6.410   8.592
 3431W        W 7495   5.371   1.731   2.151
 3432W        W 7496   4.753   2.162   2.242
 3433W        W 7497   1.065   7.885   0.768
 3434W        W 7498   7.191   8.455   2.284
 3435W        W 7499   5.897   5.637   1.721
 3436W        W 7500   7.987   0.918   3.311
 3437W        W 7501   5.447   4.305   8.985
 3438W        W 7502   7.737   6.430   1.394
 3439W        W 7503   6.112   5.978   3.265
 3440W        W 7504  10.192   3.172  11.449
 3441W        W 7505   9.904   7.042   1.353
 3442W        W 7506   8.048   6.705  10.033
 3443W        W 7507   9.838   1.847  11.418
 3444W        W 7508   6.421   5.166   0.015
 3445W        W 7509   9.419   5.428  11.762
 3446W        W 7510   4.058   0.426   2.796
 3447W        W 7511  10.298   4.419   0.202
 3448W        W 7512   1.807   2.114   9.315
 3449W        W 7513   0.271   0.425  11.700
 3450W        W 7514   1.303   1.387   1.007
 3451W        W 7515  10.347   5.204  10.912
 3452W        W 7516   4.374   2.615   1.131
 3453W        W 7517   1.757   8.397  10.023
 3454W        W 7518   4.787   4.515   1.009
 3455W        W 7519   1.257   6.757  11.534
 3456W        W 7520   3.329   7.356   3.180
 3457W        W 7521   1.249   1.399  10.545
 3458W        W 7522   1.406  10.385  10.815
 3459W        W 7523   0.413   3.759   0.395
 3460W        W 7524   3.660   8.115   8.515
 3461W        W 7525   2.526   1.227  11.386
 3462W        W 7526   5.103   4.606   2.098
 3463W        W 7527   2.858   9.373   0.251
 3464W        W 7528   3.919   1.881  11.237
 3465W        W 7529   9.432   4.693   8.730
 3466W        W 7530   2.865   8.448   9.365
 3467W        W 7531  10.273   5.204   1.251
 3468W        W 7532   6.087   0.932  11.447
 3469W        W 7533  10.378   7.744  10.876
 3470W        W 7534   3.223   0.348  10.266
 3471W        W 7535   4.727   0.467   0.513
 3472W        W 7536   6.896   5.771  10.033
 3473W        W 7537   7.198   9.031  11.698
 3474W        W 7538   6.521   7.788   1.729
 3475W        W 7539   1.595   9.439   9.641
 3476W        W 7540   4.286   6.119   2.445
 3477W        W 7541   8.529   6.802   2.455
 3478W        W 7542   5.198   0.337   0.705
 3479W        W 7543   8.511   0.413   9.941
 3480W        W 7544   1.436   7.242  11.442
 3481W        W 7545   9.968   6.987   9.053
 3482W        W 7546   6.980   7.413   8.733
 3483W        W 7547   4.110   9.402   8.738
 3484W        W 7548   2.586   6.654   1.815
 3485W        W 7549   6.197   2.315  11.773
 3486W        W 7550   5.008   3.341   1.804
 3487W        W 7551   9.329   6.631   0.494
 3488W        W 7552   8.863   2.854   1.917
 3489W        W 7553  10.238   7.432   9.027
 3490W        W 7554   4.902   6.401   8.216
 3491W        W 7555   9.832   5.709   2.808
 3492W        W 7556   7.964   1.414   3.111
 3493W        W 7557   5.573   6.122   8.702
 3494W        W 7558   0.259   8.087   9.761
 3495W        W 7559   1.002   2.711   1.890
 3496W        W 7560   8.400   8.540   1.792
 3497W        W 7561   6.824   6.521   8.498
 3498W        W 7562   1.057   2.616   1.390
 3499W        W 7563   7.422   0.010  11.390
 3500W        W 7564   9.566   2.020  10.819
 3501W        W 7565   8.335   5.215   9.987
 3502W        W 7566   2.074   7.339  10.526
 3503W        W 7567   0.257   2.737  10.663
 3504W        W 7568   5.736   3.869   0.095
 3505W        W 7569   2.830   7.875   0.449
 3506W        W 7570   7.487   0.520   8.991
 3507W        W 7571   3.198   1.520   3.164
 3508W        W 7572   2.403   0.618  11.823
 3509W        W 7573   4.705   6.394  10.245
 3510W        W 7574   2.119  10.365   1.834
 3511W        W 7575   3.344   5.061   8.775
 3512W        W 7576   9.164   8.667   2.820
 3513W        W 7577   8.489   7.412   9.419
 3514W        W 7578   4.240   0.792   8.930
 3515W        W 7579  10.457   9.774   9.321
 3516W        W 7580   1.360   8.917   9.949
 3517W        W 7581   7.401   3.562   1.905
 3518W        W 7582   1.659   5.723   9.214
 3519W        W 7583   5.631   2.213   0.924
 3520W        W 7584   6.841   9.125   0.610
 3521W        W 7585   6.043   7.498   0.789
 3522W        W 7586   4.191   2.228   0.437
 3523W        W 7587   5.149   5.144  10.571
 3524W        W 7588   9.655  10.395   1.433
 3525W        W 7589   4.054   1.234   9.111
 3526W        W 7590   0.495   1.830   9.146
 3527W        W 7591   3.066   7.406   8.819
 3528W        W 7592   1.436   7.552   1.901
 3529W        W 7593   6.405   3.982   8.148
 3530W        W 7594   7.652   5.927   1.381
 3531W        W 7595   6.889   2.184   0.522
 3532W        W 7596   8.437   4.643   1.475
 3533W        W 7597   9.011   3.645   0.679
 3534W        W 7598   3.279   6.985  11.287
 3535W        W 7599   7.394   7.047  11.335
 3536W        W 7600   5.534   1.251   2.041
 3537W        W 7601  10.398   8.761   2.231
 3538W        W 7602  10.252   1.514  10.690
 3539W        W 7603   0.336   8.850   1.180
 3540W        W 7604   2.908   1.176   1.948
 3541W        W 7605   2.632   3.590   1.623
 3542W        W 7606   3.147   5.776   1.127
 3543W        W 7607   8.429   8.389   0.228
 3544W        W 7608   0.347   0.517  11.180
 3545W        W 7609   9.830   3.752   2.670
 3546W        W 7610   2.358   8.639  10.979
 3547W        W 7611   0.344   6.748  11.679
 3548W        W 7612  10.424   7.061   1.404
 3549W        W 7613   4.136   6.176   3.662
 3550W        W 7614   3.887  10.428   2.705
 3551W        W 7615  10.046  10.460  11.515
 3552W        W 7616   6.028   9.087   2.700
 3553W        W 7617   0.026   9.917   0.388
 3554W        W 7618   8.570   1.895  11.194
 3555W        W 7619   9.111   6.483   0.951
 3556W        W 7620  10.436   5.658  10.107
 3557W        W 7621   4.524   6.436   0.695
 3558W        W 7622   8.144   4.871  11.506
 3559W        W 7623   9.549   5.024  11.468
 3560W        W 7624   9.466   3.576   0.460
 3561W        W 7625   7.532   6.035   3.480
 3562W        W 7626  10.385   1.165   9.351
 3563W        W 7627  10.473   4.779  11.786
 3564W        W 7628   5.308   9.483   3.678
 3565W        W 7629   8.366   9.836   3.146
 3566W        W 7630   5.049   9.527   9.758
 3567W        W 7631   4.692   8.414   2.533
 3568W        W 7632   5.846   4.029   9.587
 3569W        W 7633   6.523   6.198   3.513
 3570W        W 7634   8.687   8.557   2.699
 3571W        W 7635   1.690   6.516  11.557
 3572W        W 7636   5.504   7.826   1.360
 3573W        W 7637   8.883  10.310   3.457
 3574W        W 7638   0.862   3.191   1.960
 3575W        W 7639   2.857  10.305   3.183
 3576W        W 7640  10.316   9.109   2.807
 3577W        W 7641   4.246   3.174   0.367
 3578W        W 7642   5.438   9.897  11.528
 3579W        W 7643   9.831   0.487   8.703
 3580W        W 7644   6.883   0.101   0.266
 3581W        W 7645   3.713   4.652   3.415
 3582W        W 7646   8.578   6.884   9.383
 3583W        W 7647   7.552   6.109   8.861
 3584W        W 7648   8.837   0.060   0.416
 3585W        W 7649   4.414   5.914   3.293
 3586W        W 7650   2.075   5.207  11.201
 3587W        W 7651   7.673   4.117   1.434
 3588W        W 7652   1.574   1.309   1.460
 3589W        W 7653   7.696   8.530   2.354
 3590W        W 7654   6.882   5.112   8.838
 3591W        W 7655   1.794   6.029   1.250
 3592W        W 7656   0.976   2.835  11.118
 3593W        W 7657   5.915   5.143   2.921
 3594W        W 7658   5.487  10.441   8.923
 3595W        W 7659   2.190   3.343  10.211
 3596W        W 7660   9.773   0.380   2.876
 3597W        W 7661   6.150   8.469   2.395
 3598W        W 7662   2.255   1.725   2.976
 3599W        W 7663   5.998   7.947   9.615
 3600W        W 7664   7.660   3.167   2.278
 3601W        W 7665   7.407  10.000   3.447
 3602W        W 7666   4.490   3.609   0.531
 3603W        W 7667   3.844   6.694  10.925
 3604W        W 7668   6.921   1.261   2.691
 3605W        W 7669   1.477   8.291  10.786
 3606W        W 7670   8.269   9.887  11.401
 3607W        W 7671  10.418   0.271  11.373
 3608W        W 7672   9.374   9.175   9.110
 3609W        W 7673   6.463   2.603   9.551
 3610W        W 7674   3.576   1.251   8.906
 3611W        W 7675   5.969   9.031   0.674
 3612W        W 7676   9.344   9.887  11.314
 3613W        W 7677   4.164   6.711   3.739
 3614W        W 7678   4.577   9.150   8.635
 3615W        W 7679   0.139   1.838   2.597
 3616W        W 7680   7.214   9.682   8.800
 3617W        W 7681   6.684   4.480  11.267
 3618W        W 7682   0.937   6.570  10.550
 3619W        W 7683   9.009   4.277  11.423
 3620W        W 7684   6.522   7.688   0.825
 3621W        W 7685   9.703   2.694   2.497
 3622W        W 7686   8.075  10.403   2.796
 3623W        W 7687   9.998  10.486   8.416
 3624W        W 7688   6.401   9.266   2.292
 3625W        W 7689   4.143   4.280   8.549
 3626W        W 7690   1.119   6.468   2.110
 3627W        W 7691   2.005   8.978   1.374
 3628W        W 7692   4.257   7.016   8.942
 3629W        W 7693   2.139   0.771   1.838
 3630W        W 7694  10.041   0.804   9.099
 3631W        W 7695   7.001   4.970   3.375
 3632W        W 7696   5.243   5.294   0.965
 3633W        W 7697   8.792   9.934  11.274
 3634W        W 7698   8.585   5.697  10.024
 3635W        W 7699   4.700   0.831   9.170
 3636W        W 7700   4.290   9.495   0.375
 3637W        W 7701   0.353   9.464   9.109
 3638W        W 7702   5.659   8.278   1.691
 3639W        W 7703   7.076   4.517   2.945
 3640W        W 7704   4.649   8.175   8.912
 3641W        W 7705   2.133   5.563   1.823
 3642W        W 7706  10.272   3.588   2.471
 3643W        W 7707   5.566   2.254  10.976
 3644W        W 7708   7.417   5.646   8.658
 3645W        W 7709   5.152   3.525   2.282
 3646W        W 7710   0.690   9.435  11.989
 3647W        W 7711   0.922   5.992   8.696
 3648W        W 7712   7.346   8.942   2.390
 3649W        W 7713   3.744   7.937   0.893
 3650W        W 7714   1.799   3.427   2.128
 3651W        W 7715   0.811   0.756   0.506
 3652W        W 7716   6.926   3.451   1.300
 3653W        W 7717   3.852   3.199   0.009
 3654W        W 7718   8.070   7.894   9.479
 3655W        W 7719   4.313   0.151  10.445
 3656W        W 7720   0.966   4.706  11.221
 3657W        W 7721   5.354   6.638   8.033
 3658W        W 7722   3.711   4.828   0.418
 3659W        W 7723   2.871   5.940   1.548
 3660W        W 7724   7.188   8.067   0.298
 3661W        W 7725   3.177   1.368   0.689
 3662W        W 7726   5.025   6.637  11.833
 3663W        W 7727   8.019   1.247   1.397
 3664W        W 7728   7.060   3.594   2.758
 3665W        W 7729   1.173   9.847  10.250
 3666W        W 7730   5.089   0.870   0.468
 3667W        W 7731  10.467   6.660  10.054
 3668W        W 7732   6.070   5.987   0.827
 3669W        W 7733   7.128   0.478   1.547
 3670W        W 7734   4.290  10.460   3.114
 3671W        W 7735   4.034   1.775   0.705
 3672W        W 7736   0.475   9.512  11.500
 3673W        W 7737   6.052   3.628   8.843
 3674W        W 7738   0.503   2.797   1.955
 3675W        W 7739   8.893   7.135  10.711
 3676W        W 7740   9.088   2.169   1.085
 3677W        W 7741   6.852   8.036   2.026
 3678W        W 7742   5.709   7.562  10.910
 3679W        W 7743   0.762   0.524  10.853
 3680W        W 7744   5.487   6.910  11.452
 3681W        W 7745   1.942   9.526   3.283
 3682W        W 7746   5.022   8.806   1.891
 3683W        W 7747   2.302   3.329   1.285
 3684W        W 7748   0.767   0.391   2.753
 3685W        W 7749   1.286   6.973   3.498
 3686W        W 7750   5.220   4.132   3.865
 3687W        W 7751   6.281   3.274   1.788
 3688W        W 7752   8.842   7.609   0.477
 3689W        W 7753   5.869   3.075   3.216
 3690W        W 7754   3.076   9.891   1.383
 3691W        W 7755  10.374   8.372   9.516
 3692W        W 7756   7.416   8.192   8.963
 3693W        W 7757   5.951   4.949  11.906
 3694W        W 7758   1.908   3.431   2.836
 3695W        W 7759   0.900   8.411   2.882
 3696W        W 7760   0.079   7.663  11.680
 3697W        W 7761   4.092   3.386   8.914
 3698W        W 7762   8.379   4.571   9.408
 3699W        W 7763   4.552   2.125   9.348
 3700W        W 7764   2.620   4.289  11.024
 3701W        W 7765   2.843   6.667  10.018
 3702W        W 7766   4.968   2.808   9.123
 3703W        W 7767   8.874   4.771   3.601
 3704W        W 7768   3.269  10.168   0.967
 3705W        W 7769   1.892   2.851   0.373
 3706W        W 7770   7.404  10.163  10.997
 3707W        W 7771  10.120   7.810   0.883
 3708W        W 7772   1.474   4.137  11.368
 3709W        W 7773   6.850   5.534   2.382
 3710W        W 7774   9.464   6.332   0.113
 3711W        W 7775   2.342   1.372   3.508
 3712W        W 7776   2.243   2.207  10.027
 3713W        W 7777   8.564   4.549  11.482
 3714W        W 7778   8.519   8.069   9.271
 3715W        W 7779   5.024   6.217   8.688
 3716W        W 7780   5.178  10.044   2.491
 3717W        W 7781   1.008   4.189   3.633
 3718W        W 7782   7.478   1.653   2.796
 3719W        W 7783   7.478   4.745   2.701
 3720W        W 7784   0.666   0.862   9.864
 3721W        W 7785   5.072   2.451  11.026
 3722W        W 7786   7.567   2.192   0.235
 3723W        W 7787   1.387   2.416   0.433
 3724W        W 7788   1.260   8.455   9.805
 3725W        W 7789   8.170   0.980  10.040
 3726W        W 7790   5.971   8.658  10.447
 3727W        W 7791   8.890   8.492   0.427
 3728W        W 7792   3.258   2.307   3.592
 3729W        W 7793   0.931   6.052  11.877
 3730W        W 7794  10.153   7.935  11.558
 3731W        W 7795   5.629   3.883   8.629
 3732W        W 7796   6.959   7.540   2.678
 3733W        W 7797   6.844   5.140  11.739
 3734W        W 7798   9.829   6.444   0.442
 3735W        W 7799   0.981   2.576  10.268
 3736W        W 7800   3.620   0.302   3.005
 3737W        W 7801   8.638   9.726   1.133
 3738W        W 7802   6.160   5.981   3.797
 3739W        W 7803   6.690   7.571   2.198
 3740W        W 7804   5.327   4.067   9.439
 3741W        W 7805   9.495   2.275   0.265
 3742W        W 7806   0.521   7.690   0.961
 3743W        W 7807   6.979   1.764   2.802
 3744W        W 7808   8.208   0.115  10.664
 3745W        W 7809   3.751   1.364  10.922
 3746W        W 7810   7.808   3.599   0.034
 3747W        W 7811   4.137   0.851   3.107
 3748W        W 7812   3.610   5.531   9.321
 3749W        W 7813   2.703   6.613   9.015
 3750W        W 7814   8.904   3.015   1.404
 3751W        W 7815   5.500   2.636  10.533
 3752W        W 7816   5.191   3.056   0.220
 3753W        W 7817   4.265   1.650   9.329
 3754W        W 7818   4.299   5.150  10.525
 3755W        W 7819   1.299   7.669   3.324
 3756W        W 7820  10.219   2.978   3.080
 3757W        W 7821   5.755   7.397   9.062
 3758W        W 7822   4.812   7.985   2.790
 3759W        W 7823   3.726   4.189   9.053
 3760W        W 7824   4.794   2.869  11.907
 3761W        W 7825   4.683   5.091   2.030
 3762W        W 7826   1.486   5.123   8.641
 3763W        W 7827   3.827   3.224  11.072
 3764W        W 7828   5.541   4.132   8.046
 3765W        W 7829   1.472   3.110  10.862
 3766W        W 7830   0.032   4.256   9.100
 3767W        W 7831   2.408   8.893   9.687
 3768W        W 7832   9.883   1.398   1.043
 3769W        W 7833   3.158   1.160  10.590
 3770W        W 7834   6.787   0.436   1.159
 3771W        W 7835   7.886   7.443   0.291
 3772W        W 7836   7.937   1.878  10.560
 3773W        W 7837   1.521   7.733  11.359
 3774W        W 7838  10.463  10.259   3.158
 3775W        W 7839   4.166   1.340   2.753
 3776W        W 7840   0.971   4.946   1.760
 3777W        W 7841   5.552   5.677   0.163
 3778W        W 7842   2.768   7.451   1.264
 3779W        W 7843  10.292   1.828  10.286
 3780W        W 7844   1.546   4.486   9.701
 3781W        W 7845   8.649   8.306   1.419
 3782W        W 7846   7.816   0.450  10.566
 3783W        W 7847   5.162   3.615  10.349
 3784W        W 7848   4.984   5.475   9.968
 3785W        W 7849   1.585   5.620   0.990
 3786W        W 7850   1.879   2.888   2.043
 3787W        W 7851  10.218  10.081   2.270
 3788W        W 7852   1.827   4.100   9.908
 3789W        W 7853   6.186   5.523   3.536
 3790W        W 7854   5.560   6.943   1.467
 3791W        W 7855   7.642   5.004   1.699
 3792W        W 7856   5.700   5.610  10.317
 3793W        W 7857   1.891   4.313   2.326
 3794W        W 7858   7.688   3.776   0.513
 3795W        W 7859   3.011   9.050  10.423
 3796W        W 7860   0.048   4.634  10.821
 3797W        W 7861   3.538   9.981   2.295
 3798W        W 7862   3.282   0.452   1.668
 3799W        W 7863   9.773   7.409   8.811
 3800W        W 7864   2.484   4.791   8.928
 3801W        W 7865   0.207   1.338  10.880
 3802W        W 7866   6.926   5.429   0.529
 3803W        W 7867   0.857   9.938   1.169
 3804W        W 7868   6.412   8.849   0.458
 3805W        W 7869   7.186   7.620   9.691
 3806W        W 7870   7.453   3.227  11.299
 3807W        W 7871  10.011   1.907   1.819
 3808W        W 7872   3.082   7.953  11.099
 3809W        W 7873   0.416   7.411   2.814
 3810W        W 7874   4.497   6.448   1.208
 3811W        W 7875   4.997   3.024   9.822
 3812W        W 7876   0.902   3.917   1.245
 3813W        W 7877   2.001   9.548  10.982
 3814W        W 7878   1.167   2.243   1.796
 3815W        W 7879   7.931   2.399  10.547
 3816W        W 7880   5.720   1.604  11.760
 3817W        W 7881   5.544   1.266   3.039
 3818W        W 7882  10.242   7.734   2.224
 3819W        W 7883   9.379   5.447   2.155
 3820W        W 7884   0.874   4.143   0.200
 3821W        W 7885   0.358   7.235  10.141
 3822W        W 7886   4.714   5.044  10.828
 3823W        W 7887  10.349   3.435   9.729
 3824W        W 7888   9.323   2.623   2.130
 3825W        W 7889   4.966   6.455   2.874
 3826W        W 7890   7.444   6.617   8.941
 3827W        W 7891   8.932   5.593   9.643
 3828W        W 7892   7.314   5.182  10.453
 3829W        W 7893   8.381   4.243  10.860
 3830W        W 7894   8.207   1.814  11.570
 3831W        W 7895  10.485   7.103  11.908
 3832W        W 7896   3.268   7.221   2.308
 3833W        W 7897   6.216   0.440   3.383
 3834W        W 7898   9.409   3.383  10.501
 3835W        W 7899   0.812   0.239   9.473
 3836W        W 7900   8.298   9.859   8.947
 3837W        W 7901   5.893   0.411   2.835
 3838W        W 7902   0.357   0.204  10.773
 3839W        W 7903   9.400   9.215  11.172
 3840W        W 7904   2.027   9.352   1.901
 3841W        W 7905   0.861   6.523  10.043
 3842W        W 7906   7.015   5.609  11.017
 3843W        W 7907   2.120   5.224   3.023
 3844W        W 7908   8.699   7.211   8.980
 3845W        W 7909   4.748  10.296   2.425
 3846W        W 7910   7.601   9.975  10.104
 3847W        W 7911   2.339   8.462   2.980
 3848W        W 7912   8.747   2.009   0.342
 3849W        W 7913   0.175   5.608   0.028
 3850W        W 7914   6.419   8.939   1.414
 3851W        W 7915   9.145   5.779  10.510
 3852W        W 7916   7.793   4.121  11.991
 3853W        W 7917   2.392   6.021   1.783
 3854W        W 7918   4.158   1.851   2.803
 3855W        W 7919   5.898   6.848   3.835
 3856W        W 7920   2.110   7.152   9.867
 3857W        W 7921   4.005   7.921   2.270
 3858W        W 7922   4.691   0.878   8.651
 3859W        W 7923   7.330   9.948   1.634
 3860W        W 7924   7.041   2.233   3.033
 3861W        W 7925   1.923   3.345  11.014
 3862W        W 7926   1.172   9.687   8.815
 3863W        W 7927   7.434   3.734  11.143
 3864W        W 7928   5.947   3.464   1.405
 3865W        W 7929   2.354   3.191   2.827
 3866W        W 7930   7.380  10.496   0.303
 3867W        W 7931   7.846   6.516   2.760
 3868W        W 7932   2.884   6.959  11.827
 3869W        W 7933   4.966   4.672   0.431
 3870W        W 7934   2.374   4.796   2.762
 3871W        W 7935   0.652   0.637   2.294
 3872W        W 7936   9.970   4.521  10.448
 3873W        W 7937   7.147   0.452   3.292
 3874W        W 7938   1.660   1.640  11.798
 3875W        W 7939  10.204   0.617   1.419
 3876W        W 7940   9.375   4.666   9.757
 3877W        W 7941   2.822   7.037   0.406
 3878W        W 7942   8.414   6.500   0.814
 3879W        W 7943   1.332   4.359   3.204
 3880W        W 7944   3.612   6.479   1.690
 3881W        W 7945   1.313   0.233   9.018
 3882W        W 7946  10.243   6.721   0.333
 3883W        W 7947   6.941   3.683   0.352
 3884W        W 7948   4.404   0.100   2.629
 3885W        W 7949   7.489   8.794  10.765
 3886W        W 7950   3.394   1.023  11.023
 3887W        W 7951   4.652   2.347  10.724
 3888W        W 7952   4.930   8.479  10.428
 3889W        W 7953   9.477   8.444   3.172
 3890W        W 7954   4.712   9.384   2.928
 3891W        W 7955   6.144   4.059   8.610
 3892W        W 7956   9.261   7.935   8.907
 3893W        W 7957   8.139   8.354   9.070
 3894W        W 7958   7.145   2.274   1.492
 3895W        W 7959   3.375   0.579   9.791
 3896W        W 7960   2.317   7.804  11.576
 3897W        W 7961   0.451   5.202   0.181
 3898W        W 7962   1.959   4.575   0.889
 3899W        W 7963   2.825   5.965   0.056
 3900W        W 7964   6.218   1.886   3.441
 3901W        W 7965   2.604   2.538  10.283
 3902W        W 7966   6.678   0.306   9.368
 3903W        W 7967   2.930  10.340  10.648
 3904W        W 7968   8.655   4.240   1.231
 3905W        W 7969  10.297   4.620   8.769
 3906W        W 7970   6.736   1.234  10.536
 3907W        W 7971   7.539   5.636   3.101
 3908W        W 7972   5.253   6.132   9.134
 3909W        W 7973   2.360   6.763   1.157
 3910W        W 7974   4.735   3.291   0.210
 3911W        W 7975   6.042   7.538   1.679
 3912W        W 7976   6.997   6.446   1.760
 3913W        W 7977   9.681   3.367   8.631
 3914W        W 7978   4.159   1.249  11.822
 3915W        W 7979   7.964   7.486   2.622
 3916W        W 7980   7.810   9.909   9.080
 3917W        W 7981  10.215   3.657  11.316
 3918W        W 7982   2.639   5.045   2.353
 3919W        W 7983   1.289   1.853   9.020
 3920W        W 7984   5.073   4.633  11.034
 3921W        W 7985   9.398   6.422   1.770
 3922W        W 7986   5.165   8.548  11.096
 3923W        W 7987   3.713  10.449   2.209
 3924W        W 7988   9.417   7.172   1.502
 3925W        W 7989   7.438   2.074   0.708
 3926W        W 7990   5.179   7.681  11.033
 3927W        W 7991  10.359   0.694   9.545
 3928W        W 7992   4.050  10.395   0.894
 3929W        W 7993   7.555   3.572   9.939
 3930W        W 7994   4.732   1.716   9.069
 3931W        W 7995   0.229   8.646  11.388
 3932W        W 7996   0.892   5.697   0.284
 3933W        W 7997   7.046   6.685   2.359
 3934W        W 7998  10.087   3.726  11.807
 3935W        W 7999   5.658   0.776   2.185
 3936W        W 8000   4.275   9.090  10.524
 3937W        W 8001   1.269  10.433   9.440
 3938W        W 8002   6.976   9.952  10.766
 3939W        W 8003   7.936   4.097   2.344
 3940W        W 8004   2.736   0.792   3.363
 3941W        W 8005   1.683   8.316   1.796
 3942W        W 8006   9.004   0.851   2.832
 3943W        W 8007   6.940   9.011   2.721
 3944W        W 8008   2.589   2.736   2.883
 3945W        W 8009   4.612   3.648   1.576
 3946W        W 8010   0.471   0.774   0.005
 3947W        W 8011   0.336   5.358   9.872
 3948W        W 8012   2.317   8.954   1.781
 3949W        W 8013   3.719   8.953   1.320
 3950W        W 8014   8.474   0.337   9.390
 3951W        W 8015   7.012   0.319  11.263
 3952W        W 8016  10.387   4.969   2.384
 3953W        W 8017   4.600   6.900  10.263
 3954W        W 8018   7.218   9.001   0.283
 3955W        W 8019   6.215   4.333  11.752
 3956W        W 8020   4.202   1.043   8.501
 3957W        W 8021   1.936  10.416  10.652
 3958W        W 8022   7.961  10.499   0.374
 3959W        W 8023   4.337   5.773   8.292
 3960W        W 8024   9.903  10.341  11.989
 3961W        W 8025   6.110   2.324  11.265
 3962W        W 8026   8.927   4.749   2.177
 3963W        W 8027   5.221   6.678   8.521
 3964W        W 8028   6.965   2.400  10.555
 3965W        W 8029   1.062   9.106   0.242
 3966W        W 8030   5.466   4.683   0.344
 3967W        W 8031   6.962   7.702   0.579
 3968W        W 8032   9.999   3.153   2.609
 3969W        W 8033   2.408   2.929  11.839
 3970W        W 8034   2.592   6.086   3.487
 3971W        W 8035   9.432   9.064   2.498
 3972W        W 8036   6.855   9.056   1.153
 3973W        W 8037   2.344   7.664   1.720
 3974W        W 8038   9.525   8.305   9.193
 3975W        W 8039   3.696  10.329  10.809
 3976W        W 8040   9.769   4.290  10.895
 3977W        W 8041   6.466   1.463   2.784
 3978W        W 8042   5.664   2.369   2.344
 3979W        W 8043   1.206   9.567  11.985
 3980W        W 8044   6.278   7.463   1.236
 3981W        W 8045   5.588   7.385   2.788
 3982W        W 8046   8.168   0.212   8.523
 3983W        W 8047   1.709   0.463   2.526
 3984W        W 8048   7.395   5.205   8.974
 3985W        W 8049   2.739   3.592   9.265
 3986W        W 8050   2.724   0.283  10.881
 3987W        W 8051   5.090   2.249   9.191
 3988W        W 8052   2.336  10.319   2.995
 3989W        W 8053   4.302   1.659   1.903
 3990W        W 8054   4.333   6.599   9.720
 3991W        W 8055   0.817   8.882   9.888
 3992W        W 8056   6.920   9.869  11.272
 3993W        W 8057   7.245   1.742  11.321
 3994W        W 8058   9.305   5.621   9.285
 3995W        W 8059   6.231   3.134   3.570
 3996W        W 8060   0.749   8.552   1.972
 3997W        W 8061   9.278   1.926   8.625
 3998W        W 8062   4.767   8.866  11.276
 3999W        W 8063   5.293   9.854  10.103
 4000W        W 8064   1.383   7.918   1.541
 4001W        W 8065   1.227   2.926   0.408
 4002W        W 8066   1.753   5.972  10.212
 4003W        W 8067   9.354   0.692   1.912
 4004W        W 8068   2.258   2.238  11.517
 4005W        W 8069   4.544   3.911  11.019
 4006W        W 8070   0.905   7.032  10.788
 4007W        W 8071   1.518   0.348   3.361
 4008W        W 8072   0.557   1.787   9.842
 4009W        W 8073   9.529   7.113   0.997
 4010W        W 8074   0.334   7.351   1.484
 4011W        W 8075   3.205   4.821   1.286
 4012W        W 8076   2.817   5.918   2.077
 4013W        W 8077   4.164   8.010   8.765
 4014W        W 8078   5.999   4.322   8.190
 4015W        W 8079   6.478   3.341   0.563
 4016W        W 8080   2.980   7.882   8.597
 4017W        W 8081   7.105   0.936  11.865
 4018W        W 8082   3.178   0.239   9.397
 4019W        W 8083   2.695   9.950   2.828
 4020W        W 8084   8.563   7.955   3.191
 4021W        W 8085   6.944   9.511   2.961
 4022W        W 8086   6.065   7.117   1.997
 4023W        W 8087   6.632   7.417   3.071
 4024W        W 8088   1.160   0.692   2.199
 4025W        W 8089   4.548   9.778  11.778
 4026W        W 8090   0.000   4.651  10.294
 4027W        W 8091  10.483   7.582   1.219
 4028W        W 8092   2.632   4.356  11.534
 4029W        W 8093   5.215   1.710   9.841
 4030W        W 8094   4.538   0.395   9.422
 4031W        W 8095   5.114   1.188   2.323
 4032W        W 8096   6.125   7.269  10.836
 4033W        W 8097   0.397   0.671   1.852
 4034W        W 8098   5.703   5.185   1.639
 4035W        W 8099   4.874   0.407   8.624
 4036W        W 8100   7.985   9.389   0.582
 4037W        W 8101   4.224   5.659  10.476
 4038W        W 8102   9.728   8.933  10.478
 4039W        W 8103   4.300   6.207  10.528
 4040W        W 8104   8.715   9.060   3.676
 4041W        W 8105   0.737   3.595  10.291
 4042W        W 8106   2.297   7.691   1.212
 4043W        W 8107   1.027   8.738   9.448
 4044W        W 8108   4.609   4.045   8.791
 4045W        W 8109   3.355   3.825   1.334
 4046W        W 8110   7.551   2.771   1.458
 4047W        W 8111   9.553   5.594  10.263
 4048W        W 8112   3.141   6.500   2.914
 4049W        W 8113   9.519   9.392  10.109
 4050W        W 8114   2.558   7.557   8.864
 4051W        W 8115   7.487   3.652  11.639
 4052W        W 8116  10.362   5.713   1.185
 4053W        W 8117   4.545   4.698   3.434
 4054W        W 8118   2.786   1.314  10.928
 4055W        W 8119   7.878   0.259   1.623
 4056W        W 8120   1.551   5.660  10.553
 4057W        W 8121   7.534   7.063   0.175
 4058W        W 8122   0.427   8.996  10.863
 4059W        W 8123   2.876   7.498  11.171
 4060W        W 8124   6.568   9.458   1.325
 4061W        W 8125   5.634  10.427   1.943
 4062W        W 8126   7.410   5.328   9.516
 4063W        W 8127   8.002   2.301   1.393
 4064W        W 8128   6.024   3.676   9.924
 4065W        W 8129   5.812   7.471   0.325
 4066W        W 8130   3.402   7.961   1.877
 4067W        W 8131   5.687   6.902   9.235
 4068W        W 8132   6.057   9.082  10.837
 4069W        W 8133   8.458   6.428   2.086
 4070W        W 8134   0.363   8.552   1.655
 4071W        W 8135   6.938   4.987   2.776
 4072W        W 8136   4.133   3.903   8.923
 4073W        W 8137   9.053   4.014   1.533
 4074W        W 8138   4.899   6.924   8.172
 4075W        W 8139   6.145   1.391  11.239
 4076W        W 8140   7.991   8.896   3.015
 4077W        W 8141   3.260   7.111   0.737
 4078W        W 8142   4.966   0.418  10.783
 4079W        W 8143   4.057   3.945   1.384
 4080W        W 8144   6.532   2.977   0.236
 4081W        W 8145   2.245   3.490   3.272
 4082W        W 8146   1.676   7.160   0.570
 4083W        W 8147   6.032   3.155  11.103
 4084W        W 8148   4.693   3.769   3.003
 4085W        W 8149  10.293   4.138   2.874
 4086W        W 8150   7.977   3.754   3.327
 4087W        W 8151   8.424   0.661   3.321
 4088W        W 8152   8.540   1.710   3.014
 4089W        W 8153   1.366   6.458  10.835
 4090W        W 8154   4.076   5.627   1.628
 4091W        W 8155   3.288   2.481   3.124
 4092W        W 8156   2.671   9.296   9.877
 4093W        W 8157   6.213   1.762   9.945
 4094W        W 8158   0.761   4.103   1.706
 4095W        W 8159   5.568   7.026   8.741
 4096W        W 8160   6.176   8.555   0.839
 4097W        W 8161   9.175   5.960  10.004
 4098W        W 8162   3.784   3.579   1.156
 4099W        W 8163   9.057   4.582   2.636
 4100W        W 8164   9.869   0.930   1.221
 4101W        W 8165   5.017   9.536   9.257
 4102W        W 8166   2.383   2.586  10.780
 4103W        W 8167   1.368   6.562   0.908
 4104W        W 8168   2.908   8.910   9.595
 4105W        W 8169   0.933   3.836   3.272
 4106W        W 8170   4.235   1.206   1.691
 4107W        W 8171   0.688   7.327   8.965
 4108W        W 8172   5.567   3.823   1.420
 4109W        W 8173   9.054   0.336   9.975
 4110W        W 8174   0.945   3.040   2.875
 4111W        W 8175   2.948   7.173   2.705
 4112W        W 8176   3.156   3.828   9.065
 4113W        W 8177   8.356   0.312   2.933
 4114W        W 8178   9.778   8.988  11.528
 4115W        W 8179   5.087   6.708   0.758
 4116W        W 8180  10.465   2.866   1.906
 4117W        W 8181   8.656   6.644  10.788
 4118W        W 8182   4.249   9.113   2.820
 4119W        W 8183   9.980   3.059   9.336
 4120W        W 8184   7.448   9.315  10.709
 4121W        W 8185   5.977   5.309  11.499
 4122W        W 8186   9.410   4.296  10.540
 4123W        W 8187   6.684   4.286   2.309
 4124W        W 8188   3.726   9.834  10.296
 4125W        W 8189   7.288   2.183   9.288
 4126W        W 8190   9.736   0.779   0.226
 4127W        W 8191   5.065   3.736  10.998
 4128W        W 8192   0.468   8.275  10.180
 4129W        W 8193   0.842   7.866   2.730
 4130W        W 8194   5.157   3.069   3.058
 4131W        W 8195   9.916   0.285   0.730
 4132W        W 8196   7.475   6.300   0.022
 4133W        W 8197   3.547   1.098   9.846
 4134W        W 8198   8.283   4.291   9.836
 4135W        W 8199   2.255   3.256  11.471
 4136W        W 8200   4.103   6.124   8.825
 4137W        W 8201   4.596   4.650   0.101
 4138W        W 8202   7.896   1.385   8.848
 4139W        W 8203   9.522   0.844   2.729
 4140W        W 8204   6.660   2.277   1.811
 4141W        W 8205   4.766   1.871   1.387
 4142W        W 8206   5.799  10.358   3.437
 4143W        W 8207   4.353   7.379   9.395
 4144W        W 8208   5.794   3.175   1.875
 4145W        W 8209  10.404   3.297  10.606
 4146W        W 8210   5.160   9.062  10.958
 4147W        W 8211   8.616   2.891  10.994
 4148W        W 8212   5.539   0.680   1.252
 4149W        W 8213   4.240   7.777  10.291
 4150W        W 8214   2.402   5.657   8.390
 4151W        W 8215   1.327   6.107   2.443
 4152W        W 8216   4.696   4.958   0.737
 4153W        W 8217   0.316   8.016  10.598
 4154W        W 8218   7.444   6.072   0.917
 4155W        W 8219   4.609   5.237   2.569
 4156W        W 8220   5.242  10.064  10.569
 4157W        W 8221   5.738   6.218   9.899
 4158W        W 8222  10.361   1.073   3.003
 4159W        W 8223   7.521   1.061   3.443
 4160W        W 8224   5.676   9.038  10.145
 4161W        W 8225   2.722   5.732   9.066
 4162W        W 8226   3.624   1.603   9.922
 4163W        W 8227   5.724   2.392   1.398
 4164W        W 8228   3.402   5.774   9.969
 4165W        W 8229   8.027   2.939   0.672
 4166W        W 8230   3.407   6.113  11.393
 4167W        W 8231   2.467   6.532   8.573
 4168W        W 8232   2.393   1.945   1.467
 4169W        W 8233   4.577   5.601   1.806
 4170W        W 8234   6.903   2.148   9.606
 4171W        W 8235   0.369   0.025  11.352
 4172W        W 8236   8.344   6.917   1.987
 4173W        W 8237   6.444   3.367   1.314
 4174W        W 8238   9.403   6.208  10.411
 4175W        W 8239   9.066   6.849   9.078
 4176W        W 8240   2.473   2.899   1.617
 4177W        W 8241   0.757   8.372   9.764
 4178W        W 8242   1.930   8.486   2.656
 4179W        W 8243   2.740   9.241   8.852
 4180W        W 8244   8.900   9.103   9.587
 4181W        W 8245   5.952   6.770  11.617
 4182W        W 8246   8.681   4.983   9.346
 4183W        W 8247   5.077   2.715   3.411
 4184W        W 8248   1.643   3.213   1.686
 4185W        W 8249   4.288   6.449  11.000
 4186W        W 8250   2.684   9.107  11.794
 4187W        W 8251   0.773   9.405   1.896
 4188W        W 8252   7.447  10.295   2.129
 4189W        W 8253   9.795   4.373   9.940
 4190W        W 8254   4.097   0.389   3.338
 4191W        W 8255   4.529   8.947   0.656
 4192W        W 8256   7.250   5.736   2.164
 4193W        W 8257   0.787   3.753  10.773
 4194W        W 8258   3.078   2.251   2.191
 4195W        W 8259  10.413   9.840   1.425
 4196W        W 8260   5.948   9.589   3.567
 4197W        W 8261   6.944   8.142  10.782
 4198W        W 8262   0.791   5.185   2.189
 4199W        W 8263   0.445   1.945   2.201
 4200W        W 8264   1.135   6.470   8.641
 4201W        W 8265   4.502   1.715   2.382
 4202W        W 8266   0.930   3.084   9.028
 4203W        W 8267   2.738   6.466   0.847
 4204W        W 8268   0.489   7.739  11.375
 4205W        W 8269   3.707   0.456   1.982
 4206W        W 8270   0.839   1.787  11.403
 4207W        W 8271   4.949   4.221   9.121
 4208W        W 8272   7.745   0.774   1.790
 4209W        W 8273   5.481   6.694   3.562
 4210W        W 8274   1.255   6.081   9.934
 4211W        W 8275   9.994   4.023   0.220
 4212W        W 8276   8.434   1.170   3.239
 4213W        W 8277  10.244   5.439   2.632
 4214W        W 8278   5.771   7.049  10.090
 4215W        W 8279   7.480   2.732   1.963
 4216W        W 8280   9.181  10.311   9.866
 4217W        W 8281   0.314   5.435  11.059
 4218W        W 8282   4.775   7.952  10.302
 4219W        W 8283   8.850   1.459   9.193
 4220W        W 8284   1.207   3.982   1.933
 4221W        W 8285   3.743   5.842  11.715
 4222W        W 8286   6.562   8.342   2.703
 4223W        W 8287   3.185   6.971   9.078
 4224W        W 8288   1.362   2.276  11.879
 4225W        W 8289   7.853   9.513  10.466
 4226W        W 8290   6.754   4.008   9.322
 4227W        W 8291   8.392   2.616  11.902
 4228W        W 8292   8.053   9.989   0.406
 4229W        W 8293   7.587   6.612   0.485
 4230W        W 8294   8.743   9.548   2.265
 4231W        W 8295   4.623   4.190   3.290
 4232W        W 8296   5.988   8.573   9.373
 4233W        W 8297   3.769   1.335   1.917
 4234W        W 8298   0.863   6.907   9.198
 4235W        W 8299   7.862   1.812   0.067
 4236W        W 8300   6.690   6.500  11.318
 4237W        W 8301  10.456   8.288   3.109
 4238W        W 8302   9.672   3.859   8.841
 4239W        W 8303   4.233   7.413  11.268
 4240W        W 8304  10.407   9.409   0.590
 4241W        W 8305   4.642   8.920   3.120
 4242W        W 8306   3.192   3.727  10.087
 4243W        W 8307   6.059   9.575  10.969
 4244W        W 8308  10.494   9.704  11.443
 4245W        W 8309   1.487   3.676   2.983
 4246W        W 8310   7.623   1.322  10.621
 4247W        W 8311   8.372   7.069  10.780
 4248W        W 8312   4.291   5.257   8.405
 4249W        W 8313   2.274   3.902   8.746
 4250W        W 8314   4.755   6.046   1.022
 4251W        W 8315   1.900   3.060  11.902
 4252W        W 8316   3.319   7.162  10.447
 4253W        W 8317   9.323   2.856   1.686
 4254W        W 8318   3.586   2.697   2.286
 4255W        W 8319   4.720   7.022   2.471
 4256W        W 8320   6.126   2.242  10.134
 4257W        W 8321   1.835   5.989   1.752
 4258W        W 8322   7.803   9.733  11.654
 4259W        W 8323   6.678   6.165  11.964
 4260W        W 8324   9.348   9.044   1.353
 4261W        W 8325   9.496  10.484   2.690
 4262W        W 8326   1.941   9.757   0.698
 4263W        W 8327   2.051   9.943  10.401
 4264W        W 8328   0.397   2.892   0.704
 4265W        W 8329   2.169   4.506  10.854
 4266W        W 8330   3.290   4.432   3.613
 4267W        W 8331   0.041   2.810   0.338
 4268W        W 8332  10.299   8.218  10.727
 4269W        W 8333   5.246   9.480   0.775
 4270W        W 8334   4.791   2.327   1.177
 4271W        W 8335   1.717   8.475  11.783
 4272W        W 8336   3.217   7.212   1.407
 4273W        W 8337   0.270   5.112   3.592
 4274W        W 8338   8.916   6.220   8.547
 4275W        W 8339   6.941   4.074   0.690
 4276W        W 8340   1.345   7.848   0.299
 4277W        W 8341   2.861   9.832   1.871
 4278W        W 8342   2.110   6.632  11.800
 4279W        W 8343   1.938   9.440  11.477
 4280W        W 8344   5.966   4.324   9.107
 4281W        W 8345   8.014   9.703   9.902
 4282W        W 8346   8.166   8.587   2.637
 4283W        W 8347   9.382   1.721   9.846
 4284W        W 8348   3.580   3.593   2.143
 4285W        W 8349   3.562   9.531   9.907
 4286W        W 8350   1.392   3.187  11.845
 4287W        W 8351   2.207   3.737   9.799
 4288W        W 8352   3.194   8.835   3.397
 4289W        W 8353   8.361   5.238  10.959
 4290W        W 8354   3.248   0.655   2.997
 4291W        W 8355   3.739   4.571   8.348
 4292W        W 8356  10.215   6.092   2.803
 4293W        W 8357   6.559   4.886   1.270
 4294W        W 8358   3.728   4.529   1.958
 4295W        W 8359   2.577   2.038   8.834
 4296W        W 8360   4.425  10.111  10.414
 4297W        W 8361   7.078   2.287  10.068
 4298W        W 8362   9.571   2.984  10.841
 4299W        W 8363   1.705   7.555   9.076
 4300W        W 8364   6.686   6.183   4.004
 4301W        W 8365   1.798   7.046  11.753
 4302W        W 8366   0.014  10.221   9.593
 4303W        W 8367   0.267   3.104   1.201
 4304W        W 8368   9.479   5.631   0.711
 4305W        W 8369   9.038   4.993   8.956
 4306W        W 8370   8.555   6.624   1.633
 4307W        W 8371   0.875   4.777  10.705
 4308W        W 8372   2.345   4.752  11.254
 4309W        W 8373   3.848   8.301   9.488
 4310W        W 8374   2.088   1.001   1.316
 4311W        W 8375   6.379   9.782   9.233
 4312W        W 8376   5.090   4.207   8.629
 4313W        W 8377   6.159   2.227   1.655
 4314W        W 8378   4.681   5.872  10.498
 4315W        W 8379  10.329   2.977  11.900
 4316W        W 8380   8.419   4.266   0.253
 4317W        W 8381   7.849   9.000   2.519
 4318W        W 8382   2.821   8.564   2.796
 4319W        W 8383   3.376  10.356   2.925
 4320W        W 8384   0.032  10.465   0.772
 4321W        W 8385   2.768  10.331  11.662
 4322W        W 8386   8.183   6.663   3.098
 4323W        W 8387   0.260   6.564   9.276
 4324W        W 8388   4.137   9.232   1.432
 4325W        W 8389   3.485   0.357   8.545
 4326W        W 8390   6.551   3.666   1.986
 4327W        W 8391   8.964  10.185   0.070
 4328W        W 8392   0.379   8.950   2.129
 4329W        W 8393   1.341   1.295   0.038
 4330W        W 8394   8.847   9.994   3.010
 4331W        W 8395   0.564   0.978  11.034
 4332W        W 8396   5.912   6.387   3.562
 4333W        W 8397   6.175   0.959  10.940
 4334W        W 8398   7.877   0.840   0.369
 4335W        W 8399   9.577   7.364  11.880
 4336W        W 8400   2.389   1.077   8.989
 4337W        W 8401   2.044   9.822  11.808
 4338W        W 8402   3.372   7.492  11.224
 4339W        W 8403   0.048   2.663   1.050
 4340W        W 8404   2.750   2.190  11.360
 4341W        W 8405   5.228   9.998   0.013
 4342W        W 8406   6.505   8.347   1.752
 4343W        W 8407   4.716   5.499  11.825
 4344W        W 8408   1.654   7.905   9.867
 4345W        W 8409   1.295   2.799   2.605
 4346W        W 8410  10.176   7.257   0.983
 4347W        W 8411   6.545  10.275   9.389
 4348W        W 8412   4.098   8.506   9.875
 4349W        W 8413   5.974   0.003  11.758
 4350W        W 8414   0.112   5.328   0.885
 4351W        W 8415  10.268   6.543   9.076
 4352W        W 8416   8.110   4.113   9.377
 4353W        W 8417   3.348   2.400  10.409
 4354W        W 8418   7.663   5.278  11.413
 4355W        W 8419   6.625   6.911   0.385
 4356W        W 8420   6.133   1.865   0.060
 4357W        W 8421   9.306   0.299   1.318
 4358W        W 8422   5.923   5.746   9.883
 4359W        W 8423   9.030   5.695   2.448
 4360W        W 8424   9.534  -0.000   0.942
 4361W        W 8425   0.453   6.086   9.326
 4362W        W 8426   7.500   6.134   2.954
 4363W        W 8427   6.104   6.132   9.538
 4364W        W 8428   6.713   3.059   9.377
 4365W        W 8429   0.816   8.964   2.694
 4366W        W 8430   4.942   2.680   1.953
 4367W        W 8431   3.061   0.191  11.310
 4368W        W 8432   4.235   1.066  10.471
 4369W        W 8433  10.389   6.947   8.733
 4370W        W 8434   3.721   3.342   3.016
 4371W        W 8435   7.579   4.066   4.350
 4372W        W 8436   9.343   6.170  11.377
 4373W        W 8437   2.696   7.417  11.657
 4374W        W 8438   0.527   7.739  11.917
 4375W        W 8439   7.169   4.977   1.932
 4376W        W 8440   0.352   5.051   2.622
 4377W        W 8441   4.131   6.279   2.896
 4378W        W 8442   3.611   3.767  10.373
 4379W        W 8443   5.562   1.673   0.918
 4380W        W 8444   3.695   0.723   8.938
 4381W        W 8445   7.555   1.345  11.124
 4382W        W 8446   2.701   9.760   9.036
 4383W        W 8447   4.709  10.039   0.796
 4384W        W 8448   6.677   8.470   2.228
 4385W        W 8449   5.056   3.999   9.868
 4386W        W 8450   6.890   0.785   9.611
 4387W        W 8451   2.121   6.889   1.910
 4388W        W 8452   8.818   2.919  11.986
 4389W        W 8453   5.086   6.672   2.340
 4390W        W 8454   0.809   2.205   1.174
 4391W        W 8455   9.018   8.898   0.889
 4392W        W 8456   9.854   8.225   2.820
 4393W        W 8457   3.310   7.611  10.218
 4394W        W 8458   4.911   6.195  11.564
 4395W        W 8459   7.036   5.401   1.024
 4396W        W 8460   7.910   6.298   0.908
 4397W        W 8461   8.334   5.916  11.361
 4398W        W 8462   6.330   2.707  10.916
 4399W        W 8463   8.329   6.343   2.575
 4400W        W 8464  10.022   6.166  10.982
 4401W        W 8465   2.068   8.498   2.126
 4402W        W 8466   8.942   2.648   0.992
 4403W        W 8467   9.466   5.445   1.667
 4404W        W 8468   4.094   8.884   0.981
 4405W        W 8469   2.582  10.009  10.436
 4406W        W 8470   5.081   9.561   1.295
 4407W        W 8471   7.083   7.514   9.206
 4408W        W 8472  10.152   6.660  10.955
 4409W        W 8473   4.129   3.761  11.796
 4410W        W 8474   9.943   2.953   8.815
 4411W        W 8475   2.922   9.916  11.402
 4412W        W 8476   5.522   0.744   0.737
 4413W        W 8477   0.344   6.895   3.412
 4414W        W 8478   5.585  10.337   9.410
 4415W        W 8479   7.929   3.316   9.685
 4416W        W 8480   7.395   1.420   8.645
 4417W        W 8481   5.429   5.539   1.889
 4418W        W 8482   9.548   4.520   2.620
 4419W        W 8483   9.966   4.088   1.993
 4420W        W 8484   9.292   8.847  10.817
 4421W        W 8485   5.995   3.501   9.344
 4422W        W 8486   2.841   8.337   0.249
 4423W        W 8487   1.472   4.714   0.914
 4424W        W 8488   9.770   8.896  11.020
 4425W        W 8489   9.820   5.186   0.978
 4426W        W 8490   1.448   6.160   9.438
 4427W        W 8491   8.065   6.118   9.493
 4428W        W 8492   5.191   0.271  10.328
 4429W        W 8493   4.984   3.757   0.515
 4430W        W 8494   2.713   1.183  10.327
 4431W        W 8495   8.548   1.711   2.477
 4432W        W 8496   4.575   3.848  11.529
 4433W        W 8497   5.222  10.016   9.635
 4434W        W 8498   1.376   6.679   3.051
 4435W        W 8499   0.413   8.148   2.778
 4436W        W 8500   6.152   4.280   2.607
 4437W        W 8501   8.074   0.203  10.156
 4438W        W 8502   3.550   9.897   3.181
 4439W        W 8503   5.464   8.575  10.330
 4440W        W 8504   9.424   7.307   0.366
 4441W        W 8505   2.372   7.107   2.503
 4442W        W 8506   2.806   1.770   9.468
 4443W        W 8507   2.335   7.758  10.484
 4444W        W 8508   6.109   4.172   0.254
 4445W        W 8509   4.299   8.053   2.875
 4446W        W 8510   2.688   4.592   9.336
 4447W        W 8511  10.376   8.466   1.787
 4448W        W 8512   1.815   0.307   8.880
 4449W        W 8513   2.238   4.127  11.300
 4450W        W 8514   4.773   6.059   0.021
 4451W        W 8515   6.023   0.844   2.542
 4452W        W 8516   4.652   9.028   9.191
 4453W        W 8517   8.512   1.100   1.417
 4454W        W 8518   8.371   2.620   2.551
 4455W        W 8519   4.686  10.327   1.928
 4456W        W 8520   9.060   0.704  10.789
 4457W        W 8521   0.745   8.531   3.385
 4458W        W 8522   6.115   1.694   1.493
 4459W        W 8523   5.238   8.229   2.709
 4460W        W 8524   0.320   1.670   1.785
 4461W        W 8525   7.396   7.193  10.480
 4462W        W 8526   8.374   5.245   3.047
 4463W        W 8527   7.103   5.333   3.838
 4464W        W 8528  10.301   4.198  11.752
 4465W        W 8529   0.331   7.577   1.932
 4466W        W 8530   9.908   5.518   1.406
 4467W        W 8531   5.654   3.506  11.748
 4468W        W 8532   4.062   2.392  11.368
 4469W        W 8533   6.029   4.090   0.772
 4470W        W 8534   8.023   3.552  10.659
 4471W        W 8535   3.138   0.300   2.652
 4472W        W 8536   5.759   9.162  11.760
 4473W        W 8537   2.834   0.741  10.596
 4474W        W 8538   6.692   1.399   0.475
 4475W        W 8539   7.369   5.574   9.974
 4476W        W 8540   4.178   3.439   1.439
 4477W        W 8541   3.583  10.052   0.006
 4478W        W 8542   4.264   9.619   2.739
 4479W        W 8543   5.631   6.578  10.277
 4480W        W 8544   9.379   1.518  10.773
 4481W        W 8545   8.264   3.739  10.258
 4482W        W 8546   0.701   5.504  11.378
 4483W        W 8547   0.435   1.892   0.883
 4484W        W 8548   4.167   7.054   0.704
 4485W        W 8549   4.237   0.736  11.835
 4486W        W 8550   5.270   8.573   9.354
 4487W        W 8551   1.785   2.110   9.840
 4488W        W 8552   3.325   6.126   9.580
 4489W        W 8553   7.048  10.092   0.315
 4490W        W 8554   1.626   7.738   3.713
 4491W        W 8555   8.426   3.305   9.825
 4492W        W 8556   6.565   2.128  11.484
 4493W        W 8557   1.781   6.976  10.284
 4494W        W 8558   0.364   6.042   2.005
 4495W        W 8559   5.942   7.102   9.617
 4496W        W 8560   2.705   5.167   3.333
 4497W        W 8561   1.889   0.344   1.744
 4498W        W 8562   1.706   7.967  11.945
 4499W        W 8563   6.291   8.273  10.293
 4500W        W 8564   7.045   2.195   2.504
 4501W        W 8565   6.152   8.956   9.074
 4502W        W 8566   8.885   6.210  10.406
 4503W        W 8567   6.290   2.776   3.205
 4504W        W 8568   7.099   2.735   1.198
 4505W        W 8569   9.911   6.510  11.413
 4506W        W 8570   9.516   3.767   1.476
 4507W        W 8571   0.834   6.084   2.279
 4508W        W 8572   7.783   8.148   1.029
 4509W        W 8573   4.278   3.257   3.554
 4510W        W 8574   0.541   8.955   0.217
 4511W        W 8575   5.681   0.282   2.346
 4512W        W 8576   2.167   0.344  10.254
 4513W        W 8577   9.860   6.573   9.396
 4514W        W 8578   3.787   2.978   0.458
 4515W        W 8579   8.838   4.608   9.667
 4516W        W 8580   0.973   9.435  11.535
 4517W        W 8581   1.430   1.380   2.787
 4518W        W 8582   1.870   5.720   0.024
 4519W        W 8583   7.892   7.169  11.192
 4520W        W 8584   9.227   0.038   3.125
 4521W        W 8585   1.490   9.513   0.874
 4522W        W 8586   8.565   0.228   2.011
 4523W        W 8587  10.430   4.208   1.738
 4524W        W 8588   7.213   5.156   1.437
 4525W        W 8589   8.459  10.457   2.449
 4526W        W 8590   3.183   3.323  11.550
 4527W        W 8591   4.650   6.860   0.447
 4528W        W 8592   3.399   5.732  10.773
 4529W        W 8593   9.697   5.682   8.921
 4530W        W 8594   7.862   9.093  10.958
 4531W        W 8595   2.937   0.493  11.768
 4532W        W 8596   9.113   3.753   9.908
 4533W        W 8597   5.754   5.284   2.198
 4534W        W 8598   4.247  10.320   2.224
 4535W        W 8599   0.498   8.076   1.871
 4536W        W 8600   0.912   6.613  11.084
 4537W        W 8601   0.876   3.978   8.217
 4538W        W 8602   5.738   6.896   2.795
 4539W        W 8603   8.357   2.136  10.767
 4540W        W 8604   6.761   0.778  10.845
 4541W        W 8605   5.832   1.515  10.325
 4542W        W 8606   8.269   7.271  11.509
 4543W        W 8607   5.060   9.121   2.309
 4544W        W 8608   6.974   5.272   9.860
 4545W        W 8609   9.841   5.933   0.468
 4546W        W 8610   6.980   3.268   9.780
 4547W        W 8611   4.789   3.820   2.492
 4548W        W 8612   8.640   7.154   9.837
 4549W        W 8613   5.513   7.630   3.227
 4550W        W 8614   3.554   7.151  10.891
 4551W        W 8615   3.030   0.656  11.058
 4552W        W 8616   8.048   8.953  11.916
 4553W        W 8617   9.817   5.097  11.909
 4554W        W 8618   8.945   1.838   9.581
 4555W        W 8619   6.136   3.782  11.784
 4556W        W 8620   7.374   0.330  10.347
 4557W        W 8621   1.126   2.217  10.907
 4558W        W 8622   3.313   3.316   1.319
 4559W        W 8623   8.878   7.799   2.823
 4560W        W 8624   4.744   9.418   0.595
 4561W        W 8625   7.046   1.766   1.410
 4562W        W 8626   2.219   8.642  10.134
 4563W        W 8627   4.348   9.723  10.871
 4564W        W 8628   3.138   5.559   1.853
 4565W        W 8629   5.721   3.067   9.291
 4566W        W 8630   7.204   8.074  10.326
 4567W        W 8631   6.718   5.351   1.441
 4568W        W 8632   9.819   0.769  11.698
 4569W        W 8633   3.926   9.808  11.691
 4570W        W 8634   3.686   6.964   1.505
 4571W        W 8635   1.482   0.196   1.496
 4572W        W 8636   6.061   5.810  11.314
 4573W        W 8637   3.848   4.057   2.219
 4574W        W 8638   4.049   4.232   2.688
 4575W        W 8639   3.242   4.778   3.219
 4576W        W 8640   9.131   6.889   2.536
 4577W        W 8641   2.705   8.481   3.444
 4578W        W 8642   3.846   0.871   1.707
 4579W        W 8643   4.847   6.716   9.852
 4580W        W 8644   2.558   0.229  11.446
 4581W        W 8645   3.352   3.132  10.913
 4582W        W 8646   9.600   9.329   3.373
 4583W        W 8647   6.961   2.920  11.358
 4584W        W 8648   1.226   1.534   1.774
 4585W        W 8649   5.081   6.933   1.227
 4586W        W 8650   7.053   7.193   2.298
 4587W        W 8651   8.021   6.970   2.376
 4588W        W 8652   5.467   3.786   2.672
 4589W        W 8653   8.782   9.765   3.471
 4590W        W 8654   3.655   4.720   1.503
 4591W        W 8655   5.954   8.348  11.941
 4592W        W 8656   1.259   8.095   2.544
 4593W        W 8657   7.882   0.406   2.796
 4594W        W 8658   1.907   8.842  11.034
 4595W        W 8659   1.884   9.481  10.049
 4596W        W 8660   4.745   2.895   2.761
 4597W        W 8661   9.907   1.434   1.569
 4598W        W 8662   6.183   0.395   2.394
 4599W        W 8663   6.582   7.057   1.318
 4600W        W 8664   3.823   4.087   0.153
 4601W        W 8665   3.677   0.716   3.318
 4602W        W 8666   7.815   5.304   9.882
 4603W        W 8667   7.109   8.521   9.992
 4604W        W 8668   4.714   9.027  10.221
 4605W        W 8669   0.839   0.936   1.893
 4606W        W 8670   4.250   7.484   0.459
 4607W        W 8671   2.750   1.051   0.663
 4608W        W 8672   2.765   0.419   2.985
 4609W        W 8673   7.657   3.304   0.718
 4610W        W 8674   4.163   5.339  10.066
 4611W        W 8675   0.521   2.763   2.745
 4612W        W 8676   4.266   4.386   9.036
 4613W        W 8677   7.367   3.870   0.100
 4614W        W 8678   1.928   6.464  10.316
 4615W        W 8679   3.702   4.583  11.949
 4616W        W 8680   8.457   8.998   2.831
 4617W        W 8681   6.424   8.107  10.803
 4618W        W 8682  10.437   6.492  11.349
 4619W        W 8683   6.038   5.542   9.003
 4620W        W 8684   0.725   5.919   2.749
 4621W        W 8685   0.050   6.599   1.232
 4622W        W 8686   8.669  10.460  10.869
 4623W        W 8687   0.023   2.643  10.009
 4624W        W 8688   9.832   5.165  11.045
 4625W        W 8689   5.066   2.816  11.417
 4626W        W 8690   0.605   9.010  11.334
 4627W        W 8691   2.736   2.360   8.472
 4628W        W 8692   8.691   1.020   9.363
 4629W        W 8693   3.488   4.167  11.774
 4630W        W 8694   8.803   8.848  10.627
 4631W        W 8695   8.503   4.996   2.290
 4632W        W 8696   1.111   2.939   0.940
 4633W        W 8697   9.374   6.478   9.247
 4634W        W 8698   7.126   8.351   0.822
 4635W        W 8699   9.855   2.357   1.669
 4636W        W 8700   5.617   4.747   2.826
 4637W        W 8701   2.931  10.431  10.155
 4638W        W 8702   4.515   0.580   2.510
 4639W        W 8703   6.759   6.235   9.923
 4640W        W 8704   5.903   8.599   3.408
 4641W        W 8705   3.063   8.015   2.631
 4642W        W 8706   5.102   8.995   8.932
 4643W        W 8707   6.551   3.615  10.009
 4644W        W 8708   2.552   3.301   9.858
 4645W        W 8709   0.946   6.155  10.860
 4646W        W 8710   8.930   7.421   3.201
 4647W        W 8711   6.893   6.523   3.678
 4648W        W 8712  10.328   4.693   9.802
 4649W        W 8713   5.472   0.443   1.842
 4650W        W 8714   5.495   3.605   1.910
 4651W        W 8715   8.525   7.721   1.406
 4652W        W 8716   6.468   4.562   4.119
 4653W        W 8717   1.804   9.794   1.180
 4654W        W 8718   8.623   4.138   9.477
 4655W        W 8719   0.365   2.880  11.946
 4656W        W 8720   4.973   8.576   2.953
 4657W        W 8721   8.395   5.084   3.508
 4658W        W 8722   8.019  10.303   8.814
 4659W        W 8723  10.432   2.481  11.936
 4660W        W 8724   4.309   8.593   2.832
 4661W        W 8725   9.577  10.067  10.903
 4662W        W 8726   3.906   4.640   9.370
 4663W        W 8727   1.191   7.403   9.064
 4664W        W 8728   4.783   2.091  11.766
 4665W        W 8729   8.764   0.128  11.368
 4666W        W 8730   3.887   5.592   8.466
 4667W        W 8731   3.743   2.285   1.530
 4668W        W 8732   2.215   2.358   9.015
 4669W        W 8733   7.391   4.595   0.818
 4670W        W 8734   5.156   0.836   9.435
 4671W        W 8735   7.011   8.487   1.801
 4672W        W 8736   9.370   3.213   3.295
 4673W        W 8737   0.856   0.983   8.908
 4674W        W 8738   1.186   7.997  11.085
 4675W        W 8739   0.019   0.522   2.198
 4676W        W 8740   5.668   7.033  10.968
 4677W        W 8741   6.586  10.135   3.438
 4678W        W 8742   8.501   1.491  10.837
 4679W        W 8743   7.539   4.798  10.741
 4680W        W 8744   4.695   4.689  10.462
 4681W        W 8745   3.771   0.894  11.680
 4682W        W 8746   9.604   3.856  10.309
 4683W        W 8747   8.667   3.211   9.361
 4684W        W 8748   3.333   5.531  11.995
 4685W        W 8749   5.684   4.802   9.868
 4686W        W 8750   0.252   0.827  10.184
 4687W        W 8751   3.232   5.916   8.527
 4688W        W 8752   1.751   7.962  10.389
 4689W        W 8753   6.563  10.223   1.874
 4690W        W 8754   8.098   9.861   1.912
 4691W        W 8755   4.603   7.883  11.165
 4692W        W 8756   2.612   0.906   1.154
 4693W        W 8757   6.204   7.413   0.012
 4694W        W 8758   9.315   2.480   9.551
 4695W        W 8759   1.808   6.777   2.765
 4696W        W 8760   1.674   6.847   9.795
 4697W        W 8761   0.215   1.999   9.520
 4698W        W 8762   8.533   6.044  11.827
 4699W        W 8763   3.173   2.832   8.866
 4700W        W 8764   9.920   0.902   1.733
 4701W        W 8765   5.479   8.993   0.800
 4702W        W 8766   6.116   3.258  11.652
 4703W        W 8767   9.983   1.718  11.913
 4704W        W 8768   2.992   4.111  11.818
 4705W        W 8769   1.775   1.283  10.234
 4706W        W 8770   3.576   0.064  11.241
 4707W        W 8771   0.383   6.923   8.934
 4708W        W 8772   7.139   5.754   1.377
 4709W        W 8773   5.494   2.854   9.714
 4710W        W 8774   8.405   2.065   1.655
 4711W        W 8775   8.459   9.748   0.229
 4712W        W 8776   6.439   9.347   0.372
 4713W        W 8777   6.960   4.653   4.327
 4714W        W 8778   8.546   3.811   9.852
 4715W        W 8779   3.245   2.327   1.427
 4716W        W 8780   1.388   5.212   1.387
 4717W        W 8781   0.214   0.715   3.183
 4718W        W 8782   7.896   4.991  11.059
 4719W        W 8783   0.701   4.987   9.766
 4720W        W 8784  10.272   5.667   9.623
 4721W        W 8785  10.051   3.692   8.520
 4722W        W 8786   9.119   4.747  10.634
 4723W        W 8787   7.615   0.421   0.358
 4724W        W 8788   5.256   4.077   2.301
 4725W        W 8789   9.786   9.803   3.367
 4726W        W 8790   1.929   8.317  11.026
 4727W        W 8791   9.256   4.046  11.796
 4728W        W 8792   1.397   5.570  10.053
 4729W        W 8793   2.162   8.467   9.658
 4730W        W 8794   8.437   6.425  11.285
 4731W        W 8795   8.369   8.415   3.074
 4732W        W 8796   7.708   9.973   1.301
 4733W        W 8797   7.084   3.588  10.183
 4734W        W 8798   9.398   6.008  10.898
 4735W        W 8799   7.778  10.231   1.748
 4736W        W 8800   4.755   5.803   9.589
 4737W        W 8801   6.159   6.249   2.284
 4738W        W 8802   7.552   2.176  10.262
 4739W        W 8803   6.621   0.222   0.706
 4740W        W 8804   6.185   0.889   8.449
 4741W        W 8805   7.380   0.884   0.403
 4742W        W 8806   9.603   3.886   9.790
 4743W        W 8807  10.358   9.229   2.072
 4744W        W 8808   6.120   8.040   1.902
 4745W        W 8809  10.209   1.553   0.327
 4746W        W 8810   7.102   5.089   0.181
 4747W        W 8811   8.601   3.042   2.340
 4748W        W 8812   2.803   5.206   9.045
 4749W        W 8813   8.251   6.191   9.944
 4750W        W 8814   4.219   6.723  10.556
 4751W        W 8815   3.642   3.665   8.929
 4752W        W 8816   0.869   3.506   8.726
 4753W        W 8817   4.316   3.307  10.465
 4754W        W 8818   3.674   6.725  10.049
 4755W        W 8819   0.776   0.737   3.202
 4756W        W 8820   2.777   8.350  10.872
 4757W        W 8821   4.675   4.921   9.347
 4758W        W 8822   5.508   5.861  10.769
 4759W        W 8823   5.308   5.059   1.936
 4760W        W 8824   7.543   0.786   9.554
 4761W        W 8825   5.138   6.202  11.044
 4762W        W 8826   6.572   6.127   3.015
 4763W        W 8827   5.472   1.334   9.467
 4764W        W 8828  10.431   3.515   0.466
 4765W        W 8829   2.489   5.258  11.505
 4766W        W 8830  10.062   3.926   3.628
 4767W        W 8831   9.409   6.571   2.252
 4768W        W 8832   2.662   1.228   9.430
 4769W        W 8833  10.447   9.130  10.884
 4770W        W 8834   0.871   3.107   0.071
 4771W        W 8835   4.618   6.450   3.735
 4772W        W 8836   2.442   5.146   0.003
 4773W        W 8837   7.769   0.646  10.085
 4774W        W 8838   0.836   0.317   3.587
 4775W        W 8839   3.126  10.414   1.414
 4776W        W 8840   8.420   7.291   2.508
 4777W        W 8841   8.446   7.523   2.954
 4778W        W 8842   0.850   7.660   0.336
 4779W        W 8843   0.941   9.516   0.918
 4780W        W 8844   0.940   9.862  11.264
 4781W        W 8845   8.729   9.779  11.779
 4782W        W 8846   1.038   6.328   2.801
 4783W        W 8847  10.454   9.964   0.905
 4784W        W 8848   4.581   2.986  11.428
 4785W        W 8849   1.846   0.930   2.860
 4786W        W 8850   1.693   2.550   2.390
 4787W        W 8851   6.000   0.522   0.142
 4788W        W 8852   8.063   4.879   1.143
 4789W        W 8853   2.696   2.505   2.424
 4790W        W 8854   0.277   3.652  10.514
 4791W        W 8855   3.620   6.216  10.049
 4792W        W 8856   6.567   5.228   0.880
 4793W        W 8857   6.594   5.937   9.543
 4794W        W 8858   6.714   8.687   0.842
 4795W        W 8859   2.329   0.747   2.822
 4796W        W 8860   6.755   9.116   0.036
 4797W        W 8861   1.793   3.060   8.888
 4798W        W 8862   4.971   7.325   9.935
 4799W        W 8863   1.919  10.010   0.267
 4800W        W 8864   8.869   1.842   8.332
 4801W        W 8865   6.568   0.678   2.207
 4802W        W 8866   9.548   6.606   3.172
 4803W        W 8867   2.265   3.395   8.889
 4804W        W 8868   1.767   7.447   0.170
 4805W        W 8869   1.304   6.117  10.457
 4806W        W 8870   3.867   4.633   8.840
 4807W        W 8871   3.698   8.591   9.078
 4808W        W 8872   4.047   2.380   8.942
 4809W        W 8873   1.185   7.994   9.628
 4810W        W 8874   4.140   4.833   8.138
 4811W        W 8875   3.944   2.743  10.866
 4812W        W 8876   4.024   0.012   1.811
 4813W        W 8877   6.575   9.972   1.269
 4814W        W 8878   7.026   6.197   2.192
 4815W        W 8879   4.293  10.052   9.457
 4816W        W 8880   3.656   0.819   0.687
 4817W        W 8881  10.408   3.565   0.986
 4818W        W 8882   1.236   1.075  11.562
 4819W        W 8883   9.594   7.855   0.787
 4820W        W 8884   5.564   3.435   8.960
 4821W        W 8885   6.999   2.428  11.547
 4822W        W 8886   0.985   4.215  11.322
 4823W        W 8887   9.459   0.015  10.710
 4824W        W 8888   1.238  10.223   9.903
 4825W        W 8889   4.337   0.502  11.334
 4826W        W 8890   2.709   9.980   9.934
 4827W        W 8891   4.184   2.960   3.146
 4828W        W 8892  10.441   9.444  10.503
 4829W        W 8893   3.301   8.416   1.569
 4830W        W 8894   3.351   3.174   2.617
 4831W        W 8895   3.241   5.138  10.249
 4832W        W 8896   5.235   0.015   2.288
 4833W        W 8897   9.494   1.874   1.491
 4834W        W 8898   4.148   8.954   3.311
 4835W        W 8899   2.335   5.289   8.789
 4836W        W 8900   7.922   8.466   0.131
 4837W        W 8901   0.506   4.321   9.276
 4838W        W 8902   4.566   6.977   3.923
 4839W        W 8903   9.870   4.660   0.744
 4840W        W 8904   8.129   9.051   1.780
 4841W        W 8905   0.673   9.881  10.830
 4842W        W 8906   5.185   0.419  11.667
 4843W        W 8907   4.934   7.080   9.495
 4844W        W 8908   9.755   4.152  11.799
 4845W        W 8909   1.392   5.663   8.621
 4846W        W 8910   5.736   9.894  10.348
 4847W        W 8911   2.362   4.580   2.289
 4848W        W 8912   4.130   6.913  10.069
 4849W        W 8913   6.948   4.420   1.061
 4850W        W 8914   5.736  10.076   0.031
 4851W        W 8915   9.333   2.977   8.592
 4852W        W 8916   8.117   4.331  11.310
 4853W        W 8917   6.625   9.936  10.380
 4854W        W 8918   5.481   3.561   3.947
 4855W        W 8919   2.951   6.437  11.879
 4856W        W 8920   6.801   7.277   3.524
 4857W        W 8921   2.353  10.441   2.299
 4858W        W 8922   9.732   2.177  10.252
 4859W        W 8923   6.974   4.603   0.552
 4860W        W 8924   3.679   9.506   2.167
 4861W        W 8925   0.278   4.209   3.059
 4862W        W 8926   3.110   0.460   8.913
 4863W        W 8927   0.698   6.678   1.898
 4864W        W 8928   6.638   2.587  11.902
 4865W        W 8929   6.358   9.195   3.673
 4866W        W 8930   4.712   1.831  10.068
 4867W        W 8931   0.648   3.623   2.526
 4868W        W 8932   4.464   0.338   8.914
 4869W        W 8933   0.877   6.353   0.882
 4870W        W 8934   0.332   2.346  11.007
 4871W        W 8935  10.367   0.844   0.982
 4872W        W 8936   3.607   3.670  11.929
 4873W        W 8937   7.555   8.773  11.946
 4874W        W 8938   8.521   1.379  10.083
 4875W        W 8939   7.088   7.631  10.662
 4876W        W 8940   0.345  10.036   1.220
 4877W        W 8941   5.134   6.899   0.271
 4878W        W 8942   4.920   0.041   1.404
 4879W        W 8943   4.324   7.011   1.825
 4880W        W 8944   6.474   0.260   9.851
 4881W        W 8945   0.775  10.392   0.356
 4882W        W 8946   8.383   3.163  10.338
 4883W        W 8947   2.987   5.307   0.893
 4884W        W 8948   5.974   3.215   2.703
 4885W        W 8949   2.428   6.466   9.429
 4886W        W 8950   4.971   3.234   3.488
 4887W        W 8951   6.942   0.790  10.372
 4888W        W 8952   6.347   4.596   2.072
 4889W        W 8953   1.894   8.451  10.520
 4890W        W 8954   2.638   0.723  11.381
 4891W        W 8955   7.777   1.175   8.394
 4892W        W 8956   9.488   6.709   1.350
 4893W        W 8957   0.989   0.247   1.381
 4894W        W 8958   7.199   7.675   2.226
 4895W        W 8959   5.139   7.599  10.372
 4896W        W 8960   9.428   9.522   1.554
 4897W        W 8961   0.002   8.487   1.295
 4898W        W 8962   7.390   6.673   2.918
 4899W        W 8963   8.621   2.232   8.811
 4900W        W 8964   8.183   9.983  11.887
 4901W        W 8965   2.320   2.645   8.595
 4902W        W 8966   6.637   4.951   1.784
 4903W        W 8967   0.179   8.488   0.807
 4904W        W 8968   9.251   2.746   2.743
 4905W        W 8969   4.416   6.192  11.441
 4906W        W 8970   3.131  10.318   0.471
 4907W        W 8971   8.938   1.179  10.763
 4908W        W 8972   2.836   1.256   8.619
 4909W        W 8973   8.856   2.599  10.430
 4910W        W 8974   7.813   4.974   9.164
 4911W        W 8975   0.809   4.478   9.653
 4912W        W 8976   6.413   2.857  10.427
 4913W        W 8977   0.234   8.981   0.650
 4914W        W 8978   6.451   1.147   2.392
 4915W        W 8979   5.901   3.614   4.243
 4916W        W 8980   6.460   7.388   2.604
 4917W        W 8981   7.526   3.732   2.992
 4918W        W 8982   9.637   3.264   1.787
 4919W        W 8983   9.370   1.809  11.237
 4920W        W 8984   9.450   7.797   0.285
 4921W        W 8985   1.464   8.788   0.133
 4922W        W 8986   7.012   5.497   9.141
 4923W        W 8987   0.042   4.167  10.512
 4924W        W 8988   7.716   8.087  10.383
 4925W        W 8989   0.809   7.064   3.312
 4926W        W 8990   0.631   9.832   2.140
 4927W        W 8991   2.194   1.308  11.012
 4928W        W 8992   3.293   6.018  11.870
 4929W        W 8993   0.028   3.328  11.099
 4930W        W 8994   8.547   3.320   1.180
 4931W        W 8995   4.491   6.477   1.721
 4932W        W 8996   5.985   2.609  10.442
 4933W        W 8997   1.717   8.020   2.790
 4934W        W 8998   6.957   9.532   9.986
 4935W        W 8999   7.209   6.574  11.213
 4936W        W 9000   2.488   7.554   2.739
 4937W        W 9001   7.278   1.681   0.958
 4938W        W 9002   6.225   4.516   3.393
 4939W        W 9003   6.040   0.421  10.103
 4940W        W 9004   0.154   4.713   1.963
 4941W        W 9005   0.483   4.058   3.507
 4942W        W 9006   9.952   3.517   0.269
 4943W        W 9007   7.919   7.215   1.924
 4944W        W 9008   4.709   4.059   3.783
 4945W        W 9009   9.973   9.064   2.383
 4946W        W 9010   8.570   4.956   8.433
 4947W        W 9011   7.477   4.136  10.444
 4948W        W 9012   2.238   1.138  11.866
 4949W        W 9013   0.764   3.693   2.028
 4950W        W 9014   9.101   1.671   1.191
 4951W        W 9015   4.428   4.203  11.890
 4952W        W 9016   5.577   1.401   1.547
 4953W        W 9017   7.488   0.736   2.621
 4954W        W 9018   6.643   4.707   3.633
 4955W        W 9019   1.022   9.016   1.663
 4956W        W 9020   1.982   6.213   9.448
 4957W        W 9021   3.758   2.682   3.225
 4958W        W 9022   2.356   4.267  10.030
 4959W        W 9023   7.608   7.957   3.230
 4960W        W 9024   8.858   8.946   3.127
 4961W        W 9025   0.171   4.764   0.286
 4962W        W 9026   2.769   4.836  11.643
 4963W        W 9027   6.254   8.367   9.775
 4964W        W 9028   1.010   3.541   2.869
 4965W        W 9029   6.866   8.964   2.206
 4966W        W 9030   2.631   8.514   1.635
 4967W        W 9031   6.947   3.824  11.317
 4968W        W 9032  10.341   8.847   3.358
 4969W        W 9033   1.977   2.550  11.840
 4970W        W 9034   5.608   0.894   9.200
 4971W        W 9035   7.521   8.717   2.808
 4972W        W 9036   0.799   4.340   3.190
 4973W        W 9037   5.421   3.303   9.929
 4974W        W 9038   3.073   4.069   2.883
 4975W        W 9039   7.834   4.524  11.691
 4976W        W 9040   1.373   2.997   2.135
 4977W        W 9041   7.616   9.795   2.027
 4978W        W 9042   0.796   3.180   0.578
 4979W        W 9043   3.593   6.440   2.702
 4980W        W 9044   2.770   9.082   0.693
 4981W        W 9045   9.124   6.584   3.449
 4982W        W 9046   5.477   0.610  10.697
 4983W        W 9047   0.883   9.846   2.577
 4984W        W 9048   7.511  10.122   8.734
 4985W        W 9049   4.222   7.770  11.619
 4986W        W 9050   1.988   1.021   2.370
 4987W        W 9051   2.159  10.075   1.426
 4988W        W 9052   3.639   1.944   2.613
 4989W        W 9053   7.436   4.277  10.925
 4990W        W 9054   7.230   1.803   8.951
 4991W        W 9055   8.573   6.853   1.180
 4992W        W 9056   7.922   2.698   2.235
 4993W        W 9057   9.433   5.580   9.777
 4994W        W 9058   4.629   7.865   1.909
 4995W        W 9059   4.822   0.337  11.298
 4996W        W 9060   6.409   0.848  10.479
 4997W        W 9061   1.631   2.833  10.449
 4998W        W 9062   0.691   1.708   3.374
 4999W        W 9063   4.525   7.106   9.796
 5000W        W 9064   1.801   2.592   8.622
 5001W        W 9065   9.806   5.930  10.585
 5002W        W 9066   4.832   7.592   9.463
 5003W        W 9067   3.409   6.561   9.290
 5004W        W 9068   0.486   2.548   0.298
 5005W        W 9069   1.849   4.253   8.785
 5006W        W 9070   2.152   1.722   8.787
 5007W        W 9071   2.727   3.786   9.795
 5008W        W 9072   4.828   1.173  11.365
 5009W        W 9073   1.648   5.192   0.696
 5010W        W 9074   9.934   6.103   9.136
 5011W        W 9075   9.038   4.221   2.021
 5012W        W 9076   9.188  10.081   9.383
 5013W        W 9077   6.521   9.474  10.240
 5014W        W 9078   8.294   4.490   8.540
 5015W        W 9079   8.813   2.080  11.628
 5016W        W 9080   8.125   9.258  10.130
 5017W        W 9081   9.941   2.097   3.172
 5018W        W 9082  10.201   5.644   9.096
 5019W        W 9083   7.103   6.790  10.346
 5020W        W 9084   9.953  10.273  10.521
 5021W        W 9085   2.244   0.762   8.551
 5022W        W 9086   4.734   5.993   0.530
 5023W        W 9087   8.087   6.741  10.538
 5024W        W 9088   1.164   1.802   3.188
 5025W        W 9089   8.433   5.479   1.655
 5026W        W 9090   5.549   3.367   2.944
 5027W        W 9091  10.291   7.518   2.785
 5028W        W 9092   8.810   4.220   2.916
 5029W        W 9093   0.174   5.653   9.278
 5030W        W 9094   7.588   4.625  10.271
 5031W        W 9095   6.248   0.193   1.522
 5032W        W 9096   4.302  10.032   1.761
 5033W        W 9097   7.942   9.589   0.127
 5034W        W 9098   6.471   4.558   9.928
 5035W        W 9099   9.322   8.345   9.659
 5036W        W 9100   4.163   2.233  10.875
 5037W        W 9101   0.361   4.960   1.180
 5038W        W 9102   3.864   7.214   1.920
 5039W        W 9103   1.619  10.355   1.838
 5040W        W 9104   4.679   7.486   2.784
 5041W        W 9105   8.914   9.825   8.847
 5042W        W 9106   2.093   7.197   2.917
 5043W        W 9107   1.959   1.340   3.162
 5044W        W 9108   8.063   2.141   0.419
 5045W        W 9109   7.041   6.278  10.324
 5046W        W 9110   0.714   4.343  11.750
 5047W        W 9111   5.922   7.853  11.999
 5048W        W 9112  10.337   0.919  10.507
 5049W        W 9113   9.954   6.021   1.419
 5050W        W 9114   7.537   3.617  10.467
 5051W        W 9115   1.447   0.066   0.987
 5052W        W 9116   5.949   6.596   0.293
 5053W        W 9117   2.672   7.463   0.174
 5054W        W 9118   0.221   4.024  10.064
 5055W        W 9119   5.941  10.036  11.565
 5056W        W 9120   9.346   7.873   9.412
 5057W        W 9121   4.425   0.335   8.350
 5058W        W 9122   7.928   7.691  11.365
 5059W        W 9123   6.140   5.937  11.798
 5060W        W 9124   1.838   8.968  11.712
 5061W        W 9125   6.428   6.903  11.516
 5062W        W 9126   4.741   3.385  11.699
 5063W        W 9127   8.491   2.200   2.244
 5064W        W 9128   6.902   5.142  11.237
 5065W        W 9129   5.582   7.889  11.308
 5066W        W 9130   9.326   3.761   1.956
 5067W        W 9131   2.937   0.632   2.059
 5068W        W 9132   5.293   0.456  11.157
 5069W        W 9133   2.876   8.580   0.718
 5070W        W 9134   4.069   1.545  10.586
 5071W        W 9135   1.834   4.915  11.598
 5072W        W 9136   2.810   0.134   2.239
 5073W        W 9137   4.147   0.796   0.894
 5074W        W 9138   6.129   6.749   2.335
 5075W        W 9139   3.702   6.136   0.228
 5076W        W 9140   8.789   5.974  10.857
 5077W        W 9141   7.869   9.883   3.302
 5078W        W 9142   4.167   7.485   3.538
 5079W        W 9143   2.568   7.105   3.047
 5080W        W 9144   2.779   1.259   1.478
 5081W        W 9145   1.966   7.518   0.813
 5082W        W 9146   1.211   5.756   2.833
 5083W        W 9147   8.516   7.422  11.101
 5084W        W 9148   3.929   6.784   2.881
 5085W        W 9149   6.993   7.629   0.076
 5086W        W 9150   7.989   0.067   2.092
 5087W        W 9151   0.318   2.326   2.503
 5088W        W 9152   7.981   0.911   2.775
 5089W        W 9153   5.772   3.380   8.473
 5090W        W 9154   5.278   4.627   3.180
 5091W        W 9155   6.500   1.972   2.794
 5092W        W 9156   6.650   0.674  11.773
 5093W        W 9157   1.914   9.916  11.318
 5094W        W 9158   4.708   0.906   1.673
 5095W        W 9159   9.883   8.360   1.926
 5096W        W 9160   7.544   5.693   2.592
 5097W        W 9161   0.352  10.396   3.440
 5098W        W 9162   8.160   1.827   2.154
 5099W        W 9163   9.005   1.166   1.220
 5100W        W 9164   3.869   6.441   4.080
 5101W        W 9165   6.879   3.187   8.824
 5102W        W 9166   8.735   0.413   2.515
 5103W        W 9167   1.139   6.890   1.801
 5104W        W 9168   7.935   0.944  10.476
 5105W        W 9169   9.056   9.485  11.461
 5106W        W 9170   5.060   1.257   0.902
 5107W        W 9171   9.932   0.446  11.282
 5108W        W 9172   5.950   1.054  10.493
 5109W        W 9173  10.005   6.534   1.339
 5110W        W 9174   5.582  10.200   1.440
 5111W        W 9175   7.446   2.904   0.452
 5112W        W 9176   8.595   1.701   8.781
 5113W        W 9177   6.106   9.918   2.180
 5114W        W 9178   2.279   4.670   0.256
 5115W        W 9179   1.688   8.764   0.604
 5116W        W 9180   0.351   1.207   9.040
 5117W        W 9181  10.289   5.278  11.879
 5118W        W 9182   4.040   6.668  11.928
 5119W        W 9183   8.218   1.007   9.532
 5120W        W 9184   4.328   1.770  10.952
 5121W        W 9185   5.727   5.280   1.127
 5122W        W 9186   1.669   3.138  10.048
 5123W        W 9187  10.134   7.889   3.106
 5124W        W 9188   5.613   8.893  11.167
 5125W        W 9189   4.726   0.260  10.117
 5126W        W 9190   3.638   2.455   9.586
 5127W        W 9191   3.629   2.231  11.571
 5128W        W 9192   0.495   6.352  10.747
 5129W        W 9193   8.977   0.373   1.706
 5130W        W 9194   7.135   6.688   0.231
 5131W        W 9195   7.545   9.491   1.280
 5132W        W 9196   1.621   2.521   9.596
 5133W        W 9197   1.371   6.095   8.940
 5134W        W 9198   2.474   4.152   0.360
 5135W        W 9199   0.903   8.989   2.175
 5136W        W 9200   2.313   0.536   1.412
 5137W        W 9201   6.424   9.356  11.257
 5138W        W 9202   1.578   8.552   3.630
 5139W        W 9203  10.184   7.001   1.863
 5140W        W 9204  10.338   9.302   9.488
 5141W        W 9205   0.730   9.422  11.054
 5142W        W 9206   2.496   5.117   0.930
 5143W        W 9207   0.809   2.393  11.259
 5144W        W 9208   4.185   1.229   1.183
 5145W        W 9209   6.006   5.728   0.396
 5146W        W 9210   2.244   4.237  11.859
 5147W        W 9211   9.072   8.821   0.074
 5148W        W 9212   9.468  10.020   0.229
 5149W        W 9213   4.777   6.536  11.215
 5150W        W 9214   9.367   2.130   1.949
 5151W        W 9215   1.752   7.139   9.378
 5152W        W 9216   3.889   5.487  10.809
 5153W        W 9217   4.623   3.759   0.045
 5154W        W 9218   4.363   4.285  10.427
 5155W        W 9219   2.866   0.907   9.051
 5156W        W 9220   5.332   6.228  11.895
 5157W        W 9221   4.197   0.298   1.233
 5158W        W 9222   3.188   2.380   0.555
 5159W        W 9223   8.909   1.641  10.569
 5160W        W 9224  10.345   3.693  10.232
 5161W        W 9225   6.298   9.029  10.372
 5162W        W 9226   9.567   3.207   9.088
 5163W        W 9227   1.733   9.043  10.284
 5164W        W 9228   6.108   3.635  11.289
 5165W        W 9229   0.874   1.224   3.386
 5166W        W 9230   3.530  10.494   1.720
 5167W        W 9231   4.978   9.472   8.752
 5168W        W 9232   0.353   9.100  11.773
 5169W        W 9233   2.249   8.706   8.828
 5170W        W 9234   0.340   1.303   1.251
 5171W        W 9235   6.465   3.831   1.492
 5172W        W 9236   2.801   5.944   2.588
 5173W        W 9237   0.216   5.488   2.819
 5174W        W 9238   0.897   4.433   2.675
 5175W        W 9239   3.526   2.159  10.003
 5176W        W 9240   4.705   6.053   9.103
 5177W        W 9241   7.014   6.379   0.890
 5178W        W 9242   8.117   8.731   2.160
 5179W        W 9243   5.184   7.194  10.943
 5180W        W 9244   8.951   1.567  11.083
 5181W        W 9245   9.828   4.326   9.007
 5182W        W 9246   0.324   1.467   2.241
 5183W        W 9247   1.312   7.655   2.814
 5184W        W 9248   0.475   5.998   0.151
 5185W        W 9249   6.252   6.494  10.600
 5186W        W 9250   8.285   3.649   1.830
 5187W        W 9251   9.006   6.078   9.454
 5188W        W 9252   0.635   5.375  10.510
 5189W        W 9253   2.223   0.235   8.560
 5190W        W 9254   1.598   8.670   2.284
 5191W        W 9255   5.624   8.501   0.706
 5192W        W 9256   5.202   6.010   0.323
 5193W        W 9257   4.533   1.940   3.177
 5194W        W 9258   4.091   3.766   9.862
 5195W        W 9259   2.908   6.060  11.522
 5196W        W 9260   0.877   1.382  11.747
 5197W        W 9261   6.277   1.679   0.967
 5198W        W 9262   8.229   0.395   2.435
 5199W        W 9263   9.481   7.114   2.976
 5200W        W 9264   3.133   8.066  10.592
 5201W        W 9265  10.163   2.193   9.939
 5202W        W 9266   7.729   9.003   0.364
 5203W        W 9267   5.840   6.509   1.334
 5204W        W 9268   4.576  10.048   1.303
 5205W        W 9269   7.134   8.557  11.031
 5206W        W 9270   1.456   6.127  11.810
 5207W        W 9271   8.674   5.566  11.185
 5208W        W 9272   2.226   7.843   9.226
 5209W        W 9273   4.223   4.040   3.603
 5210W        W 9274   1.696   9.995   3.177
 5211W        W 9275   7.394   4.079   8.664
 5212W        W 9276   8.057   9.449   9.144
 5213W        W 9277   1.926   5.037   0.118
 5214W        W 9278   4.277   8.354   2.244
 5215W        W 9279   0.391   4.209   2.539
 5216W        W 9280   5.394   6.368   1.692
 5217W        W 9281   7.341   9.021   1.331
 5218W        W 9282   7.716   3.749   1.025
 5219W        W 9283   1.366   4.769   2.765
 5220W        W 9284   4.247   6.193   9.391
 5221W        W 9285   6.096   3.035   1.199
 5222W        W 9286   6.171   9.995  10.592
 5223W        W 9287   7.667   1.848   9.242
 5224W        W 9288   8.100   7.585  11.860
 5225W        W 9289  10.230   1.888   9.537
 5226W        W 9290   5.073   5.052   2.375
 5227W        W 9291   5.805   8.185  10.478
 5228W        W 9292   9.207   5.514   8.789
 5229W        W 9293   1.704  10.267   1.311
 5230W        W 9294   2.664   2.239   9.297
 5231W        W 9295   7.730   6.037   0.479
 5232W        W 9296   4.357   8.575   1.293
 5233W        W 9297   6.893   3.946   1.221
 5234W        W 9298   9.452   5.602   3.159
 5235W        W 9299   5.076   8.597   0.127
 5236W        W 9300   4.822   2.287  10.252
 5237W        W 9301   9.400   1.935   2.884
 5238W        W 9302   2.375   2.779   2.118
 5239W        W 9303   8.755   1.160   2.497
 5240W        W 9304   1.502   9.518   3.035
 5241W        W 9305   7.230   0.572  10.851
 5242W        W 9306   0.803   4.200   2.214
 5243W        W 9307  10.244   4.509   2.145
 5244W        W 9308   5.398   6.149   3.363
 5245W        W 9309   8.635   0.484   0.661
 5246W        W 9310   4.515   4.040   9.327
 5247W        W 9311   6.588   7.430   0.355
 5248W        W 9312   1.488  10.214   0.077
 5249W        W 9313   0.781   2.202   8.509
 5250W        W 9314   2.927   8.136   1.863
 5251W        W 9315   8.462   6.481  10.323
 5252W        W 9316   2.106   4.207   1.868
 5253W        W 9317   4.831  10.104   8.419
 5254W        W 9318   2.048   1.843   1.086
 5255W        W 9319   0.349   3.420   9.487
 5256W        W 9320   9.470   3.288   0.885
 5257W        W 9321   4.961   7.795   1.095
 5258W        W 9322   6.449   3.771   3.480
 5259W        W 9323   9.914   3.049   9.847
 5260W        W 9324   0.492   5.059   1.673
 5261W        W 9325   2.168   2.176   8.516
 5262W        W 9326   9.114   8.678   2.317
 5263W        W 9327   9.476   0.013   9.468
 5264W        W 9328   6.426   8.203  11.864
 5265W        W 9329  10.424   9.750   9.836
 5266W        W 9330   9.685   2.162   9.743
 5267W        W 9331   8.924   0.665   1.262
 5268W        W 9332   9.402   7.412   9.612
 5269W        W 9333   4.865   1.345   0.446
 5270W        W 9334   1.978   6.210   2.724
 5271W        W 9335   6.100   2.226   2.613
 5272W        W 9336   9.756   9.503   0.412
 5273W        W 9337   9.816   1.138   3.046
 5274W        W 9338   3.387   2.819   1.419
 5275W        W 9339   1.777   5.153   2.198
 5276W        W 9340   4.588   3.649   3.484
 5277W        W 9341   4.617   0.944   0.672
 5278W        W 9342   7.555   8.927   3.265
 5279W        W 9343   1.675   5.724  11.540
 5280W        W 9344   4.856   4.382   9.589
 5281W        W 9345   5.534   7.443   0.757
 5282W        W 9346   7.819   8.028  10.947
 5283W        W 9347   3.210   5.546   8.923
 5284W        W 9348   3.923   6.157  11.351
 5285W        W 9349   9.283  10.471   1.821
 5286W        W 9350   7.002   0.803   2.445
 5287W        W 9351   5.233   7.024   2.662
 5288W        W 9352   0.454   6.867   1.477
 5289W        W 9353   2.934   3.249   3.479
 5290W        W 9354   0.830   2.336   2.625
 5291W        W 9355  10.009   4.117  11.351
 5292W        W 9356   0.032   6.030   8.417
 5293W        W 9357   5.062   7.075   3.519
 5294W        W 9358   9.708   2.882   2.984
 5295W        W 9359   7.402  10.005  11.481
 5296W        W 9360  10.433   3.093   0.749
 5297W        W 9361   9.398   9.496   1.033
 5298W        W 9362   4.627   8.121   0.898
 5299W        W 9363   8.852   9.942   0.507
 5300W        W 9364   4.297   0.421   9.887
 5301W        W 9365   8.458   5.400   9.520
 5302W        W 9366  10.391   2.128   9.093
 5303W        W 9367   2.579   9.657   2.263
 5304W        W 9368   5.275   7.402   1.201
 5305W        W 9369   1.737   6.168   0.761
 5306W        W 9370   9.512   0.503  10.977
 5307W        W 9371  10.029   8.870   1.873
 5308W        W 9372   9.681   0.832   9.446
 5309W        W 9373   9.294   5.943   2.803
 5310W        W 9374   5.211   8.324   1.947
 5311W        W 9375   2.162   0.428   9.367
 5312W        W 9376   4.018  10.222   1.374
 5313W        W 9377   0.322   0.289  10.253
 5314W        W 9378   4.060   4.979   1.307
 5315W        W 9379   3.185   0.869   0.441
 5316W        W 9380  10.034   2.409   8.815
 5317W        W 9381  10.314   5.197   3.361
 5318W        W 9382   9.075   3.224   0.409
 5319W        W 9383   6.977  10.436  10.960
 5320W        W 9384   4.054   4.451   1.345
 5321W        W 9385   6.067   9.006  11.356
 5322W        W 9386   1.974   4.243  10.401
 5323W        W 9387   7.578   1.456  11.635
 5324W        W 9388   2.908   9.840   0.465
 5325W        W 9389   7.671   5.217   2.669
 5326W        W 9390   0.954   8.503   8.822
 5327W        W 9391  10.306   4.531  11.352
 5328W        W 9392   0.767   4.513   1.351
 5329W        W 9393   3.045   0.976   9.682
 5330W        W 9394   1.201   8.924   9.002
 5331W        W 9395   7.483   3.802   2.432
 5332W        W 9396   5.220   5.843  11.371
 5333W        W 9397   4.353   7.087   2.843
 5334W        W 9398   7.501   3.683   3.512
 5335W        W 9399   0.181   3.182   3.281
 5336W        W 9400   7.434   6.999   1.967
 5337W        W 9401   2.686   6.520   3.209
 5338W        W 9402   5.144   2.590   2.871
 5339W        W 9403   2.371   6.866   0.611
 5340W        W 9404   9.025   6.913   3.052
 5341W        W 9405   8.356   0.887   0.495
 5342W        W 9406   5.360   6.513   1.191
 5343W        W 9407   2.263   7.549   2.215
 5344W        W 9408   5.020   9.467  11.239
 5345W        W 9409   9.810   0.747   3.381
 5346W        W 9410   9.356   2.865   1.180
 5347W        W 9411   0.794   7.430   9.976
 5348W        W 9412   5.203   4.710   8.738
 5349W        W 9413   6.429   1.385   8.998
 5350W        W 9414   1.503   2.777   1.238
 5351W        W 9415   9.399   8.543  10.388
 5352W        W 9416   0.642   6.474   0.026
 5353W        W 9417   1.364   8.440   9.151
 5354W        W 9418   7.576   7.071   1.190
 5355W        W 9419   4.215   6.799   4.260
 5356W        W 9420   0.490   0.358   1.434
 5357W        W 9421   8.182   8.020  10.577
 5358W        W 9422   4.140   6.156  11.899
 5359W        W 9423   7.955   5.876   9.082
 5360W        W 9424   9.977   7.862   1.792
 5361W        W 9425   5.610   8.961  10.647
 5362W        W 9426   7.829   1.432   1.989
 5363W        W 9427   0.048   0.230   2.950
 5364W        W 9428   1.272   3.660   1.538
 5365W        W 9429   8.402   7.004   0.717
 5366W        W 9430   1.279   7.042   9.472
 5367W        W 9431   4.112   5.358   8.885
 5368W        W 9432   6.143   3.535   2.251
 5369W        W 9433   9.815   2.771   1.981
 5370W        W 9434   6.547   6.164   0.833
 5371W        W 9435   9.405   4.731   9.254
 5372W        W 9436   1.565   1.308   0.563
 5373W        W 9437   9.477   5.639  11.278
 5374W        W 9438   0.761   2.983  10.540
 5375W        W 9439   2.430   5.602   3.243
 5376W        W 9440   0.640   9.378   2.395
 5377W        W 9441   2.420   0.370   9.803
 5378W        W 9442   9.970   1.873   1.276
 5379W        W 9443   2.253   7.281  11.896
 5380W        W 9444   6.939   3.780  11.840
 5381W        W 9445   4.607   8.319   3.198
 5382W        W 9446   5.608   9.848  10.878
 5383W        W 9447   8.338   6.602   9.006
 5384W        W 9448   8.820   9.879  10.223
 5385W        W 9449   4.538   9.068   1.151
 5386W        W 9450   3.198   9.186   1.018
 5387W        W 9451   3.718   8.088   9.011
 5388W        W 9452   5.931   3.569   3.541
 5389W        W 9453   8.363   0.060   0.887
 5390W        W 9454   2.008   9.398   0.358
 5391W        W 9455   4.737   1.503  11.002
 5392W        W 9456   2.355   9.162   2.274
 5393W        W 9457   6.586   4.817  10.916
 5394W        W 9458   0.237   7.413  11.054
 5395W        W 9459   9.252   1.893   0.491
 5396W        W 9460   4.178   0.473   1.771
 5397W        W 9461   2.273   4.387   8.550
 5398W        W 9462   4.115   3.542   2.288
 5399W        W 9463   7.414   6.510   8.450
 5400W        W 9464   2.921   0.372   9.833
 5401W        W 9465   4.731   7.222   9.045
 5402W        W 9466   0.759   3.115   9.514
 5403W        W 9467   0.041   1.162   0.331
 5404W        W 9468   7.490   5.684   9.156
 5405W        W 9469   1.280   1.917   0.850
 5406W        W 9470   5.151   8.953  10.460
 5407W        W 9471  10.400   0.056  10.918
 5408W        W 9472   3.155   7.710   2.235
 5409W        W 9473   2.863   6.179   9.330
 5410W        W 9474   7.091   6.959  10.867
 5411W        W 9475   0.351   5.027  10.754
 5412W        W 9476   3.770   1.272   0.869
 5413W        W 9477   9.089   0.261   0.823
 5414W        W 9478   7.932   3.356  10.195
 5415W        W 9479   8.135   2.740   9.020
 5416W        W 9480   9.882   9.765  10.616
 5417W        W 9481   4.300   8.813   8.320
 5418W        W 9482   6.260  10.286   9.819
 5419W        W 9483  10.322   4.745   9.284
 5420W        W 9484   3.200   6.253   0.296
 5421W        W 9485   5.029   3.843   1.903
 5422W        W 9486  10.212   5.747  11.723
 5423W        W 9487   3.329   5.267   2.252
 5424W        W 9488   1.241   6.570   9.691
 5425W        W 9489   1.683   7.817  10.882
 5426W        W 9490   7.281   7.185   9.974
 5427W        W 9491   5.755   1.781  10.753
 5428W        W 9492   3.050   3.260   9.982
 5429W        W 9493   7.295   6.104   9.904
 5430W        W 9494   6.421   1.206   0.860
 5431W        W 9495   7.550   0.222  11.866
 5432W        W 9496   1.962   9.381   2.812
 5433W        W 9497   8.789   6.992   3.495
 5434W        W 9498   0.469   6.904   2.928
 5435W        W 9499   6.179   0.150   9.428
 5436W        W 9500   1.930   7.567   9.552
 5437W        W 9501   7.152   4.539  10.527
 5438W        W 9502   5.225   2.645   2.371
 5439W        W 9503   5.715   3.889   9.128
 5440W        W 9504   4.288   9.976   8.906
 5441W        W 9505   3.393   7.434   1.844
 5442W        W 9506   5.667   0.285  11.450
 5443W        W 9507   1.260   7.058  10.043
 5444W        W 9508   7.457   8.272  11.910
 5445W        W 9509   2.901   1.042   2.424
 5446W        W 9510   0.073   7.535   0.193
 5447W        W 9511   5.040   7.569   3.462
 5448W        W 9512   1.259   3.692   9.569
 5449W        W 9513   4.687   4.731   2.453
 5450W        W 9514   4.219   9.364   0.871
 5451W        W 9515   3.206   1.443   9.583
 5452W        W 9516   3.205   7.056   3.607
 5453W        W 9517   1.159   5.398   1.862
 5454W        W 9518  10.020   7.044   9.568
 5455W        W 9519   9.807   7.795   8.473
 5456W        W 9520   7.542   8.163   9.897
 5457W        W 9521  10.044   6.426   3.194
 5458W        W 9522   6.533   0.245  11.438
 5459W        W 9523   1.981   4.769   8.974
 5460W        W 9524   5.645   0.911   1.682
 5461W        W 9525   2.433  10.485  10.552
 5462W        W 9526   0.151   9.812   2.329
 5463W        W 9527   2.614   4.282   2.797
 5464W        W 9528   6.110   8.810  11.840
 5465W        W 9529   4.697   6.035   1.527
 5466W        W 9530   7.525   4.235   2.828
 5467W        W 9531   5.273   3.601   0.956
 5468W        W 9532   4.610   5.948   3.765
 5469W        W 9533   9.951   9.497   3.765
 5470W        W 9534   3.439   1.832   1.371
 5471W        W 9535   4.421   5.689   1.259
 5472W        W 9536   7.683   9.967   9.581
 5473W        W 9537   6.047   9.484  10.467
 5474W        W 9538   8.341   7.070   8.649
 5475W        W 9539   8.457   8.068   2.703
 5476W        W 9540   2.867   7.589   1.819
 5477W        W 9541   1.847   1.339   3.656
 5478W        W 9542   3.612   9.189   0.280
 5479W        W 9543   1.411   7.096   1.006
 5480W        W 9544   1.701   0.200   9.365
 5481W        W 9545   6.745   6.570  10.782
 5482W        W 9546   5.617   9.815   9.393
 5483W        W 9547   0.336   0.942   9.485
 5484W        W 9548  10.462   6.166   0.970
 5485W        W 9549   5.060   6.169  10.563
 5486W        W 9550   0.106   9.187  11.345
 5487W        W 9551   7.092   7.140   1.391
 5488W        W 9552   4.974  10.431   8.799
 5489W        W 9553   3.756   6.206   9.177
 5490W        W 9554   3.338   0.468   1.169
 5491W        W 9555   4.811   2.909  10.991
 5492W        W 9556   2.742   3.229  11.259
 5493W        W 9557   6.496   9.950   2.973
 5494W        W 9558   4.249   9.553  11.379
 5495W        W 9559   0.715   9.146   0.645
 5496W        W 9560   9.029   2.313   8.412
 5497W        W 9561   9.958   6.643   9.907
 5498W        W 9562   5.159  10.008  11.108
 5499W        W 9563   7.016   2.659   2.763
 5500W        W 9564   3.808   2.949   9.673
 5501W        W 9565   3.215   2.366  11.276
 5502W        W 9566   6.589   3.808   8.892
 5503W        W 9567   1.035   7.900  11.897
 5504W        W 9568  10.332   3.117  10.131
 5505W        W 9569   3.098   2.809   2.244
 5506W        W 9570   0.474   5.627   2.361
 5507W        W 9571   7.746   1.556   1.069
 5508W        W 9572   1.134   9.737   9.743
 5509W        W 9573   2.163   6.112   9.927
 5510W        W 9574   9.287   6.498   8.752
 5511W        W 9575   0.103   5.969   3.418
 5512W        W 9576   8.076   6.454   0.437
 5513W        W 9577   7.531   1.928   1.347
 5514W        W 9578   9.855   3.358   3.048
 5515W        W 9579   5.424   2.953   8.879
 5516W        W 9580   5.971   6.628   1.820
 5517W        W 9581   6.170   0.838   3.032
 5518W        W 9582   7.594   1.588   9.703
 5519W        W 9583   0.434   6.470  11.239
 5520W        W 9584   6.291   6.159   0.351
 5521W        W 9585   3.787   3.157   2.334
 5522W        W 9586   2.845   0.465   1.315
 5523W        W 9587   3.736   9.518  11.302
 5524W        W 9588   0.744   3.637   3.695
 5525W        W 9589   7.877   6.706   1.827
 5526W        W 9590   9.235   2.823   9.134
 5527W        W 9591   1.280   0.975   9.525
 5528W        W 9592   1.381   1.467   9.534
 5529W        W 9593   1.841   3.799  11.265
 5530W        W 9594   9.069   5.289  11.413
 5531W        W 9595   4.232   8.027   0.155
 5532W        W 9596   5.071   4.102   2.816
 5533W        W 9597   3.738   3.296   9.286
 5534W        W 9598   6.073   3.262   0.181
 5535W        W 9599   3.531   8.008   2.409
 5536W        W 9600   3.327   0.685  10.627
 5537W        W 9601   0.129   7.067   0.886
 5538W        W 9602   4.497   7.605   0.039
 5539W        W 9603   1.882   0.800  10.430
 5540W        W 9604   7.520   5.537   4.099
 5541W        W 9605   1.786   6.655   0.595
 5542W        W 9606   3.943   5.524   1.140
 5543W        W 9607   8.635   8.813   2.251
 5544W        W 9608   5.059   4.892  11.482
 5545W        W 9609   9.079   5.758  11.584
 5546W        W 9610   5.236   6.425  10.001
 5547W        W 9611   5.677   6.495   0.806
 5548W        W 9612   2.428  10.392   3.489
 5549W        W 9613   2.476   0.884  10.927
 5550W        W 9614   1.044   5.675  10.457
 5551W        W 9615   7.144   2.253   1.996
 5552W        W 9616   3.990   0.306  10.929
 5553W        W 9617   7.447   6.296   2.485
 5554W        W 9618   2.272   1.908   9.258
 5555W        W 9619   5.927   7.628   3.532
 5556W        W 9620   4.399  10.338   0.510
 5557W        W 9621   4.121   6.620   8.617
 5558W        W 9622   5.744   2.526  11.823
 5559W        W 9623   6.963   7.153   9.541
 5560W        W 9624   7.418   2.251  10.737
 5561W        W 9625   6.438   5.702   0.126
 5562W        W 9626   3.351   9.639   8.521
 5563W        W 9627   2.173   5.917   0.875
 5564W        W 9628   5.990   2.819   0.429
 5565W        W 9629   6.533   2.455   8.581
 5566W        W 9630   0.848   2.794   2.362
 5567W        W 9631   2.077   8.461   0.718
 5568W        W 9632   4.213   6.111   0.425
 5569W        W 9633   5.733   1.275  10.925
 5570W        W 9634   6.407   9.123   0.915
 5571W        W 9635   0.051   6.417   3.111
 5572W        W 9636   5.155   1.845   8.800
 5573W        W 9637   5.904   0.954   0.446
 5574W        W 9638   2.083   9.971   3.487
 5575W        W 9639   4.671   9.427  10.573
 5576W        W 9640   7.053   8.584   1.281
 5577W        W 9641   1.682   8.499   9.532
 5578W        W 9642   8.047   7.854   2.964
 5579W        W 9643   6.107   0.492  11.131
 5580W        W 9644   1.184   0.427   0.183
 5581W        W 9645   1.507   4.261   0.247
 5582W        W 9646   9.393   4.504   3.643
 5583W        W 9647   3.153   3.612   9.568
 5584W        W 9648   8.886   8.809  11.553
 5585W        W 9649   9.798   7.420   0.710
 5586W        W 9650   3.288   1.566  10.868
 5587W        W 9651   7.399   1.632   0.461
 5588W        W 9652   5.920   8.019   2.364
 5589W        W 9653   6.986   2.763   9.747
 5590W        W 9654   2.686   2.845   0.959
 5591W        W 9655   3.043   9.780   3.177
 5592W        W 9656   9.561   7.191   2.463
 5593W        W 9657   8.214   6.255   3.536
 5594W        W 9658   4.713   0.343  11.954
 5595W        W 9659   0.252   5.426   1.366
 5596W        W 9660   5.987   7.985   1.406
 5597W        W 9661   6.558   3.643  11.029
 5598W        W 9662   7.132   1.375   3.157
 5599W        W 9663   9.978   7.107   2.747
 5600W        W 9664   9.813   0.965  11.215
 5601W        W 9665   5.241   3.157   9.387
 5602W        W 9666   9.281   6.033   8.982
 5603W        W 9667   1.318   9.960   1.900
 5604W        W 9668   6.958   8.105  11.840
 5605W        W 9669   3.132   6.669   0.542
 5606W        W 9670   7.287  10.405  10.042
 5607W        W 9671   7.521   2.379   1.134
 5608W        W 9672   6.603   2.090  10.031
 5609W        W 9673   9.467   1.058   0.925
 5610W        W 9674   2.240   9.134  10.101
 5611W        W 9675   8.083   1.422  11.859
 5612W        W 9676   5.650   3.396   2.358
 5613W        W 9677   3.801   5.948   9.612
 5614W        W 9678  10.442   1.947   0.045
 5615W        W 9679   4.155   1.314   2.249
 5616W        W 9680   4.682   9.284   1.974
 5617W        W 9681   7.834   5.607   0.201
 5618W        W 9682   5.554   8.925   2.506
 5619W        W 9683   0.792   5.183  10.982
 5620W        W 9684   8.986   4.580   0.791
 5621W        W 9685   5.253  10.004   9.099
 5622W        W 9686   0.205   6.957   0.374
 5623W        W 9687   8.022   4.512   9.037
 5624W        W 9688   0.197   2.787   2.351
 5625W        W 9689   7.464   3.140  10.241
 5626W        W 9690   1.418   9.272   3.853
 5627W        W 9691   2.266  10.050  10.916
 5628W        W 9692   8.870   8.803   1.359
 5629W        W 9693   6.586   7.860   2.823
 5630W        W 9694   0.929   8.629   0.128
 5631W        W 9695   4.184   6.117   1.467
 5632W        W 9696   6.559   8.656   0.013
 5633W        W 9697   2.429   1.722   0.186
 5634W        W 9698   0.179   9.936   8.887
 5635W        W 9699   7.521   8.064   2.233
 5636W        W 9700   2.291   5.106   1.993
 5637W        W 9701   2.728   3.571  10.283
 5638W        W 9702   5.291   2.644   1.173
 5639W        W 9703   5.933   8.995   1.183
 5640W        W 9704   7.951   3.254   3.483
 5641W        W 9705   4.698   7.926  11.684
 5642W        W 9706   1.961   8.911   0.208
 5643W        W 9707   0.002   0.227   9.416
 5644W        W 9708   4.996   4.450  10.096
 5645W        W 9709   0.421  10.354   2.918
 5646W        W 9710   4.601   2.866   3.487
 5647W        W 9711   7.265   3.181   1.546
 5648W        W 9712   8.442   8.089   9.796
 5649W        W 9713   1.568   8.561  11.308
 5650W        W 9714   0.869   7.980   1.232
 5651W        W 9715   8.161   3.663   1.234
 5652W        W 9716   1.901   7.857   1.968
 5653W        W 9717   2.868   9.408   1.382
 5654W        W 9718   8.487   2.436   1.252
 5655W        W 9719   1.830   1.163   9.745
 5656W        W 9720   3.338   5.043   1.778
 5657W        W 9721   7.084   5.988   9.073
 5658W        W 9722   0.114   5.399  10.501
 5659W        W 9723   6.066  10.270   1.705
 5660W        W 9724   4.084   2.910  11.380
 5661W        W 9725   6.430   9.290   9.364
 5662W        W 9726   6.929   8.929  11.291
 5663W        W 9727   3.485   2.205   1.009
 5664W        W 9728   3.339   6.742  11.743
 5665W        W 9729   0.601   4.989  11.417
 5666W        W 9730  10.370   5.431  11.357
 5667W        W 9731   5.515   4.119   1.845
 5668W        W 9732   0.925   2.303   3.115
 5669W        W 9733   5.208   7.000   9.086
 5670W        W 9734   3.255   5.144   9.275
 5671W        W 9735   0.501   8.294   8.930
 5672W        W 9736   0.986   7.378   0.768
 5673W        W 9737   1.008   2.123   0.223
 5674W        W 9738   7.854   6.648   0.005
 5675W        W 9739   9.376   0.551   3.138
 5676W        W 9740   4.572   4.537   3.927
 5677W        W 9741   6.423   0.153  11.962
 5678W        W 9742  10.487   3.928   0.150
 5679W        W 9743   6.115   9.317   9.983
 5680W        W 9744   4.555   5.301   9.692
 5681W        W 9745   8.528   5.890   9.537
 5682W        W 9746   9.897   8.285  11.978
 5683W        W 9747   5.625   1.807   8.995
 5684W        W 9748   1.238   0.317  11.035
 5685W        W 9749   3.261   8.352   8.837
 5686W        W 9750   9.465   7.832  10.980
 5687W        W 9751   9.911   9.814   1.671
 5688W        W 9752   5.702   3.477  10.343
 5689W        W 9753   7.370   3.083   8.854
 5690W        W 9754   1.837   7.898   0.462
 5691W        W 9755   1.380   3.844   1.050
 5692W        W 9756   5.138   8.649   0.638
 5693W        W 9757   0.745   0.890  11.554
 5694W        W 9758   1.405   0.231   9.885
 5695W        W 9759   8.150   5.976   1.352
 5696W        W 9760   9.485   5.710   1.220
 5697W        W 9761   0.865   5.466  10.011
 5698W        W 9762   3.681   5.912   3.645
 5699W        W 9763   3.477  10.301   9.395
 5700W        W 9764   7.695   1.840   8.701
 5701W        W 9765   1.303   4.963  10.941
 5702W        W 9766   7.736   6.357   9.806
 5703W        W 9767   5.084   3.653   1.420
 5704W        W 9768   1.206  10.261   1.391
 5705W        W 9769   6.616   3.287   3.276
 5706W        W 9770   0.872   4.007   9.472
 5707W        W 9771   1.258   7.827  10.595
 5708W        W 9772   3.386   7.543   2.696
 5709W        W 9773   2.819   4.076  10.204
 5710W        W 9774   1.669   2.799  11.514
 5711W        W 9775   0.843   6.473  11.564
 5712W        W 9776   5.436   8.428   3.161
 5713W        W 9777   2.145   3.252   1.772
 5714W        W 9778   5.992   5.462  11.976
 5715W        W 9779   7.634   0.107   0.763
 5716W        W 9780   2.116   9.303   9.620
 5717W        W 9781   7.665   1.222   0.665
 5718W        W 9782   3.705   3.616   1.656
 5719W        W 9783   7.102  10.472   3.143
 5720W        W 9784   5.686   0.788  11.137
 5721W        W 9785   7.993   2.625   0.246
 5722W        W 9786   3.338   0.722  11.461
 5723W        W 9787   8.775   2.308   9.872
 5724W        W 9788   2.764   1.455   9.884
 5725W        W 9789   6.926   4.914  10.251
 5726W        W 9790   4.421   5.160   3.627
 5727W        W 9791   1.239   9.281   1.264
 5728W        W 9792   2.408   5.668   9.961
 5729W        W 9793   3.225   3.309   9.127
 5730W        W 9794   9.117   3.302   1.895
 5731W        W 9795   5.497   3.725   0.521
 5732W        W 9796   0.191   9.570  11.946
 5733W        W 9797   5.093   3.158   1.169
 5734W        W 9798   5.666   6.495   3.120
 5735W        W 9799  10.313   7.193  10.847
 5736W        W 9800   9.852   9.050   1.428
 5737W        W 9801   6.889   9.930   2.603
 5738W        W 9802   4.604   2.383   0.693
 5739W        W 9803   1.354   0.879   0.366
 5740W        W 9804   6.148   0.060  10.763
 5741W        W 9805   3.762   5.014   2.137
 5742W        W 9806   1.226   1.009   3.102
 5743W        W 9807   3.883   0.896  11.185
 5744W        W 9808   7.435   9.550   9.747
 5745W        W 9809   7.038   8.141  11.316
 5746W        W 9810  10.075  10.452   2.889
 5747W        W 9811   1.846   1.666   9.606
 5748W        W 9812   4.730  10.457   9.666
 5749W        W 9813   6.307  10.043   8.796
 5750W        W 9814   2.848   7.590   9.286
 5751W        W 9815   2.410   6.117  11.461
 5752W        W 9816   7.613   5.382   2.148
 5753W        W 9817   4.559   3.118   1.818
 5754W        W 9818   8.936   0.517   9.132
 5755W        W 9819   8.364   2.276  10.242
 5756W        W 9820   9.155  10.312   1.291
 5757W        W 9821   6.988   6.077  10.787
 5758W        W 9822   4.442   7.736   1.233
 5759W        W 9823   9.449   2.105   3.357
 5760W        W 9824   4.135   7.023   3.299
 5761W        W 9825   4.578   8.806   2.140
 5762W        W 9826   2.164   2.384   9.543
 5763W        W 9827   4.672   8.383  11.445
 5764W        W 9828   4.537   5.495   9.228
 5765W        W 9829   5.175   0.949  10.934
 5766W        W 9830   9.433   4.922   2.920
 5767W        W 9831  10.310   2.901   3.589
 5768W        W 9832   4.623   0.432   1.543
 5769W        W 9833   3.448   5.630   8.151
 5770W        W 9834   8.611   0.976   0.919
 5771W        W 9835   1.489   9.285   8.758
 5772W        W 9836   2.221   6.410   0.785
 5773W        W 9837   2.910   4.797   0.872
 5774W        W 9838   8.094   8.530   1.109
 5775W        W 9839   8.858   7.408  10.247
 5776W        W 9840   0.964  10.203  10.561
 5777W        W 9841   7.357   4.115   1.025
 5778W        W 9842   1.150   6.525   0.003
 5779W        W 9843   2.482   9.605  10.758
 5780W        W 9844   7.104   9.946  10.240
 5781W        W 9845   3.104   7.924   9.575
 5782W        W 9846   0.416   5.220   9.383
 5783W        W 9847   9.122   7.932   3.313
 5784W        W 9848   0.305   8.604  11.912
 5785W        W 9849   7.577   5.535   3.593
 5786W        W 9850   0.529   8.554  10.601
 5787W        W 9851   8.377   9.451   1.949
 5788W        W 9852   8.934   6.615  11.489
 5789W        W 9853   0.872   2.168   9.028
 5790W        W 9854   7.450   6.487   2.013
 5791W        W 9855   4.535   4.137   1.305
 5792W        W 9856   0.448   4.559  10.529
 5793W        W 9857   3.691   0.780   2.768
 5794W        W 9858   5.513   3.323  10.832
 5795W        W 9859   2.500   1.730  11.331
 5796W        W 9860   2.388   0.311   1.912
 5797W        W 9861   3.192   5.287   3.229
 5798W        W 9862   4.243  10.206  11.713
 5799W        W 9863   0.447   4.641   3.429
 5800W        W 9864   9.152   6.637  10.579
 5801W        W 9865  10.255   7.216   0.477
 5802W        W 9866   0.723   6.071   9.833
 5803W        W 9867   0.184   8.124   0.078
 5804W        W 9868   2.126   2.095   0.023
 5805W        W 9869   3.667   5.035   4.213
 5806W        W 9870   4.642   5.743   2.435
 5807W        W 9871   7.528   2.648   0.005
 5808W        W 9872   9.005   9.471  10.483
 5809W        W 9873   9.999  10.249  11.072
 5810W        W 9874   3.349   8.385   0.605
 5811W        W 9875   0.959  10.410   0.970
 5812W        W 9876   8.437   1.783  10.392
 5813W        W 9877   3.150   4.803   0.379
 5814W        W 9878   5.656   2.308   2.890
 5815W        W 9879   0.505   1.127  10.508
 5816W        W 9880   3.693   8.172   3.359
 5817W        W 9881   9.355   9.424   0.067
 5818W        W 9882   1.662   3.795  10.280
 5819W        W 9883   6.221   7.690  11.132
 5820W        W 9884   2.600  10.380   1.368
 5821W        W 9885   9.101   9.904   0.952
 5822W        W 9886   0.666   8.230  11.958
 5823W        W 9887   9.981   4.615  11.778
 5824W        W 9888   1.475   3.467   2.526
 5825W        W 9889   3.796   9.330   2.675
 5826W        W 9890   3.067   9.599   9.894
 5827W        W 9891   0.404   3.900   9.613
 5828W        W 9892   1.279   3.669   9.068
 5829W        W 9893   0.861   8.600   1.418
 5830W        W 9894   4.050   7.500   8.960
 5831W        W 9895   3.336   0.466   0.157
 5832W        W 9896   9.444   9.998   1.764
 5833W        W 9897   2.325   5.975   0.365
 5834W        W 9898   3.821   0.421  11.951
 5835W        W 9899   1.085   9.935   3.499
 5836W        W 9900   9.506   3.451  11.014
 5837W        W 9901   2.119   4.350   2.777
 5838W        W 9902   5.015   7.129   8.626
 5839W        W 9903   4.244   1.805   9.820
 5840W        W 9904   0.501  10.293   0.787
 5841W        W 9905   2.672   5.953  10.786
 5842W        W 9906   0.775   0.320   9.977
 5843W        W 9907   6.563   1.657  11.818
 5844W        W 9908   4.559   5.069   3.062
 5845W        W 9909   3.930   5.038   3.740
 5846W        W 9910   1.946   4.703   1.997
 5847W        W 9911   1.856   7.034   8.888
 5848W        W 9912   8.282   2.332   9.735
 5849W        W 9913   4.652   5.008  11.756
 5850W        W 9914   5.073   4.974  10.110
 5851W        W 9915   0.209   7.051   1.908
 5852W        W 9916  10.299   0.072   2.087
 5853W        W 9917   6.786   7.020   9.998
 5854W        W 9918   1.061   3.988  10.402
 5855W        W 9919   6.922   4.543   1.953
 5856W        W 9920   5.969   6.451   2.715
 5857W        W 9921   1.973   9.756   9.432
 5858W        W 9922   3.058  10.005  11.964
 5859W        W 9923   2.576   6.601  11.566
 5860W        W 9924   4.725   0.735  11.621
 5861W        W 9925   7.148   1.711   9.972
 5862W        W 9926   2.609  10.271   1.872
 5863W        W 9927  10.040   9.633   2.916
 5864W        W 9928   2.147   2.328   2.298
 5865W        W 9929   1.306   3.113  11.349
 5866W        W 9930   3.760   9.343   9.477
 5867W        W 9931   0.520  10.490  11.869
 5868W        W 9932   0.971   3.363  11.633
 5869W        W 9933  10.280   7.925   9.761
 5870W        W 9934   6.111   6.647   9.476
 5871W        W 9935   0.470   5.739  10.175
 5872W        W 9936   6.707   5.028   4.057
 5873W        W 9937   7.837   3.106   0.194
 5874W        W 9938   3.777   7.128   0.350
 5875W        W 9939   6.479   4.094  10.203
 5876W        W 9940   7.799   8.535   3.477
 5877W        W 9941   6.625   2.592  10.052
 5878W        W 9942   5.990   5.701   1.235
 5879W        W 9943   4.131   4.265   1.809
 5880W        W 9944  10.456  10.402  10.385
 5881W        W 9945   5.542   9.594  11.944
 5882W        W 9946   5.507   0.228   3.198
 5883W        W 9947   6.442   4.036  11.373
 5884W        W 9948   9.458   1.290   2.264
 5885W        W 9949   8.320   5.746  10.874
 5886W        W 9950   5.741   2.127   3.388
 5887W        W 9951   3.106   9.376   1.840
 5888W        W 9952   5.037   5.025   2.874
 5889W        W 9953   2.527   2.763   9.430
 5890W        W 9954   0.331   3.026   9.829
 5891W        W 9955   4.107   3.883  11.295
 5892W        W 9956   1.286   8.999   2.516
 5893W        W 9957   1.981   0.498   3.532
 5894W        W 9958   7.858   8.367   2.992
 5895W        W 9959   6.498   7.293   1.770
 5896W        W 9960   7.263   0.832   9.979
 5897W        W 9961   1.227   8.147   3.537
 5898W        W 9962   6.610   5.699   3.844
 5899W        W 9963   2.320   5.190  10.200
 5900W        W 9964   4.960   3.396   8.089
 5901W        W 9965   1.138   4.321   1.017
 5902W        W 9966   1.598   4.955   9.913
 5903W        W 9967   8.689   1.538   3.484
 5904W        W 9968   3.505   3.127   1.899
 5905W        W 9969   2.187   5.236   3.548
 5906W        W 9970   5.575   2.621   3.336
 5907W        W 9971   7.243   6.221   0.466
 5908W        W 9972   5.228   1.343  11.673
 5909W        W 9973   9.124   7.053   0.670
 5910W        W 9974   2.291   2.808   9.910
 5911W        W 9975  10.041   4.023  10.512
 5912W        W 9976  10.076   1.324  10.201
 5913W        W 9977   7.737   9.486   2.624
 5914W        W 9978   0.836   1.611  10.293
 5915W        W 9979   3.771   8.465  11.024
 5916W        W 9980   3.087   0.024  11.997
 5917W        W 9981   1.987   9.354   1.005
 5918W        W 9982   5.366   6.928   3.136
 5919W        W 9983   9.711  10.417   0.446
 5920W        W 9984   4.305   2.438  10.312
 5921W        W 9985   7.705   8.025   0.289
 5922W        W 9986   4.703   1.391   1.510
 5923W        W 9987   6.576   9.701  11.991
 5924W        W 9988   3.284   5.769   2.306
 5925W        W 9989   6.024   4.303   9.973
 5926W        W 9990   5.002   1.292   9.200
 5927W        W 9991   6.971   9.492  10.533
 5928W        W 9992   0.601   6.624   0.510
 5929W        W 9993   8.902  10.376   9.053
 5930W        W 9994   9.128   7.019   9.855
 5931W        W 9995   9.352   5.145   0.753
 5932W        W 9996   9.889   7.546   9.860
 5933W        W 9997   9.647   0.393   2.373
 5934W        W 9998   2.324   9.766   1.044
 5935W        W 9999   8.182   3.134   2.010
 5936W        W10000   3.332   1.274   2.272
 5937W        W10001   6.029   1.798   2.955
 5938W        W10002   6.051   7.380  10.342
 5939W        W10003   2.430   9.477   2.698
 5940W        W10004   7.237   1.214   9.634
 5941W        W10005   2.696   1.968  10.005
 5942W        W10006   8.637   9.525  10.832
 5943W        W10007   9.315   7.033   2.025
 5944W        W10008   5.718   6.077   2.477
 5945W        W10009   3.926   1.364  11.391
 5946W        W10010   3.246   4.320   1.288
 5947W        W10011   4.542   4.061   9.849
 5948W        W10012   5.209   5.621   3.136
 5949W        W10013   7.906   3.523   2.616
 5950W        W10014   2.790   3.362  10.745
 5951W        W10015   4.798   9.939   8.884
 5952W        W10016   1.886  10.303   8.723
 5953W        W10017   7.401   5.001   9.962
 5954W        W10018   1.913   2.340   0.471
 5955W        W10019   1.085   5.555   1.107
 5956W        W10020  10.281   8.028   1.384
 5957W        W10021   0.833   8.100  11.466
 5958W        W10022   0.993   0.142   8.597
 5959W        W10023   5.432   7.567   4.227
 5960W        W10024   0.020   5.839   2.453
 5961W        W10025   5.426   0.351   9.386
 5962W        W10026  10.454   7.009   9.251
 5963W        W10027   4.612   7.390  11.611
 5964W        W10028   1.322   2.345   9.203
 5965W        W10029   6.976   7.684  11.554
 5966W        W10030   5.284   2.156  10.085
 5967W        W10031   5.483   3.994  11.675
 5968W        W10032   3.312   5.549   3.658
 5969W        W10033   1.786   7.590   3.132
 5970W        W10034   9.014   1.520   2.246
 5971W        W10035   4.378   4.522   9.509
 5972W        W10036   6.588   2.114   0.046
 5973W        W10037   4.650  10.477  11.587
 5974W        W10038   3.186   7.059   9.982
 5975W        W10039   4.651   4.407   8.424
 5976W        W10040   3.239   9.915   2.720
 5977W        W10041   3.387   3.465   3.384
 5978W        W10042   5.764   5.579   8.582
 5979W        W10043   6.057  10.066  11.071
 5980W        W10044   2.550   9.421   1.811
 5981W        W10045   2.944   6.085   3.127
 5982W        W10046  10.026   9.723   0.798
 5983W        W10047   9.810   1.642   2.944
 5984W        W10048   5.568   4.380   8.497
 5985W        W10049   2.541   9.161  10.500
 5986W        W10050   1.265  10.345   0.533
 5987W        W10051   9.189   0.863   2.359
 5988W        W10052   5.093   8.177   0.448
 5989W        W10053  10.215   8.881   9.174
 5990W        W10054   9.377   1.363   2.750
 5991W        W10055  10.036   1.741   9.045
 5992W        W10056   2.521   8.236   0.828
 5993W        W10057   8.466   1.072  10.516
 5994W        W10058   3.724   7.097   1.021
 5995W        W10059   6.628   6.605  10.268
 5996W        W10060   3.042   2.688   9.352
 5997W        W10061   8.892   6.140   3.234
 5998W        W10062   8.742   3.878   3.720
 5999W        W10063   9.125  10.256  11.043
 6000W        W10064   9.819   8.872   3.250
 6001W        W10065   5.705   4.753   9.007
 6002W        W10066   0.292   2.240   1.261
 6003W        W10067   2.662   3.852  10.755
 6004W        W10068  10.253   2.659   1.498
 6005W        W10069   3.350   8.437   2.624
 6006W        W10070   5.486   2.272   8.804
 6007W        W10071   3.719   4.131   3.506
 6008W        W10072   5.623   4.899   8.513
 6009W        W10073   3.385   7.502   9.731
 6010W        W10074   4.674   8.125   1.436
 6011W        W10075   8.985   1.699   2.727
 6012W        W10076   9.508   9.935   1.262
 6013W        W10077   8.673   2.720   9.081
 6014W        W10078   2.625   3.065  10.337
 6015W        W10079   2.281   3.839  10.308
 6016W        W10080   0.651   7.601  10.540
 6017W        W10081   6.705   1.668  11.295
 6018W        W10082   8.559   8.843   0.021
 6019W        W10083   2.264   9.858   1.907
 6020W        W10084   6.347   0.448   9.001
 6021W        W10085   7.338   5.758   0.217
 6022W        W10086   9.858   9.220   8.913
 6023W        W10087   6.724   7.847   3.348
 6024W        W10088   1.843   6.537   1.118
 6025W        W10089   8.076   9.455   1.087
 6026W        W10090   7.398   5.615   0.691
 6027W        W10091   0.284   4.746   9.554
 6028W        W10092   1.643   1.991   0.185
 6029W        W10093   2.221  10.296  11.944
 6030W        W10094   5.703   1.593   0.278
 6031W        W10095   0.787   1.248   9.346
 6032W        W10096   2.642   5.500   9.522
 6033W        W10097   2.775   4.265   3.300
 6034W        W10098   8.919  10.447   2.722
 6035W        W10099   1.795   3.734   8.915
 6036W        W10100   7.894  10.357   9.330
 6037W        W10101   5.222   1.893   1.686
 6038W        W10102   6.603   3.068  11.724
 6039W        W10103   6.383   3.287  10.704
 6040W        W10104   8.125   5.710  11.777
 6041W        W10105   8.946   5.300  11.959
 6042W        W10106   1.887   1.252   8.797
 6043W        W10107   8.796   0.174   1.246
 6044W        W10108   3.327   8.156   1.106
 6045W        W10109   0.685   9.828   8.926
 6046W        W10110   4.219   7.554   3.044
 6047W        W10111   5.504   4.999   9.419
 6048W        W10112   2.413   9.964   0.588
 6049W        W10113   1.780   5.720   2.840
 6050W        W10114   6.515  10.467   1.134
 6051W        W10115   5.072   0.791  10.457
 6052W        W10116   6.041   2.246  10.771
 6053W        W10117   8.192   9.664   2.405
 6054W        W10118   7.286   7.948   1.793
 6055W        W10119   4.196   1.485   3.220
 6056W        W10120   4.092   2.622   2.203
 6057W        W10121   0.256   9.612  11.012
 6058W        W10122   6.934   1.342   1.677
 6059W        W10123   5.158   9.295   1.827
 6060W        W10124   8.190   2.454   0.837
 6061W        W10125   3.793   0.885  10.686
 6062W        W10126   6.000   7.219   2.491
 6063W        W10127   3.366   5.797   0.453
 6064W        W10128   6.930   8.858   9.434
 6065W        W10129   7.636   7.655  10.600
 6066W        W10130   3.486   5.499   0.861
 6067W        W10131   2.031   5.351  11.729
 6068W        W10132   8.545   0.713   0.061
 6069W        W10133   0.384   2.382   0.774
 6070W        W10134   9.779   7.884   9.022
 6071W        W10135   1.830   2.685   0.863
 6072W        W10136   7.887  10.339  10.983
 6073W        W10137   9.143   0.329  10.470
 6074W        W10138   5.822   8.463   8.423
 6075W        W10139   5.107   5.160  11.976
 6076W        W10140   4.675   7.373   1.778
 6077W        W10141   4.310   4.685   2.789
 6078W        W10142   1.000   5.612   2.382
 6079W        W10143   6.132   0.472  11.650
 6080W        W10144   7.918   5.220  11.845
 6081W        W10145   7.144   1.700   9.454
 6082W        W10146   5.699   7.543   9.568
 6083W        W10147   9.304   8.764   9.385
 6084W        W10148   7.569   4.986   1.100
 6085W        W10149   8.821   0.711  10.313
 6086W        W10150   1.740   1.786   0.654
 6087W        W10151   1.680   0.802   1.577
 6088W        W10152   1.210   5.189   3.507
 6089W        W10153  10.194   2.746   2.357
 6090W        W10154   0.022   8.944   1.672
 6091W        W10155   5.691   1.689  11.251
 6092W        W10156   8.076   1.294   0.358
 6093W        W10157   2.186  10.461   9.580
 6094W        W10158   2.645   6.368  11.092
 6095W        W10159   4.211   9.451   3.225
 6096W        W10160   8.840   5.085   0.820
 6097W        W10161   9.518   9.051   0.848
 6098W        W10162   9.296   9.845  10.035
 6099W        W10163   2.873   3.154   9.489
 6100W        W10164   3.113   6.216  10.050
 6101W        W10165   6.641   3.219   2.223
 6102W        W10166   7.039   6.957   3.192
 6103W        W10167   8.681   2.388  11.107
 6104W        W10168   3.142   4.393  11.426
 6105W        W10169   4.179   0.044   9.527
 6106W        W10170   6.660   7.587   9.568
 6107W        W10171   2.460   1.636  10.282
 6108W        W10172   0.246   5.715  11.545
 6109W        W10173   8.417   7.759  11.458
 6110W        W10174   0.206   1.780  11.163
 6111W        W10175   4.547   9.506   9.031
 6112W        W10176   3.548   2.815   9.225
 6113W        W10177   0.068   1.338  10.332
 6114W        W10178   7.612   0.637   0.816
 6115W        W10179   2.185   8.149  10.194
 6116W        W10180   8.982   1.218  10.252
 6117W        W10181   3.839   8.026  11.352
 6118W        W10182   8.989   5.512   0.488
 6119W        W10183   6.466   4.432   8.405
 6120W        W10184   7.939   2.826  11.763
 6121W        W10185   6.395   0.977   0.402
 6122W        W10186   7.105   5.481   3.355
 6123W        W10187   3.461   5.031   0.017
 6124W        W10188   4.651   0.230   3.431
 6125W        W10189   1.592  10.116   3.684
 6126W        W10190   3.615   3.149   8.797
 6127W        W10191   2.857   4.642   2.538
 6128W        W10192   7.109   4.072   2.071
 6129W        W10193   9.854   7.467   3.128
 6130W        W10194   2.676   5.018   0.450
 6131W        W10195   8.884   7.695   9.217
 6132W        W10196   6.860   1.200   9.995
 6133W        W10197   5.878   8.135   0.440
 6134W        W10198   7.134   4.809   3.860
 6135W        W10199   4.560  10.496   1.007
 6136W        W10200   8.547   4.042  11.370
 6137W        W10201   3.168   5.699  11.239
 6138W        W10202   5.621   2.656   1.898
 6139W        W10203   6.404   8.819   9.562
 6140W        W10204   2.583   2.027   2.196
 6141W        W10205   3.373   9.806   1.832
 6142W        W10206   0.556   7.437   8.471
 6143W        W10207   5.627   8.314   1.179
 6144W        W10208   2.477   4.809   9.868
 6145W        W10209   0.244   4.355  11.964
 6146W        W10210   3.706   0.871   1.207
 6147W        W10211   0.394   3.825   9.112
 6148W        W10212   5.920   9.533   2.475
 6149W        W10213   1.708   3.833   1.791
 6150W        W10214   4.784   6.267   2.430
 6151W        W10215   1.733   8.089   3.332
 6152W        W10216   1.757   3.891   9.412
 6153W        W10217   4.715   0.766  11.090
 6154W        W10218   9.908   8.495  11.500
 6155W        W10219   0.378   6.182   2.484
 6156W        W10220   2.346   1.721   9.727
 6157W        W10221   8.036   5.095   2.111
 6158W        W10222   5.496  10.327  10.198
 6159W        W10223   3.340   2.349   2.618
 6160W        W10224   1.749   3.535   3.397
 6161W        W10225   5.132   9.553   0.270
 6162W        W10226   5.991   1.291   2.792
 6163W        W10227   8.976   2.027   2.331
 6164W        W10228   9.147   5.059   1.808
 6165W        W10229   0.710   7.198   1.816
 6166W        W10230   2.270   4.167   0.874
 6167W        W10231   7.135   1.240   0.713
 6168W        W10232   7.596   2.852   0.956
 6169W        W10233   6.781   6.989   2.733
 6170W        W10234   9.478   8.371   2.486
 6171W        W10235   1.205   2.800   9.457
 6172W        W10236   2.207   9.315  11.883
 6173W        W10237   7.489   5.643  10.863
 6174W        W10238   0.387   0.859   0.935
 6175W        W10239   5.620   4.289   2.598
 6176W        W10240   1.424   3.388   0.305
 6177W        W10241   8.906   9.470   1.786
 6178W        W10242   4.702   5.763  11.366
 6179W        W10243   7.236   2.538   0.734
 6180W        W10244   3.696   7.985   1.427
 6181W        W10245   7.730  10.229   0.002
 6182W        W10246   0.381   5.964  11.134
 6183W        W10247   0.801   0.433  11.825
 6184W        W10248   3.112   3.567   0.005
 6185W        W10249   0.380   8.592   3.039
 6186W        W10250   4.249   9.193   9.472
 6187W        W10251   2.378   3.074   0.346
 6188W        W10252   3.365   2.796   3.560
 6189W        W10253   5.230   3.825   8.963
 6190W        W10254   2.830   8.866   1.171
 6191W        W10255  10.329   5.630   1.669
 6192W        W10256   0.940   2.096  10.442
 6193W        W10257   5.545   2.629   0.290
 6194W        W10258   6.463   4.308   8.908
 6195W        W10259   3.271   9.282  11.466
 6196W        W10260   3.753   4.686   1.001
 6197W        W10261   0.762   1.432   1.972
 6198W        W10262   9.522   1.599  11.733
 6199W        W10263   8.099   8.276   0.610
 6200W        W10264   1.839   5.082  10.327
 6201W        W10265   9.981   6.412   1.859
 6202W        W10266   4.931   6.435   0.344
 6203W        W10267   3.383   9.911  10.683
 6204W        W10268   6.556   2.460   2.866
 6205W        W10269   5.260   3.276   8.516
 6206W        W10270   8.933   3.153   8.913
 6207W        W10271   3.198   1.367  10.122
 6208W        W10272   9.776   6.538   8.890
 6209W        W10273   9.938   7.028   8.488
 6210W        W10274   4.610   1.554   2.860
 6211W        W10275   4.609   2.637   2.336
 6212W        W10276   3.976   4.240  11.652
 6213W        W10277   4.413   8.716   9.546
 6214W        W10278   6.247   6.917   0.010
 6215W        W10279   6.114   4.938   0.927
 6216W        W10280   2.787  10.111   2.332
 6217W        W10281   2.127  10.013   9.861
 6218W        W10282   4.695   0.993  10.196
 6219W        W10283   6.555   1.927   1.385
 6220W        W10284   6.053  10.392  10.274
 6221W        W10285   9.360   9.580   2.069
 6222W        W10286   8.637   5.796   8.535
 6223W        W10287   5.482   1.230   0.599
 6224W        W10288   0.626   9.847   9.825
 6225W        W10289   6.846   0.905   1.404
 6226W        W10290   5.222   3.200  11.731
 6227W        W10291   6.050   2.659   9.049
 6228W        W10292   0.434   9.031   3.597
 6229W        W10293   8.114   3.573   8.921
 6230W        W10294   0.695   1.794  11.996
 6231W        W10295   0.955   6.055   9.306
 6232W        W10296   8.083   7.592  10.883
 6233W        W10297   7.934   9.490   1.612
 6234W        W10298   6.956   3.761   9.703
 6235W        W10299   6.061   2.077   1.160
 6236W        W10300   9.302   7.501  10.615
 6237W        W10301   6.611   2.972   2.870
 6238W        W10302   5.633   9.353   1.704
 6239W        W10303   7.071   8.610  11.973
 6240W        W10304   2.840   2.368  10.893
 6241W        W10305   8.564   9.419   8.969
 6242W        W10306   1.286   6.039   0.984
 6243W        W10307   5.261   1.842  10.936
 6244W        W10308   9.074   7.002  11.186
 6245W        W10309   0.004   1.694   1.082
 6246W        W10310   6.562   0.743  10.012
 6247W        W10311   5.932   3.791   8.215
 6248W        W10312   9.248   2.205  10.007
 6249W        W10313   4.076   6.630   1.480
 6250W        W10314   5.191   8.994   9.943
 6251W        W10315   6.103   2.777   1.692
 6252W        W10316   5.224   4.694   9.724
 6253W        W10317   1.687   3.913   3.856
 6254W        W10318   7.356   5.180  11.011
 6255W        W10319   4.521   3.610   9.609
 6256W        W10320   1.930   1.440   2.665
 6257W        W10321   3.066   2.268   8.967
 6258W        W10322   9.472   8.303   0.270
 6259W        W10323   0.834   1.533   8.911
 6260W        W10324   3.833   7.706   1.839
 6261W        W10325   5.596   9.355  10.952
 6262W        W10326   0.690   2.978   1.514
 6263W        W10327   6.873   5.928   1.773
 6264W        W10328   3.075   4.044  11.068
 6265W        W10329   3.075   8.921   9.115
 6266W        W10330   9.870   2.227   0.680
 6267W        W10331   7.944   6.182   1.790
 6268W        W10332  10.233   0.753   0.304
 6269W        W10333   7.543   3.571   8.934
 6270W        W10334   5.902   0.536   9.621
 6271W        W10335   7.902   4.532   2.035
 6272W        W10336   6.918   0.290  10.560
 6273W        W10337   2.164   0.498  11.245
 6274W        W10338   3.304   0.734   2.417
 6275W        W10339   5.811   0.052   9.822
 6276W        W10340  10.116   1.300   3.412
 6277W        W10341   1.230   4.273  11.798
 6278W        W10342   6.667   6.116   8.795
 6279W        W10343   7.983   0.383   3.320
 6280W        W10344   1.434   0.290   2.044
 6281W        W10345   0.332   3.802   1.729
 6282W        W10346   7.948   9.990  10.624
 6283W        W10347   4.143   2.691   0.183
 6284W        W10348   9.538   5.208   9.079
 6285W        W10349   4.176   3.755   1.843
 6286W        W10350   6.619   3.823   2.484
 6287W        W10351   7.717   3.170   1.776
 6288W        W10352   5.383   0.435   2.737
 6289W        W10353   4.923   9.799   3.562
 6290W        W10354   3.759   2.122   8.568
 6291W        W10355   5.458   5.262   9.909
 6292W        W10356   3.108   4.779  10.595
 6293W        W10357   6.963   4.084  10.362
 6294W        W10358   0.269   1.758   3.092
 6295W        W10359   5.587   0.281  11.966
 6296W        W10360   3.314  10.268   3.444
 6297W        W10361   3.377   7.548   3.662
 6298W        W10362   1.262   1.698   0.375
 6299W        W10363   1.783   8.590   4.098
 6300W        W10364   3.727   1.166   3.083
 6301W        W10365   6.031   8.056  11.522
 6302W        W10366   2.860   3.137   0.166
 6303W        W10367   4.251   5.707   9.645
 6304W        W10368   3.675   8.696   1.832
 6305W        W10369   5.554   9.828   0.444
 6306W        W10370   2.281   4.733  11.752
 6307W        W10371   4.146   0.887   2.573
 6308W        W10372   6.787   3.240   1.737
 6309W        W10373   2.480   7.337  10.181
 6310W        W10374   7.917   0.338  11.049
 6311W        W10375   7.356   3.703   1.382
 6312W        W10376   9.853   5.989  11.440
 6313W        W10377   6.172   7.049   9.159
 6314W        W10378   9.157   0.887   9.905
 6315W        W10379   2.760   5.125  10.488
 6316W        W10380   7.461   2.810   2.976
 6317W        W10381   2.265   5.764   1.357
 6318W        W10382   1.227   0.486  11.552
 6319W        W10383   9.462   1.088  11.853
 6320W        W10384   6.086   8.805   9.956
 6321W        W10385   1.408   3.912   3.438
 6322W        W10386   4.844   8.900  11.810
 6323W        W10387   3.293   5.992   2.780
 6324W        W10388   9.085   2.732   9.993
 6325W        W10389   5.280   3.102   2.570
 6326W        W10390   8.938   4.928   1.314
 6327W        W10391   3.767   3.143   1.449
 6328W        W10392   3.200   7.769   1.459
 6329W        W10393  10.122   3.899   9.771
 6330W        W10394   0.030   0.361   1.696
 6331W        W10395   7.129   3.786  10.752
 6332W        W10396   7.878   3.127   8.774
 6333W        W10397   0.154   7.798   3.069
 6334W        W10398   8.430   5.143  11.857
 6335W        W10399   9.065   5.513   1.013
 6336W        W10400   5.777   1.591   3.392
 6337W        W10401   4.056   1.403  10.115
 6338W        W10402   3.208   8.887   1.963
 6339W        W10403   3.344   0.046   9.864
 6340W        W10404   2.443   6.439  10.234
 6341W        W10405   9.365   5.860   0.277
 6342W        W10406   3.118   6.545   3.469
 6343W        W10407   3.808  10.063   1.869
 6344W        W10408   3.348  10.028   9.819
 6345W        W10409   5.013   0.238   1.875
 6346W        W10410   5.284   8.093  10.328
 6347W        W10411   1.399   9.079   2.025
 6348W        W10412   1.385   2.250  10.134
 6349W        W10413   1.685   2.672   3.457
 6350W        W10414   0.182   3.785   2.738
 6351W        W10415   5.763   6.572  11.168
 6352W        W10416   8.031   9.375  11.364
 6353W        W10417   6.172   1.850  11.046
 6354W        W10418   5.088   8.076  11.348
 6355W        W10419   4.525   1.372   9.914
 6356W        W10420   6.152   7.099   0.477
 6357W        W10421   3.070   1.852   0.973
 6358W        W10422   6.982   4.703   1.487
 6359W        W10423   1.036  10.145   8.668
 6360W        W10424   6.330   8.262   3.280
 6361W        W10425   2.471   4.265  10.525
 6362W        W10426   2.120   0.768   9.946
 6363W        W10427   7.201   9.806   0.701
 6364W        W10428   9.593   1.659   1.941
 6365W        W10429   1.801   9.304   9.184
 6366W        W10430   5.577   8.689  11.812
 6367W        W10431   9.772   4.595  11.300
 6368W        W10432   7.106   5.930   2.611
 6369W        W10433   1.824   5.669  11.003
 6370W        W10434   9.341   4.946  11.938
 6371W        W10435   3.089   1.355   9.085
 6372W        W10436   7.871  10.245  11.504
 6373W        W10437   1.565   0.215  11.873
 6374W        W10438   6.350   5.567   2.478
 6375W        W10439   8.548   0.998  11.049
 6376W        W10440   0.635   4.584   1.857
 6377W        W10441   7.517   7.122   0.679
 6378W        W10442   6.625   4.737   3.097
 6379W        W10443   8.509  10.348   3.070
 6380W        W10444   8.087   1.785   2.744
 6381W        W10445   7.069   0.483   0.625
 6382W        W10446   2.220   3.223   2.326
 6383W        W10447   3.198   4.703   9.553
 6384W        W10448   9.304   9.873  10.538
 6385W        W10449   5.339   3.071   2.070
 6386W        W10450   4.160   7.959   3.372
 6387W        W10451   2.364   4.064   2.370
 6388W        W10452   0.729   4.226   0.706
 6389W        W10453   9.420   9.693   9.093
 6390W        W10454   5.757   1.152  11.987
 6391W        W10455   8.877   2.343   1.950
 6392W        W10456   6.953   0.410   8.944
 6393W        W10457   8.942   5.688   1.928
 6394W        W10458   1.715   3.778  10.773
 6395W        W10459   9.712   3.557   3.502
 6396W        W10460   8.452   8.480  10.870
 6397W        W10461   8.090   0.437   0.615
 6398W        W10462   0.772   3.148  10.057
 6399W        W10463   6.226   9.602   0.969
 6400W        W10464   5.314   9.944   0.951
 6401W        W10465  10.072   3.215   2.064
 6402W        W10466  10.394   9.270  10.002
 6403W        W10467   6.026   7.160  11.311
 6404W        W10468   2.346   1.458   1.252
 6405W        W10469   6.715   3.224  10.273
 6406W        W10470   3.675   9.105   3.174
 6407W        W10471   2.870   6.155   8.812
 6408W        W10472   3.289   4.765   2.236
 6409W        W10473   3.578  10.473   0.696
 6410W        W10474   8.964   7.551   8.674
 6411W        W10475   9.713   8.758   9.061
 6412W        W10476  10.422   2.144   2.979
 6413W        W10477   2.374   2.109  10.509
 6414W        W10478   2.054   3.255   9.748
 6415W        W10479   6.902   1.804   1.910
 6416W        W10480   9.942   1.308   2.058
 6417W        W10481   9.817   9.191   2.860
 6418W        W10482   2.967   4.300  10.641
 6419W        W10483   5.604   4.494   9.434
 6420W        W10484   5.483   3.296   3.487
 6421W        W10485   0.448   7.262  11.546
 6422W        W10486   2.163   3.760  11.644
 6423W        W10487  10.021   3.462   9.000
 6424W        W10488   2.734   3.133   8.991
 6425W        W10489   8.616   3.851  10.613
 6426W        W10490   3.771   3.120   3.475
 6427W        W10491   7.294   7.165   2.777
 6428W        W10492   1.846   5.019   1.157
 6429W        W10493   6.858   9.871   9.405
 6430W        W10494   3.603   5.033   2.627
 6431W        W10495   0.392   7.857   0.451
 6432W        W10496   8.953   9.348   1.305
 6433W        W10497   5.774   1.751   9.479
 6434W        W10498   2.177   6.499   0.294
 6435W        W10499   5.330   2.877  10.954
 6436W        W10500   8.977   9.505   9.275
 6437W        W10501   7.220   5.216   8.483
 6438W        W10502   5.164   6.649  10.477
 6439W        W10503   9.485   4.064   0.266
 6440W        W10504   8.341   1.839   0.777
 6441W        W10505   9.118   6.129   3.689
 6442W        W10506   8.889   8.410   3.190
 6443W        W10507   1.725   0.558   0.243
 6444W        W10508   1.310  10.483  11.457
 6445W        W10509   9.987   8.545   2.439
 6446W        W10510   8.439   5.973   1.771
 6447W        W10511   1.235   7.204   3.050
 6448W        W10512   5.622   8.271   9.534
 6449W        W10513   4.307   4.774   8.615
 6450W        W10514   9.966   7.919  11.108
 6451W        W10515   7.368   5.114   3.063
 6452W        W10516   8.047   2.283   1.960
 6453W        W10517   6.452   9.838   0.474
 6454W        W10518   4.982   3.682   9.386
 6455W        W10519   6.192   6.341  11.360
 6456W        W10520   1.898   0.426   3.005
 6457W        W10521   2.197   4.683   9.440
 6458W        W10522   6.523   9.625   9.729
 6459W        W10523   4.941   8.043   2.283
 6460W        W10524   4.440   2.614   1.839
 6461W        W10525  10.251   9.649  10.977
 6462W        W10526   6.254   5.120   2.249
 6463W        W10527   5.463   3.333   1.487
 6464W        W10528   0.720   7.831   9.038
 6465W        W10529   6.253  10.444   3.182
 6466W        W10530   6.332   2.842   0.791
 6467W        W10531   5.457   1.132  10.511
 6468W        W10532   4.682   2.744  10.105
 6469W        W10533   1.800   6.130   2.244
 6470W        W10534   6.264   5.054   3.293
 6471W        W10535   1.639   6.532   8.808
 6472W        W10536   6.064   6.115   1.796
 6473W        W10537   5.708   4.315   1.396
 6474W        W10538   3.831   7.753   0.353
 6475W        W10539   0.437   6.397   3.463
 6476W        W10540   0.893   5.003  10.249
 6477W        W10541   0.159  10.220   2.060
 6478W        W10542   5.273   2.696  11.856
 6479W        W10543   9.574   3.124   0.260
 6480W        W10544  10.179   6.450   8.572
 6481W        W10545   5.245  10.440   2.819
 6482W        W10546   7.435   9.105   9.508
 6483W        W10547   4.471   6.479   0.141
 6484W        W10548   8.607   9.545   2.745
 6485W        W10549   2.376   4.244   1.395
 6486W        W10550  10.365   2.186   0.937
 6487W        W10551   7.998   7.928  10.002
 6488W        W10552   1.456   9.599  11.494
 6489W        W10553   5.619   7.209   3.504
 6490W        W10554   2.865   6.904   8.611
 6491W        W10555   3.027   3.499   0.526
 6492W        W10556   0.338   9.897   3.235
 6493W        W10557   5.495   9.382   2.240
 6494W        W10558   7.704   3.274   1.255
 6495W        W10559   6.257   3.992   4.154
 6496W        W10560   8.095   0.719   1.437
 6497W        W10561   0.424   4.112   1.325
 6498W        W10562   3.552   0.532  11.043
 6499W        W10563   4.797   9.846   1.746
 6500W        W10564   5.023   6.560   3.369
 6501W        W10565   1.848   1.392   1.005
 6502W        W10566   6.187   5.214   1.762
 6503W        W10567  10.040   5.792   2.329
 6504W        W10568   8.618   1.654  11.850
 6505W        W10569   6.042   8.540   1.894
 6506W        W10570   7.376   9.219   2.877
 6507W        W10571   8.853   8.399   1.958
 6508W        W10572   7.372   1.210   2.462
 6509W        W10573   9.576   9.495  11.561
 6510W        W10574   0.960   6.870   0.822
 6511W        W10575   7.009   0.797  11.381
 6512W        W10576   1.169   1.315   2.302
 6513W        W10577   1.606   9.116   3.391
 6514W        W10578   4.031   5.882  10.065
 6515W        W10579   2.647   2.486  11.772
 6516W        W10580   1.591   7.468  10.400
 6517W        W10581   1.171   1.005   1.358
 6518W        W10582   6.131   4.463   1.123
 6519W        W10583   3.335   2.568   1.862
 6520W        W10584   5.825   2.698  10.947
 6521W        W10585   8.313   7.305   1.146
 6522W        W10586   6.236   7.788   0.403
 6523W        W10587   0.552   4.072  10.449
 6524W        W10588   6.534   2.739   2.438
 6525W        W10589   2.228   2.838   1.147
 6526W        W10590   0.640  10.294   1.916
 6527W        W10591   6.313   1.329  10.232
 6528W        W10592   8.918   3.993   9.081
 6529W        W10593   8.817   2.801   0.517
 6530W        W10594   3.198   6.725   1.538
 6531W        W10595   5.192   0.886   1.889
 6532W        W10596   8.076   7.749   1.158
 6533W        W10597   8.257  10.477   9.702
 6534W        W10598   1.752   3.048   2.516
 6535W        W10599   1.789   6.131  10.704
 6536W        W10600   9.425   2.394   1.414
 6537W        W10601   4.944   6.394   1.947
 6538W        W10602   9.403   5.418   2.686
 6539W        W10603   4.810   8.644   9.878
 6540W        W10604   2.149   6.525  11.241
 6541W        W10605   4.587   3.370   2.606
 6542W        W10606   5.707   0.234  10.944
 6543W        W10607   1.415   8.534   2.764
 6544W        W10608   2.719   6.015  10.279
 6545W        W10609   2.790   2.210   0.240
 6546W        W10610   3.767   5.438   3.449
 6547W        W10611   4.572   6.057   2.021
 6548W        W10612   6.443   2.312   9.111
 6549W        W10613   1.861   2.206   2.741
 6550W        W10614   8.905   1.323   3.059
 6551W        W10615   7.188   1.068  10.808
 6552W        W10616   2.352   2.332   1.844
 6553W        W10617   0.929   1.116  10.225
 6554W        W10618   6.590   0.798   2.734
 6555W        W10619   0.407   9.853   2.746
 6556W        W10620   4.496   2.587   9.101
 6557W        W10621   2.172   1.410   9.309
 6558W        W10622   3.690   5.352   0.382
 6559W        W10623   8.548   6.360   0.254
 6560W        W10624   7.235  10.308  11.861
 6561W        W10625   3.601   8.470  10.539
 6562W        W10626   4.688   8.923   2.618
 6563W        W10627   7.887   2.656   2.751
 6564W        W10628   3.200   0.916   0.949
 6565W        W10629   1.577   3.100   0.733
 6566W        W10630   5.438   8.024   2.302
 6567W        W10631   9.345   3.659   2.477
 6568W        W10632   4.250   5.679  11.747
 6569W        W10633   1.158   2.886   8.506
 6570W        W10634   9.053   6.405  11.019
 6571W        W10635   3.779   6.962  10.481
 6572W        W10636   8.803   3.749   1.938
 6573W        W10637   9.940   7.828   3.563
 6574W        W10638   6.592   0.520   0.269
 6575W        W10639   3.289   6.595   9.777
 6576W        W10640  10.079   9.296  11.278
 6577W        W10641   5.782   4.327   3.097
 6578W        W10642   5.611   3.214   0.452
 6579W        W10643   0.755   9.010   3.194
 6580W        W10644   7.798   7.168  10.135
 6581W        W10645   8.452   6.049   9.040
 6582W        W10646   1.513   0.070   2.880
 6583W        W10647   0.432   0.328   0.774
 6584W        W10648   3.632   5.489  10.349
 6585W        W10649   8.826  10.322   0.873
 6586W        W10650   8.594   8.526   8.927
 6587W        W10651   5.853   4.380   2.140
 6588W        W10652   0.163   6.496   8.746
 6589W        W10653   6.525   6.778   8.875
 6590W        W10654   0.111   8.599  10.900
 6591W        W10655   7.834   3.670   9.341
 6592W        W10656   3.002   7.092   1.868
 6593W        W10657   7.829   7.678   2.156
 6594W        W10658   5.176  10.234   1.854
 6595W        W10659   5.735   4.036   3.974
 6596W        W10660   5.489   7.619  11.819
 6597W        W10661   6.163   2.802  11.942
 6598W        W10662   4.941   8.796   8.478
 6599W        W10663   5.521   0.750   0.204
 6600W        W10664   8.352   6.002   0.887
 6601W        W10665   5.166   5.993   2.766
 6602W        W10666   8.586   4.188   1.738
 6603W        W10667   6.209   3.719  10.411
 6604W        W10668   2.195   2.301   0.958
 6605W        W10669   9.423   5.360   0.262
 6606W        W10670   7.481   3.080   9.737
 6607W        W10671   5.799   4.796   3.318
 6608W        W10672   1.979   6.123  11.729
 6609W        W10673   4.139   4.892   9.785
 6610W        W10674   5.903   1.380   9.823
 6611W        W10675   1.858   6.956   1.452
 6612W        W10676   5.000   1.673   2.507
 6613W        W10677   3.756   2.239   2.089
 6614W        W10678   6.964   6.299   9.472
 6615W        W10679   3.406   1.900  11.242
 6616W        W10680   1.826   0.859   0.649
 6617W        W10681   3.332   4.494   0.796
 6618W        W10682   9.759   4.191   2.941
 6619W        W10683   4.460  10.396   8.635
 6620W        W10684   0.269   6.213  10.266
 6621W        W10685   3.305   1.119   2.783
 6622W        W10686   1.917   5.622   8.626
 6623W        W10687   8.588   8.319   8.431
 6624W        W10688   5.100   1.412  10.688
 6625W        W10689   0.755   5.483   1.491
 6626W        W10690   9.228   8.151   2.867
 6627W        W10691   6.519   5.618  11.170
 6628W        W10692  10.372   5.980  11.315
 6629W        W10693   9.470   6.888   0.081
 6630W        W10694   9.680   2.518  11.512
 6631W        W10695   7.590   8.368   8.448
 6632W        W10696   7.951   1.413   9.359
 6633W        W10697   0.807   7.511   1.409
 6634W        W10698   0.894   3.599   0.274
 6635W        W10699   1.608   0.820  11.326
 6636W        W10700  10.264   7.458  11.292
 6637W        W10701   8.428   8.052  11.859
 6638W        W10702   7.072   2.315   3.571
 6639W        W10703   3.111   3.546  11.088
 6640W        W10704   0.335   5.784   1.001
 6641W        W10705   4.259   0.741  10.870
 6642W        W10706   7.974   6.952   0.427
 6643W        W10707   1.401   7.558  11.841
 6644W        W10708   4.955   3.512   9.874
 6645W        W10709   1.897   7.193   2.298
 6646W        W10710   1.272   6.282  11.325
 6647W        W10711   4.207   8.551   1.784
 6648W        W10712   4.969  10.296  10.140
 6649W        W10713   7.982   4.089  10.520
 6650W        W10714   8.921   2.808   9.529
 6651W        W10715   2.411   6.170   9.005
 6652W        W10716   1.025   8.515  10.711
 6653W        W10717   8.991   9.939   1.985
 6654W        W10718   1.248   9.023   3.027
 6655W        W10719   7.268   3.935   9.199
 6656W        W10720   7.165   0.502   0.124
 6657W        W10721   8.704  10.431   9.971
 6658W        W10722   2.751   6.888   2.253
 6659W        W10723   4.744   7.371  11.136
 6660W        W10724   2.211   3.704   0.665
 6661W        W10725   4.766   3.596   1.008
 6662W        W10726   9.315   1.725   3.670
 6663W        W10727   9.880   3.802  10.966
 6664W        W10728   6.438   9.591   3.339
 6665W        W10729   3.319   4.598   2.731
 6666W        W10730   3.287   7.046   0.165
 6667W        W10731   6.725   9.577   0.860
 6668W        W10732   5.642   9.227   3.368
 6669W        W10733   4.256   1.305   0.697
 6670W        W10734   8.823   3.768  11.717
 6671W        W10735  10.032   2.228   0.204
 6672W        W10736   6.110   0.908   8.981
 6673W        W10737   6.375   0.928   3.488
 6674W        W10738   9.154   1.519   1.745
 6675W        W10739   2.296  10.228  11.441
 6676W        W10740   0.679   7.878   9.550
 6677W        W10741   4.330   3.072   2.274
 6678W        W10742   2.459   9.691   9.590
 6679W        W10743   0.782   1.915   1.819
 6680W        W10744   5.566   9.825   2.717
 6681W        W10745   0.014   0.702   2.681
 6682W        W10746   0.381   4.994  10.232
 6683W        W10747   2.897   7.498   9.891
 6684W        W10748   8.671   1.239   1.963
 6685W        W10749   9.809   4.796   3.297
 6686W        W10750  10.146   8.644   2.924
 6687W        W10751   2.664   6.239   9.812
 6688W        W10752   6.641   5.703  10.689
 6689W        W10753   2.162   8.232  11.883
 6690W        W10754   5.276   6.934  10.066
 6691W        W10755   0.221   5.976   2.921
 6692W        W10756   1.025   7.625  11.437
 6693W        W10757   8.127   3.506   0.752
 6694W        W10758  10.451  10.210  11.327
 6695W        W10759   0.554   9.386   2.889
 6696W        W10760   6.463   2.347  10.491
 6697W        W10761   4.211   7.081  11.665
 6698W        W10762   6.396   5.124   2.744
 6699W        W10763   2.228   1.622   0.656
 6700W        W10764   9.000   1.914   9.037
 6701W        W10765   2.153   2.626   3.101
 6702W        W10766   0.374   3.603   1.258
 6703W        W10767   8.872   8.598   9.624
 6704W        W10768   5.993   2.335   0.248
 6705W        W10769   6.326   9.791   1.713
 6706W        W10770   2.562   7.333  10.732
 6707W        W10771   3.241   8.899   0.541
 6708W        W10772   3.316   4.205  10.263
 6709W        W10773   0.050   8.505   9.069
 6710W        W10774   7.412  10.185   0.960
 6711W        W10775   3.159   1.837   9.887
 6712W        W10776   8.116   3.068   2.514
 6713W        W10777   6.024   4.567   8.647
 6714W        W10778   4.597   4.089   1.826
 6715W        W10779   0.183   8.995   8.932
 6716W        W10780   4.110   3.244   2.710
 6717W        W10781   2.661   5.689  11.260
 6718W        W10782   7.083  10.476   0.716
 6719W        W10783   2.273   1.152   0.839
 6720W        W10784   3.831   5.471   2.442
 6721W        W10785   4.028   4.140   9.478
 6722W        W10786   9.774   5.957   1.924
 6723W        W10787   3.227  10.226  11.068
 6724W        W10788   0.045   7.575   0.713
 6725W        W10789   4.113   5.954  10.918
 6726W        W10790   6.994   3.362  11.072
 6727W        W10791   1.267   9.988   2.907
 6728W        W10792   7.395  10.420   9.524
 6729W        W10793   2.330   7.515   3.259
 6730W        W10794  10.241   1.260   8.871
 6731W        W10795   5.180   6.037   1.320
 6732W        W10796   8.420   3.092   3.307
 6733W        W10797   9.894   6.979   3.232
 6734W        W10798   6.992   9.994   3.110
 6735W        W10799   4.282   1.676   1.401
 6736W        W10800   6.559   3.555  11.549
 6737W        W10801   1.341  10.024   0.938
 6738W        W10802   3.672   5.782   8.873
 6739W        W10803   9.977   3.359   0.776
 6740W        W10804   4.478   7.914   2.416
 6741W        W10805   6.515   5.704   1.117
 6742W        W10806   0.892   6.200   0.388
 6743W        W10807   0.868   5.984   1.286
 6744W        W10808  10.329   3.991   0.643
 6745W        W10809   6.554   7.036   2.235
 6746W        W10810   9.517  10.255  10.272
 6747W        W10811   9.561   2.404   2.962
 6748W        W10812   6.395   1.753   1.914
 6749W        W10813   2.176   8.970   0.712
 6750W        W10814   5.065   7.210   0.773
 6751W        W10815   3.280   6.087   1.889
 6752W        W10816   7.567  10.070   0.478
 6753W        W10817   0.380   9.430   0.400
 6754W        W10818   6.976   4.249   8.922
 6755W        W10819   5.685   6.032   1.464
 6756W        W10820   9.186   3.301  11.929
 6757W        W10821   6.587   8.653  10.061
 6758W        W10822   4.657   8.478  10.945
 6759W        W10823   9.998   3.819   3.154
 6760W        W10824   5.112   0.859  11.930
 6761W        W10825   0.236   5.855   9.745
 6762W        W10826   5.544   1.163   1.091
 6763W        W10827   4.212   3.496   3.128
 6764W        W10828   2.253   6.702   3.020
 6765W        W10829   7.666   0.860  10.933
 6766W        W10830   6.858   9.437   2.458
 6767W        W10831  10.249   7.902   9.245
 6768W        W10832   2.664   8.770   2.107
 6769W        W10833   8.978   6.675   0.057
 6770W        W10834   1.618   9.010   1.034
 6771W        W10835   8.004   0.447   0.037
 6772W        W10836   2.305   4.732   1.231
 6773W        W10837   2.589   9.841   1.463
 6774W        W10838   6.700   5.387  10.303
 6775W        W10839   7.566   2.734   8.541
 6776W        W10840   8.854   1.780   0.767
 6777W        W10841   1.233   5.453  10.899
 6778W        W10842   5.324   6.446  11.440
 6779W        W10843   2.354   8.675   1.121
 6780W        W10844   5.473   0.430   9.897
 6781W        W10845   8.871   2.572   2.411
 6782W        W10846   6.673   8.996   9.010
 6783W        W10847   5.419   7.118   9.610
 6784W        W10848   0.131   8.399   8.588
 6785W        W10849   8.571   4.263   0.728
 6786W        W10850   8.918   3.105  10.415
 6787W        W10851   5.124   0.886   3.163
 6788W        W10852   7.633   1.255   0.111
 6789W        W10853   7.645   9.155   0.880
 6790W        W10854   5.557   4.341  10.739
 6791W        W10855   9.809   2.886   0.930
 6792W        W10856   1.767  10.230   0.750
 6793W        W10857   2.388   4.658   1.743
 6794W        W10858   6.337   8.340   0.367
 6795W        W10859   0.259   4.561   1.487
 6796W        W10860   5.216   2.916   1.607
 6797W        W10861   6.790   9.517   9.043
 6798W        W10862   3.485   8.536   3.086
 6799W        W10863   1.428   8.602  10.370
 6800W        W10864   8.947   6.656   1.990
 6801W        W10865   1.781   8.575   3.153
 6802W        W10866   5.137   4.137   3.328
 6803W        W10867   8.171   9.530   3.506
 6804W        W10868   6.186   9.844  10.083
 6805W        W10869   7.782   5.922  10.077
 6806W        W10870   4.168   0.877   0.385
 6807W        W10871   9.825   7.478   9.337
 6808W        W10872   4.291   0.410   0.226
 6809W        W10873   7.137   6.100   8.573
 6810W        W10874   1.250   9.856  10.782
 6811W        W10875   9.378   0.556  11.948
 6812W        W10876  10.254   5.768   0.221
 6813W        W10877   1.687   0.895   3.340
 6814W        W10878   2.454   4.619   0.728
 6815W        W10879   5.556   7.932   9.908
 6816W        W10880   5.186   5.650  10.412
 6817W        W10881   4.703   9.125   9.713
 6818W        W10882   8.330   3.280  11.285
 6819W        W10883  10.042  10.448   9.451
 6820W        W10884   6.881   8.971   1.667
 6821W        W10885   3.248   0.194  10.812
 6822W        W10886   4.474   8.090  10.674
 6823W        W10887   6.810   4.281  11.710
 6824W        W10888   9.876   4.790   2.367
 6825W        W10889   5.800   6.138   0.111
 6826W        W10890   5.117   1.396   1.808
 6827W        W10891   3.559   4.654  10.404
 6828W        W10892   5.702   8.426  11.357
 6829W        W10893   4.579   0.999   2.923
 6830W        W10894   0.481   3.272   2.848
 6831W        W10895   0.163   8.893   9.437
 6832W        W10896   4.965   1.686   0.043
 6833W        W10897  10.380   3.309   1.640
 6834W        W10898   8.952   0.996   8.918
 6835W        W10899   6.438   0.323  10.399
 6836W        W10900   3.327   9.598   0.106
 6837W        W10901   9.961   4.249   2.482
 6838W        W10902  10.298   2.232   2.468
 6839W        W10903   1.176   3.089   1.576
 6840W        W10904   2.981   1.738  11.492
 6841W        W10905   5.433   5.677   2.371
 6842W        W10906   8.863   3.678   9.474
 6843W        W10907   0.729   3.276   3.301
 6844W        W10908   3.957   8.926  11.964
 6845W        W10909   9.457   6.999   3.499
 6846W        W10910   6.568   5.432   1.983
 6847W        W10911   7.588   0.577   1.339
 6848W        W10912   5.604   6.994   2.298
 6849W        W10913   7.131   1.307   0.201
 6850W        W10914   5.427  10.405   0.292
 6851W        W10915   8.543  10.230   8.710
 6852W        W10916   8.892   7.164   0.215
 6853W        W10917   4.069   7.138  10.879
 6854W        W10918   8.821   5.101   9.834
 6855W        W10919   3.745   5.078   9.094
 6856W        W10920   0.373   2.225  11.918
 6857W        W10921   7.279   8.800   8.700
 6858W        W10922   0.095   9.436   3.503
 6859W        W10923   0.292   1.724  11.710
 6860W        W10924   1.768   2.106  11.611
 6861W        W10925   7.652   2.253   8.400
 6862W        W10926   4.058   3.964   3.124
 6863W        W10927   3.288  10.277  11.583
 6864W        W10928   7.597   1.662  10.231
 6865W        W10929   9.326   4.987   3.417
 6866W        W10930   9.600  10.001   0.758
 6867W        W10931   0.588   3.320  11.295
 6868W        W10932   1.776   2.583   9.116
 6869W        W10933   4.906   6.045   3.271
 6870W        W10934   9.908   6.786   2.264
 6871W        W10935   2.474   5.546   2.227
 6872W        W10936   5.007   1.733   3.130
 6873W        W10937   6.754   2.586   0.832
 6874W        W10938   5.453   2.198   9.593
 6875W        W10939   6.419   1.166   9.762
 6876W        W10940   7.952   2.284  11.876
 6877W        W10941   1.349   2.799   8.958
 6878W        W10942   1.265   7.355   0.327
 6879W        W10943   4.934   1.873   0.883
 6880W        W10944   0.843   4.283  10.818
 6881W        W10945   7.368   9.128  11.169
 6882W        W10946  10.035   5.199   9.305
 6883W        W10947   4.330   3.120  11.863
 6884W        W10948   3.395   1.298   0.250
 6885W        W10949   9.941   5.386   9.930
 6886W        W10950   7.357   4.136   3.876
 6887W        W10951   6.252   4.044   2.168
 6888W        W10952   2.098   1.906   1.964
 6889W        W10953   0.616   7.575   2.348
 6890W        W10954   6.439   3.338   9.018
 6891W        W10955   9.711   6.835   1.787
 6892W        W10956   5.665   8.859   3.012
 6893W        W10957  10.338   1.433   2.414
 6894W        W10958   0.327   4.223   2.036
 6895W        W10959   3.959   1.771  11.731
 6896W        W10960   0.347   1.761  10.319
 6897W        W10961   6.637   3.748   3.006
 6898W        W10962   8.600   5.539   0.814
 6899W        W10963   8.002   4.738   3.475
 6900W        W10964   7.148   9.424  12.000
 6901W        W10965   1.776   6.140  11.232
 6902W        W10966   2.613   7.946  11.987
 6903W        W10967   8.498   0.906  11.565
 6904W        W10968  10.090   5.503  10.492
 6905W        W10969   8.525   5.730   3.165
 6906W        W10970   3.693   0.245   9.548
 6907W        W10971   6.036   9.440   1.990
 6908W        W10972   0.888   0.645   8.473
 6909W        W10973   0.528  10.307   8.721
 6910W        W10974   9.008   9.283   8.764
 6911W        W10975   6.159   1.368  11.741
 6912W        W10976   0.047   8.504  10.388
 6913W        W10977   6.516   9.811  10.951
 6914W        W10978   2.685   2.608   8.958
 6915W        W10979   7.896   2.961  11.274
 6916W        W10980   0.814   3.544   9.253
 6917W        W10981   6.642   4.486  10.492
 6918W        W10982   2.591   5.139  11.010
 6919W        W10983   8.618   5.570  11.672
 6920W        W10984   4.423   1.323   0.230
 6921W        W10985   5.205   6.223   0.797
 6922W        W10986   6.517  10.004   8.247
 6923W        W10987   4.234   5.700   2.760
 6924W        W10988   9.938   7.990  10.132
 6925W        W10989   2.411   7.746   0.713
 6926W        W10990   8.992   3.620   1.185
 6927W        W10991   7.350   5.409  11.815
 6928W        W10992   8.327   3.678  11.852
 6929W        W10993   6.450   7.123   9.587
 6930W        W10994   9.964   7.078   0.075
 6931W        W10995   3.798   5.518   2.955
 6932W        W10996  10.481   0.895  11.889
 6933W        W10997   7.590  10.243   2.977
 6934W        W10998   5.094  10.428   3.342
 6935W        W10999   9.547   4.225   1.243
 6936W        W11000   7.534   4.659   3.196
 6937W        W11001   3.224  10.351   2.441
 6938W        W11002   6.903   3.131   3.688
 6939W        W11003   9.382   8.347  10.949
 6940W        W11004   8.044   7.146   3.238
 6941W        W11005   7.526   7.856   9.395
 6942W        W11006   8.435   3.333   2.817
 6943W        W11007   4.610   3.552   2.095
 6944W        W11008   6.458   4.955  10.451
 6945W        W11009   7.542   1.439   1.525
 6946W        W11010   6.047   4.580   0.569
 6947W        W11011   3.835   7.285   2.847
 6948W        W11012   8.562   0.663   1.649
 6949W        W11013   8.522   1.414  11.386
 6950W        W11014   1.260   4.701   1.376
 6951W        W11015   7.466   7.756  11.903
 6952W        W11016  10.344   2.740   9.121
 6953W        W11017   7.949   9.901   2.809
 6954W        W11018   4.477   6.608   2.201
 6955W        W11019   0.823   4.725   0.859
 6956W        W11020   7.062   4.730  11.548
 6957W        W11021   5.205   2.225  10.590
 6958W        W11022   1.692   4.711   0.453
 6959W        W11023   8.541  10.223   1.281
 6960W        W11024   0.120   8.021   0.991
 6961W        W11025   4.629   7.431  10.286
 6962W        W11026   8.405   9.017  11.532
 6963W        W11027   7.170   9.170   9.055
 6964W        W11028   6.289   6.080  10.002
 6965W        W11029   9.860  10.460   8.929
 6966W        W11030   5.943   1.910   0.609
 6967W        W11031   2.768   2.734   0.469
 6968W        W11032   0.297   5.152   2.144
 6969W        W11033   4.076   9.038   1.913
 6970W        W11034   1.890   5.096   1.676
 6971W        W11035   9.033   4.077   0.945
 6972W        W11036   0.408   5.602   0.516
 6973W        W11037   6.672   4.267   3.300
 6974W        W11038  10.427   7.973   3.534
 6975W        W11039   2.002   1.718  10.106
 6976W        W11040   7.586   0.682   3.105
 6977W        W11041   7.573   2.065   3.687
 6978W        W11042   1.217   8.638  11.693
 6979W        W11043   2.788   5.300  10.005
 6980W        W11044   2.406   2.611   3.535
 6981W        W11045  10.329   2.167   1.475
 6982W        W11046   6.005   1.710   8.670
 6983W        W11047   9.374   8.599   1.115
 6984W        W11048   0.755   3.718   0.789
 6985W        W11049   4.176   7.447   1.554
 6986W        W11050   6.317   4.671   0.139
 6987W        W11051   3.586   1.945   9.546
 6988W        W11052   3.049   6.373   3.962
 6989W        W11053   8.547   4.823   2.779
 6990W        W11054   9.327   0.191   9.026
 6991W        W11055   3.638   4.163   1.614
 6992W        W11056   1.592   4.230   0.768
 6993W        W11057   3.391   7.431   9.225
 6994W        W11058   9.839   9.085   9.443
 6995W        W11059   5.652   4.538   0.898
 6996W        W11060   2.233   4.694  10.348
 6997W        W11061  10.040   2.105  10.656
 6998W        W11062   9.248   9.843  11.805
 6999W        W11063   5.111  10.046   0.500
 7000W        W11064   1.215   0.309   2.534
 7001W        W11065   7.481   0.985  11.479
 7002W        W11066   9.964   2.273  11.170
 7003W        W11067   3.382   1.808  10.367
 7004W        W11068   7.979   4.796   9.976
 7005W        W11069   9.337   7.589   2.893
 7006W        W11070   6.406   0.353   2.897
 7007W        W11071   1.722   4.882   9.409
 7008W        W11072   3.667   1.470   9.382
 7009W        W11073   9.913   8.048   0.437
 7010W        W11074   8.841   1.007   0.366
 7011W        W11075   5.509   7.209  10.504
 7012W        W11076   2.402   9.441   0.674
 7013W        W11077   3.844   4.239  10.409
 7014W        W11078   4.784   4.267   2.281
 7015W        W11079   4.605   2.419   0.149
 7016W        W11080   8.440   5.560   0.146
 7017W        W11081   3.666  10.056  11.297
 7018W        W11082   9.070   4.787  11.359
 7019W        W11083   9.635   7.084   9.925
 7020W        W11084   4.559   8.672   8.827
 7021W        W11085   4.798   4.033  10.324
 7022W        W11086   1.969   0.778   9.022
 7023W        W11087   8.431  10.020   2.681
 7024W        W11088  10.199   5.669   3.582
 7025W        W11089   5.211   2.216   3.195
 7026W        W11090   6.900   5.547   0.026
 7027W        W11091   2.238   0.030   9.045
 7028W        W11092   8.157   5.148   2.611
 7029W        W11093   8.305   0.596  10.382
 7030W        W11094  10.014   5.270   8.786
 7031W        W11095   9.233   9.037  10.350
 7032W        W11096  10.028   4.620   2.850
 7033W        W11097   9.012   4.668  10.143
 7034W        W11098   5.779   4.808   1.308
 7035W        W11099   7.186   6.369   3.279
 7036W        W11100   1.687   3.594   9.817
 7037W        W11101   7.581   4.870   2.222
 7038W        W11102   3.767   1.813   9.018
 7039W        W11103   8.605   5.399   2.619
 7040W        W11104   4.088   9.951   3.142
 7041W        W11105   4.219   2.914   1.508
 7042W        W11106   7.113   4.488   3.459
 7043W        W11107   6.929   6.941  11.496
 7044W        W11108   9.779   4.506   0.234
 7045W        W11109   6.647   4.144   1.832
 7046W        W11110   2.635   6.819  10.848
 7047W        W11111   6.891   9.588   0.381
 7048W        W11112   1.915   3.406   8.520
 7049W        W11113  10.342   4.079   8.243
 7050W        W11114   5.451   9.533   8.975
 7051W        W11115   8.920   7.572   9.754
 7052W        W11116   1.308   3.831   0.075
 7053W        W11117   1.103   4.787   8.484
 7054W        W11118   4.553   3.591   9.080
 7055W        W11119   5.539   1.603   8.503
 7056W        W11120   0.852   7.947  10.024
 7057W        W11121  10.455  10.488  11.825
 7058W        W11122   1.443   2.272   1.379
 7059W        W11123   7.353   9.448   2.302
 7060W        W11124   5.539   6.711  11.930
 7061W        W11125   8.850   2.411   0.067
 7062W        W11126   6.450   3.059   8.530
 7063W        W11127   8.942   0.691  11.744
 7064W        W11128   0.301   4.489  11.474
 7065W        W11129   4.714   6.696   8.613
 7066W        W11130   6.714   6.752   9.347
 7067W        W11131   0.568   1.170   0.328
 7068W        W11132   9.260   2.421  11.783
 7069W        W11133   5.298   1.850  11.672
 7070W        W11134   1.181   1.798  11.856
 7071W        W11135   0.081   4.280   9.633
 7072W        W11136   1.024   3.271   2.428
 7073W        W11137   2.708   7.924   1.465
 7074W        W11138   3.289   6.055   9.064
 7075W        W11139   9.817   2.272   2.187
 7076W        W11140   4.289   2.211   1.455
 7077W        W11141   6.515   6.298   1.700
 7078W        W11142   3.067   6.557   1.989
 7079W        W11143   5.438   6.481   2.666
 7080W        W11144   0.816   9.811   3.080
 7081W        W11145   2.762   0.305   3.563
 7082W        W11146   7.889   2.050   0.957
 7083W        W11147   0.508   6.715   0.998
 7084W        W11148   2.210   1.256  10.507
 7085W        W11149   8.444   0.536   1.124
 7086W        W11150   7.901   1.863   1.694
 7087W        W11151   6.468   5.917   2.072
 7088W        W11152   6.681  10.407   2.867
 7089W        W11153   6.987   6.384   2.785
 7090W        W11154   4.288   2.147  11.871
 7091W        W11155   6.495   9.315   1.795
 7092W        W11156   6.098   2.720   2.722
 7093W        W11157   0.704   8.575  11.590
 7094W        W11158   2.288   7.222   1.436
 7095W        W11159   4.172  10.022  11.244
 7096W        W11160  10.312   6.426   2.283
 7097W        W11161  10.326   1.795  11.551
 7098W        W11162   9.310   4.230  10.049
 7099W        W11163   1.320   6.920  11.056
 7100W        W11164   3.734   7.490  10.520
 7101W        W11165   1.316   1.567  11.424
 7102W        W11166   9.578   0.030  11.219
 7103W        W11167   1.145   1.704  10.960
 7104W        W11168   0.378   3.286   1.784
 7105W        W11169   6.531   4.653   0.829
 7106W        W11170   0.027   9.102   0.169
 7107W        W11171   1.838   3.141   1.209
 7108W        W11172   9.869   7.490  10.850
 7109W        W11173   1.438   9.817   0.447
 7110W        W11174   1.599   4.327   1.912
 7111W        W11175   4.669   1.014   1.172
 7112W        W11176   6.893   6.653   1.308
 7113W        W11177   2.825   7.007  10.398
 7114W        W11178   3.532   7.007   9.582
 7115W        W11179   5.104   0.563   1.483
 7116W        W11180   1.988   4.278   0.438
 7117W        W11181   2.770   9.351   9.364
 7118W        W11182   9.231   8.833   3.433
 7119W        W11183   8.346   7.626   8.985
 7120W        W11184   4.050   6.994   9.574
 7121W        W11185   4.344   6.258   4.129
 7122W        W11186   0.808   0.384   1.853
 7123W        W11187   9.479   2.454   0.902
 7124W        W11188   9.848   5.041   1.530
 7125W        W11189   2.538   7.830  10.009
 7126W        W11190  10.209   0.564   3.119
 7127W        W11191   2.854   0.200   1.743
 7128W        W11192   3.350   4.766  11.041
 7129W        W11193   3.605   6.242   8.642
 7130W        W11194   9.539   2.500  11.018
 7131W        W11195   9.664   8.721   2.788
 7132W        W11196   5.510   9.334   9.482
 7133W        W11197   8.466   8.575   9.951
 7134W        W11198   7.852   5.422   8.863
 7135W        W11199   6.991   2.676   2.233
 7136W        W11200   2.660   1.872   2.673
 7137W        W11201   9.778   7.543  11.411
 7138W        W11202   6.919   3.515   9.225
 7139W        W11203   2.288   3.482  10.677
 7140W        W11204   9.198   9.138   0.466
 7141W        W11205   6.571  10.492   8.920
 7142W        W11206   9.029   2.053  10.857
 7143W        W11207   0.942   7.118  11.374
 7144W        W11208   1.415   5.613   3.285
 7145W        W11209   0.307   2.908   9.332
 7146W        W11210  10.320   5.998  10.473
 7147W        W11211   9.151   5.153   9.447
 7148W        W11212   0.516   3.182   2.331
 7149W        W11213   7.462   2.211  11.723
 7150W        W11214   0.112   1.353   3.386
 7151W        W11215  10.261   4.239  10.926
 7152W        W11216  10.371   2.921   9.620
 7153W        W11217   5.461   7.857   0.272
 7154W        W11218   4.769   7.345   1.274
 7155W        W11219   4.624   2.843   0.436
 7156W        W11220   2.387   7.418  11.225
 7157W        W11221   9.309  10.031   2.802
 7158W        W11222   6.634   5.249   3.605
 7159W        W11223   3.612   0.238   3.515
 7160W        W11224   6.234   5.695  10.368
 7161W        W11225   2.591   0.182   0.006
 7162W        W11226   1.460   4.899   1.822
 7163W        W11227   1.871   8.892   9.812
 7164W        W11228  10.245   1.094  10.978
 7165W        W11229   4.284   4.714   0.955
 7166W        W11230   1.809  10.387  11.154
 7167W        W11231   0.388   6.150   0.633
 7168W        W11232   6.777   1.674   0.915
 7169W        W11233   0.913   3.861  11.746
 7170W        W11234   6.198   3.325   8.101
 7171W        W11235   3.588   6.636   0.194
 7172W        W11236   6.992   5.047   9.353
 7173W        W11237   7.340   9.501  11.536
 7174W        W11238   4.634   9.605   1.039
 7175W        W11239   2.605   4.713  10.732
 7176W        W11240   5.436   7.058   3.954
 7177W        W11241   9.664   7.617   2.155
 7178W        W11242   9.717   3.018  11.346
 7179W        W11243   6.234   5.274   1.278
 7180W        W11244   0.313   3.151  10.328
 7181W        W11245   0.408   8.446   9.421
 7182W        W11246   3.782   8.474   2.334
 7183W        W11247   9.616   8.744   2.156
 7184W        W11248   8.346   2.293  11.484
 7185W        W11249   0.177   2.141  10.004
 7186W        W11250   4.974   0.403   9.131
 7187W        W11251   5.101   7.699   0.619
 7188W        W11252  10.050  10.284   0.797
 7189W        W11253   2.296   6.455  10.720
 7190W        W11254   4.989   5.335   1.643
 7191W        W11255   9.466   1.361   1.331
 7192W        W11256   1.888   4.430  11.478
 7193W        W11257   7.703   6.656  11.360
 7194W        W11258   6.700   5.275   3.109
 7195W        W11259   1.268   5.928   1.963
 7196W        W11260   7.084   4.018   3.051
 7197W        W11261   1.815   6.164   0.245
 7198W        W11262   7.565   7.300   2.357
 7199W        W11263   5.533   9.436  10.446
 7200W        W11264   2.677   6.388   2.304
 7201W        W11265   4.068   9.051   0.475
 7202W        W11266   6.098   2.382   0.741
 7203W        W11267   0.815   8.095   2.266
 7204W        W11268   3.192   6.535   8.825
 7205W        W11269   1.707   8.834   8.921
 7206W        W11270   1.326   5.210  10.438
 7207W        W11271   5.601   2.829   2.856
 7208W        W11272   3.232   1.849   0.498
 7209W        W11273   1.620   6.966   1.906
 7210W        W11274   6.219   3.033   9.366
 7211W        W11275   4.837   7.991   3.610
 7212W        W11276   7.486   9.546   9.240
 7213W        W11277   6.672   1.720   2.374
 7214W        W11278   2.799   2.839   9.888
 7215W        W11279  10.257   2.815  10.567
 7216W        W11280   1.788   6.911  11.255
 7217W        W11281   5.941   8.107  11.006
 7218W        W11282   4.159   5.750   2.129
 7219W        W11283   9.985   7.582   1.340
 7220W        W11284   0.811   9.406  10.052
 7221W        W11285   4.189   5.598  11.259
 7222W        W11286   1.347   8.159  11.564
 7223W        W11287   8.598   3.768   1.454
 7224W        W11288   6.887   0.906   0.395
 7225W        W11289   4.737   5.382  10.425
 7226W        W11290   9.847   8.052   2.332
 7227W        W11291   7.082  10.446   8.694
 7228W        W11292   8.121   8.183  11.334
 7229W        W11293   3.039   2.348  10.024
 7230W        W11294   7.590   6.866  10.889
 7231W        W11295   4.099   4.277   9.968
 7232W        W11296  10.296   6.217   0.473
 7233W        W11297   6.408   9.678   2.572
 7234W        W11298   5.051   9.578  11.743
 7235W        W11299   8.618   4.424   2.432
 7236W        W11300   1.622   7.262   2.726
 7237W        W11301   7.540   7.030   3.295
 7238W        W11302   9.387   5.172   1.265
 7239W        W11303   8.314   9.180   2.382
 7240W        W11304   0.317   8.176  11.586
 7241W        W11305   9.808   1.706   3.479
 7242W        W11306   8.442   8.334   2.269
 7243W        W11307   6.914   4.638   8.588
 7244W        W11308   0.590   7.203   1.057
 7245W        W11309   0.774  10.447  10.971
 7246W        W11310   4.163   9.331   2.323
 7247W        W11311   6.516   2.141   0.906
 7248W        W11312   0.795   6.989  10.269
 7249W        W11313   2.816   5.877   3.922
 7250W        W11314   4.074   6.635  11.424
 7251W        W11315   5.931   6.888  10.547
 7252W        W11316   8.403   8.557   9.444
 7253W        W11317   9.442   0.695   9.000
 7254W        W11318   8.101   5.182   0.317
 7255W        W11319   4.785   4.185   0.278
 7256W        W11320   9.879   0.853  10.290
 7257W        W11321   2.895   6.685   9.479
 7258W        W11322   6.853   5.920   0.370
 7259W        W11323  10.444   6.593   1.743
 7260W        W11324   7.378   4.478   9.829
 7261W        W11325   7.942   3.161   2.981
 7262W        W11326   1.385   4.704   0.027
 7263W        W11327   6.280   0.422   1.085
 7264W        W11328   3.111   0.847  10.170
 7265W        W11329   9.508   8.036   1.622
 7266W        W11330   2.114   5.000   0.613
 7267W        W11331   4.206   9.385  11.883
 7268W        W11332   2.801   6.967   0.931
 7269W        W11333   2.747   3.836  11.429
 7270W        W11334   1.704  10.329   9.716
 7271W        W11335   0.916   5.459   8.637
 7272W        W11336   5.944   6.865   3.314
 7273W        W11337   7.413   7.565   0.394
 7274W        W11338   5.206   0.538   2.273
 7275W        W11339   3.289   9.691  11.131
 7276W        W11340   9.253   7.070  10.336
 7277W        W11341   4.971   5.569   0.284
 7278W        W11342   1.768   1.388  11.259
 7279W        W11343   0.549   5.175   8.894
 7280W        W11344   5.744   9.414   0.921
 7281W        W11345   4.952   6.983  11.421
 7282W        W11346   0.873   9.895   1.678
 7283W        W11347   1.673   9.774   8.994
 7284W        W11348   8.976   6.607   9.559
 7285W        W11349   9.909   2.670  11.963
 7286W        W11350   8.170   8.537   8.595
 7287W        W11351   1.983   5.647   2.315
 7288W        W11352   7.871   7.469   9.237
 7289W        W11353   5.545   5.726   9.036
 7290W        W11354   0.309   3.529   9.989
 7291W        W11355  10.366   6.600  11.842
 7292W        W11356   3.340   3.065  11.990
 7293W        W11357   4.560   7.708   9.868
 7294W        W11358   8.416   2.114  11.969
 7295W        W11359   6.530   7.527  10.668
 7296W        W11360   2.854   2.297   2.901
 7297W        W11361   7.462   2.086   9.764
 7298W        W11362   3.639   5.010   9.598
 7299W        W11363   9.358   7.878   2.466
 7300W        W11364   5.947   8.658   0.332
 7301W        W11365   3.598   3.823   9.417
 7302W        W11366   0.278   6.566   2.138
 7303W        W11367   2.357   5.141   9.301
 7304W        W11368   9.803   8.064   1.214
 7305W        W11369   9.357  10.187   8.879
 7306W        W11370   7.368   1.764  11.972
 7307W        W11371   1.462   3.158   2.947
 7308W        W11372   0.773  10.304  10.085
 7309W        W11373   0.864   7.657   3.605
 7310W        W11374   1.253   1.294   9.076
 7311W        W11375   8.069   0.283   9.042
 7312W        W11376   5.081   0.751   0.992
 7313ION    NA+11377   6.459   4.852   8.704
 7314ION    NA+11378   1.858  10.063   2.202
 7315ION    NA+11379   7.757   7.054  11.708
 7316ION    NA+11380   9.060   5.975   1.334
 7317ION    NA+11381   5.506   3.579   9.487
 7318ION    NA+11382   7.896   4.754   0.133
 7319ION    NA+11383   5.519   4.062   0.966
 7320ION    NA+11384   6.218   1.436  10.728
 7321ION    NA+11385   2.604   8.349   9.913
 7322ION    NA+11386   2.741   4.607  10.258
 7323ION    NA+11387   1.506   2.372  10.623
 7324ION    NA+11388  10.109   4.992  11.449
 7325ION    NA+11389   2.679   0.364  10.290
 7326ION    NA+11390   0.628   9.100   9.441
 7327ION    NA+11391   5.160   4.573   2.621
 7328ION    NA+11392   4.199   8.549   0.224
 7329ION    NA+11393   7.482   4.359   2.325
 7330ION    NA+11394   1.132   7.653   2.323
 7331ION    NA+11395   8.838   0.619   9.616
 7332ION    NA+11396   3.718   2.627  10.084
 7333ION    NA+11397   7.341   1.281   1.969
 7334ION    NA+11398   5.002   3.256   0.662
 7335ION    NA+11399   4.213   5.405   0.516
 7336ION    NA+11400   0.621   8.411  11.105
 7337ION    NA+11401   0.630   2.687   1.106
 7338ION    NA+11402   8.285   1.530   1.752
 7339ION    NA+11403   0.817   2.717   9.807
 7340ION    NA+11404   1.516   2.729   0.025
 7341ION    NA+11405   7.106   9.035   9.888
 7342ION    NA+11406   8.424   6.222   3.060
 7343ION    NA+11407   2.928   9.510   2.701
 7344ION    NA+11408   8.931   9.138   2.646
 7345ION    NA+11409   2.391   2.133  11.023
 7346ION    NA+11410   0.931   5.158  11.982
 7347ION    NA+11411   9.653   2.097  11.825
 7348ION    NA+11412   7.055   7.188   0.357
 7349ION    NA+11413   2.290   1.252   9.975
 7350ION    NA+11414   4.991   4.086  11.778
 7351ION    NA+11415   6.520   7.798   9.010
 7352ION    NA+11416   8.633   8.242  11.404
 7353ION    NA+11417   2.698   6.464   0.337
 7354ION    NA+11418   1.678   5.220   2.713
 7355ION    NA+11419   5.144   8.242   0.946
 7356ION    NA+11420   5.628   6.080  11.214
 7357ION    NA+11421   3.043   7.177   9.517
 7358ION    NA+11422   6.696   9.150   3.230
 7359ION    NA+11423   1.689   7.148  10.792
 7360ION    NA+11424   0.016   1.627   9.175
 7361ION    NA+11425   1.420   8.276   0.574
 7362ION    NA+11426   7.912   8.744   9.370
 7363ION    NA+11427   8.384   9.066  10.893
 7364ION    NA+11428   4.406   1.503  11.413
 7365ION    NA+11429   3.120   2.878  11.288
 7366ION    NA+11430   3.808   3.874   0.663
 7367ION    NA+11431   7.682   7.854   1.462
 7368ION    NA+11432   8.985   5.100   2.744
 7369ION    NA+11433   6.657   1.688   3.185
 7370ION    NA+11434   3.456   8.385  11.449
 7371ION    NA+11435   9.868   9.531   1.249
 7372ION    NA+11436   7.018   3.118   2.545
 7373ION    NA+11437   6.206   2.550   1.225
 7374ION    NA+11438   4.009   2.281   0.927
 7375ION    NA+11439   6.037   9.655   9.613
 7376ION    NA+11440   9.966   9.824  11.405
 7377ION    NA+11441   9.022  10.330  10.405
 7378ION    NA+11442   1.193   9.090   0.759
 7379ION    NA+11443   8.523   7.010   2.953
 7380ION    NA+11444   3.736   1.662   3.046
 7381ION    NA+11445   6.069   6.971   8.673
 7382ION    NA+11446   6.581   0.721   0.789
 7383ION    NA+11447   8.456   6.861   0.221
 7384ION    NA+11448   7.071   6.444  11.689
 7385ION    NA+11449   1.471   4.617   8.922
 7386ION    NA+11450   1.660   0.335  10.348
 7387ION    NA+11451   2.988   3.961   0.297
 7388ION    NA+11452   2.080   0.189  11.635
 7389ION    NA+11453   3.870  10.120   0.465
 7390ION    CL-11454   5.847   5.587   2.669
 7391ION    CL-11455   8.189   9.867   1.372
 7392ION    CL-11456   6.206   0.551   0.607
 7393ION    CL-11457   6.578   1.699  10.774
 7394ION    CL-11458   7.456   7.254   9.452
 7395ION    CL-11459  10.171   8.326   0.948
 7396ION    CL-11460   4.085   5.274   9.429
 7397ION    CL-11461   1.575   7.686   2.371
 7398ION    CL-11462   1.916   5.497  10.026
 7399ION    CL-11463   9.439   7.516   3.417
 7400ION    CL-11464   5.540   2.621  11.360
 7401ION    CL-11465   2.880   9.916   8.407
 7402ION    CL-11466   4.090   6.403  10.114
 7403ION    CL-11467   2.315   3.902   3.000
 7404ION    CL-11468   1.195   8.673   0.579
 7405ION    CL-11469  10.452   5.168   9.581
 7406ION    CL-11470   9.170   9.505   2.548
 7407ION    CL-11471   2.184   8.400   3.447
 7408ION    CL-11472  10.237   7.897   0.047
 7409ION    CL-11473   0.280   1.591   0.218
 7410ION    CL-11474   7.840   7.424   1.459
 7411ION    CL-11475   7.714   8.343   9.339
 7412ION    CL-11476   2.906   2.917  11.679
 7413ION    CL-11477   4.240   5.260   0.092
 7414ION    CL-11478   0.633   8.794   9.116
 7415ION    CL-11479   1.996   6.480   1.603
 7416ION    CL-11480   7.880   6.406   9.111
 7417ION    CL-11481   7.356   6.792  11.777
 7418ION    CL-11482   5.516   7.389  11.347
 7419ION    CL-11483   2.812   2.284   3.417
 7420ION    CL-11484   0.980   4.787  11.739
 7421ION    CL-11485   0.284   3.937   0.868
 7422ION    CL-11486   8.658   6.575   2.891
 7423ION    CL-11487   1.057   8.497  11.211
 7424ION    CL-11488  10.211  10.004  11.747
 7425ION    CL-11489   7.258   6.267   1.339
 7426ION    CL-11490   9.647   6.177   3.668
 7427ION    CL-11491   3.908   1.933   1.186
 7428ION    CL-11492   2.880   3.173   2.965
 7429ION    CL-11493   6.239   4.743   9.077
 7430ION    CL-11494   4.481   1.669  11.820
 7431ION    CL-11495   1.909   0.593  11.733
 7432ION    CL-11496   7.864   2.158  10.991
 7433ION    CL-11497   9.832   8.042   9.538
 7434ION    CL-11498   9.723   9.611  11.081
 7435ION    CL-11499   6.494   9.258   2.840
 7436ION    CL-11500  10.066   2.209  11.699
 7437ION    CL-11501   3.415   3.875   0.431
 7438ION    CL-11502   2.281   3.678   2.026
 7439ION    CL-11503   8.865   7.927  11.621
 7440ION    CL-11504   3.681   1.449   2.652
 7441ION    CL-11505  10.376   3.756  10.824
 7442ION    CL-11506   7.366   8.156   1.329
 7443ION    CL-11507   6.770   1.276   9.417
 7444ION    CL-11508   4.136   4.796   1.791
 7445ION    CL-11509   9.333   5.930   1.681
 7446ION    CL-11510   0.254   8.140  11.081
 7447ION    CL-11511   6.325   6.625   1.297
 7448ION    CL-11512   8.644   0.927   9.872
 7449ION    CL-11513   8.803   3.099  11.485
 7450ION    CL-11514   9.364   0.788  11.411
 7451ION    CL-11515   4.778   8.504   9.285
 7452ION    CL-11516   0.054   0.353   0.177
 7453ION    CL-11517   5.093   4.485  11.980
 7454ION    CL-11518   3.817  10.036   9.115
 7455ION    CL-11519   1.282   4.278   2.364
 7456ION    CL-11520   8.148   7.075  11.964
 7457ION    CL-11521   9.002   1.891   3.205
 7458ION    CL-11522   3.259   7.590  10.740
 7459ION    CL-11523   9.574   6.682  10.257
 7460ION    CL-11524   4.459   8.903   0.149
 7461ION    CL-11525   7.698   5.956   2.181
 7462ION    CL-11526   1.488   4.219  10.533
 7463ION    CL-11527   0.710   6.563   2.447
 7464ION    CL-11528   8.355   5.559   8.911
 7465ION    CL-11529  10.195   4.115   8.742
 7466ION    CL-11530   5.079   3.722  11.516
  10.50000  10.50000  12.00000
