Protein in INSANE! Membrane UpperLeaflet>POPC=1.0 LowerLeaflet>POPC=1.0
10365
    1AU     AUC    1   5.276   1.885   6.405  0.0553 -0.0060  0.0459
    1AU     AUC    2   5.146   2.098   6.574  0.0038  0.1064 -0.1065
    1AU     AUC    3   5.458   1.999   6.656 -0.0082 -0.0284 -0.0952
    1AU     AUC    4   5.072   1.761   6.165  0.1306 -0.0613  0.0803
    1AU     AUC    5   5.371   1.625   6.254  0.0877  0.0120  0.0291
    1AU     AUC    6   5.127   1.553   6.436  0.0038  0.0329  0.0108
    1AU     AUC    7   5.191   1.802   6.697 -0.0303 -0.0008  0.0153
    1AU     AUC    8   5.358   1.924   6.092  0.0487 -0.0034  0.0294
    1AU     AUC    9   5.411   2.177   6.356  0.0615 -0.0339 -0.0535
    1AU     AUC   10   5.575   1.878   6.368  0.0450  0.0163 -0.0632
    1AU     AUC   11   5.441   1.653   6.584 -0.0246  0.0449 -0.0121
    1AU     AUC   12   5.079   2.080   6.205  0.0520  0.0424  0.0018
    1AU     AUC   13   4.971   1.864   6.425  0.0842 -0.0403 -0.0471
    1AU     AUC   14   4.981   2.364   6.759 -0.0575 -0.0206 -0.0320
    1AU     AUC   15   5.329   2.310   6.873  0.0987 -0.0065  0.0004
    1AU     AUC   16   5.635   2.170   6.885  0.0032  0.0177  0.0021
    1AU     AUC   17   4.871   1.659   5.910 -0.0071 -0.0636  0.0397
    1AU     AUC   18   5.177   1.470   5.995 -0.0754  0.0417 -0.0969
    1AU     AUC   19   5.506   1.347   6.093  0.0101  0.0815  0.0385
    1AU     AUC   20   4.972   1.226   6.478 -0.0163 -0.0333  0.0442
    1AU     AUC   21   4.982   1.473   6.744 -0.0031 -0.0222  0.0549
    1AU     AUC   22   5.079   1.725   7.027 -0.0225 -0.0645 -0.0990
    1AU     AUC   23   5.464   1.962   5.786  0.0817  0.0183  0.0190
    1AU     AUC   24   5.559   2.244   6.021  0.0940 -0.0229 -0.1143
    1AU     AUC   25   5.548   2.420   6.253  0.0301 -0.0275 -0.0477
    1AU     AUC   26   5.945   1.842   6.307  0.0190 -0.1605 -0.0620
    1AU     AUC   27   5.810   1.596   6.557  0.1195  0.0989  0.0986
    1AU     AUC   28   5.632   1.420   6.779 -0.0103 -0.0378 -0.0760
    1AU     AUC   29   4.895   2.301   6.069 -0.0666 -0.0122 -0.0720
    1AU     AUC   30   4.729   2.089   6.266 -0.0036 -0.0121 -0.0899
    1AU     AUC   31   4.635   1.837   6.485 -0.0396  0.0375  0.0322
    1AU     AUC   32   5.806   1.973   6.588  0.1102 -0.0135 -0.0285
    1AU     AUC   33   5.685   1.791   6.851  0.0270  0.0031 -0.0452
    1AU     AUC   34   4.882   2.347   6.424  0.0071 -0.0328  0.0054
    1AU     AUC   35   4.805   2.085   6.643  0.0068 -0.0202 -0.0377
    1AU     AUC   36   5.707   1.549   6.229 -0.0785 -0.0369 -0.0392
    1AU     AUC   37   5.624   1.402   6.403 -0.0255 -0.0437  0.0727
    1AU     AUC   38   4.864   1.994   5.925 -0.0775  0.0985 -0.0132
    1AU     AUC   39   4.706   1.745   6.135 -0.0949  0.0942  0.0102
    1AU     AUC   40   5.078   2.050   6.963  0.0115  0.0012  0.0762
    1AU     AUC   41   5.392   1.936   7.000  0.0074 -0.0378  0.0290
    1AU     AUC   42   4.935   1.440   6.170 -0.0380 -0.0250  0.0194
    1AU     AUC   43   5.304   1.312   6.236 -0.0099  0.0850 -0.0743
    1AU     AUC   44   5.247   2.425   6.496  0.0640 -0.0209 -0.0061
    1AU     AUC   45   5.583   2.314   6.584 -0.0181  0.1221 -0.0942
    1AU     AUC   46   5.163   1.793   5.822 -0.0407 -0.0125  0.0347
    1AU     AUC   47   5.452   1.610   5.904 -0.0370  0.0263 -0.0353
    1AU     AUC   48   5.271   1.307   6.633  0.0404 -0.0125 -0.0027
    1AU     AUC   49   5.339   1.567   6.901  0.0276  0.0331  0.1083
    1AU     AUC   50   5.685   1.896   6.059 -0.0154  0.0227 -0.1108
    1AU     AUC   51   5.775   2.185   6.263  0.0517 -0.0991 -0.0071
    1AU     AUC   52   4.791   1.519   6.460  0.0222  0.0343 -0.0438
    1AU     AUC   53   4.818   1.746   6.784  0.0093 -0.0671 -0.0914
    1AU     AUC   54   5.200   2.171   5.900  0.0051  0.0480  0.0104
    1AU     AUC   55   5.214   2.386   6.176 -0.0350  0.0386  0.0398
    1AU    AUSL   56   5.975   2.010   6.904  0.0976 -0.0745  0.0163
    1AU    AUSL   57   6.135   2.126   6.499  0.0072 -0.1081 -0.0111
    1AU     AUL   58   6.242   2.251   6.842 -0.1043  0.1238  0.0060
    1AU       S   59   6.251   2.604   6.553  0.0646  0.5335 -0.0517
    1AU     LIG   60   6.744   2.631   6.511 -0.0697 -0.0841  0.0065
    1AU     LIG   61   7.106   2.608   6.290  0.0023 -0.0728  0.0717
    1AU     LIG   62   7.536   2.480   6.323  0.0016  0.0402 -0.5206
    1AU       S   63   6.398   1.826   6.966 -0.1696 -0.0851  0.1070
    1AU     LIG   64   6.508   1.951   7.386 -0.4237  0.1590 -0.1676
    1AU     LIG   65   6.566   2.064   7.795  0.2167 -0.1121 -0.1155
    1AU     LIG   66   6.611   2.497   8.099 -0.1960 -0.2179 -0.0088
    1AU    AUSL   67   6.047   1.723   6.544  0.0186 -0.0390 -0.0698
    1AU    AUSL   68   5.929   1.280   6.660 -0.0089 -0.1159 -0.0243
    1AU     AUL   69   6.273   1.379   6.689 -0.0504  0.0649  0.0653
    1AU       S   70   6.381   1.805   6.700 -0.1392  0.1206  0.0300
    1AU     LIG   71   6.668   2.139   6.541 -0.3772 -0.3226 -0.2127
    1AU     LIG   72   7.061   2.106   6.261  0.2354 -0.0853  0.0479
    1AU     LIG   73   7.254   2.085   5.856 -0.0006  0.2756 -0.0870
    1AU       S   74   6.207   0.951   6.522  0.1436 -0.2973 -0.3997
    1AU     LIG   75   6.239   0.743   6.870 -0.0925  0.0612 -0.1822
    1AU     LIG   76   6.253   0.368   7.140  0.3064  0.1588  0.1039
    1AU     LIG   77   6.128   0.020   7.296  0.4119  0.3033 -0.1495
    1AU    AUSL   78   5.983   1.593   6.962  0.0039 -0.0324 -0.0502
    1AU    AUSL   79   5.692   1.842   7.172  0.0706 -0.0632 -0.0617
    1AU     AUL   80   6.008   1.952   7.242 -0.0027  0.0641  0.0384
    1AU       S   81   6.228   1.578   7.129 -0.2875 -0.3018  0.1645
    1AU     LIG   82   6.269   1.306   7.408 -0.0399 -0.0358  0.0076
    1AU     LIG   83   6.536   1.139   7.651 -0.1885  0.3184  0.0352
    1AU     LIG   84   6.715   1.109   7.891  0.1213 -0.1851  0.1701
    1AU       S   85   5.787   1.549   7.444 -0.1991 -0.1975 -0.3063
    1AU     LIG   86   5.986   1.226   7.751  0.0579 -0.0482  0.1032
    1AU     LIG   87   6.301   1.256   8.077 -0.0710  0.2290 -0.2741
    1AU     LIG   88   6.397   1.217   8.511  0.2392  0.3251 -0.3957
    1AU    AUSL   89   4.587   2.359   6.745 -0.0063 -0.0763 -0.0419
    1AU    AUSL   90   4.650   1.908   6.834 -0.0630  0.1074  0.0432
    1AU     AUL   91   4.308   2.073   6.891 -0.0072  0.0967  0.0068
    1AU       S   92   4.159   2.470   6.660 -0.5653 -0.1313 -0.2600
    1AU     LIG   93   3.718   2.588   6.655  0.1008 -0.2517 -0.0117
    1AU     LIG   94   3.508   2.671   6.310 -0.1724  0.0469 -0.0051
    1AU     LIG   95   3.187   3.048   6.238  0.2383 -0.1137 -0.1623
    1AU       S   96   4.502   2.089   7.288  0.6453  0.0927 -0.0710
    1AU     LIG   97   4.479   2.487   7.669 -0.2004 -0.1622  0.2054
    1AU     LIG   98   4.580   2.578   8.123  0.0636 -0.0347  0.0558
    1AU     LIG   99   4.495   2.855   8.506  0.2731 -0.2850  0.0411
    1AU    AUSL  100   4.528   2.468   6.326  0.0686  0.0452 -0.1281
    1AU    AUSL  101   4.869   2.652   6.568  0.0646  0.0818 -0.1029
    1AU     AUL  102   4.551   2.707   6.609 -0.0257  0.0021  0.0406
    1AU       S  103   4.812   2.988   6.404 -0.4401 -0.2296  0.1827
    1AU     LIG  104   4.541   3.249   6.545  0.2878  0.0153  0.2398
    1AU     LIG  105   4.301   3.657   6.800  0.3344  0.2685  0.2986
    1AU     LIG  106   4.532   3.930   6.994 -0.3204  0.0859 -0.2394
    1AU       S  107   4.133   2.414   6.415 -0.1944 -0.0742  0.0575
    1AU     LIG  108   3.954   2.596   6.138  0.1732 -0.2519  0.0112
    1AU     LIG  109   4.018   3.022   5.956  0.1738  0.0688  0.3109
    1AU     LIG  110   4.117   3.385   6.117  0.0218 -0.1008  0.5886
    1AU    AUSL  111   4.512   2.057   6.454 -0.0623 -0.0385  0.0039
    1AU    AUSL  112   4.659   2.205   6.036 -0.0859  0.0931  0.0420
    1AU     AUL  113   4.420   2.370   6.084  0.0387 -0.0857 -0.0550
    1AU       S  114   4.099   2.178   5.825  0.2461 -0.3238 -0.3099
    1AU     LIG  115   3.633   2.255   6.023 -0.0336 -0.2320  0.2050
    1AU     LIG  116   3.384   2.165   6.412  0.0752 -0.3412  0.1034
    1AU     LIG  117   2.926   2.190   6.396  0.1130 -0.4389 -0.3511
    1AU       S  118   4.192   2.128   6.463 -0.0317 -0.0396 -0.0695
    1AU     LIG  119   4.037   1.774   6.515  0.0345 -0.1423  0.0727
    1AU     LIG  120   3.934   1.520   6.792 -0.0073 -0.1041 -0.1060
    1AU     LIG  121   3.780   1.074   6.783 -0.1647 -0.2814 -0.0443
    1AU    AUSL  122   5.767   1.189   6.286 -0.0169  0.0294 -0.0112
    1AU    AUSL  123   5.478   1.188   6.621 -0.0065 -0.0548 -0.0306
    1AU     AUL  124   5.763   0.984   6.638  0.0520 -0.0975  0.0361
    1AU       S  125   6.306   1.010   6.391 -0.0970  0.2978  0.0070
    1AU     LIG  126   6.675   0.620   6.470  0.0732 -0.0887 -0.3428
    1AU     LIG  127   6.743   0.194   6.491  0.0329 -0.1048  0.1070
    1AU     LIG  128   6.681  -0.252   6.326  0.3029 -0.0413  0.3907
    1AU       S  129   5.496   0.763   6.337  0.2502  0.0759 -0.4107
    1AU     LIG  130   5.734   0.489   6.695 -0.3204 -0.0152  0.0370
    1AU     LIG  131   5.920   0.072   6.750  0.2093  0.0391 -0.0202
    1AU     LIG  132   6.006  -0.267   6.895  0.0750 -0.1185 -0.1136
    1AU    AUSL  133   6.115   1.434   6.249  0.0244  0.0546 -0.0016
    1AU    AUSL  134   5.590   1.041   5.924  0.0497  0.0483  0.0035
    1AU     AUL  135   5.964   0.982   6.082  0.0467  0.0190  0.0531
    1AU       S  136   6.041   1.046   5.618 -0.2268  0.0520 -0.3739
    1AU     LIG  137   5.940   0.643   5.763 -0.1876  0.1895 -0.5736
    1AU     LIG  138   5.718   0.319   5.972 -0.2836 -0.1554  0.3683
    1AU     LIG  139   5.786  -0.009   6.199  0.0133  0.2395 -0.2429
    1AU       S  140   6.340   1.234   6.261  0.0963 -0.3076 -0.0074
    1AU     LIG  141   6.390   0.892   5.922 -0.3095 -0.3735  0.4036
    1AU     LIG  142   6.710   0.539   6.005  0.2604  0.0536 -0.0853
    1AU     LIG  143   7.109   0.616   6.189  0.1786 -0.3260  0.2025
    1AU    AUSL  144   4.551   1.919   5.734  0.0154  0.0508 -0.0053
    1AU    AUSL  145   4.875   2.252   5.664 -0.0401 -0.0502  0.0954
    1AU     AUL  146   4.573   2.315   5.672 -0.0124 -0.0233  0.0563
    1AU       S  147   4.186   2.064   5.689  0.0585  0.0867  0.0088
    1AU     LIG  148   4.390   2.089   5.292  0.0310 -0.1937 -0.0147
    1AU     LIG  149   4.458   1.763   5.111  0.3199 -0.4509  0.1273
    1AU     LIG  150   4.603   1.692   4.674 -0.1593  0.0734  0.1382
    1AU       S  151   4.895   2.121   5.322 -0.0755 -0.3594  0.0611
    1AU     LIG  152   4.680   2.599   5.306 -0.6518 -0.1709 -0.0436
    1AU     LIG  153   4.832   2.965   5.576  0.0587 -0.3181 -0.6410
    1AU     LIG  154   4.704   3.349   5.885  0.2396 -0.3009  0.0791
    1AU    AUSL  155   4.345   1.879   6.102  0.0013  0.0717 -0.0617
    1AU    AUSL  156   4.582   1.539   5.919 -0.0013 -0.0191 -0.0418
    1AU     AUL  157   4.398   1.655   5.699  0.0809  0.0967 -0.1049
    1AU       S  158   4.155   1.301   5.951 -0.0188 -0.0995 -0.0077
    1AU     LIG  159   3.938   1.590   5.638  0.0320 -0.2607 -0.1624
    1AU     LIG  160   3.956   1.817   5.313 -0.3767  0.5159  0.2298
    1AU     LIG  161   3.503   2.066   5.189  0.0139  0.2420  0.3252
    1AU       S  162   4.176   1.956   6.029 -0.2244  0.0225  0.3601
    1AU     LIG  163   3.820   1.797   6.066  0.0528  0.0208 -0.2104
    1AU     LIG  164   3.453   1.721   6.211  0.0883 -0.0575 -0.1195
    1AU     LIG  165   3.097   1.640   6.447 -0.1069  0.1745 -0.1908
    1AU    AUSL  166   5.225   2.044   7.243 -0.0259 -0.0170 -0.0770
    1AU    AUSL  167   4.882   2.222   7.012 -0.0055  0.0266  0.0979
    1AU     AUL  168   5.032   2.172   7.437  0.0161  0.0851  0.0448
    1AU       S  169   4.658   2.294   7.201 -0.1499  0.1443  0.2874
    1AU     LIG  170   4.766   2.731   7.180 -0.0886  0.3765 -0.1393
    1AU     LIG  171   4.828   3.073   6.874  0.2534  0.0179  0.2027
    1AU     LIG  172   4.864   3.545   7.008 -0.0083 -0.0588  0.1596
    1AU       S  173   5.461   2.421   7.537  0.2096  0.0555 -0.3034
    1AU     LIG  174   5.718   2.214   7.810 -0.4134 -0.0988 -0.1886
    1AU     LIG  175   6.063   1.914   7.724 -0.1166 -0.3298  0.5503
    1AU     LIG  176   6.371   1.609   7.745 -0.2530  0.0232  0.0268
    1AU    AUSL  177   5.190   2.489   7.156  0.0364 -0.0023 -0.0677
    1AU    AUSL  178   5.570   2.634   6.933 -0.0341 -0.0411  0.0406
    1AU     AUL  179   5.323   2.852   7.107 -0.0008 -0.0403  0.1035
    1AU       S  180   5.342   2.553   7.427  0.0657 -0.4129  0.2899
    1AU     LIG  181   4.979   2.660   7.633  0.0332 -0.2096  0.0844
    1AU     LIG  182   4.850   2.914   7.931  0.1734 -0.2317 -0.2712
    1AU     LIG  183   4.891   3.060   8.349 -0.0934  0.2950  0.4022
    1AU       S  184   5.653   3.013   6.829  0.4792  0.2328 -0.1037
    1AU     LIG  185   5.801   3.001   7.269 -0.1021  0.1599 -0.1926
    1AU     LIG  186   5.944   3.167   7.607 -0.0985 -0.3240 -0.3810
    1AU     LIG  187   6.157   3.009   7.980  0.2433  0.1097  0.0762
    1AU    AUSL  188   5.593   2.250   7.115 -0.0578  0.0304  0.0997
    1AU    AUSL  189   5.335   1.654   7.346 -0.1291 -0.1419  0.0753
    1AU     AUL  190   5.536   1.965   7.459 -0.0595  0.0937 -0.0169
    1AU       S  191   5.615   1.481   7.531 -0.2661 -0.2017 -0.2111
    1AU     LIG  192   5.510   1.220   7.888 -0.2188  0.0589 -0.1273
    1AU     LIG  193   5.582   0.791   8.119  0.2425 -0.0506  0.0239
    1AU     LIG  194   5.650   0.409   7.993 -0.1393  0.0549 -0.0811
    1AU       S  195   5.659   2.422   7.345  0.1794  0.0219  0.1536
    1AU     LIG  196   6.059   2.573   7.319  0.4836 -0.0307 -0.0992
    1AU     LIG  197   6.262   2.766   7.074  0.3134 -0.0448 -0.1029
    1AU     LIG  198   6.598   2.972   6.880  0.1451 -0.2404  0.0768
    1AU    AUSL  199   5.127   1.054   5.832 -0.0882  0.0395 -0.0508
    1AU    AUSL  200   5.823   1.346   5.888 -0.0702  0.0558  0.0726
    1AU     AUL  201   5.494   0.978   5.528 -0.0854  0.0086  0.0421
    1AU       S  202   5.622   0.725   6.269 -0.2550 -0.0579  0.2485
    1AU     LIG  203   6.032   0.534   6.301 -0.1524 -0.4238  0.2001
    1AU     LIG  204   6.233   0.122   6.318  0.1603  0.3090 -0.3777
    1AU     LIG  205   6.523   0.120   6.007  0.2017 -0.0522  0.3442
    1AU       S  206   5.055   0.799   5.707 -0.4330  0.2318  0.0358
    1AU     LIG  207   5.027   0.713   5.310  0.1176  0.1581  0.2195
    1AU     LIG  208   4.736   0.827   4.982 -0.0788  0.1254 -0.0781
    1AU     LIG  209   4.486   1.256   4.847 -0.3393  0.0107 -0.2902
    1AU    AUSL  210   4.894   1.299   6.065 -0.0226 -0.0277  0.0691
    1AU    AUSL  211   4.530   1.218   6.258  0.1093 -0.0724  0.0970
    1AU     AUL  212   4.633   1.153   5.844  0.0313 -0.0758 -0.0845
    1AU       S  213   4.793   0.734   5.726  0.1743 -0.6411 -0.1810
    1AU     LIG  214   4.758   0.458   6.013 -0.1116  0.0645 -0.3520
    1AU     LIG  215   4.778  -0.035   5.999  0.0967  0.2666  0.0683
    1AU     LIG  216   4.734  -0.476   6.019  0.1159 -0.3666 -0.1310
    1AU       S  217   4.257   1.145   6.148  0.2140  0.1153 -0.0920
    1AU     LIG  218   3.963   0.923   6.299  0.2151 -0.0985 -0.1844
    1AU     LIG  219   3.618   0.793   6.440 -0.2705 -0.3155  0.2427
    1AU     LIG  220   3.417   0.597   6.858  0.1293 -0.2665  0.1904
    1AU    AUSL  221   5.302   1.167   6.194  0.0370 -0.1345  0.0244
    1AU    AUSL  222   4.966   1.410   5.663  0.0431 -0.1583  0.0134
    1AU     AUL  223   4.868   0.953   6.133 -0.0624 -0.0900 -0.0446
    1AU       S  224   5.142   1.262   5.417  0.0095 -0.0373 -0.0396
    1AU     LIG  225   4.702   1.157   5.328 -0.4312 -0.0603  0.2088
    1AU     LIG  226   4.272   1.247   5.451 -0.1406  0.1151  0.2175
    1AU     LIG  227   3.948   1.045   5.556  0.0079  0.3014 -0.1038
    1AU       S  228   5.313   0.654   5.893 -0.4599 -0.3457 -0.5133
    1AU     LIG  229   5.220   0.236   5.961 -0.0795 -0.1806  0.0282
    1AU     LIG  230   5.133  -0.185   5.653  0.2330 -0.0747 -0.1087
    1AU     LIG  231   5.391  -0.267   5.206  0.0644  0.1123 -0.0513
    1AU    AUSL  232   5.561   2.656   6.519 -0.0715  0.0580  0.0733
    1AU    AUSL  233   5.778   2.317   6.718  0.0112  0.1085  0.0062
    1AU     AUL  234   5.826   2.592   6.898  0.0072 -0.0162 -0.0015
    1AU       S  235   5.653   2.898   6.505 -0.1785 -0.2717  0.2746
    1AU     LIG  236   5.915   3.249   6.360  0.0191  0.2141  0.0686
    1AU     LIG  237   6.186   3.517   6.525  0.1822  0.1474  0.1978
    1AU     LIG  238   6.359   3.874   6.487  0.0086 -0.1484  0.3665
    1AU       S  239   6.107   2.753   6.558 -0.2907  0.3108 -0.0106
    1AU     LIG  240   6.426   3.098   6.399 -0.2806 -0.1693 -0.0333
    1AU     LIG  241   6.707   3.491   6.351 -0.1921  0.2699 -0.1161
    1AU     LIG  242   7.064   3.609   6.664 -0.0294 -0.0183  0.4037
    1AU    AUSL  243   5.218   2.507   6.743  0.0293  0.0064  0.0545
    1AU    AUSL  244   5.206   2.687   6.316 -0.0531 -0.0622  0.0123
    1AU     AUL  245   5.190   2.830   6.656  0.0231 -0.0637  0.0119
    1AU       S  246   5.574   3.084   6.705 -0.1497 -0.5871  0.1602
    1AU     LIG  247   5.728   3.532   6.852 -0.1524  0.4558  0.1433
    1AU     LIG  248   6.139   3.834   6.925  0.2102 -0.2629  0.0361
    1AU     LIG  249   6.444   4.171   6.931  0.0361  0.3179 -0.1948
    1AU       S  250   4.992   3.046   6.270  0.4483  0.0538  0.1441
    1AU     LIG  251   5.049   3.545   6.264  0.1576 -0.1508  0.0367
    1AU     LIG  252   4.881   3.878   6.566  0.2092  0.1586  0.1700
    1AU     LIG  253   4.378   4.078   6.499 -0.2341  0.4811 -0.3333
    1AU    AUSL  254   5.298   1.679   5.493 -0.0119 -0.0303  0.0028
    1AU    AUSL  255   4.951   1.823   5.720 -0.0096 -0.0941  0.0266
    1AU     AUL  256   4.850   1.630   5.432  0.0935  0.0494  0.0133
    1AU       S  257   5.054   1.984   5.250 -0.0909  0.0860 -0.1543
    1AU     LIG  258   4.986   1.788   4.959 -0.1722  0.3916 -0.0194
    1AU     LIG  259   5.083   1.801   4.519 -0.1823  0.0849  0.0325
    1AU     LIG  260   5.198   1.561   4.133  0.0789 -0.2442  0.1524
    1AU       S  261   5.237   1.528   5.238  0.2820  0.0763 -0.0807
    1AU     LIG  262   5.437   1.578   4.865  0.0272 -0.0615 -0.0924
    1AU     LIG  263   5.844   1.698   4.741 -0.0565  0.0775 -0.0311
    1AU     LIG  264   6.117   1.701   4.438  0.0887  0.2474 -0.0343
    1AU    AUSL  265   5.393   1.400   5.803  0.0193 -0.0718  0.0223
    1AU    AUSL  266   5.689   1.690   5.655  0.0428  0.0355  0.0156
    1AU     AUL  267   5.605   1.403   5.518 -0.0312 -0.0462 -0.0405
    1AU       S  268   6.054   1.388   5.490 -0.2837 -0.0471  0.1895
    1AU     LIG  269   6.344   1.098   5.194  0.1460  0.0025 -0.0590
    1AU     LIG  270   6.278   0.881   4.810 -0.1870  0.3761 -0.2428
    1AU     LIG  271   6.428   0.593   4.613  0.2719 -0.2426  0.2851
    1AU       S  272   5.209   1.245   5.278  0.3361 -0.0166  0.0298
    1AU     LIG  273   5.434   1.107   4.920 -0.0951 -0.0348  0.1022
    1AU     LIG  274   5.705   0.817   4.720  0.0104 -0.2524 -0.0326
    1AU     LIG  275   5.911   0.837   4.318  0.3571  0.0815 -0.2092
    1AU    AUSL  276   5.409   1.106   7.042  0.0189  0.0650  0.0015
    1AU    AUSL  277   5.111   0.964   6.500 -0.0140  0.0151  0.0245
    1AU     AUL  278   5.368   0.846   6.797  0.0976 -0.0500 -0.0388
    1AU       S  279   5.219   0.714   6.363 -0.0148 -0.4774 -0.0131
    1AU     LIG  280   5.126   0.324   6.408 -0.2799  0.1584 -0.1013
    1AU     LIG  281   5.147  -0.161   6.310  0.2124 -0.2383 -0.1207
    1AU     LIG  282   5.442  -0.346   6.005 -0.4436  0.0616  0.2744
    1AU       S  283   5.268   0.833   7.263  0.3280 -0.4417 -0.1917
    1AU     LIG  284   5.234   0.422   7.310  0.2121 -0.0294  0.2283
    1AU     LIG  285   5.277   0.124   7.559 -0.1623 -0.0074 -0.0681
    1AU     LIG  286   5.054   0.001   7.923  0.3828  0.1377 -0.1173
    1AU    AUSL  287   4.986   1.109   6.870 -0.0011  0.0123  0.0172
    1AU    AUSL  288   4.732   1.444   6.998 -0.0077 -0.0425 -0.0354
    1AU     AUL  289   4.779   1.235   7.240 -0.0690 -0.0644  0.0539
    1AU       S  290   4.954   0.849   7.041 -0.0298 -0.0350  0.0482
    1AU     LIG  291   4.732   0.659   6.687 -0.0648  0.4059 -0.3757
    1AU     LIG  292   4.432   0.659   6.317  0.2057 -0.0551 -0.4560
    1AU     LIG  293   4.305   0.233   6.110  0.0928  0.1777 -0.0558
    1AU       S  294   4.445   1.120   6.952 -0.0824 -0.2173  0.5490
    1AU     LIG  295   4.457   0.879   7.224 -0.0952  0.3716 -0.3660
    1AU     LIG  296   4.299   0.414   7.220  0.1954 -0.0680  0.2523
    1AU     LIG  297   4.329  -0.016   7.453  0.0995  0.4477  0.2369
    1AU    AUSL  298   5.150   1.479   7.008  0.0173 -0.0753 -0.0040
    1AU    AUSL  299   5.571   1.488   6.979 -0.0506 -0.0314 -0.0817
    1AU     AUL  300   5.278   1.308   7.265 -0.0747 -0.0898  0.0367
    1AU       S  301   5.749   1.415   7.321  0.0884  0.4877  0.0070
    1AU     LIG  302   5.845   1.068   7.131 -0.2243 -0.0920  0.1487
    1AU     LIG  303   5.736   0.670   7.124  0.0109 -0.2542  0.2672
    1AU     LIG  304   5.746   0.403   7.390  0.0940 -0.2750 -0.0209
    1AU       S  305   5.058   0.883   7.315  0.0846  0.0740 -0.0620
    1AU     LIG  306   4.812   0.709   7.523  0.3763 -0.0103  0.1473
    1AU     LIG  307   4.752   0.779   7.934 -0.2425 -0.0823 -0.1872
    1AU     LIG  308   4.395   1.044   8.157 -0.5027  0.2035 -0.0327
    1AU    AUSL  309   6.095   2.044   6.085 -0.0045  0.0000  0.0315
    1AU    AUSL  310   5.883   2.440   6.315 -0.0550  0.0257 -0.0323
    1AU     AUL  311   6.284   2.266   6.263  0.0268  0.0318 -0.0713
    1AU       S  312   6.328   2.170   5.811 -0.2314  0.2815  0.1400
    1AU     LIG  313   6.718   2.108   5.909  0.0622 -0.3352  0.0147
    1AU     LIG  314   6.909   1.747   5.881 -0.0766 -0.0170 -0.1942
    1AU     LIG  315   7.191   1.410   6.074  0.0611 -0.0404 -0.4217
    1AU       S  316   6.031   2.635   6.318  0.0361  0.1291  0.1953
    1AU     LIG  317   6.095   2.879   5.996  0.0218 -0.0741 -0.0988
    1AU     LIG  318   6.327   3.217   5.931 -0.0984  0.4140  0.1791
    1AU     LIG  319   6.102   3.666   6.014 -0.2476  0.0143  0.2358
    1AU    AUSL  320   5.710   2.052   5.851 -0.0591 -0.0592  0.0110
    1AU    AUSL  321   5.844   1.710   6.086 -0.0580 -0.0376 -0.0290
    1AU     AUL  322   5.994   1.824   5.741 -0.0121  0.0530  0.0180
    1AU       S  323   6.209   2.203   5.625  0.3238  0.2216  0.0919
    1AU     LIG  324   6.517   2.476   5.496 -0.1725  0.0053  0.0848
    1AU     LIG  325   6.667   3.054   5.441  0.4379  0.1875  0.1515
    1AU     LIG  326   6.663   3.434   5.631 -0.1141 -0.0639  0.2009
    1AU       S  327   6.266   1.405   5.735 -0.4723  0.1183 -0.2106
    1AU     LIG  328   6.417   1.695   5.945 -0.0694 -0.1584  0.1091
    1AU     LIG  329   6.697   1.574   6.281  0.3624 -0.1508  0.0856
    1AU     LIG  330   6.929   1.714   6.589  0.2935 -0.2837 -0.1122
    1AU    AUSL  331   5.897   2.416   5.915 -0.0330 -0.0309  0.0079
    1AU    AUSL  332   5.527   2.409   5.668  0.0575  0.0373 -0.0382
    1AU     AUL  333   5.762   2.225   5.512 -0.0183 -0.0355  0.0006
    1AU       S  334   5.623   2.704   5.617 -0.0229 -0.2432  0.0848
    1AU     LIG  335   6.008   2.663   5.405  0.3430  0.2719  0.0971
    1AU     LIG  336   6.188   3.064   5.423 -0.1159  0.1594  0.2073
    1AU     LIG  337   6.183   3.519   5.513 -0.0502  0.1860 -0.0840
    1AU       S  338   6.153   2.436   5.783  0.3193  0.2006 -0.0819
    1AU     LIG  339   6.498   2.666   6.007 -0.0041  0.0794  0.2365
    1AU     LIG  340   6.807   2.973   5.968  0.3705  0.3205 -0.1694
    1AU     LIG  341   7.128   3.193   6.173  0.2163 -0.0769  0.3463
    1AU    AUSL  342   4.419   1.582   6.720  0.0612 -0.0742 -0.0202
    1AU    AUSL  343   4.856   1.785   7.211  0.0231 -0.0373 -0.0275
    1AU     AUL  344   4.450   1.656   7.081  0.0826  0.0477  0.0657
    1AU       S  345   4.329   1.190   6.910 -0.0071 -0.0300  0.2754
    1AU     LIG  346   4.053   1.267   7.213  0.1713  0.1876  0.2222
    1AU     LIG  347   3.847   1.208   7.574 -0.0500  0.0086 -0.2220
    1AU     LIG  348   4.000   1.122   7.882 -0.2084  0.1992 -0.0842
    1AU       S  349   4.629   1.958   7.368 -0.3066 -0.0454 -0.1425
    1AU     LIG  350   4.537   1.584   7.592 -0.0169  0.2711  0.2048
    1AU     LIG  351   4.364   1.235   7.614  0.0420  0.0999  0.1010
    1AU     LIG  352   4.304   0.787   7.680 -0.0643  0.1268  0.0841
    1AU    AUSL  353   4.747   1.300   6.596 -0.0746  0.0292 -0.0058
    1AU    AUSL  354   4.576   1.631   6.345  0.0122  0.0416  0.0521
    1AU     AUL  355   4.343   1.405   6.515  0.0968 -0.0394 -0.0101
    1AU       S  356   4.563   1.045   6.747  0.3713  0.1913 -0.2033
    1AU     LIG  357   4.154   0.769   6.706 -0.2557 -0.1059  0.0119
    1AU     LIG  358   3.976   0.339   6.542  0.0877  0.0209  0.2851
    1AU     LIG  359   3.806  -0.038   6.661 -0.1429 -0.1123 -0.2258
    1AU       S  360   4.137   1.445   6.079  0.0880 -0.0044  0.2527
    1AU     LIG  361   3.779   1.333   6.263  0.1218 -0.2765 -0.0171
    1AU     LIG  362   3.453   1.356   6.523 -0.4008  0.4592  0.3243
    1AU     LIG  363   3.232   1.127   6.763  0.0698 -0.4150 -0.0410
    1AU    AUSL  364   5.172   2.475   5.876 -0.0618 -0.0336  0.1075
    1AU    AUSL  365   5.281   2.076   5.653 -0.0018 -0.0321 -0.0628
    1AU     AUL  366   5.170   2.463   5.567 -0.0007 -0.0392  0.0092
    1AU       S  367   5.255   2.102   5.318  0.1342 -0.0439  0.2093
    1AU     LIG  368   5.569   1.914   5.165  0.2671  0.0926 -0.0519
    1AU     LIG  369   6.010   1.840   5.245 -0.0807  0.3538 -0.1650
    1AU     LIG  370   6.312   1.567   5.075  0.2482 -0.3060  0.0500
    1AU       S  371   5.513   2.857   5.602  0.2890 -0.2002 -0.6104
    1AU     LIG  372   5.253   3.268   5.680 -0.2667 -0.0041 -0.3350
    1AU     LIG  373   5.447   3.668   5.882 -0.1869 -0.1440  0.1428
    1AU     LIG  374   5.243   4.008   6.118  0.0842 -0.0589 -0.5493
    1AU    AUSL  375   5.539   2.578   6.077 -0.0161 -0.0026 -0.0134
    1AU    AUSL  376   4.851   2.604   6.101  0.0539  0.0240 -0.1132
    1AU     AUL  377   5.138   2.783   5.926  0.0388  0.0290  0.0040
    1AU       S  378   5.599   2.823   5.951 -0.0246  0.2013 -0.0625
    1AU     LIG  379   5.454   3.179   6.151 -0.6880  0.3200 -0.3534
    1AU     LIG  380   5.530   3.576   6.319  0.0711  0.1761 -0.1292
    1AU     LIG  381   5.762   3.835   6.499 -0.4120  0.1938 -0.0519
    1AU       S  382   4.708   2.874   6.135  0.4239  0.2412  0.1442
    1AU     LIG  383   4.415   2.772   5.786 -0.2039  0.0960  0.0748
    1AU     LIG  384   4.212   2.583   5.502  0.1609  0.1913  0.0232
    1AU     LIG  385   3.887   2.339   5.335  0.1504  0.2397  0.3136
    2POPC   NC3  386   6.338   5.883   8.259 -0.0222  0.0576 -0.0103
    2POPC   PO4  387   6.467   6.311   8.202 -0.2535  0.2771  0.1634
    2POPC   GL1  388   6.359   6.241   7.710  0.2280  0.0114 -0.0467
    2POPC   GL2  389   6.374   5.877   7.643 -0.1505  0.1486 -0.4294
    2POPC   C1A  390   6.324   6.327   7.188  0.1569 -0.0844 -0.0799
    2POPC   D2A  391   6.109   6.383   6.671 -0.4494  0.0442 -0.1299
    2POPC   C3A  392   6.048   6.322   6.259  0.0958  0.3593 -0.0863
    2POPC   C4A  393   5.885   6.346   5.877 -0.3228 -0.0647  0.1292
    2POPC   C1B  394   6.324   5.809   7.194  0.2268 -0.0683 -0.1638
    2POPC   C2B  395   6.506   5.643   6.885 -0.1577  0.0221 -0.0107
    2POPC   C3B  396   6.509   5.439   6.647 -0.0800 -0.1640  0.1524
    2POPC   C4B  397   6.680   5.066   6.419  0.3593 -0.1259  0.3725
    3POPC   NC3  398   6.173   1.747   9.242  0.0174 -0.0164 -0.1144
    3POPC   PO4  399   6.288   2.147   8.980 -0.1752 -0.1260 -0.1067
    3POPC   GL1  400   6.086   2.245   8.633 -0.2572 -0.1568 -0.2494
    3POPC   GL2  401   6.054   2.546   8.434 -0.0983 -0.0253 -0.0624
    3POPC   C1A  402   5.731   2.162   8.346  0.1274 -0.0851  0.1445
    3POPC   D2A  403   5.288   2.089   8.295  0.0007  0.1007 -0.1039
    3POPC   C3A  404   4.959   1.789   8.200 -0.1094  0.1524 -0.0172
    3POPC   C4A  405   4.537   1.496   8.095 -0.0590  0.1446  0.0390
    3POPC   C1B  406   5.851   2.643   8.028  0.1876 -0.1099 -0.0993
    3POPC   C2B  407   5.661   2.808   7.708 -0.0383  0.0358 -0.0900
    3POPC   C3B  408   5.433   3.067   7.737 -0.1154  0.3240 -0.2371
    3POPC   C4B  409   5.189   3.305   7.994  0.4142  0.0505  0.0028
    4POPC   NC3  410   7.289   5.730   8.050 -0.1462  0.1631 -0.1296
    4POPC   PO4  411   7.472   5.345   8.184 -0.0001  0.0185  0.0436
    4POPC   GL1  412   7.337   5.232   7.723  0.0049 -0.0233  0.1643
    4POPC   GL2  413   7.201   5.554   7.601 -0.0553 -0.1173  0.0133
    4POPC   C1A  414   7.129   5.118   7.331 -0.2735 -0.0155  0.1012
    4POPC   D2A  415   6.957   4.949   6.895  0.3173  0.3041 -0.2884
    4POPC   C3A  416   7.087   5.337   6.623  0.0775  0.1723 -0.3237
    4POPC   C4A  417   6.964   5.691   6.424 -0.0696  0.1335  0.0132
    4POPC   C1B  418   7.537   5.626   7.196 -0.0921  0.4460  0.2416
    4POPC   C2B  419   7.493   5.593   6.731 -0.1213 -0.0459 -0.2106
    4POPC   C3B  420   7.376   5.556   6.239  0.1397  0.1848 -0.1069
    4POPC   C4B  421   7.526   5.335   5.880 -0.0159  0.1274 -0.1138
    5POPC   NC3  422   7.682   2.193   8.195 -0.1277 -0.2877  0.0711
    5POPC   PO4  423   8.060   2.454   8.187 -0.0173  0.0948 -0.6488
    5POPC   GL1  424   7.906   2.463   7.758  0.1355  0.0825 -0.2372
    5POPC   GL2  425   8.066   2.629   7.533  0.1318 -0.4070  0.0894
    5POPC   C1A  426   7.435   2.380   7.598  0.2179  0.0195  0.1307
    5POPC   D2A  427   7.153   2.408   7.270  0.4416 -0.0056  0.0138
    5POPC   C3A  428   7.281   2.700   6.915 -0.1631 -0.0854  0.1109
    5POPC   C4A  429   7.127   3.078   6.693 -0.0154  0.4374  0.0592
    5POPC   C1B  430   8.172   2.651   7.100 -0.1332 -0.1301  0.1969
    5POPC   C2B  431   7.917   2.708   6.741  0.0802 -0.2089 -0.0668
    5POPC   C3B  432   7.601   2.947   6.542 -0.0861 -0.2214  0.0649
    5POPC   C4B  433   7.495   3.339   6.463 -0.0496 -0.2381  0.1317
    6POPC   NC3  434   3.263   1.889   8.549  0.0897 -0.0361  0.0375
    6POPC   PO4  435   2.796   1.870   8.788 -0.2811 -0.1524 -0.0757
    6POPC   GL1  436   2.813   1.714   8.303  0.0353  0.1568  0.0847
    6POPC   GL2  437   2.868   1.947   8.082 -0.1449  0.0365  0.0264
    6POPC   C1A  438   2.933   1.469   7.909  0.2153 -0.0519  0.0084
    6POPC   D2A  439   3.003   1.408   7.383  0.0158  0.0519  0.0234
    6POPC   C3A  440   3.066   1.674   7.055  0.4373  0.4013 -0.0461
    6POPC   C4A  441   3.338   1.936   7.290 -0.3350  0.2618 -0.2453
    6POPC   C1B  442   3.311   1.920   7.875 -0.4905  0.1304 -0.0321
    6POPC   C2B  443   3.729   2.009   7.650  0.0849  0.3387 -0.1163
    6POPC   C3B  444   4.059   2.181   7.475  0.1179 -0.0722 -0.0432
    6POPC   C4B  445   4.234   2.471   7.199  0.0600 -0.0973 -0.2832
    7POPC   NC3  446   2.617   5.103   8.222 -0.0146 -0.3116  0.0543
    7POPC   PO4  447   2.443   5.409   8.051  0.1459  0.2139  0.2453
    7POPC   GL1  448   2.300   5.244   7.671 -0.0121 -0.1474 -0.0470
    7POPC   GL2  449   2.310   4.978   7.814 -0.3119 -0.0643 -0.3088
    7POPC   C1A  450   2.435   4.935   7.347  0.0816 -0.2195 -0.0074
    7POPC   D2A  451   2.404   4.698   6.928 -0.1533  0.3992  0.1471
    7POPC   C3A  452   2.716   4.434   6.769  0.2404 -0.0001 -0.0128
    7POPC   C4A  453   2.973   3.996   6.639 -0.1215 -0.3332  0.0528
    7POPC   C1B  454   2.013   4.768   7.585 -0.0455  0.0390  0.2521
    7POPC   C2B  455   1.945   4.890   7.139 -0.0799  0.0758  0.1060
    7POPC   C3B  456   1.880   5.124   6.869  0.0814  0.1764 -0.0177
    7POPC   C4B  457   1.912   5.250   6.408  0.0986  0.1514  0.2001
    8POPC   NC3  458   1.930   7.730   8.577  0.1399 -0.0854 -0.1063
    8POPC   PO4  459   1.760   8.208   8.430 -0.1791 -0.0230  0.3273
    8POPC   GL1  460   1.751   8.289   7.953 -0.0339  0.0313  0.0179
    8POPC   GL2  461   1.984   8.154   7.672  0.1119 -0.0003  0.0058
    8POPC   C1A  462   1.521   8.431   7.633 -0.1166 -0.0626  0.1804
    8POPC   D2A  463   1.372   8.356   7.313 -0.1560 -0.0622 -0.0771
    8POPC   C3A  464   1.361   8.536   6.931 -0.1747 -0.0030  0.1139
    8POPC   C4A  465   1.270   8.634   6.570  0.1065  0.2173  0.3156
    8POPC   C1B  466   1.656   7.959   7.445  0.2389  0.3792  0.0171
    8POPC   C2B  467   1.633   7.749   7.088  0.2147 -0.1634  0.2027
    8POPC   C3B  468   1.707   7.458   6.733 -0.1222 -0.0080 -0.0790
    8POPC   C4B  469   2.043   7.412   6.264 -0.2638  0.2668 -0.0789
    9POPC   NC3  470   2.366   2.677   8.785  0.0361 -0.1204 -0.2338
    9POPC   PO4  471   1.880   2.788   8.579  0.1306 -0.1223 -0.2156
    9POPC   GL1  472   1.917   2.893   8.148 -0.0994 -0.0009  0.0284
    9POPC   GL2  473   2.272   2.866   8.195  0.1359 -0.0210 -0.0749
    9POPC   C1A  474   1.852   3.002   7.665 -0.1113  0.2936 -0.4987
    9POPC   D2A  475   1.873   3.165   7.381 -0.3362  0.0146  0.0840
    9POPC   C3A  476   1.854   2.974   7.008  0.2984 -0.2932 -0.0678
    9POPC   C4A  477   1.705   2.600   7.008  0.0497 -0.2214 -0.0684
    9POPC   C1B  478   2.297   3.186   7.856 -0.1690 -0.3589 -0.0173
    9POPC   C2B  479   2.479   3.342   7.445  0.2265  0.1310  0.0083
    9POPC   C3B  480   2.686   3.531   7.156 -0.1464  0.1711  0.1607
    9POPC   C4B  481   3.056   3.496   6.792  0.1999  0.1632  0.0189
   10POPC   NC3  482   0.089   8.565   8.340 -0.0381 -0.0274 -0.3153
   10POPC   PO4  483   0.510   8.416   8.333  0.0116 -0.3193 -0.0389
   10POPC   GL1  484   0.376   8.567   7.909 -0.0609 -0.1013 -0.0644
   10POPC   GL2  485   0.103   8.594   7.670 -0.1005 -0.0621 -0.0153
   10POPC   C1A  486   0.597   8.603   7.504  0.3278 -0.3242 -0.0461
   10POPC   D2A  487   0.873   8.430   7.228 -0.1478  0.0591  0.0139
   10POPC   C3A  488   0.834   8.506   6.788  0.1447  0.0934  0.0456
   10POPC   C4A  489   0.782   8.552   6.333 -0.3561 -0.0832  0.2914
   10POPC   C1B  490   0.135   8.536   7.250  0.1102 -0.0318 -0.1387
   10POPC   C2B  491   0.178   8.245   6.887 -0.0579 -0.1992  0.0946
   10POPC   C3B  492   0.190   7.995   6.571  0.0390  0.0129  0.0262
   10POPC   C4B  493   0.293   7.846   6.217 -0.1747 -0.2184  0.2592
   11POPC   NC3  494   9.545   0.398   8.403 -0.0236 -0.1965  0.1802
   11POPC   PO4  495   9.210   0.447   8.141 -0.0409  0.0690 -0.0469
   11POPC   GL1  496   9.192   0.413   7.744 -0.0400  0.1394 -0.0019
   11POPC   GL2  497   9.468   0.400   7.551  0.0228  0.0707 -0.0334
   11POPC   C1A  498   8.910   0.500   7.470 -0.1443  0.2961 -0.1449
   11POPC   D2A  499   8.712   0.607   7.052 -0.3951  0.0158 -0.0248
   11POPC   C3A  500   8.975   0.746   6.648  0.1185  0.2280 -0.2749
   11POPC   C4A  501   8.761   0.896   6.227  0.2424  0.0486 -0.0071
   11POPC   C1B  502   9.775   0.143   7.292  0.1949 -0.1632 -0.1010
   11POPC   C2B  503   9.926  -0.174   7.166  0.0485  0.2361  0.1218
   11POPC   C3B  504  10.098  -0.552   7.034  0.2226 -0.2428  0.1468
   11POPC   C4B  505  10.474  -0.858   7.088  0.1855  0.2789  0.1750
   12POPC   NC3  506   7.939   0.440   8.374 -0.0541 -0.0326  0.0479
   12POPC   PO4  507   8.290   0.318   8.506  0.0189  0.0715 -0.0783
   12POPC   GL1  508   8.362   0.165   8.045 -0.2211  0.0592 -0.3229
   12POPC   GL2  509   8.706   0.040   8.116  0.2160  0.0550  0.1743
   12POPC   C1A  510   8.355   0.386   7.604 -0.1487  0.2186 -0.2446
   12POPC   D2A  511   8.291   0.400   7.141  0.1577 -0.0119  0.0478
   12POPC   C3A  512   8.169   0.800   7.098 -0.0203 -0.2006 -0.0217
   12POPC   C4A  513   8.066   1.320   7.387 -0.0556  0.1047  0.1315
   12POPC   C1B  514   8.614  -0.087   7.691  0.0543 -0.1719  0.0660
   12POPC   C2B  515   8.555  -0.012   7.248  0.0926  0.2597  0.1383
   12POPC   C3B  516   8.438   0.000   6.808  0.0504  0.0798 -0.0146
   12POPC   C4B  517   8.612  -0.125   6.387  0.2143  0.0117  0.2096
   13POPC   NC3  518   2.748   1.363   8.711 -0.3927 -0.5066  0.1420
   13POPC   PO4  519   2.897   1.022   8.579 -0.1972 -0.0708 -0.2867
   13POPC   GL1  520   2.929   0.963   8.045 -0.1159 -0.3320  0.0452
   13POPC   GL2  521   2.665   0.792   7.919 -0.1549 -0.1660 -0.1936
   13POPC   C1A  522   3.156   1.002   7.617 -0.2366  0.0388  0.2794
   13POPC   D2A  523   3.217   0.919   7.213 -0.1647 -0.1640  0.3758
   13POPC   C3A  524   3.634   0.925   7.223  0.2111  0.0450  0.1150
   13POPC   C4A  525   3.930   0.747   7.386  0.0101  0.0181 -0.2616
   13POPC   C1B  526   2.578   1.052   7.586  0.1356 -0.0944 -0.2090
   13POPC   C2B  527   2.522   1.296   7.267 -0.0851  0.0671 -0.0348
   13POPC   C3B  528   2.489   1.580   7.069 -0.2422 -0.0991  0.2102
   13POPC   C4B  529   2.247   1.844   6.736 -0.1813  0.1661 -0.0117
   14POPC   NC3  530   6.736   4.305   8.770 -0.0173  0.0712 -0.0975
   14POPC   PO4  531   6.641   4.661   8.485  0.1360 -0.1774  0.0919
   14POPC   GL1  532   6.558   4.687   8.092 -0.1796  0.1074 -0.0311
   14POPC   GL2  533   6.470   5.000   7.851  0.2652  0.0680  0.3331
   14POPC   C1A  534   6.616   4.554   7.742 -0.1152 -0.0663 -0.0976
   14POPC   D2A  535   6.412   4.232   7.518  0.0287 -0.1190  0.0669
   14POPC   C3A  536   6.062   4.151   7.392 -0.2146 -0.0866  0.1849
   14POPC   C4A  537   5.759   3.967   7.210 -0.1991  0.0664 -0.2407
   14POPC   C1B  538   6.663   4.914   7.421  0.0146 -0.2357  0.0527
   14POPC   C2B  539   6.794   4.610   7.211  0.2137 -0.0409  0.2808
   14POPC   C3B  540   6.941   4.431   6.863 -0.2727 -0.0098  0.4855
   14POPC   C4B  541   6.980   4.596   6.447 -0.1156 -0.3554 -0.2187
   15POPC   NC3  542   5.202   5.291   8.895 -0.2147  0.3357 -0.2807
   15POPC   PO4  543   5.272   5.019   8.524 -0.1843  0.1097  0.3562
   15POPC   GL1  544   5.453   4.915   8.130 -0.0678 -0.2864 -0.1276
   15POPC   GL2  545   5.781   4.960   7.917  0.1019 -0.2649  0.0828
   15POPC   C1A  546   5.333   4.641   7.701 -0.5620 -0.0671  0.1937
   15POPC   D2A  547   5.264   4.266   7.446 -0.0242 -0.0222 -0.0127
   15POPC   C3A  548   5.222   3.948   7.218 -0.1582 -0.2591 -0.2191
   15POPC   C4A  549   5.350   3.817   6.821 -0.0064 -0.0298  0.0822
   15POPC   C1B  550   5.637   5.077   7.535  0.1521 -0.0008  0.2642
   15POPC   C2B  551   5.690   5.034   7.146  0.0920 -0.2256  0.2204
   15POPC   C3B  552   5.891   4.806   6.820  0.0736  0.3370  0.1145
   15POPC   C4B  553   5.994   4.754   6.456 -0.0312  0.0528 -0.0890
   16POPC   NC3  554   4.577   8.400   8.045 -0.0273 -0.0817  0.0148
   16POPC   PO4  555   4.251   8.054   7.809  0.2027 -0.2453  0.2253
   16POPC   GL1  556   3.923   8.227   7.486  0.0355  0.3965  0.2593
   16POPC   GL2  557   3.572   8.195   7.475 -0.0120  0.1415  0.0121
   16POPC   C1A  558   3.929   8.362   7.060  0.0641  0.3217  0.1003
   16POPC   D2A  559   4.158   8.363   6.686 -0.1471 -0.0704  0.2619
   16POPC   C3A  560   4.027   8.078   6.510 -0.0117  0.1757  0.5203
   16POPC   C4A  561   4.086   7.704   6.160 -0.2445  0.2250  0.1337
   16POPC   C1B  562   3.424   8.349   7.041 -0.1465  0.2304  0.2173
   16POPC   C2B  563   3.238   8.372   6.630 -0.3479  0.1234  0.1191
   16POPC   C3B  564   2.969   8.267   6.313  0.0024  0.3024  0.0444
   16POPC   C4B  565   2.625   8.335   5.966  0.2637 -0.3733 -0.1499
   17POPC   NC3  566   7.779   8.212   8.075 -0.0373 -0.0771 -0.0446
   17POPC   PO4  567   7.406   8.091   8.281 -0.1184  0.0413 -0.2035
   17POPC   GL1  568   7.193   8.165   7.857 -0.0482  0.0678 -0.2025
   17POPC   GL2  569   7.491   8.103   7.651  0.1704  0.0206 -0.1492
   17POPC   C1A  570   7.015   8.385   7.509  0.0704  0.1797  0.2776
   17POPC   D2A  571   6.879   8.492   7.212 -0.0294 -0.0344 -0.0076
   17POPC   C3A  572   6.873   8.218   6.837 -0.1961 -0.0341 -0.1484
   17POPC   C4A  573   6.927   8.260   6.348  0.1065 -0.2021  0.2121
   17POPC   C1B  574   7.454   8.312   7.296  0.0015 -0.0753  0.2335
   17POPC   C2B  575   7.249   8.499   6.906  0.0294  0.0535 -0.0824
   17POPC   C3B  576   6.898   8.718   6.758  0.2275 -0.1721  0.0896
   17POPC   C4B  577   6.844   9.110   6.580 -0.1126 -0.1265  0.1782
   18POPC   NC3  578   3.842   8.418   7.984 -0.1782 -0.2126  0.2049
   18POPC   PO4  579   4.141   8.380   8.217 -0.1060  0.1692  0.1070
   18POPC   GL1  580   4.216   8.719   7.841 -0.0895 -0.2328  0.2043
   18POPC   GL2  581   4.218   8.593   7.583  0.0273 -0.0585  0.2557
   18POPC   C1A  582   4.562   9.005   7.658 -0.0281  0.0392  0.1809
   18POPC   D2A  583   4.731   9.383   7.461  0.0812 -0.4291  0.1963
   18POPC   C3A  584   4.590   9.466   7.021  0.2529 -0.0343  0.1020
   18POPC   C4A  585   4.292   9.846   6.808 -0.1084 -0.3019  0.0034
   18POPC   C1B  586   4.354   8.746   7.235 -0.2248 -0.0697 -0.2112
   18POPC   C2B  587   4.731   8.955   7.154 -0.0353 -0.1085 -0.0934
   18POPC   C3B  588   5.075   9.079   6.957  0.1856  0.0316 -0.1483
   18POPC   C4B  589   4.952   9.346   6.713  0.2265  0.0092  0.2114
   19POPC   NC3  590   7.873   9.723   8.440  0.2840 -0.3660  0.2702
   19POPC   PO4  591   7.701   9.419   8.450  0.0556  0.3624 -0.0115
   19POPC   GL1  592   7.824   9.485   8.012 -0.0969 -0.0130 -0.1098
   19POPC   GL2  593   8.115   9.514   7.948 -0.2268 -0.0297 -0.2359
   19POPC   C1A  594   7.629   9.565   7.669 -0.0001  0.1822 -0.1637
   19POPC   D2A  595   7.363   9.802   7.266 -0.0985  0.1785 -0.2624
   19POPC   C3A  596   7.384   9.905   6.778  0.1075  0.1360 -0.0497
   19POPC   C4A  597   7.232  10.256   6.627  0.1672  0.1183  0.0413
   19POPC   C1B  598   8.127   9.479   7.586  0.1524 -0.2263  0.1204
   19POPC   C2B  599   8.222   9.378   7.161 -0.0853  0.1536  0.0922
   19POPC   C3B  600   8.568   9.301   6.817  0.1502 -0.1844  0.1226
   19POPC   C4B  601   8.759   9.011   6.636 -0.3895  0.2547 -0.3041
   20POPC   NC3  602   7.629   9.027   8.129 -0.0240  0.1805 -0.0380
   20POPC   PO4  603   7.498   8.540   7.942 -0.0225 -0.0939  0.2025
   20POPC   GL1  604   7.446   8.739   7.654 -0.0193  0.0801 -0.0967
   20POPC   GL2  605   7.677   9.110   7.592  0.2231 -0.0831  0.2490
   20POPC   C1A  606   7.355   8.891   7.174  0.0052  0.3907 -0.0330
   20POPC   D2A  607   7.332   8.928   6.685  0.4286 -0.1847  0.2383
   20POPC   C3A  608   7.385   8.611   6.378 -0.0587 -0.1644 -0.0743
   20POPC   C4A  609   7.311   8.299   6.015 -0.0806  0.1404  0.3498
   20POPC   C1B  610   7.662   9.380   7.220 -0.0808  0.2731  0.0664
   20POPC   C2B  611   7.567   9.459   6.731 -0.1222 -0.1055 -0.0016
   20POPC   C3B  612   7.330   9.314   6.355 -0.1127  0.1619 -0.3631
   20POPC   C4B  613   7.051   9.161   5.995 -0.1648  0.0860  0.0549
   21POPC   NC3  614   6.655   8.725   8.248  0.0985 -0.1233  0.1029
   21POPC   PO4  615   6.460   8.313   8.062  0.0586 -0.0423  0.3550
   21POPC   GL1  616   6.542   8.579   7.757  0.0856 -0.0314 -0.2169
   21POPC   GL2  617   6.821   8.741   7.797 -0.2659  0.0893 -0.1541
   21POPC   C1A  618   6.470   8.632   7.342  0.1189 -0.1830  0.0407
   21POPC   D2A  619   6.590   9.022   7.063 -0.3568  0.1833  0.1363
   21POPC   C3A  620   6.405   9.216   6.729  0.2441  0.1784 -0.2065
   21POPC   C4A  621   6.100   9.423   6.425 -0.1679  0.3138  0.0808
   21POPC   C1B  622   6.942   9.040   7.416  0.0484  0.0798  0.1682
   21POPC   C2B  623   7.062   9.313   7.043 -0.2245 -0.0475 -0.1886
   21POPC   C3B  624   6.990   9.586   6.751 -0.1734  0.0023 -0.0022
   21POPC   C4B  625   7.117   9.792   6.306  0.2740  0.2533  0.0390
   22POPC   NC3  626   9.222   5.923   7.852 -0.0375 -0.0025 -0.2035
   22POPC   PO4  627   9.217   6.389   7.973 -0.1161  0.0291 -0.3863
   22POPC   GL1  628   9.020   6.285   7.529 -0.4672  0.2877  0.2447
   22POPC   GL2  629   8.791   6.047   7.551 -0.2565  0.3701 -0.1686
   22POPC   C1A  630   9.006   6.381   7.046 -0.3791 -0.2331  0.0824
   22POPC   D2A  631   9.048   6.606   6.633 -0.2088  0.0766  0.1916
   22POPC   C3A  632   8.915   7.108   6.570 -0.1358  0.2164  0.1578
   22POPC   C4A  633   9.279   7.390   6.583 -0.1299 -0.0639  0.1730
   22POPC   C1B  634   8.818   5.834   7.175 -0.1726  0.1394 -0.1619
   22POPC   C2B  635   8.837   5.718   6.741 -0.2403 -0.0165  0.2490
   22POPC   C3B  636   8.697   5.719   6.322  0.2262  0.0338  0.0724
   22POPC   C4B  637   8.577   5.449   5.946 -0.2846  0.0889 -0.1764
   23POPC   NC3  638   3.614   5.228   8.398  0.0594 -0.0159  0.0673
   23POPC   PO4  639   3.637   5.656   8.316  0.0413  0.1110 -0.1352
   23POPC   GL1  640   3.475   5.466   7.930 -0.2250  0.1320  0.0206
   23POPC   GL2  641   3.716   5.430   7.638 -0.6376 -0.2114 -0.1950
   23POPC   C1A  642   3.247   5.670   7.484  0.0379  0.1103 -0.1018
   23POPC   D2A  643   3.097   5.854   7.183  0.0746  0.1460  0.0408
   23POPC   C3A  644   2.944   5.850   6.843  0.0044 -0.0016  0.0938
   23POPC   C4A  645   2.876   6.090   6.443 -0.1460  0.1399 -0.0331
   23POPC   C1B  646   3.659   5.480   7.189  0.2013 -0.2052  0.0486
   23POPC   C2B  647   3.543   5.184   6.918 -0.2528 -0.2854  0.0520
   23POPC   C3B  648   3.449   5.063   6.543 -0.1703 -0.1960 -0.0493
   23POPC   C4B  649   3.172   5.064   6.223  0.0194  0.0052  0.0685
   24POPC   NC3  650   3.126   3.564   8.874 -0.0826 -0.0614  0.1678
   24POPC   PO4  651   3.421   3.672   8.561  0.0766  0.0385 -0.2616
   24POPC   GL1  652   3.429   3.596   8.248  0.3722 -0.0492  0.2211
   24POPC   GL2  653   3.704   3.463   8.097  0.0339  0.1209  0.1377
   24POPC   C1A  654   3.284   3.307   7.890 -0.1301  0.0992 -0.3379
   24POPC   D2A  655   3.135   3.279   7.489 -0.2328  0.0361  0.1825
   24POPC   C3A  656   3.332   3.489   7.217 -0.2999 -0.0605  0.0554
   24POPC   C4A  657   3.574   3.689   6.894  0.2438  0.0617  0.0825
   24POPC   C1B  658   4.003   3.453   7.706 -0.3729 -0.2799 -0.2874
   24POPC   C2B  659   3.946   3.441   7.183  0.0528 -0.1022 -0.0225
   24POPC   C3B  660   4.005   3.226   6.688 -0.0087  0.1459  0.0036
   24POPC   C4B  661   4.215   2.930   6.373 -0.1665 -0.0054  0.1831
   25POPC   NC3  662   2.584   4.158   8.382  0.0946  0.2690 -0.3347
   25POPC   PO4  663   2.189   4.273   8.529  0.0841  0.3097  0.2554
   25POPC   GL1  664   1.884   4.387   8.080  0.2427  0.1202  0.1566
   25POPC   GL2  665   1.566   4.449   8.015  0.2033  0.6283  0.1202
   25POPC   C1A  666   1.955   4.226   7.646  0.3156 -0.1765  0.0402
   25POPC   D2A  667   2.288   4.410   7.424 -0.1184  0.0963  0.2409
   25POPC   C3A  668   2.103   4.264   7.116 -0.1278  0.1376 -0.1078
   25POPC   C4A  669   1.800   3.976   7.125 -0.1726  0.1061  0.1029
   25POPC   C1B  670   1.584   4.678   7.732  0.0025  0.1567 -0.0511
   25POPC   C2B  671   1.473   4.965   7.365  0.2561 -0.1241 -0.1946
   25POPC   C3B  672   1.416   5.167   7.039 -0.0288 -0.5352 -0.0572
   25POPC   C4B  673   1.418   5.100   6.624 -0.2384  0.0178  0.1831
   26POPC   NC3  674   3.921   3.844   8.521  0.2211  0.2124  0.2380
   26POPC   PO4  675   4.108   4.261   8.478 -0.2691  0.1236  0.2134
   26POPC   GL1  676   3.849   4.218   8.089 -0.4384  0.0268  0.0656
   26POPC   GL2  677   3.998   3.919   8.018 -0.0212  0.0510  0.0800
   26POPC   C1A  678   3.906   4.181   7.594 -0.1384  0.0567 -0.0373
   26POPC   D2A  679   3.765   4.292   7.105 -0.1143 -0.4531  0.0264
   26POPC   C3A  680   3.916   4.014   6.751  0.4437  0.1059 -0.0522
   26POPC   C4A  681   3.898   3.726   6.474 -0.1511  0.0474 -0.1317
   26POPC   C1B  682   4.343   3.967   7.766 -0.2013  0.1720  0.2303
   26POPC   C2B  683   4.507   3.647   7.435 -0.0754  0.1740  0.0802
   26POPC   C3B  684   4.410   3.306   7.174 -0.0196  0.1389  0.3288
   26POPC   C4B  685   4.292   2.891   6.976  0.2337  0.0161  0.0246
   27POPC   NC3  686   2.065   5.492   8.340 -0.3028  0.0780  0.0311
   27POPC   PO4  687   2.046   5.898   8.138 -0.4413  0.2623  0.0230
   27POPC   GL1  688   2.168   5.788   7.770 -0.3208  0.0443 -0.1922
   27POPC   GL2  689   2.512   5.749   7.674  0.0193 -0.3487  0.2131
   27POPC   C1A  690   2.098   5.894   7.297  0.0064 -0.4074 -0.1360
   27POPC   D2A  691   1.913   6.101   6.909  0.4129  0.0391  0.1115
   27POPC   C3A  692   1.999   6.006   6.559 -0.0162  0.0697 -0.2432
   27POPC   C4A  693   1.988   6.252   6.101 -0.0951  0.0839  0.0498
   27POPC   C1B  694   2.607   5.833   7.314 -0.0325  0.1440  0.1269
   27POPC   C2B  695   2.797   6.240   7.341  0.1238 -0.0663  0.1647
   27POPC   C3B  696   2.442   6.478   7.106  0.0018  0.1904  0.1592
   27POPC   C4B  697   2.399   6.863   6.910  0.0959  0.3695 -0.2424
   28POPC   NC3  698   8.183   6.557   8.067  0.2996  0.0168 -0.0245
   28POPC   PO4  699   8.279   7.016   8.142 -0.2713 -0.2457 -0.1282
   28POPC   GL1  700   8.236   6.968   7.584  0.0517  0.0197  0.1570
   28POPC   GL2  701   8.159   6.626   7.439  0.0885 -0.0056 -0.1937
   28POPC   C1A  702   8.459   7.143   7.206 -0.2158  0.1527 -0.1081
   28POPC   D2A  703   8.518   7.238   6.858 -0.0474 -0.0600 -0.0193
   28POPC   C3A  704   8.702   7.684   6.846 -0.1213  0.1530 -0.3231
   28POPC   C4A  705   8.775   8.036   6.853 -0.0022  0.0288 -0.1350
   28POPC   C1B  706   8.011   6.344   6.988 -0.0762  0.0814 -0.2041
   28POPC   C2B  707   8.107   6.426   6.593  0.1543  0.5086 -0.0053
   28POPC   C3B  708   8.229   6.591   6.210  0.0517 -0.1478 -0.2259
   28POPC   C4B  709   8.439   6.780   5.888  0.0476 -0.0624 -0.0314
   29POPC   NC3  710   5.462   0.081   9.100  0.2640 -0.0657  0.2212
   29POPC   PO4  711   5.407   0.516   9.186 -0.0995  0.0662  0.2601
   29POPC   GL1  712   5.701   0.766   8.930  0.1377 -0.1444 -0.1571
   29POPC   GL2  713   6.057   0.849   8.979 -0.1632 -0.1537  0.0107
   29POPC   C1A  714   5.594   1.080   8.673 -0.0347  0.0462 -0.2706
   29POPC   D2A  715   5.860   1.205   8.283  0.2454  0.0772 -0.0216
   29POPC   C3A  716   6.084   0.788   7.957 -0.1582 -0.1961 -0.1799
   29POPC   C4A  717   6.207   0.811   7.513 -0.0467 -0.1185 -0.1225
   29POPC   C1B  718   5.990   0.766   8.547 -0.0867 -0.1951  0.1138
   29POPC   C2B  719   6.192   0.398   8.255 -0.0398 -0.0389  0.1865
   29POPC   C3B  720   6.595   0.142   8.003  0.1559 -0.0374 -0.2305
   29POPC   C4B  721   6.815   0.307   7.593 -0.4055  0.1371  0.4752
   30POPC   NC3  722   6.439   2.738   9.411  0.2715  0.2064  0.2519
   30POPC   PO4  723   6.084   2.958   9.171 -0.1936  0.0018 -0.1685
   30POPC   GL1  724   6.233   3.280   8.926 -0.0793  0.2997  0.0882
   30POPC   GL2  725   6.439   3.152   8.775  0.0353  0.1495 -0.0843
   30POPC   C1A  726   6.232   3.419   8.451 -0.0709 -0.1545  0.0408
   30POPC   D2A  727   6.073   3.795   8.267  0.1603 -0.1596  0.2184
   30POPC   C3A  728   5.680   3.890   8.296 -0.1383 -0.0483 -0.1876
   30POPC   C4A  729   5.249   3.766   8.155 -0.1145  0.2442 -0.1109
   30POPC   C1B  730   6.460   2.865   8.417 -0.0129 -0.1176  0.1026
   30POPC   C2B  731   6.756   2.971   8.121  0.0159 -0.3711  0.0925
   30POPC   C3B  732   6.850   2.908   7.704 -0.0467  0.1141 -0.0007
   30POPC   C4B  733   6.814   2.914   7.293 -0.0511 -0.0073 -0.0519
   31POPC   NC3  734   3.111   8.932   8.054  0.0498 -0.1308  0.1812
   31POPC   PO4  735   2.733   9.070   8.233  0.2967 -0.0441 -0.1207
   31POPC   GL1  736   2.724   9.108   7.741 -0.0821 -0.0004  0.1332
   31POPC   GL2  737   2.624   9.403   7.693 -0.0175 -0.1191  0.0616
   31POPC   C1A  738   2.701   8.961   7.411  0.0397 -0.0457 -0.0893
   31POPC   D2A  739   2.770   8.942   7.012  0.0975  0.1418  0.1000
   31POPC   C3A  740   2.700   9.220   6.810  0.1836 -0.0599  0.2508
   31POPC   C4A  741   2.750   9.585   6.712 -0.0156  0.0656 -0.0038
   31POPC   C1B  742   2.336   9.503   7.332 -0.3516  0.1780 -0.0436
   31POPC   C2B  743   2.380   9.740   7.013 -0.1405  0.0579  0.0943
   31POPC   C3B  744   2.551  10.159   6.911 -0.1512  0.2274  0.1853
   31POPC   C4B  745   2.481  10.427   6.505 -0.0451  0.2633 -0.2477
   32POPC   NC3  746   7.548   7.686   7.930 -0.4081  0.1329  0.1617
   32POPC   PO4  747   7.861   7.407   7.939 -0.1994  0.0904  0.0695
   32POPC   GL1  748   7.813   7.507   7.494 -0.2479 -0.2548 -0.3221
   32POPC   GL2  749   7.454   7.404   7.508 -0.3428  0.2382  0.3286
   32POPC   C1A  750   7.939   7.151   7.191  0.1386 -0.2338 -0.0001
   32POPC   D2A  751   8.041   6.844   6.945 -0.4574  0.1253  0.2483
   32POPC   C3A  752   7.943   6.914   6.469  0.0632  0.3079 -0.1726
   32POPC   C4A  753   8.012   7.034   6.003 -0.0127  0.1453  0.3859
   32POPC   C1B  754   7.323   7.749   7.330 -0.0789 -0.0155  0.1950
   32POPC   C2B  755   7.314   7.986   6.951  0.0199 -0.0458  0.2826
   32POPC   C3B  756   7.413   8.085   6.412 -0.1842  0.0558 -0.2695
   32POPC   C4B  757   7.542   7.847   6.013 -0.5325 -0.0034 -0.1082
   33POPC   NC3  758   0.106   6.765   8.173  0.0090  0.1144  0.4212
   33POPC   PO4  759   0.178   7.175   8.177  0.1478 -0.2753  0.0733
   33POPC   GL1  760   0.233   7.214   7.782 -0.0725 -0.1575  0.1812
   33POPC   GL2  761   0.055   6.977   7.604 -0.2549 -0.3122  0.0982
   33POPC   C1A  762   0.424   7.332   7.364  0.0144  0.0490  0.3147
   33POPC   D2A  763   0.761   7.062   7.165  0.3063 -0.0151  0.3229
   33POPC   C3A  764   0.960   6.831   6.991 -0.0217  0.1486 -0.1874
   33POPC   C4A  765   0.722   6.502   6.855 -0.0827 -0.0455  0.0728
   33POPC   C1B  766   0.192   6.926   7.210  0.1118  0.2952  0.0467
   33POPC   C2B  767   0.474   6.913   6.751  0.1406  0.0490 -0.0526
   33POPC   C3B  768   0.710   6.867   6.381 -0.1416  0.0879 -0.0894
   33POPC   C4B  769   0.794   6.571   6.051 -0.6938  0.0650 -0.0233
   34POPC   NC3  770   0.977   5.689   8.617 -0.0519 -0.0708 -0.0322
   34POPC   PO4  771   1.008   5.310   8.421  0.2440 -0.0857  0.0299
   34POPC   GL1  772   1.279   5.329   8.012 -0.2309  0.1443 -0.2002
   34POPC   GL2  773   1.567   5.279   7.980 -0.0640 -0.1791 -0.1842
   34POPC   C1A  774   1.306   5.418   7.543  0.0626 -0.0077 -0.2351
   34POPC   D2A  775   1.034   5.467   7.205  0.0210 -0.1446 -0.3127
   34POPC   C3A  776   1.249   5.580   6.893 -0.1438 -0.2733 -0.2084
   34POPC   C4A  777   1.606   5.574   6.781  0.0723  0.0871  0.0501
   34POPC   C1B  778   1.859   5.349   7.586 -0.4221 -0.4203 -0.0634
   34POPC   C2B  779   2.158   5.325   7.225 -0.0909  0.1523 -0.0173
   34POPC   C3B  780   2.185   5.595   6.901  0.0067  0.3442 -0.0617
   34POPC   C4B  781   2.433   5.966   6.832 -0.1193 -0.2941  0.0248
   35POPC   NC3  782   1.543   7.492   8.265  0.1429 -0.0319 -0.2617
   35POPC   PO4  783   1.993   7.302   8.192 -0.4104  0.1729  0.1080
   35POPC   GL1  784   1.796   7.356   7.720  0.0343  0.0479 -0.0732
   35POPC   GL2  785   1.929   7.616   7.546 -0.1494 -0.2595 -0.1494
   35POPC   C1A  786   1.783   7.255   7.286 -0.0741 -0.0321  0.1360
   35POPC   D2A  787   1.534   6.889   7.058 -0.0657 -0.0285 -0.2706
   35POPC   C3A  788   1.479   6.950   6.647 -0.1577  0.2327 -0.0082
   35POPC   C4A  789   1.336   7.210   6.476 -0.0672 -0.0715 -0.1051
   35POPC   C1B  790   2.097   7.754   7.231 -0.1204  0.1302  0.0449
   35POPC   C2B  791   2.069   7.766   6.770  0.1297  0.0681  0.2241
   35POPC   C3B  792   2.073   8.019   6.352 -0.1428  0.1929 -0.0346
   35POPC   C4B  793   2.098   8.310   5.920 -0.2703  0.3425 -0.1968
   36POPC   NC3  794   8.370   5.874   8.099  0.0338 -0.0751 -0.2045
   36POPC   PO4  795   7.899   5.980   8.000  0.0020 -0.0748  0.0387
   36POPC   GL1  796   7.983   6.031   7.621  0.2116 -0.1151 -0.0356
   36POPC   GL2  797   8.305   6.152   7.659 -0.1353  0.1763 -0.2060
   36POPC   C1A  798   7.760   6.047   7.316  0.0945  0.0385 -0.0855
   36POPC   D2A  799   7.505   6.159   7.035 -0.1110  0.1345  0.0885
   36POPC   C3A  800   7.113   5.987   7.044 -0.1260 -0.3926 -0.0334
   36POPC   C4A  801   6.961   5.559   7.100 -0.1343  0.1023  0.0057
   36POPC   C1B  802   8.372   6.010   7.260  0.2112  0.3318 -0.0352
   36POPC   C2B  803   8.374   6.009   6.922 -0.4081  0.0350 -0.1317
   36POPC   C3B  804   8.652   6.235   6.667  0.2087  0.0441  0.0202
   36POPC   C4B  805   8.700   6.398   6.289 -0.0376  0.0402 -0.2234
   37POPC   NC3  806   6.675   7.387   7.905 -0.2060  0.1199  0.0233
   37POPC   PO4  807   6.308   7.372   8.229  0.0292  0.1611  0.0466
   37POPC   GL1  808   6.150   7.372   7.778 -0.0909 -0.0616 -0.0984
   37POPC   GL2  809   5.989   7.638   7.660 -0.2249  0.2684  0.0854
   37POPC   C1A  810   5.945   7.143   7.430  0.1517  0.0459  0.0911
   37POPC   D2A  811   6.013   6.827   7.146 -0.2549 -0.0803  0.2063
   37POPC   C3A  812   6.341   6.814   6.918  0.2436 -0.1689  0.1312
   37POPC   C4A  813   6.595   6.643   6.580  0.0356  0.1426 -0.1636
   37POPC   C1B  814   5.801   7.621   7.343 -0.4793  0.2286  0.3686
   37POPC   C2B  815   6.060   7.822   7.005  0.0928 -0.1579 -0.0205
   37POPC   C3B  816   5.962   7.957   6.576 -0.2209  0.4260  0.0899
   37POPC   C4B  817   5.739   8.155   6.212 -0.0690 -0.0024  0.0673
   38POPC   NC3  818   7.933   7.312   8.401  0.3823 -0.3267  0.0326
   38POPC   PO4  819   8.009   7.763   8.249 -0.0812 -0.3506  0.0361
   38POPC   GL1  820   7.997   7.918   7.721 -0.2954  0.0247  0.0055
   38POPC   GL2  821   8.265   7.648   7.581 -0.0152 -0.2515 -0.0864
   38POPC   C1A  822   7.853   7.947   7.332 -0.4632 -0.1567  0.1135
   38POPC   D2A  823   7.757   7.664   6.960  0.0451 -0.0348  0.4229
   38POPC   C3A  824   7.529   7.573   6.562 -0.0326 -0.1022 -0.3010
   38POPC   C4A  825   7.786   7.442   6.222 -0.1155 -0.1136 -0.0086
   38POPC   C1B  826   8.219   7.586   7.130 -0.3610 -0.0509 -0.2754
   38POPC   C2B  827   8.252   7.946   6.865 -0.1144  0.1338  0.0676
   38POPC   C3B  828   8.427   8.064   6.460 -0.3296  0.0256 -0.0051
   38POPC   C4B  829   8.548   8.004   6.041 -0.2321  0.4731 -0.1391
   39POPC   NC3  830   0.025   4.924   8.361  0.0744  0.0082  0.3283
   39POPC   PO4  831  -0.020   4.757   8.049 -0.0214 -0.0294 -0.1212
   39POPC   GL1  832   0.049   4.639   7.649  0.0779  0.0152  0.2001
   39POPC   GL2  833  -0.028   4.320   7.687 -0.1511 -0.3221 -0.1717
   39POPC   C1A  834   0.169   4.772   7.156 -0.3263 -0.2814 -0.0446
   39POPC   D2A  835   0.379   4.741   6.680 -0.1104 -0.1358 -0.1684
   39POPC   C3A  836   0.730   4.525   6.517 -0.1254 -0.0810  0.1035
   39POPC   C4A  837   1.001   4.508   6.174  0.2027 -0.0972 -0.2191
   39POPC   C1B  838   0.308   4.329   7.369 -0.0805  0.0660  0.1623
   39POPC   C2B  839   0.372   3.966   7.085  0.0170  0.3919 -0.1205
   39POPC   C3B  840   0.504   4.066   6.643  0.0217  0.0423  0.1959
   39POPC   C4B  841   0.743   4.040   6.271  0.1411  0.0656 -0.1183
   40POPC   NC3  842   1.175   9.030   8.059 -0.1921 -0.1815 -0.2072
   40POPC   PO4  843   1.634   9.100   8.271 -0.0400  0.0932  0.0748
   40POPC   GL1  844   1.762   9.134   7.836  0.0480  0.2143  0.1841
   40POPC   GL2  845   1.497   9.072   7.683 -0.1794 -0.2737  0.1997
   40POPC   C1A  846   2.139   9.051   7.541  0.0541  0.0663 -0.0420
   40POPC   D2A  847   2.287   8.839   7.140 -0.0620  0.2452 -0.0209
   40POPC   C3A  848   2.234   8.882   6.684 -0.0665  0.1955  0.0692
   40POPC   C4A  849   2.039   9.093   6.354 -0.2950 -0.1053  0.3281
   40POPC   C1B  850   1.663   8.873   7.330 -0.0800  0.0243 -0.1215
   40POPC   C2B  851   1.853   9.112   7.087 -0.1598 -0.0772 -0.1635
   40POPC   C3B  852   2.089   9.327   6.861  0.0785 -0.0147 -0.2017
   40POPC   C4B  853   2.268   9.539   6.532 -0.1424 -0.3056 -0.2572
   41POPC   NC3  854   8.906   3.567   8.124  0.1384  0.2122  0.0797
   41POPC   PO4  855   9.314   3.550   8.027  0.2223  0.1943  0.2132
   41POPC   GL1  856   9.257   3.591   7.649 -0.2470 -0.0691 -0.0457
   41POPC   GL2  857   8.970   3.763   7.629  0.1928  0.0889  0.1024
   41POPC   C1A  858   9.280   3.652   7.199  0.3932  0.1416  0.0549
   41POPC   D2A  859   9.145   3.468   6.783 -0.2100  0.2850 -0.0163
   41POPC   C3A  860   9.071   3.695   6.371  0.1310 -0.1083 -0.2720
   41POPC   C4A  861   9.198   3.695   5.918  0.0820  0.3480  0.3261
   41POPC   C1B  862   9.338   4.073   7.475 -0.1259  0.1764 -0.0066
   41POPC   C2B  863   9.609   4.036   7.120 -0.0826 -0.2792 -0.0067
   41POPC   C3B  864   9.840   4.344   6.838 -0.2055  0.1686 -0.1097
   41POPC   C4B  865   9.663   4.609   6.477 -0.1794 -0.1681  0.2391
   42POPC   NC3  866   5.997   6.335   8.014  0.2369  0.1473 -0.1214
   42POPC   PO4  867   5.739   6.288   7.691 -0.2723 -0.1070 -0.1606
   42POPC   GL1  868   5.795   6.128   7.343  0.2271 -0.1372  0.0030
   42POPC   GL2  869   5.817   6.225   7.015  0.2156  0.0207 -0.2105
   42POPC   C1A  870   5.596   5.768   7.135  0.1275  0.0905 -0.0851
   42POPC   D2A  871   5.390   5.428   7.076 -0.0762  0.5472 -0.1331
   42POPC   C3A  872   5.381   5.233   6.696  0.0917 -0.0833 -0.0463
   42POPC   C4A  873   5.647   5.062   6.369  0.2879 -0.0189  0.0622
   42POPC   C1B  874   6.037   5.878   6.797  0.2524  0.4515 -0.3729
   42POPC   C2B  875   6.160   5.697   6.428  0.1165 -0.1068  0.2509
   42POPC   C3B  876   6.458   5.723   6.166 -0.2103 -0.5470  0.4658
   42POPC   C4B  877   6.877   5.899   6.023  0.1816  0.0449  0.1520
   43POPC   NC3  878   2.582   0.273   7.957  0.1487 -0.1237  0.1128
   43POPC   PO4  879   2.203   0.393   8.085 -0.0010 -0.0430  0.1503
   43POPC   GL1  880   2.174   0.664   7.740  0.3655  0.0762 -0.4526
   43POPC   GL2  881   2.441   0.614   7.445 -0.0212 -0.0581 -0.1536
   43POPC   C1A  882   1.798   0.629   7.418  0.4971 -0.1257  0.2096
   43POPC   D2A  883   1.678   0.900   7.083  0.2240  0.0418 -0.0382
   43POPC   C3A  884   1.910   1.142   6.811  0.1115 -0.0562 -0.0359
   43POPC   C4A  885   2.188   1.315   6.470 -0.0188 -0.0047 -0.0693
   43POPC   C1B  886   2.676   0.794   7.204 -0.1188 -0.2326  0.0825
   43POPC   C2B  887   2.849   0.774   6.875 -0.2574 -0.0802  0.0613
   43POPC   C3B  888   2.948   0.747   6.502 -0.3166  0.0460 -0.0813
   43POPC   C4B  889   2.826   0.636   5.962  0.3810  0.1742  0.0925
   44POPC   NC3  890   3.290   2.311   8.791  0.3952  0.1458  0.0617
   44POPC   PO4  891   3.605   2.081   8.959 -0.1778 -0.0833 -0.0800
   44POPC   GL1  892   3.945   2.030   8.745  0.0911  0.1298  0.0495
   44POPC   GL2  893   4.117   1.705   8.685  0.1696  0.1226 -0.0737
   44POPC   C1A  894   3.914   2.061   8.272 -0.0126 -0.1972  0.1993
   44POPC   D2A  895   4.159   2.071   7.944 -0.0907  0.0295 -0.0647
   44POPC   C3A  896   4.607   2.081   7.902 -0.2848  0.0486 -0.1264
   44POPC   C4A  897   5.032   2.272   7.932 -0.0576  0.0593  0.0320
   44POPC   C1B  898   4.414   1.897   8.359 -0.0124 -0.2415  0.0040
   44POPC   C2B  899   4.716   2.230   8.413  0.0377  0.0603 -0.0556
   44POPC   C3B  900   4.981   2.526   8.410 -0.0514 -0.1127  0.1632
   44POPC   C4B  901   5.434   2.440   8.603 -0.1911 -0.0581  0.3174
   45POPC   NC3  902   5.157   1.091   9.542  0.0837 -0.0776  0.0584
   45POPC   PO4  903   4.927   0.740   9.202  0.1369 -0.1561 -0.1169
   45POPC   GL1  904   4.921   0.495   8.786  0.0383 -0.1403 -0.0172
   45POPC   GL2  905   5.132   0.269   8.717 -0.0721  0.0656 -0.1294
   45POPC   C1A  906   4.818   0.444   8.378 -0.0439  0.2978 -0.1392
   45POPC   D2A  907   5.113   0.474   7.958  0.0825  0.1269 -0.2007
   45POPC   C3A  908   5.231   0.823   7.750  0.0460  0.1426  0.1458
   45POPC   C4A  909   5.648   0.820   7.604 -0.1369 -0.2233  0.1604
   45POPC   C1B  910   5.315   0.172   8.317 -0.1709 -0.0542 -0.2920
   45POPC   C2B  911   5.538  -0.128   8.021 -0.0207 -0.2558  0.0585
   45POPC   C3B  912   5.744  -0.118   7.621  0.1892 -0.3246 -0.2366
   45POPC   C4B  913   5.613  -0.016   7.183 -0.0756 -0.1584  0.1636
   46POPC   NC3  914   5.805   7.552   8.344  0.2490  0.2813 -0.2712
   46POPC   PO4  915   5.654   7.929   8.125  0.2159  0.2053 -0.1940
   46POPC   GL1  916   5.700   8.108   7.772 -0.1475 -0.4749 -0.1434
   46POPC   GL2  917   6.059   8.204   7.806 -0.0985 -0.0412 -0.0498
   46POPC   C1A  918   5.673   8.085   7.420  0.1755  0.2617 -0.0922
   46POPC   D2A  919   5.652   8.254   7.047  0.0885 -0.2582 -0.1500
   46POPC   C3A  920   5.956   8.463   6.848 -0.0749 -0.2414  0.1407
   46POPC   C4A  921   6.385   8.671   6.831  0.0819  0.0203 -0.3656
   46POPC   C1B  922   6.099   8.312   7.297 -0.1002 -0.2717  0.1519
   46POPC   C2B  923   6.415   8.175   6.989  0.0229  0.1202 -0.2507
   46POPC   C3B  924   6.396   8.283   6.602 -0.0393 -0.2522  0.0817
   46POPC   C4B  925   6.492   8.511   6.277  0.1767 -0.0412 -0.0652
   47POPC   NC3  926   5.153   8.741   8.614  0.0069  0.2901  0.1059
   47POPC   PO4  927   5.474   8.747   8.450  0.1094  0.1884  0.2351
   47POPC   GL1  928   5.635   8.920   8.049 -0.0593 -0.1492  0.4040
   47POPC   GL2  929   5.465   8.776   7.870  0.0306  0.1938 -0.0184
   47POPC   C1A  930   5.572   9.162   7.624 -0.2682  0.0992 -0.1082
   47POPC   D2A  931   5.682   9.259   7.272  0.3254  0.1912 -0.2514
   47POPC   C3A  932   5.568   9.248   6.909 -0.0065 -0.1426  0.0591
   47POPC   C4A  933   5.627   9.352   6.645 -0.3977  0.1332  0.3006
   47POPC   C1B  934   5.581   8.633   7.445  0.0612  0.1363 -0.3099
   47POPC   C2B  935   5.500   8.817   7.070 -0.2780  0.2582  0.1473
   47POPC   C3B  936   5.436   8.865   6.571  0.0489  0.0482 -0.1709
   47POPC   C4B  937   5.146   9.048   6.316  0.2023 -0.3274 -0.0706
   48POPC   NC3  938   2.589   7.296   8.513 -0.2317 -0.1289  0.0880
   48POPC   PO4  939   2.470   7.029   8.276 -0.0888  0.0950  0.3605
   48POPC   GL1  940   2.367   7.138   7.864  0.2364  0.0093 -0.1725
   48POPC   GL2  941   2.323   7.465   7.858 -0.0144  0.0241  0.4277
   48POPC   C1A  942   2.146   6.818   7.469 -0.2394  0.2959  0.0247
   48POPC   D2A  943   1.963   6.584   7.104 -0.0879 -0.1092  0.0289
   48POPC   C3A  944   2.084   6.560   6.728 -0.3125  0.1138 -0.0377
   48POPC   C4A  945   2.162   6.686   6.287 -0.1115 -0.0776 -0.2248
   48POPC   C1B  946   2.408   7.299   7.313 -0.1325  0.2784 -0.3219
   48POPC   C2B  947   2.256   7.304   6.982  0.2426  0.0589 -0.1051
   48POPC   C3B  948   2.027   7.074   6.671 -0.2408 -0.0645  0.1573
   48POPC   C4B  949   1.743   7.008   6.239 -0.1138 -0.0077 -0.0840
   49POPC   NC3  950   9.456   6.089   8.264  0.0200  0.0844  0.0376
   49POPC   PO4  951   9.685   5.726   7.900 -0.0569 -0.0562  0.1293
   49POPC   GL1  952   9.414   5.484   7.631  0.0692 -0.1908 -0.2628
   49POPC   GL2  953   9.070   5.512   7.553 -0.2210  0.2914  0.3096
   49POPC   C1A  954   9.485   5.228   7.266  0.0126 -0.2133 -0.1050
   49POPC   D2A  955   9.529   4.978   6.901  0.2029  0.4667  0.0318
   49POPC   C3A  956   9.204   5.010   6.707  0.2188 -0.0741  0.0507
   49POPC   C4A  957   8.844   5.224   6.657  0.2591  0.1133  0.2083
   49POPC   C1B  958   8.985   5.318   7.153 -0.4968  0.1604 -0.4102
   49POPC   C2B  959   8.783   4.972   7.081 -0.2418 -0.0265  0.0658
   49POPC   C3B  960   8.470   4.827   6.718 -0.0181  0.2170 -0.3830
   49POPC   C4B  961   8.096   4.859   6.447  0.0112  0.1232 -0.0693
   50POPC   NC3  962   7.811   3.091   8.843  0.2917  0.2069 -0.0958
   50POPC   PO4  963   7.805   3.358   8.464  0.2899 -0.1312  0.1001
   50POPC   GL1  964   7.688   3.431   8.051  0.1568 -0.5169 -0.0167
   50POPC   GL2  965   7.463   3.602   8.070  0.1894  0.1418  0.3353
   50POPC   C1A  966   7.822   3.181   7.559 -0.4632 -0.1211  0.2298
   50POPC   D2A  967   7.971   3.109   7.178  0.4020 -0.3411 -0.1007
   50POPC   C3A  968   7.905   3.417   6.775 -0.0254  0.3736  0.1310
   50POPC   C4A  969   7.998   3.693   6.456 -0.0056 -0.2522 -0.3719
   50POPC   C1B  970   7.173   3.695   7.821  0.1895 -0.0957  0.0707
   50POPC   C2B  971   6.739   3.772   7.653  0.2757 -0.1032 -0.2229
   50POPC   C3B  972   6.357   3.772   7.368 -0.2814  0.0801 -0.0799
   50POPC   C4B  973   5.930   3.554   7.313 -0.0644 -0.3975 -0.1782
   51POPC   NC3  974   7.652   5.901   8.419  0.1328  0.1793 -0.1133
   51POPC   PO4  975   7.380   6.222   8.217 -0.0630  0.1081 -0.1337
   51POPC   GL1  976   7.442   6.606   7.816 -0.0905 -0.0119  0.3391
   51POPC   GL2  977   7.745   6.493   7.709 -0.0935  0.2552  0.0770
   51POPC   C1A  978   7.265   6.474   7.402 -0.1292 -0.3510  0.0346
   51POPC   D2A  979   7.089   6.477   6.966  0.0953  0.2162  0.1002
   51POPC   C3A  980   7.145   6.945   6.713  0.0314  0.4402  0.1024
   51POPC   C4A  981   7.062   7.272   6.449  0.0713 -0.3253  0.1155
   51POPC   C1B  982   7.643   6.648   7.196 -0.0649  0.1333 -0.0484
   51POPC   C2B  983   7.618   6.631   6.758 -0.1207  0.1127  0.2582
   51POPC   C3B  984   7.353   6.443   6.525 -0.2903  0.1301 -0.0498
   51POPC   C4B  985   6.976   6.194   6.484 -0.2766  0.2382 -0.1409
   52POPC   NC3  986   3.597   1.743   9.335  0.0553  0.3043 -0.2235
   52POPC   PO4  987   3.726   1.543   8.905 -0.0212  0.2074 -0.0619
   52POPC   GL1  988   3.705   1.576   8.361 -0.3399  0.0389  0.2623
   52POPC   GL2  989   4.024   1.440   8.302 -0.1278  0.0007 -0.4131
   52POPC   C1A  990   3.855   1.640   7.919  0.1720  0.0222 -0.2255
   52POPC   D2A  991   4.076   1.670   7.502  0.1818  0.3527  0.2623
   52POPC   C3A  992   3.850   1.854   7.189  0.0195  0.0681  0.0685
   52POPC   C4A  993   3.830   2.130   6.910 -0.0231 -0.1001  0.0987
   52POPC   C1B  994   4.339   1.245   8.569 -0.1324 -0.3326 -0.2449
   52POPC   C2B  995   4.808   1.410   8.500  0.3160  0.0506 -0.0804
   52POPC   C3B  996   5.039   1.701   8.683 -0.0938 -0.0778  0.1706
   52POPC   C4B  997   5.076   2.128   8.772 -0.0990 -0.1848  0.4886
   53POPC   NC3  998   6.720   5.257   8.436 -0.2635  0.0890  0.2424
   53POPC   PO4  999   6.885   5.520   8.196  0.0543 -0.0719 -0.2186
   53POPC   GL1 1000   6.801   5.632   7.844 -0.0872 -0.0642 -0.0014
   53POPC   GL2 1001   6.751   5.354   7.664 -0.2239  0.4137 -0.0404
   53POPC   C1A 1002   6.832   5.887   7.551  0.0894 -0.1374 -0.0324
   53POPC   D2A 1003   6.732   6.129   7.347 -0.0412  0.2835  0.1438
   53POPC   C3A 1004   6.669   6.083   6.931  0.0323 -0.1610 -0.1120
   53POPC   C4A 1005   6.495   6.042   6.534  0.4418 -0.2711 -0.1283
   53POPC   C1B 1006   6.543   5.320   7.262 -0.1985 -0.2987 -0.0458
   53POPC   C2B 1007   6.452   5.017   6.893  0.1760 -0.3626 -0.1649
   53POPC   C3B 1008   6.462   4.653   6.676 -0.1627  0.2342 -0.1834
   53POPC   C4B 1009   6.563   4.300   6.445 -0.0155  0.1140  0.1454
   54POPC   NC3 1010   8.310   5.287   7.898  0.2315  0.2976 -0.2143
   54POPC   PO4 1011   8.706   5.621   7.898  0.0500  0.0699  0.3785
   54POPC   GL1 1012   8.481   5.560   7.437 -0.4719 -0.2515 -0.2536
   54POPC   GL2 1013   8.268   5.572   7.515  0.2063  0.0828  0.0154
   54POPC   C1A 1014   8.495   5.392   7.090  0.1096 -0.0838  0.0437
   54POPC   D2A 1015   8.356   5.489   6.752 -0.0439 -0.3006 -0.0255
   54POPC   C3A 1016   8.397   5.267   6.402  0.0814 -0.1193  0.5362
   54POPC   C4A 1017   8.559   4.858   6.218  0.2144 -0.0093 -0.4710
   54POPC   C1B 1018   8.058   5.618   7.104 -0.1754 -0.2937 -0.0369
   54POPC   C2B 1019   7.892   5.880   6.795 -0.1094 -0.1997 -0.0743
   54POPC   C3B 1020   7.747   6.086   6.447  0.3762  0.0962 -0.0797
   54POPC   C4B 1021   7.437   6.090   6.188 -0.0763  0.0449 -0.4289
   55POPC   NC3 1022   5.349   4.443   8.996 -0.2201 -0.2524 -0.3460
   55POPC   PO4 1023   5.153   4.549   8.701  0.0655 -0.3064  0.0281
   55POPC   GL1 1024   5.239   4.366   8.356 -0.2226  0.0875  0.1833
   55POPC   GL2 1025   5.016   4.530   8.160 -0.0330 -0.0115 -0.1756
   55POPC   C1A 1026   5.394   4.218   7.962  0.2024  0.1185  0.0164
   55POPC   D2A 1027   5.620   3.912   7.698  0.2234  0.0451  0.0233
   55POPC   C3A 1028   5.509   3.558   7.549 -0.0809 -0.1224 -0.0007
   55POPC   C4A 1029   5.314   3.385   7.125 -0.0963  0.2824  0.2923
   55POPC   C1B 1030   4.899   4.161   7.970  0.1384  0.1253 -0.0787
   55POPC   C2B 1031   4.942   3.879   7.610  0.0738 -0.0697  0.1924
   55POPC   C3B 1032   5.016   3.490   7.496 -0.1150 -0.2113 -0.1252
   55POPC   C4B 1033   4.956   3.086   7.446 -0.0208 -0.1586  0.2967
   56POPC   NC3 1034   0.793   4.818   8.525 -0.2249  0.1950  0.0093
   56POPC   PO4 1035   0.444   4.696   8.278  0.0473 -0.0365  0.0430
   56POPC   GL1 1036   0.564   4.531   7.766 -0.3791  0.1898 -0.1720
   56POPC   GL2 1037   0.570   4.785   7.448 -0.2932  0.2374 -0.0238
   56POPC   C1A 1038   0.754   4.264   7.572 -0.0772 -0.0245 -0.1078
   56POPC   D2A 1039   0.673   3.860   7.559  0.1158 -0.0169 -0.1738
   56POPC   C3A 1040   1.075   3.856   7.378  0.0196 -0.0009  0.0132
   56POPC   C4A 1041   1.331   3.993   7.049  0.3357 -0.0471  0.2381
   56POPC   C1B 1042   0.690   4.513   7.075  0.0163 -0.0111  0.2416
   56POPC   C2B 1043   0.909   4.240   6.956  0.1678  0.2033 -0.4354
   56POPC   C3B 1044   0.988   3.851   6.729  0.0792  0.1336 -0.1007
   56POPC   C4B 1045   1.162   3.595   6.341  0.0844 -0.2974 -0.1647
   57POPC   NC3 1046   0.227   0.579   8.031  0.0204  0.3076 -0.3570
   57POPC   PO4 1047   0.651   0.493   8.294  0.2300  0.0328  0.2414
   57POPC   GL1 1048   0.715   0.677   7.843 -0.0269 -0.1526  0.0603
   57POPC   GL2 1049   0.876   0.480   7.678 -0.0807 -0.0848  0.1039
   57POPC   C1A 1050   0.797   0.975   7.452 -0.1090 -0.0550 -0.1913
   57POPC   D2A 1051   1.065   0.951   7.049 -0.2708 -0.1250 -0.1210
   57POPC   C3A 1052   1.174   0.605   6.861  0.2106 -0.0109  0.1554
   57POPC   C4A 1053   1.144   0.561   6.350  0.0755  0.0666 -0.1957
   57POPC   C1B 1054   0.914   0.435   7.323 -0.0207  0.2316  0.2487
   57POPC   C2B 1055   1.004   0.178   6.961  0.0792  0.0674 -0.1462
   57POPC   C3B 1056   1.350   0.054   6.708  0.1365 -0.0782  0.0209
   57POPC   C4B 1057   1.523   0.211   6.268 -0.3789 -0.0638  0.3026
   58POPC   NC3 1058   9.303   8.047   8.297 -0.1947 -0.0405  0.1248
   58POPC   PO4 1059   8.904   8.337   8.258 -0.1633 -0.1133  0.1278
   58POPC   GL1 1060   8.891   8.164   7.855  0.0018  0.2756 -0.2226
   58POPC   GL2 1061   8.908   8.383   7.669  0.0466 -0.1794 -0.1740
   58POPC   C1A 1062   9.043   7.900   7.398 -0.3357 -0.0293  0.1074
   58POPC   D2A 1063   9.178   7.657   7.094 -0.1122  0.1866  0.1983
   58POPC   C3A 1064   9.029   7.250   7.010  0.0329 -0.2033 -0.4122
   58POPC   C4A 1065   8.825   6.848   7.000 -0.1372 -0.1739  0.1570
   58POPC   C1B 1066   8.758   8.453   7.194  0.0740 -0.3326 -0.3318
   58POPC   C2B 1067   8.668   8.493   6.793  0.0716  0.2788  0.0924
   58POPC   C3B 1068   8.407   8.625   6.401 -0.4006  0.1726  0.0817
   58POPC   C4B 1069   8.319   8.515   5.935 -0.3197 -0.0344  0.0545
   59POPC   NC3 1070   0.863   8.052   8.208  0.1656  0.0267 -0.0546
   59POPC   PO4 1071   0.800   7.733   7.933  0.1454  0.0644  0.3549
   59POPC   GL1 1072   0.979   7.414   7.713  0.1391  0.2086  0.0439
   59POPC   GL2 1073   1.253   7.350   7.817  0.0516  0.0007 -0.1912
   59POPC   C1A 1074   0.889   6.992   7.672 -0.0694 -0.3836  0.6354
   59POPC   D2A 1075   0.642   6.632   7.344  0.3716  0.0012 -0.1083
   59POPC   C3A 1076   0.216   6.525   7.494 -0.0671  0.0631  0.3904
   59POPC   C4A 1077  -0.149   6.479   7.308 -0.2598 -0.1182  0.3632
   59POPC   C1B 1078   1.254   7.212   7.376  0.2006  0.3692 -0.0083
   59POPC   C2B 1079   1.259   7.275   6.977 -0.0753 -0.1413  0.3309
   59POPC   C3B 1080   1.149   7.708   6.789  0.3223 -0.0276  0.2344
   59POPC   C4B 1081   1.108   8.068   6.974  0.2558  0.1448  0.4532
   60POPC   NC3 1082   8.676   6.559   8.932 -0.0748  0.2050  0.4104
   60POPC   PO4 1083   8.662   6.726   8.407 -0.0539 -0.0586  0.1325
   60POPC   GL1 1084   8.759   6.737   7.933  0.1835  0.1962  0.0194
   60POPC   GL2 1085   9.090   6.845   7.838 -0.2031  0.2019 -0.1505
   60POPC   C1A 1086   8.721   6.734   7.462 -0.3947  0.2164  0.2631
   60POPC   D2A 1087   8.469   6.536   7.096 -0.0797 -0.0884 -0.3421
   60POPC   C3A 1088   8.446   6.778   6.641 -0.2054 -0.3864 -0.1326
   60POPC   C4A 1089   8.463   7.063   6.336  0.0714 -0.1599 -0.1506
   60POPC   C1B 1090   9.351   6.860   7.540  0.1901  0.3194  0.1670
   60POPC   C2B 1091   9.298   6.771   7.162 -0.0261  0.3236 -0.1533
   60POPC   C3B 1092   9.480   6.952   6.788 -0.0351  0.0294  0.0408
   60POPC   C4B 1093   9.349   6.924   6.364  0.0089  0.1411 -0.0902
   61POPC   NC3 1094   4.850   7.668   8.529  0.0376 -0.3784 -0.1698
   61POPC   PO4 1095   4.614   7.919   8.118  0.0112  0.1959 -0.1167
   61POPC   GL1 1096   4.771   8.021   7.667  0.0578 -0.1890  0.0304
   61POPC   GL2 1097   5.126   8.125   7.723  0.1938 -0.2211 -0.0543
   61POPC   C1A 1098   4.801   7.956   7.211  0.1641  0.2708  0.3577
   61POPC   D2A 1099   4.640   7.715   6.880  0.1741 -0.0355  0.3897
   61POPC   C3A 1100   4.204   7.697   6.842  0.0731  0.1788  0.1964
   61POPC   C4A 1101   3.796   7.646   6.580 -0.1821  0.0772 -0.0888
   61POPC   C1B 1102   5.187   8.276   7.376 -0.4068 -0.1559 -0.0623
   61POPC   C2B 1103   5.182   8.483   6.944 -0.0056 -0.0686 -0.0286
   61POPC   C3B 1104   4.996   8.649   6.622  0.3816  0.0192  0.1268
   61POPC   C4B 1105   4.980   8.495   6.279 -0.0998 -0.1128  0.0970
   62POPC   NC3 1106   3.375   9.471   8.743  0.1244  0.1233  0.0061
   62POPC   PO4 1107   3.263   9.250   8.397  0.3154  0.1996  0.0028
   62POPC   GL1 1108   3.101   9.374   7.916  0.0731  0.1121  0.1504
   62POPC   GL2 1109   2.984   9.720   7.769 -0.0575 -0.4160 -0.0769
   62POPC   C1A 1110   3.158   9.166   7.482 -0.0405 -0.1485 -0.0712
   62POPC   D2A 1111   3.295   8.828   7.201  0.0990 -0.1108  0.0028
   62POPC   C3A 1112   3.170   8.830   6.729  0.0696  0.4335 -0.1893
   62POPC   C4A 1113   3.349   8.908   6.265 -0.0364 -0.1238  0.1366
   62POPC   C1B 1114   3.315   9.743   7.457  0.0613 -0.2814  0.2415
   62POPC   C2B 1115   3.427   9.821   6.994  0.2468  0.1963  0.0283
   62POPC   C3B 1116   3.285   9.612   6.597  0.2769  0.2596  0.0188
   62POPC   C4B 1117   3.047   9.307   6.428 -0.1595  0.4561 -0.0330
   63POPC   NC3 1118   4.132   7.578   7.857  0.0017  0.1083  0.0159
   63POPC   PO4 1119   4.211   7.238   7.627  0.1561  0.1433 -0.0966
   63POPC   GL1 1120   4.297   7.697   7.344 -0.0020  0.4773 -0.2300
   63POPC   GL2 1121   3.990   7.697   7.393  0.3156 -0.0975  0.3005
   63POPC   C1A 1122   4.326   8.140   7.139 -0.1062 -0.2249  0.2785
   63POPC   D2A 1123   4.604   8.148   6.708  0.0334  0.0910 -0.1980
   63POPC   C3A 1124   5.062   8.011   6.719 -0.2194  0.1521 -0.0540
   63POPC   C4A 1125   5.405   8.218   6.635  0.0278 -0.4632 -0.0332
   63POPC   C1B 1126   3.782   7.857   7.033 -0.0848  0.1848 -0.1120
   63POPC   C2B 1127   3.371   7.864   6.738  0.0007  0.4007  0.1496
   63POPC   C3B 1128   3.559   8.060   6.341 -0.2826 -0.0247 -0.0119
   63POPC   C4B 1129   3.933   8.108   6.031  0.1655  0.2004  0.1137
   64POPC   NC3 1130   4.125   1.851   9.184 -0.1651  0.2917  0.2833
   64POPC   PO4 1131   4.575   1.839   9.309 -0.1438 -0.1509 -0.2421
   64POPC   GL1 1132   4.718   2.137   9.071 -0.0907  0.0631 -0.3029
   64POPC   GL2 1133   4.444   2.224   8.914 -0.0310 -0.0292 -0.0176
   64POPC   C1A 1134   4.826   2.552   8.884 -0.0303 -0.1314  0.1291
   64POPC   D2A 1135   5.197   2.865   8.791 -0.0824  0.1291 -0.2954
   64POPC   C3A 1136   5.360   2.836   8.383 -0.1185  0.1739 -0.4144
   64POPC   C4A 1137   5.364   2.600   8.029 -0.4823  0.2909 -0.5317
   64POPC   C1B 1138   4.223   2.410   8.521 -0.1747 -0.0800  0.2990
   64POPC   C2B 1139   4.112   2.708   8.166 -0.2817 -0.1541 -0.3414
   64POPC   C3B 1140   3.821   3.026   7.827 -0.2216 -0.0181 -0.1238
   64POPC   C4B 1141   3.656   3.184   7.522  0.2723 -0.3097 -0.0725
   65POPC   NC3 1142   1.119   4.471   8.660  0.0551 -0.0483  0.1669
   65POPC   PO4 1143   1.049   4.512   8.144 -0.0295 -0.0142  0.4516
   65POPC   GL1 1144   1.088   4.628   7.718  0.0700 -0.2167 -0.3406
   65POPC   GL2 1145   1.030   4.932   7.621  0.0233  0.0395  0.1317
   65POPC   C1A 1146   1.189   4.533   7.346  0.0910  0.2254 -0.2815
   65POPC   D2A 1147   1.327   4.651   7.004  0.2705  0.2403 -0.0801
   65POPC   C3A 1148   1.092   4.763   6.797 -0.1162  0.2836  0.0387
   65POPC   C4A 1149   1.102   5.014   6.247  0.2519 -0.2084 -0.2325
   65POPC   C1B 1150   0.961   4.976   7.230  0.0412 -0.0292 -0.2254
   65POPC   C2B 1151   0.679   5.056   6.958 -0.0830 -0.3208  0.0700
   65POPC   C3B 1152   0.809   5.198   6.652  0.0562  0.0901  0.1001
   65POPC   C4B 1153   1.071   5.534   6.418 -0.0539 -0.1582  0.0033
   66POPC   NC3 1154   7.318   0.425   8.943  0.1174 -0.0384 -0.1140
   66POPC   PO4 1155   6.963   0.654   9.066 -0.1818  0.1455 -0.0843
   66POPC   GL1 1156   6.897   0.684   8.603 -0.0059 -0.1687  0.0071
   66POPC   GL2 1157   6.882   0.405   8.457 -0.0237  0.1744 -0.0363
   66POPC   C1A 1158   7.078   0.903   8.251 -0.1306  0.1431  0.1408
   66POPC   D2A 1159   7.193   1.226   7.937 -0.0209 -0.0277 -0.0575
   66POPC   C3A 1160   7.126   1.306   7.588 -0.0900 -0.1550  0.0181
   66POPC   C4A 1161   7.229   1.431   7.092  0.2292 -0.0251  0.3958
   66POPC   C1B 1162   7.053   0.431   8.010 -0.1400 -0.1782  0.2056
   66POPC   C2B 1163   7.020   0.744   7.674  0.0694 -0.1381 -0.0487
   66POPC   C3B 1164   6.911   0.980   7.318  0.0775 -0.1767  0.0458
   66POPC   C4B 1165   6.541   1.010   7.147  0.2178 -0.0449  0.2589
   67POPC   NC3 1166   1.827   3.356   8.330 -0.4838  0.0848  0.0557
   67POPC   PO4 1167   2.241   3.619   8.538 -0.0900 -0.1425 -0.0477
   67POPC   GL1 1168   2.482   3.608   8.175  0.2713 -0.1411  0.1200
   67POPC   GL2 1169   2.204   3.676   7.948  0.0883  0.0516  0.1748
   67POPC   C1A 1170   2.828   3.536   7.836 -0.1383 -0.1169 -0.0990
   67POPC   D2A 1171   3.109   3.908   7.553 -0.1365  0.0319  0.0582
   67POPC   C3A 1172   3.063   3.949   7.143 -0.1772 -0.0416 -0.0621
   67POPC   C4A 1173   3.273   4.319   6.961  0.1652 -0.1327  0.3285
   67POPC   C1B 1174   2.151   3.853   7.444 -0.0673  0.2182 -0.2210
   67POPC   C2B 1175   2.107   3.570   7.144 -0.1538  0.0343  0.1558
   67POPC   C3B 1176   2.272   3.247   6.961 -0.3820  0.0838 -0.4816
   67POPC   C4B 1177   2.530   3.108   6.614 -0.1723  0.1719  0.0139
   68POPC   NC3 1178   4.943   6.582   8.019  0.3672  0.1461 -0.2805
   68POPC   PO4 1179   5.350   6.363   7.992  0.1880  0.1892 -0.0753
   68POPC   GL1 1180   5.280   6.430   7.481  0.2018 -0.1964 -0.0144
   68POPC   GL2 1181   5.582   6.677   7.345  0.3996  0.0506 -0.1101
   68POPC   C1A 1182   5.129   6.603   7.092 -0.1136 -0.0400 -0.1964
   68POPC   D2A 1183   5.150   6.904   6.800 -0.0423  0.1161  0.3058
   68POPC   C3A 1184   5.450   7.139   6.541 -0.1708  0.3258  0.3138
   68POPC   C4A 1185   5.789   7.217   6.260 -0.1755 -0.0013  0.0203
   68POPC   C1B 1186   5.637   6.718   6.859 -0.1051 -0.2719  0.0202
   68POPC   C2B 1187   5.841   6.764   6.554 -0.1100 -0.1898 -0.3070
   68POPC   C3B 1188   6.177   6.890   6.308 -0.2930 -0.4632 -0.1846
   68POPC   C4B 1189   6.580   7.154   6.380 -0.1496  0.1974  0.0084
   69POPC   NC3 1190   1.903   2.281   8.693 -0.2230  0.0212 -0.0687
   69POPC   PO4 1191   2.049   2.247   8.287 -0.2285  0.0712  0.0533
   69POPC   GL1 1192   2.095   2.478   7.941 -0.0893  0.1939 -0.0441
   69POPC   GL2 1193   1.836   2.424   7.743 -0.0328 -0.1305  0.0840
   69POPC   C1A 1194   2.279   2.757   7.698 -0.1415  0.1147 -0.2296
   69POPC   D2A 1195   2.284   2.905   7.325 -0.1970  0.1174 -0.0567
   69POPC   C3A 1196   2.722   3.059   7.101  0.2682  0.0287 -0.2050
   69POPC   C4A 1197   2.949   2.826   6.730  0.0440 -0.0913  0.1652
   69POPC   C1B 1198   1.978   2.353   7.365 -0.0706  0.3373 -0.0333
   69POPC   C2B 1199   2.155   1.961   7.237  0.1455 -0.1833 -0.0497
   69POPC   C3B 1200   2.052   1.491   7.262  0.2045  0.2916 -0.2327
   69POPC   C4B 1201   2.125   1.016   7.274  0.5428  0.1626 -0.1428
   70POPC   NC3 1202   9.046   0.912   8.151 -0.1705 -0.1752  0.2592
   70POPC   PO4 1203   9.539   0.874   8.110 -0.2046 -0.0300 -0.1601
   70POPC   GL1 1204   9.421   0.925   7.747  0.1767 -0.0732  0.2137
   70POPC   GL2 1205   9.275   1.163   7.428  0.1063  0.1206  0.3600
   70POPC   C1A 1206   9.786   0.950   7.333  0.0653  0.0701  0.0116
   70POPC   D2A 1207   9.733   1.058   6.879  0.1294 -0.0621  0.1527
   70POPC   C3A 1208   9.671   0.979   6.526 -0.2010 -0.1603 -0.2978
   70POPC   C4A 1209   9.300   0.925   6.320 -0.0839  0.0022  0.0434
   70POPC   C1B 1210   9.278   0.737   7.253  0.4977  0.1581  0.3782
   70POPC   C2B 1211   9.381   0.620   6.863 -0.0268  0.0807  0.1733
   70POPC   C3B 1212   9.430   0.481   6.403  0.0129  0.1710 -0.1053
   70POPC   C4B 1213   9.324   0.310   5.963 -0.1311  0.1265 -0.0778
   71POPC   NC3 1214   5.362   8.324   8.115 -0.2984  0.3468  0.2689
   71POPC   PO4 1215   5.017   8.592   8.206  0.1799  0.1330  0.0434
   71POPC   GL1 1216   4.910   8.705   7.813  0.2231  0.1934 -0.1769
   71POPC   GL2 1217   4.793   8.524   7.569 -0.0388  0.2449  0.2757
   71POPC   C1A 1218   5.098   8.905   7.453  0.1216 -0.2250 -0.1918
   71POPC   D2A 1219   5.202   9.361   7.373  0.1816  0.3610 -0.0401
   71POPC   C3A 1220   5.097   9.654   7.043 -0.2459 -0.2493  0.0678
   71POPC   C4A 1221   5.401   9.774   6.716  0.0086 -0.2701 -0.1034
   71POPC   C1B 1222   4.748   8.449   7.142  0.1559  0.0349  0.1926
   71POPC   C2B 1223   4.530   8.635   6.790  0.0232  0.0391  0.3358
   71POPC   C3B 1224   4.603   8.961   6.478 -0.0901  0.3492  0.0052
   71POPC   C4B 1225   4.500   9.456   6.437 -0.2811  0.1246 -0.2099
   72POPC   NC3 1226   1.658   0.070   8.566 -0.1006  0.1072 -0.1139
   72POPC   PO4 1227   1.404   0.149   8.266 -0.1737 -0.0456 -0.1133
   72POPC   GL1 1228   1.307   0.505   7.968 -0.0175  0.2374 -0.0238
   72POPC   GL2 1229   1.339   0.327   7.661 -0.0117  0.0540 -0.0954
   72POPC   C1A 1230   1.285   0.755   7.577 -0.1097 -0.2721 -0.1094
   72POPC   D2A 1231   1.428   1.106   7.456 -0.1147  0.1190 -0.4004
   72POPC   C3A 1232   1.395   1.313   7.010  0.0056 -0.2549  0.1205
   72POPC   C4A 1233   1.217   1.638   6.715 -0.1108  0.1722  0.2447
   72POPC   C1B 1234   1.406   0.340   7.257 -0.3028 -0.0708 -0.3254
   72POPC   C2B 1235   1.625   0.429   6.954 -0.1533  0.2225 -0.0782
   72POPC   C3B 1236   1.681   0.574   6.575  0.1873  0.0987 -0.0688
   72POPC   C4B 1237   2.048   0.334   6.401  0.1120 -0.3376  0.2178
   73POPC   NC3 1238   9.210   9.146   8.230  0.1073  0.2980 -0.1024
   73POPC   PO4 1239   8.678   9.285   8.179 -0.0851  0.0923  0.1449
   73POPC   GL1 1240   8.505   9.242   7.826  0.1656 -0.1543 -0.1091
   73POPC   GL2 1241   8.254   9.068   7.814  0.0113 -0.0176 -0.1353
   73POPC   C1A 1242   8.668   9.288   7.390 -0.0766  0.1888  0.1241
   73POPC   D2A 1243   8.955   9.501   7.071 -0.0677  0.2403  0.1340
   73POPC   C3A 1244   9.117   9.370   6.701 -0.1107 -0.1509  0.3151
   73POPC   C4A 1245   9.194   9.415   6.221 -0.0303 -0.2693 -0.2143
   73POPC   C1B 1246   8.094   8.991   7.432  0.1441  0.0159  0.1325
   73POPC   C2B 1247   7.879   8.983   7.100  0.3707 -0.0650 -0.1525
   73POPC   C3B 1248   7.784   8.693   6.862  0.0864 -0.1627  0.1054
   73POPC   C4B 1249   7.684   8.224   6.813  0.0978  0.3846  0.0615
   74POPC   NC3 1250   8.511   4.452   8.296  0.0864 -0.0772  0.0026
   74POPC   PO4 1251   8.657   4.246   8.128  0.0941 -0.0738  0.3442
   74POPC   GL1 1252   8.817   4.242   7.691 -0.4025 -0.3674  0.0568
   74POPC   GL2 1253   8.525   3.982   7.643 -0.0078 -0.1190  0.1566
   74POPC   C1A 1254   8.871   4.292   7.233  0.1468 -0.2028 -0.0838
   74POPC   D2A 1255   9.081   4.587   6.992  0.3672  0.0486  0.0610
   74POPC   C3A 1256   9.291   4.293   6.656 -0.1804 -0.0907  0.0560
   74POPC   C4A 1257   9.287   4.273   6.116 -0.4049  0.1326  0.2128
   74POPC   C1B 1258   8.422   4.120   7.284  0.0259  0.0605 -0.0961
   74POPC   C2B 1259   8.509   4.210   6.899 -0.0717  0.3413  0.0166
   74POPC   C3B 1260   8.813   4.391   6.609 -0.1752  0.0434 -0.0054
   74POPC   C4B 1261   8.797   4.277   6.165  0.1200  0.0480  0.2239
   75POPC   NC3 1262   9.242   2.643   7.913  0.1670  0.0465 -0.2437
   75POPC   PO4 1263   9.578   2.951   7.961  0.1084  0.1689  0.2165
   75POPC   GL1 1264   9.629   2.980   7.554  0.1158 -0.2821 -0.0710
   75POPC   GL2 1265   9.595   3.333   7.405 -0.2274 -0.0128  0.0196
   75POPC   C1A 1266   9.895   2.939   7.160  0.0732 -0.0878  0.1557
   75POPC   D2A 1267  10.148   2.753   6.907 -0.2439  0.3041  0.3681
   75POPC   C3A 1268  10.186   2.945   6.553 -0.0967  0.0285 -0.3235
   75POPC   C4A 1269  10.007   3.272   6.267  0.1029 -0.0150 -0.2460
   75POPC   C1B 1270   9.740   3.504   7.058  0.1445 -0.4079 -0.0237
   75POPC   C2B 1271  10.065   3.315   6.810 -0.2716  0.0911  0.1677
   75POPC   C3B 1272  10.446   3.517   6.500  0.2348 -0.1393 -0.3092
   75POPC   C4B 1273  10.538   3.580   5.979 -0.2852 -0.0651 -0.0903
   76POPC   NC3 1274   2.963   6.772   8.043  0.0654  0.4212  0.2157
   76POPC   PO4 1275   3.319   6.619   8.025  0.0316 -0.1700  0.1379
   76POPC   GL1 1276   3.254   6.727   7.602 -0.0065  0.0398  0.0160
   76POPC   GL2 1277   3.296   7.084   7.402  0.1385  0.0339  0.0545
   76POPC   C1A 1278   3.324   6.535   7.247  0.2391  0.2083 -0.1130
   76POPC   D2A 1279   3.610   6.256   7.159  0.2995 -0.2465  0.1307
   76POPC   C3A 1280   3.717   6.004   6.795  0.1458 -0.1738 -0.1705
   76POPC   C4A 1281   3.929   5.629   6.695 -0.0556  0.0076 -0.0505
   76POPC   C1B 1282   3.415   6.965   7.002  0.0591  0.0614 -0.0197
   76POPC   C2B 1283   3.251   6.949   6.536  0.1550 -0.0139  0.1949
   76POPC   C3B 1284   3.480   6.897   6.135  0.0279  0.1982  0.1985
   76POPC   C4B 1285   3.381   7.075   5.756  0.0146  0.1460  0.2667
   77POPC   NC3 1286   1.311   8.334   8.537 -0.1287 -0.2412  0.0309
   77POPC   PO4 1287   0.963   8.637   8.277  0.1640 -0.4705 -0.0234
   77POPC   GL1 1288   1.113   8.580   7.868  0.1945 -0.2045 -0.1997
   77POPC   GL2 1289   1.098   8.753   7.509 -0.1417  0.0413 -0.0554
   77POPC   C1A 1290   1.063   8.153   7.622  0.2479 -0.0782 -0.1375
   77POPC   D2A 1291   1.175   7.796   7.381 -0.0651  0.1573  0.0535
   77POPC   C3A 1292   0.854   7.546   7.188  0.0265 -0.1161  0.0076
   77POPC   C4A 1293   0.864   7.295   6.734  0.1802  0.1104 -0.2390
   77POPC   C1B 1294   1.201   9.029   7.186  0.1665  0.1799 -0.1001
   77POPC   C2B 1295   1.064   9.068   6.753  0.1394 -0.3854 -0.3327
   77POPC   C3B 1296   0.639   8.948   6.623  0.0004 -0.2836  0.1251
   77POPC   C4B 1297   0.355   8.649   6.734 -0.1267  0.2840 -0.2053
   78POPC   NC3 1298   0.662   2.930   8.146  0.2757 -0.0824  0.0396
   78POPC   PO4 1299   0.469   3.366   8.291  0.1025 -0.2117 -0.3824
   78POPC   GL1 1300   0.517   3.297   7.811 -0.1450  0.0541 -0.0729
   78POPC   GL2 1301   0.306   3.147   7.683  0.1538  0.1815 -0.0702
   78POPC   C1A 1302   0.378   3.480   7.349 -0.2359  0.0928  0.2688
   78POPC   D2A 1303   0.716   3.584   7.033  0.0740 -0.1108  0.2914
   78POPC   C3A 1304   1.056   3.345   7.206 -0.3847  0.3631  0.0849
   78POPC   C4A 1305   1.383   3.127   7.406 -0.2308 -0.1039  0.0219
   78POPC   C1B 1306   0.581   2.984   7.392  0.0332  0.1948  0.2572
   78POPC   C2B 1307   0.861   2.963   7.117  0.1896  0.2060  0.0832
   78POPC   C3B 1308   1.228   2.800   6.972 -0.2672  0.1275  0.0099
   78POPC   C4B 1309   1.407   2.579   6.620  0.1659  0.0301  0.0420
   79POPC   NC3 1310   8.004   2.122   8.586  0.0287 -0.0304  0.1164
   79POPC   PO4 1311   8.070   1.881   8.277  0.1028 -0.0028 -0.0017
   79POPC   GL1 1312   7.750   1.723   7.927 -0.4143 -0.0094 -0.1716
   79POPC   GL2 1313   7.956   1.916   7.711 -0.1726  0.1101 -0.1618
   79POPC   C1A 1314   7.635   1.630   7.486 -0.1456  0.1907  0.0385
   79POPC   D2A 1315   7.426   1.953   7.231 -0.2418 -0.0543  0.1083
   79POPC   C3A 1316   7.387   1.818   6.844  0.1367 -0.0216 -0.0707
   79POPC   C4A 1317   7.469   1.900   6.348 -0.1424 -0.1950 -0.2042
   79POPC   C1B 1318   7.986   1.834   7.240 -0.1368  0.1226  0.0358
   79POPC   C2B 1319   7.859   1.695   6.887  0.0356 -0.1603 -0.2257
   79POPC   C3B 1320   7.629   1.456   6.606  0.1437 -0.0777 -0.0828
   79POPC   C4B 1321   7.200   1.301   6.585  0.1284 -0.1473  0.0263
   80POPC   NC3 1322   3.314   3.178   8.510 -0.1958  0.0778 -0.1195
   80POPC   PO4 1323   3.380   2.788   8.727 -0.1804 -0.1366 -0.0377
   80POPC   GL1 1324   3.303   2.652   8.317 -0.0096 -0.3181 -0.0669
   80POPC   GL2 1325   3.092   2.417   8.307  0.1486 -0.2127  0.0511
   80POPC   C1A 1326   3.331   2.813   7.915 -0.0009 -0.0096 -0.0601
   80POPC   D2A 1327   3.339   2.839   7.439 -0.1757 -0.0315  0.0601
   80POPC   C3A 1328   3.342   2.995   7.073 -0.1377 -0.0742 -0.2839
   80POPC   C4A 1329   3.494   3.060   6.695  0.0139  0.3394  0.1725
   80POPC   C1B 1330   3.477   2.343   8.058  0.2381 -0.3941  0.2808
   80POPC   C2B 1331   3.785   2.506   7.766  0.0996  0.2800  0.1729
   80POPC   C3B 1332   3.995   2.862   7.406 -0.3522 -0.3995 -0.0234
   80POPC   C4B 1333   3.830   2.901   7.053  0.1083  0.0248  0.0866
   81POPC   NC3 1334   7.830   4.331   8.726  0.1302  0.1725  0.1325
   81POPC   PO4 1335   7.673   4.370   8.165 -0.1669  0.0321 -0.1293
   81POPC   GL1 1336   7.851   4.469   7.809  0.0776 -0.1371 -0.2816
   81POPC   GL2 1337   7.707   4.693   7.537  0.2784 -0.1244  0.0309
   81POPC   C1A 1338   8.267   4.442   7.630  0.3142  0.1962  0.0548
   81POPC   D2A 1339   8.558   4.680   7.421  0.2071 -0.2491  0.2893
   81POPC   C3A 1340   9.014   4.703   7.465 -0.2173 -0.1238 -0.0644
   81POPC   C4A 1341   9.507   4.499   7.266  0.2185 -0.1752 -0.0654
   81POPC   C1B 1342   7.782   4.330   7.258  0.1446 -0.1782  0.1292
   81POPC   C2B 1343   7.785   3.985   7.160  0.1048 -0.1906 -0.1346
   81POPC   C3B 1344   7.545   3.648   6.879  0.0515  0.2752  0.3525
   81POPC   C4B 1345   7.472   3.237   7.096  0.1460 -0.1389 -0.1080
   82POPC   NC3 1346   4.616   4.578   8.422  0.1542 -0.1234 -0.2572
   82POPC   PO4 1347   4.425   4.961   8.270  0.2435  0.2300  0.2909
   82POPC   GL1 1348   4.511   4.669   7.953  0.1131  0.0886  0.1170
   82POPC   GL2 1349   4.285   4.410   7.890  0.0746  0.1202  0.1101
   82POPC   C1A 1350   4.750   4.561   7.618  0.1482  0.2427  0.4048
   82POPC   D2A 1351   4.788   4.211   7.270  0.2207  0.2971 -0.3077
   82POPC   C3A 1352   4.898   4.346   6.821  0.1493 -0.2121  0.0144
   82POPC   C4A 1353   4.812   4.293   6.317  0.2401  0.1907 -0.0209
   82POPC   C1B 1354   4.312   4.301   7.372  0.3327  0.0656 -0.2560
   82POPC   C2B 1355   4.265   4.359   6.924  0.1673  0.0052 -0.2306
   82POPC   C3B 1356   4.476   4.721   6.641  0.0535  0.2660  0.3429
   82POPC   C4B 1357   4.392   5.221   6.760 -0.1096  0.2578  0.0354
   83POPC   NC3 1358   0.685   6.724   8.240  0.0570 -0.1033 -0.1167
   83POPC   PO4 1359   0.549   6.331   8.058  0.1302 -0.1380 -0.0810
   83POPC   GL1 1360   0.322   5.993   7.773  0.0721 -0.0421  0.0620
   83POPC   GL2 1361  -0.035   6.019   7.491 -0.1383  0.0432 -0.0653
   83POPC   C1A 1362   0.530   5.726   7.432 -0.1994  0.2045 -0.0237
   83POPC   D2A 1363   0.576   5.570   7.019  0.0887 -0.0883  0.4358
   83POPC   C3A 1364   0.657   5.853   6.691  0.2796  0.2010  0.4096
   83POPC   C4A 1365   0.764   6.038   6.399 -0.0487  0.0814  0.0167
   83POPC   C1B 1366  -0.390   5.924   7.168  0.0951 -0.0406 -0.2036
   83POPC   C2B 1367  -0.577   6.040   6.807  0.2197 -0.1372 -0.1422
   83POPC   C3B 1368  -0.626   6.141   6.436  0.1282  0.0952  0.0055
   83POPC   C4B 1369  -0.585   6.465   6.174  0.1270  0.0277  0.2227
   84POPC   NC3 1370   0.282   7.710   8.095  0.1482 -0.1345  0.2213
   84POPC   PO4 1371   0.033   8.142   8.095  0.2170 -0.2308  0.0968
   84POPC   GL1 1372   0.150   7.972   7.634 -0.0233  0.0976  0.1547
   84POPC   GL2 1373   0.395   7.733   7.588  0.0453  0.0478 -0.0532
   84POPC   C1A 1374   0.097   7.879   7.194  0.1295  0.0159 -0.2133
   84POPC   D2A 1375  -0.177   7.716   6.865 -0.3005 -0.1614 -0.0250
   84POPC   C3A 1376  -0.503   7.878   6.630  0.1639  0.0088 -0.0048
   84POPC   C4A 1377  -0.881   7.821   6.371  0.1165 -0.0296  0.0229
   84POPC   C1B 1378   0.588   8.055   7.258 -0.0266  0.0977  0.2724
   84POPC   C2B 1379   0.661   8.059   6.739  0.0201  0.1644 -0.1375
   84POPC   C3B 1380   0.705   7.771   6.453  0.0489  0.0883  0.0425
   84POPC   C4B 1381   0.467   7.368   6.283 -0.4099  0.1893  0.1034
   85POPC   NC3 1382   8.753   7.243   8.234 -0.0624  0.2871 -0.0657
   85POPC   PO4 1383   9.248   7.454   8.282  0.2451  0.0005  0.1547
   85POPC   GL1 1384   9.572   7.608   7.919 -0.0025  0.0165 -0.1719
   85POPC   GL2 1385   9.411   7.797   7.703 -0.0687 -0.2926  0.2087
   85POPC   C1A 1386   9.681   7.539   7.478 -0.1748  0.0645  0.2156
   85POPC   D2A 1387   9.556   7.265   7.166 -0.1917  0.0224  0.0917
   85POPC   C3A 1388   9.895   7.300   6.891 -0.0779 -0.0287  0.0583
   85POPC   C4A 1389  10.203   7.622   6.866  0.0537 -0.0871  0.2040
   85POPC   C1B 1390   9.479   8.155   7.404 -0.0860  0.2206 -0.1835
   85POPC   C2B 1391   9.444   8.226   6.993 -0.1377 -0.2872 -0.0545
   85POPC   C3B 1392   9.146   8.334   6.702  0.2673 -0.1047 -0.2651
   85POPC   C4B 1393   8.840   8.378   6.318  0.1829  0.0231  0.0353
   86POPC   NC3 1394   0.948   1.600   7.854  0.0565 -0.1037 -0.0227
   86POPC   PO4 1395   0.614   1.299   7.968 -0.0014  0.0045 -0.1169
   86POPC   GL1 1396   0.485   1.460   7.607  0.3503  0.1375  0.0602
   86POPC   GL2 1397   0.502   1.822   7.669 -0.1404  0.1183 -0.0757
   86POPC   C1A 1398   0.314   1.381   7.195  0.1186 -0.0927 -0.0536
   86POPC   D2A 1399   0.436   0.985   7.029 -0.3173 -0.2761 -0.0508
   86POPC   C3A 1400   0.452   1.054   6.628 -0.1356 -0.2074 -0.0044
   86POPC   C4A 1401   0.315   1.063   6.226  0.2978  0.2564  0.0536
   86POPC   C1B 1402   0.602   1.809   7.221 -0.3121 -0.1435 -0.2276
   86POPC   C2B 1403   0.414   1.770   6.900 -0.1472  0.4815  0.1459
   86POPC   C3B 1404   0.172   1.432   6.709  0.1464 -0.1447  0.0905
   86POPC   C4B 1405  -0.062   1.397   6.312 -0.0125 -0.1600  0.0303
   87POPC   NC3 1406   8.155   3.383   8.054 -0.0006 -0.1374  0.1777
   87POPC   PO4 1407   8.443   3.747   8.045  0.0290  0.1102 -0.2031
   87POPC   GL1 1408   8.100   3.800   7.755 -0.0482  0.0087 -0.3980
   87POPC   GL2 1409   7.782   3.979   7.778 -0.1179  0.0184  0.1613
   87POPC   C1A 1410   8.110   3.640   7.340  0.3778  0.0204 -0.1004
   87POPC   D2A 1411   8.332   3.654   6.895 -0.2189 -0.1091 -0.2635
   87POPC   C3A 1412   8.601   3.521   6.730  0.4288 -0.0506 -0.2362
   87POPC   C4A 1413   8.805   3.317   6.404  0.0701  0.0315 -0.2723
   87POPC   C1B 1414   7.648   3.624   7.528 -0.1075 -0.0822 -0.1012
   87POPC   C2B 1415   7.267   3.717   7.337 -0.0587  0.3747  0.1726
   87POPC   C3B 1416   7.206   4.010   7.018 -0.3369 -0.2137  0.0100
   87POPC   C4B 1417   7.305   4.147   6.556  0.0067 -0.0977  0.0245
   88POPC   NC3 1418   8.778   0.383   8.509 -0.2170  0.0440  0.1418
   88POPC   PO4 1419   8.559   0.832   8.460  0.0685  0.2040 -0.1160
   88POPC   GL1 1420   8.474   0.992   8.095 -0.1864  0.2374 -0.2349
   88POPC   GL2 1421   8.172   0.885   8.133 -0.0163  0.2640  0.3302
   88POPC   C1A 1422   8.430   1.011   7.660 -0.0343  0.1627  0.1845
   88POPC   D2A 1423   8.585   1.161   7.213 -0.1131 -0.2543 -0.0454
   88POPC   C3A 1424   8.265   1.284   6.958 -0.3721  0.2111  0.1267
   88POPC   C4A 1425   8.027   1.065   6.642  0.1181  0.1061 -0.2878
   88POPC   C1B 1426   7.957   0.707   7.675  0.2942 -0.0339 -0.0689
   88POPC   C2B 1427   7.785   0.550   7.330  0.4029  0.1148  0.1062
   88POPC   C3B 1428   7.736   0.537   6.908  0.2171  0.1270 -0.2491
   88POPC   C4B 1429   8.015   0.561   6.615 -0.1539  0.0849 -0.0139
   89POPC   NC3 1430   4.128   6.708   7.597 -0.1437 -0.0133 -0.0682
   89POPC   PO4 1431   3.733   6.964   7.753 -0.1073  0.0435  0.0647
   89POPC   GL1 1432   3.793   6.946   7.366  0.2538  0.0039  0.3254
   89POPC   GL2 1433   3.871   6.716   7.110 -0.2100 -0.1557 -0.0607
   89POPC   C1A 1434   3.901   7.293   7.023 -0.1106 -0.1366  0.4485
   89POPC   D2A 1435   3.723   7.026   6.606  0.1605  0.5339 -0.0108
   89POPC   C3A 1436   3.569   6.588   6.724  0.0771  0.0752 -0.1139
   89POPC   C4A 1437   3.263   6.189   6.769 -0.3107  0.0639  0.1825
   89POPC   C1B 1438   4.135   6.793   6.847  0.0047  0.2027 -0.0021
   89POPC   C2B 1439   4.407   6.725   6.397  0.1888 -0.3058 -0.2047
   89POPC   C3B 1440   4.542   6.821   6.002 -0.0756 -0.1084  0.0231
   89POPC   C4B 1441   4.429   6.735   5.607  0.2085  0.1522  0.3450
   90POPC   NC3 1442   8.206   0.719   8.858 -0.0617  0.1829 -0.2850
   90POPC   PO4 1443   7.911   0.946   8.586  0.0915  0.1642 -0.1091
   90POPC   GL1 1444   7.632   0.950   8.247  0.1147 -0.1660  0.2175
   90POPC   GL2 1445   7.724   1.083   7.907  0.1691  0.0505 -0.0194
   90POPC   C1A 1446   7.464   0.678   7.917 -0.0686 -0.0234  0.0900
   90POPC   D2A 1447   7.364   0.370   7.630  0.0082  0.2132  0.1177
   90POPC   C3A 1448   7.278   0.514   7.200 -0.1539  0.2097  0.0748
   90POPC   C4A 1449   7.147   0.861   6.911 -0.1731 -0.1431  0.2583
   90POPC   C1B 1450   7.485   0.993   7.468 -0.0510  0.2535 -0.1440
   90POPC   C2B 1451   7.649   0.995   7.004 -0.0932 -0.2874 -0.0982
   90POPC   C3B 1452   7.517   0.875   6.540  0.2393 -0.0638 -0.3282
   90POPC   C4B 1453   7.641   0.634   6.206 -0.0576 -0.2688 -0.0202
   91POPC   NC3 1454   4.512   0.531   9.354  0.1052  0.1547  0.0172
   91POPC   PO4 1455   4.127   0.782   9.380 -0.0480  0.2552  0.0330
   91POPC   GL1 1456   4.379   0.861   9.002 -0.2823  0.1176  0.1204
   91POPC   GL2 1457   4.585   1.023   8.925  0.3690 -0.2573  0.0108
   91POPC   C1A 1458   4.329   0.717   8.552  0.0135 -0.3210 -0.2622
   91POPC   D2A 1459   4.275   0.573   8.101  0.1221 -0.1771 -0.2814
   91POPC   C3A 1460   3.955   0.418   7.897 -0.0737  0.1053 -0.1568
   91POPC   C4A 1461   3.787   0.196   7.531 -0.1476  0.2552  0.2056
   91POPC   C1B 1462   4.786   0.939   8.579 -0.0132  0.0006 -0.3484
   91POPC   C2B 1463   5.180   0.911   8.448 -0.0359  0.2643  0.0662
   91POPC   C3B 1464   5.489   0.576   8.535  0.1244 -0.0163  0.0379
   91POPC   C4B 1465   5.781   0.191   8.391  0.3133  0.0874  0.1120
   92POPC   NC3 1466   4.912   5.505   8.381  0.2954  0.1259 -0.0974
   92POPC   PO4 1467   4.645   5.383   8.016  0.0612 -0.0556  0.1946
   92POPC   GL1 1468   4.635   5.187   7.719 -0.1793  0.0822  0.0133
   92POPC   GL2 1469   4.333   5.013   7.669 -0.0301 -0.1724  0.1384
   92POPC   C1A 1470   4.555   5.170   7.281  0.0504 -0.0720  0.1231
   92POPC   D2A 1471   4.104   5.252   7.180  0.1496  0.0613 -0.2168
   92POPC   C3A 1472   3.740   5.023   7.349 -0.1127 -0.0631  0.2286
   92POPC   C4A 1473   3.679   4.623   7.595  0.2023  0.1736  0.1833
   92POPC   C1B 1474   4.094   4.697   7.232 -0.0470  0.0582  0.3555
   92POPC   C2B 1475   4.077   4.843   6.848  0.3223 -0.2948  0.3193
   92POPC   C3B 1476   3.934   4.921   6.536 -0.2960 -0.0375 -0.0652
   92POPC   C4B 1477   3.918   4.913   6.147 -0.1932 -0.2657 -0.2036
   93POPC   NC3 1478   2.661   3.787   8.783  0.1212 -0.0070  0.1536
   93POPC   PO4 1479   2.877   3.700   8.454  0.1529 -0.0458  0.2449
   93POPC   GL1 1480   2.891   3.232   8.208  0.2364  0.0654  0.0298
   93POPC   GL2 1481   2.776   2.832   8.320 -0.0426 -0.0507  0.0127
   93POPC   C1A 1482   2.886   3.009   7.814 -0.0642 -0.0463 -0.1166
   93POPC   D2A 1483   2.825   2.725   7.504  0.0158 -0.0846 -0.2835
   93POPC   C3A 1484   3.020   2.441   7.182 -0.0991  0.2051  0.1503
   93POPC   C4A 1485   3.287   2.342   6.869 -0.2116  0.2531 -0.4023
   93POPC   C1B 1486   2.684   2.613   7.987  0.0633  0.1265  0.1856
   93POPC   C2B 1487   2.975   2.287   7.774  0.0572 -0.3493  0.1452
   93POPC   C3B 1488   3.358   2.339   7.524  0.0745 -0.2980 -0.0846
   93POPC   C4B 1489   3.614   2.433   7.228 -0.0903 -0.0236 -0.1156
   94POPC   NC3 1490   7.466   4.863   8.045  0.1756  0.0171  0.0226
   94POPC   PO4 1491   7.883   5.051   7.967 -0.2960  0.0236 -0.0018
   94POPC   GL1 1492   7.931   5.167   7.551  0.2443  0.1771 -0.2362
   94POPC   GL2 1493   8.158   4.970   7.486  0.0631  0.1277 -0.1695
   94POPC   C1A 1494   7.707   5.109   7.243  0.2657  0.1486  0.4056
   94POPC   D2A 1495   7.405   5.085   6.941 -0.0882 -0.0833 -0.3041
   94POPC   C3A 1496   7.509   4.937   6.530 -0.2496  0.0615 -0.0298
   94POPC   C4A 1497   7.479   4.644   6.328 -0.0556 -0.0415  0.1480
   94POPC   C1B 1498   8.136   5.011   7.017  0.1644 -0.1932  0.0093
   94POPC   C2B 1499   7.904   5.313   6.793  0.1184  0.4499  0.3984
   94POPC   C3B 1500   7.890   5.546   6.401  0.4089  0.2299 -0.1534
   94POPC   C4B 1501   8.232   5.978   6.354 -0.2640 -0.2634  0.1168
   95POPC   NC3 1502   4.317   6.380   8.316 -0.1075 -0.0619  0.1290
   95POPC   PO4 1503   4.439   6.535   7.946 -0.0603 -0.4011  0.0404
   95POPC   GL1 1504   4.599   6.580   7.536  0.0049 -0.0839 -0.1847
   95POPC   GL2 1505   4.430   6.712   7.220  0.1309 -0.2035  0.1017
   95POPC   C1A 1506   4.680   6.273   7.223 -0.0843  0.0086  0.0564
   95POPC   D2A 1507   5.073   6.018   7.078 -0.0988  0.0585 -0.2976
   95POPC   C3A 1508   5.299   6.197   6.802 -0.1673 -0.2267  0.3926
   95POPC   C4A 1509   5.253   6.426   6.497  0.0440 -0.4027 -0.2388
   95POPC   C1B 1510   4.670   6.960   6.790 -0.3156 -0.4583  0.0491
   95POPC   C2B 1511   4.677   7.310   6.440 -0.1023 -0.1712  0.1180
   95POPC   C3B 1512   4.404   7.285   6.000 -0.0003 -0.1193 -0.0764
   95POPC   C4B 1513   4.192   7.277   5.563 -0.0487  0.1645 -0.3433
   96POPC   NC3 1514   3.632   7.460   7.657 -0.0742 -0.0258  0.1182
   96POPC   PO4 1515   3.305   7.669   7.838  0.0297 -0.2222  0.0542
   96POPC   GL1 1516   3.377   7.746   7.352  0.0321  0.2112 -0.0253
   96POPC   GL2 1517   3.342   7.484   7.082 -0.0762  0.0899  0.1748
   96POPC   C1A 1518   3.105   7.949   7.187  0.0212 -0.3284  0.0325
   96POPC   D2A 1519   2.919   8.087   6.851 -0.0123 -0.0655 -0.3346
   96POPC   C3A 1520   2.595   7.979   6.509 -0.3565 -0.2713 -0.1591
   96POPC   C4A 1521   2.501   7.854   6.150  0.2189 -0.0378 -0.0832
   96POPC   C1B 1522   3.308   7.402   6.700 -0.0115  0.1287  0.1645
   96POPC   C2B 1523   3.524   7.377   6.229  0.0640  0.0719  0.1158
   96POPC   C3B 1524   3.641   7.675   5.883 -0.3243 -0.1670  0.1889
   96POPC   C4B 1525   3.389   7.568   5.505  0.3366  0.1656  0.0946
   97POPC   NC3 1526   4.320   5.697   8.214 -0.0926  0.1128 -0.0176
   97POPC   PO4 1527   4.605   6.054   8.032 -0.0669  0.2762  0.2125
   97POPC   GL1 1528   4.463   5.788   7.694 -0.0924 -0.0601  0.1436
   97POPC   GL2 1529   4.237   5.535   7.576  0.1366 -0.3456 -0.2467
   97POPC   C1A 1530   4.742   5.726   7.289 -0.0201  0.0120  0.1542
   97POPC   D2A 1531   4.598   5.704   6.798 -0.1994 -0.4079 -0.0806
   97POPC   C3A 1532   4.853   6.107   6.655  0.1820 -0.0336  0.4161
   97POPC   C4A 1533   4.769   6.484   6.725 -0.3360  0.0866 -0.3939
   97POPC   C1B 1534   4.138   5.787   7.178 -0.1010 -0.0329 -0.1660
   97POPC   C2B 1535   4.280   6.032   6.806  0.0751 -0.0787 -0.1701
   97POPC   C3B 1536   4.109   6.350   6.633  0.0774  0.1065 -0.2367
   97POPC   C4B 1537   3.876   6.576   6.285  0.0449  0.2348  0.0545
   98POPC   NC3 1538   8.207   8.470   8.351 -0.0576  0.0013  0.1926
   98POPC   PO4 1539   7.978   8.725   8.120  0.1893  0.1476 -0.0239
   98POPC   GL1 1540   8.169   8.531   7.823  0.3515  0.3702  0.3344
   98POPC   GL2 1541   7.925   8.479   7.483 -0.1418 -0.1323 -0.1160
   98POPC   C1A 1542   8.437   8.323   7.560 -0.3786 -0.0010 -0.1772
   98POPC   D2A 1543   8.580   7.976   7.310 -0.0353  0.0081  0.1370
   98POPC   C3A 1544   8.745   7.542   7.444  0.1750  0.0905  0.1203
   98POPC   C4A 1545   9.206   7.304   7.633 -0.2170  0.0760 -0.0605
   98POPC   C1B 1546   8.246   8.473   7.114 -0.1854 -0.0228 -0.1351
   98POPC   C2B 1547   8.137   8.403   6.757 -0.0612  0.2117 -0.2491
   98POPC   C3B 1548   7.984   8.390   6.442  0.0706 -0.1878  0.3939
   98POPC   C4B 1549   7.749   8.567   6.099  0.1722  0.3841  0.2517
   99POPC   NC3 1550   1.092   2.662   8.259  0.2985  0.0360 -0.2582
   99POPC   PO4 1551   0.724   2.430   8.164  0.1467  0.1605  0.2484
   99POPC   GL1 1552   0.702   2.409   7.792  0.1396 -0.0485  0.3054
   99POPC   GL2 1553   0.845   2.116   7.819  0.0696 -0.1099 -0.2231
   99POPC   C1A 1554   0.504   2.286   7.381  0.1693 -0.0059  0.1562
   99POPC   D2A 1555   0.398   2.253   6.945 -0.1243  0.0351  0.4007
   99POPC   C3A 1556   0.706   2.043   6.557  0.0084  0.1057 -0.0850
   99POPC   C4A 1557   0.695   1.847   6.167 -0.2757 -0.1805 -0.3250
   99POPC   C1B 1558   1.025   2.104   7.456  0.1241  0.1542  0.0662
   99POPC   C2B 1559   1.017   2.072   6.930 -0.0171  0.1795 -0.0986
   99POPC   C3B 1560   1.104   2.253   6.498 -0.1231  0.0231 -0.0100
   99POPC   C4B 1561   1.417   2.282   6.230 -0.3039 -0.0075  0.0355
  100POPC   NC3 1562   1.699   1.963   8.097 -0.3024  0.1810  0.3598
  100POPC   PO4 1563   1.231   2.009   8.115 -0.3169 -0.0095  0.0386
  100POPC   GL1 1564   1.370   1.825   7.731  0.0580 -0.1409  0.0505
  100POPC   GL2 1565   1.495   2.041   7.610 -0.2461  0.2544  0.2682
  100POPC   C1A 1566   1.149   1.693   7.228 -0.1121  0.0854 -0.2949
  100POPC   D2A 1567   0.824   1.404   7.011  0.2191  0.0349  0.1377
  100POPC   C3A 1568   0.989   1.188   6.625 -0.1541 -0.0038  0.1451
  100POPC   C4A 1569   1.426   0.964   6.598 -0.1615 -0.1712 -0.0577
  100POPC   C1B 1570   1.657   1.803   7.281  0.1109  0.1950  0.0322
  100POPC   C2B 1571   1.770   1.625   6.888 -0.2778 -0.1998  0.0137
  100POPC   C3B 1572   1.868   1.834   6.433  0.1979 -0.3139 -0.0981
  100POPC   C4B 1573   1.823   2.013   6.017 -0.0796  0.0596 -0.2751
  101POPC   NC3 1574   7.035   1.931   8.914 -0.0376 -0.2568 -0.2316
  101POPC   PO4 1575   7.501   1.963   8.624  0.2758  0.2697  0.1096
  101POPC   GL1 1576   7.266   1.844   8.225 -0.0324  0.1499  0.0272
  101POPC   GL2 1577   7.290   1.761   7.853 -0.2547  0.0544 -0.3682
  101POPC   C1A 1578   7.038   2.147   8.046 -0.1075  0.2919 -0.0029
  101POPC   D2A 1579   6.912   2.430   7.757  0.3459 -0.0130 -0.0031
  101POPC   C3A 1580   6.663   2.424   7.408 -0.0896 -0.0245  0.0204
  101POPC   C4A 1581   6.688   2.438   6.970  0.1327  0.0785  0.1694
  101POPC   C1B 1582   7.050   1.976   7.551  0.1417  0.0321  0.0682
  101POPC   C2B 1583   6.915   2.005   7.051 -0.0983  0.0008  0.0407
  101POPC   C3B 1584   7.130   2.168   6.724  0.2692 -0.0760  0.3276
  101POPC   C4B 1585   7.568   2.256   6.752 -0.3428 -0.1602  0.2042
  102POPC   NC3 1586   3.347   0.739   8.308  0.0607  0.2810 -0.0720
  102POPC   PO4 1587   3.018   0.437   8.149  0.2551 -0.2354 -0.1415
  102POPC   GL1 1588   3.406   0.509   7.817 -0.2614  0.2415 -0.3668
  102POPC   GL2 1589   3.646   0.792   7.940  0.3742  0.1120 -0.1438
  102POPC   C1A 1590   3.423   0.464   7.342  0.1363  0.0513  0.0764
  102POPC   D2A 1591   3.063   0.376   7.208  0.4023 -0.0204 -0.3116
  102POPC   C3A 1592   3.003   0.200   6.795 -0.0929 -0.3271 -0.0791
  102POPC   C4A 1593   2.828   0.188   6.390  0.1208 -0.0343  0.2235
  102POPC   C1B 1594   3.430   1.270   7.860 -0.0021  0.0571  0.2038
  102POPC   C2B 1595   3.416   1.517   7.548 -0.1161  0.0239 -0.1332
  102POPC   C3B 1596   3.515   1.478   7.108 -0.0714  0.0730  0.0437
  102POPC   C4B 1597   3.486   1.823   6.814  0.2286  0.0620  0.4476
  103POPC   NC3 1598   5.814   5.459   8.041 -0.0433 -0.1475  0.2741
  103POPC   PO4 1599   5.982   5.880   7.944  0.0082  0.1590  0.2031
  103POPC   GL1 1600   5.894   5.609   7.577 -0.3079 -0.0598 -0.0463
  103POPC   GL2 1601   6.100   5.361   7.598  0.0255  0.3317  0.1672
  103POPC   C1A 1602   6.019   5.401   7.102  0.2125  0.2336 -0.1829
  103POPC   D2A 1603   6.040   5.291   6.763  0.1187 -0.0259  0.2906
  103POPC   C3A 1604   6.189   5.215   6.268  0.1451 -0.1012 -0.3222
  103POPC   C4A 1605   6.008   4.982   5.961  0.2735 -0.2444 -0.2138
  103POPC   C1B 1606   6.191   4.949   7.302  0.1269 -0.2136 -0.0245
  103POPC   C2B 1607   6.222   4.590   7.090  0.0186 -0.1282 -0.1271
  103POPC   C3B 1608   5.936   4.291   6.852 -0.2174  0.0646  0.0794
  103POPC   C4B 1609   6.047   4.270   6.485  0.0498  0.1046  0.3560
  104POPC   NC3 1610   0.888   3.596   8.045 -0.1019  0.0320  0.0195
  104POPC   PO4 1611   1.174   3.190   8.063 -0.0730  0.3023 -0.0059
  104POPC   GL1 1612   1.411   2.927   7.863  0.2276  0.4177  0.3442
  104POPC   GL2 1613   1.063   2.819   7.605  0.3213  0.1507  0.0251
  104POPC   C1A 1614   1.492   2.655   7.453  0.0691 -0.0686  0.1622
  104POPC   D2A 1615   1.369   2.271   7.174 -0.1185 -0.0159 -0.1315
  104POPC   C3A 1616   1.596   2.085   6.829 -0.1724  0.0041 -0.0635
  104POPC   C4A 1617   1.888   2.340   6.596  0.0827  0.0324 -0.2353
  104POPC   C1B 1618   0.937   2.550   7.317 -0.2306 -0.3918 -0.0591
  104POPC   C2B 1619   0.827   2.465   6.893  0.1917  0.0003  0.0169
  104POPC   C3B 1620   0.838   2.644   6.494  0.0806  0.0818 -0.1809
  104POPC   C4B 1621   0.996   2.521   6.050  0.1039 -0.0364  0.0775
  105POPC   NC3 1622   0.153   1.339   8.171 -0.2041  0.2132  0.1971
  105POPC   PO4 1623   0.056   1.717   7.864 -0.1226  0.0628  0.1893
  105POPC   GL1 1624  -0.024   1.603   7.470 -0.0690  0.3396 -0.1206
  105POPC   GL2 1625  -0.356   1.785   7.504  0.0760  0.0772  0.0408
  105POPC   C1A 1626  -0.243   1.439   7.130 -0.0321 -0.1723  0.3623
  105POPC   D2A 1627  -0.516   1.258   6.767 -0.1639  0.1129  0.2785
  105POPC   C3A 1628  -0.628   1.413   6.430 -0.1866  0.1367  0.0570
  105POPC   C4A 1629  -0.431   1.341   6.004  0.0256 -0.0999 -0.3534
  105POPC   C1B 1630  -0.566   1.890   7.092 -0.1047 -0.0873  0.2194
  105POPC   C2B 1631  -0.687   2.381   7.076 -0.1193  0.2537 -0.2062
  105POPC   C3B 1632  -0.611   2.643   6.857 -0.2067  0.1788  0.1484
  105POPC   C4B 1633  -0.631   2.901   6.565 -0.2148 -0.0121  0.1661
  106POPC   NC3 1634   0.922   0.154   8.055 -0.1209  0.3683 -0.0748
  106POPC   PO4 1635   0.538   0.081   7.945  0.1868 -0.1395  0.4275
  106POPC   GL1 1636   0.343   0.057   7.581  0.1116 -0.1402  0.4551
  106POPC   GL2 1637   0.257   0.413   7.583 -0.1712  0.2660 -0.1043
  106POPC   C1A 1638   0.531   0.109   7.207  0.0353  0.0656 -0.2183
  106POPC   D2A 1639   0.515   0.145   6.780  0.2381  0.0927  0.0405
  106POPC   C3A 1640   0.093   0.309   6.696 -0.0777  0.1425 -0.0982
  106POPC   C4A 1641   0.048   0.506   7.031  0.1174 -0.2703  0.0247
  106POPC   C1B 1642   0.480   0.578   7.318 -0.1460 -0.3334 -0.1726
  106POPC   C2B 1643   0.678   0.572   6.900  0.1587 -0.2556  0.1302
  106POPC   C3B 1644   0.509   0.588   6.478  0.0425  0.0805  0.4967
  106POPC   C4B 1645   0.129   0.636   6.226  0.0379 -0.0323 -0.0652
  107POPC   NC3 1646   2.631   9.542   8.151 -0.0600 -0.1177 -0.0557
  107POPC   PO4 1647   2.290   9.653   7.940 -0.1638 -0.1007 -0.0635
  107POPC   GL1 1648   2.262   9.939   7.553  0.0025  0.2041  0.0835
  107POPC   GL2 1649   2.588   9.933   7.433  0.2307  0.3230  0.3179
  107POPC   C1A 1650   2.079  10.142   7.116  0.1413  0.0391 -0.1755
  107POPC   D2A 1651   2.107  10.471   6.830  0.0886 -0.1244  0.2817
  107POPC   C3A 1652   2.392  10.836   6.817  0.0225 -0.0933 -0.0748
  107POPC   C4A 1653   2.789  11.042   6.757  0.0671  0.0705  0.0064
  107POPC   C1B 1654   2.867   9.658   7.183  0.0109 -0.0740 -0.2146
  107POPC   C2B 1655   3.147   9.369   7.010  0.3002  0.5710  0.0856
  107POPC   C3B 1656   3.543   9.182   6.760 -0.1774 -0.2812  0.0519
  107POPC   C4B 1657   3.693   9.315   6.422 -0.1525  0.2912  0.0960
  108POPC   NC3 1658   6.582   6.852   8.354  0.1558 -0.0957  0.0311
  108POPC   PO4 1659   6.953   7.062   8.224 -0.2604  0.0958  0.0886
  108POPC   GL1 1660   6.988   7.100   7.661  0.0557 -0.1447  0.1944
  108POPC   GL2 1661   7.154   6.981   7.581  0.1488  0.2372 -0.0270
  108POPC   C1A 1662   6.940   7.341   7.296  0.2319  0.0654 -0.0130
  108POPC   D2A 1663   7.231   7.474   6.975  0.1790  0.4248  0.1085
  108POPC   C3A 1664   7.036   7.768   6.628 -0.3236  0.0456 -0.0596
  108POPC   C4A 1665   6.836   7.791   6.221  0.0110  0.1570  0.2630
  108POPC   C1B 1666   7.360   7.031   7.140 -0.1020 -0.0992 -0.2886
  108POPC   C2B 1667   7.595   7.150   6.818  0.2450  0.1777  0.2260
  108POPC   C3B 1668   8.082   7.355   6.675  0.4417 -0.0528 -0.0949
  108POPC   C4B 1669   8.275   7.569   6.378  0.3166  0.2377 -0.1815
  109POPC   NC3 1670   8.411   1.534   8.314 -0.0129  0.0431  0.0043
  109POPC   PO4 1671   8.828   1.338   7.999 -0.0195  0.1104  0.1652
  109POPC   GL1 1672   8.735   1.518   7.579  0.2992 -0.4133 -0.3472
  109POPC   GL2 1673   8.451   1.637   7.435  0.3116 -0.0399 -0.2030
  109POPC   C1A 1674   8.967   1.475   7.214 -0.0325  0.0556  0.0553
  109POPC   D2A 1675   8.830   1.620   6.832  0.2523  0.1884 -0.2286
  109POPC   C3A 1676   8.695   1.242   6.679 -0.1770  0.1183 -0.0692
  109POPC   C4A 1677   8.500   0.879   6.705  0.1422 -0.3406 -0.0517
  109POPC   C1B 1678   8.454   1.786   7.129 -0.1306 -0.2403 -0.2092
  109POPC   C2B 1679   8.345   1.721   6.755  0.0541  0.2782 -0.0019
  109POPC   C3B 1680   8.280   1.498   6.461  0.1967  0.0137  0.0020
  109POPC   C4B 1681   8.061   1.446   6.168 -0.0308 -0.3580 -0.0345
  110POPC   NC3 1682   1.644   6.080   8.239  0.0670  0.3865 -0.2083
  110POPC   PO4 1683   1.339   5.786   8.294 -0.1361 -0.1106  0.0672
  110POPC   GL1 1684   1.344   5.872   7.842  0.3861  0.0331 -0.1634
  110POPC   GL2 1685   1.607   5.795   7.723  0.2769 -0.2452  0.0983
  110POPC   C1A 1686   1.035   5.838   7.592 -0.0047 -0.2032  0.0097
  110POPC   D2A 1687   0.690   6.205   7.592 -0.5069 -0.0155 -0.2047
  110POPC   C3A 1688   0.416   6.150   7.194 -0.2182  0.2572  0.3548
  110POPC   C4A 1689   0.196   6.450   6.971  0.1710  0.1750 -0.0819
  110POPC   C1B 1690   1.640   5.729   7.237  0.3384  0.1319  0.1396
  110POPC   C2B 1691   1.422   6.017   6.907  0.0153  0.2447  0.0722
  110POPC   C3B 1692   1.124   6.223   6.700 -0.0483 -0.0525  0.1327
  110POPC   C4B 1693   1.084   6.589   6.516  0.0154  0.0206  0.0264
  111POPC   NC3 1694   6.901   0.070   8.836  0.2531 -0.0701 -0.0042
  111POPC   PO4 1695   7.231   0.062   8.573 -0.4127  0.0565  0.1410
  111POPC   GL1 1696   7.400   0.070   8.133  0.0273  0.1224 -0.1158
  111POPC   GL2 1697   7.653   0.223   8.053  0.2408  0.0414 -0.1912
  111POPC   C1A 1698   7.113  -0.046   7.837  0.2378 -0.6093  0.2588
  111POPC   D2A 1699   6.957  -0.203   7.444  0.0911 -0.2137  0.0243
  111POPC   C3A 1700   6.871   0.218   7.026  0.0260  0.3006  0.1584
  111POPC   C4A 1701   6.770   0.560   6.990 -0.1082  0.0626 -0.0251
  111POPC   C1B 1702   7.888   0.224   7.708  0.1601 -0.2718 -0.1516
  111POPC   C2B 1703   7.863   0.075   7.281  0.1878  0.0038 -0.1758
  111POPC   C3B 1704   7.838   0.084   6.781 -0.0791 -0.1972  0.2914
  111POPC   C4B 1705   7.677   0.146   6.350  0.0407  0.4149 -0.1268
  112POPC   NC3 1706   1.331   3.626   8.540  0.0612  0.0740 -0.1895
  112POPC   PO4 1707   1.412   3.663   8.129 -0.0612 -0.1923  0.0831
  112POPC   GL1 1708   1.655   3.881   7.888 -0.0853 -0.1305 -0.1312
  112POPC   GL2 1709   1.769   3.646   7.664  0.5688 -0.0092 -0.2760
  112POPC   C1A 1710   1.506   4.091   7.498 -0.0519  0.0204 -0.0035
  112POPC   D2A 1711   1.682   4.395   7.296  0.3185 -0.3485  0.1818
  112POPC   C3A 1712   1.738   4.508   6.862  0.1564  0.0844  0.0710
  112POPC   C4A 1713   1.609   4.675   6.412  0.1518 -0.0689 -0.0986
  112POPC   C1B 1714   1.581   3.602   7.319 -0.1877  0.0721 -0.2287
  112POPC   C2B 1715   1.582   3.347   6.944 -0.0403  0.1642 -0.0710
  112POPC   C3B 1716   1.282   3.315   6.728  0.1581  0.4322  0.0175
  112POPC   C4B 1717   0.911   3.120   6.676 -0.1189  0.3379 -0.1508
  113POPC   NC3 1718   4.149   9.106   8.742  0.0553  0.2827 -0.1238
  113POPC   PO4 1719   4.433   9.363   8.659  0.0271 -0.0990  0.0585
  113POPC   GL1 1720   4.365   9.524   8.226 -0.1039  0.1859 -0.0466
  113POPC   GL2 1721   4.015   9.699   8.135 -0.3217 -0.3280 -0.2875
  113POPC   C1A 1722   4.419   9.899   7.882  0.0876 -0.2156  0.0159
  113POPC   D2A 1723   4.752  10.004   7.579 -0.3084 -0.0557  0.1367
  113POPC   C3A 1724   4.786  10.080   7.160 -0.2012 -0.2110 -0.4856
  113POPC   C4A 1725   4.784   9.810   6.681  0.3256 -0.3743  0.0726
  113POPC   C1B 1726   4.082   9.273   7.821 -0.0296 -0.0481  0.0968
  113POPC   C2B 1727   4.248   9.244   7.359 -0.1546 -0.0858  0.0073
  113POPC   C3B 1728   4.120   9.303   6.884  0.0619 -0.0002  0.2241
  113POPC   C4B 1729   4.151   8.977   6.703  0.2274  0.0054  0.2335
  114POPC   NC3 1730   8.367   3.590   8.572 -0.4529 -0.2485  0.1702
  114POPC   PO4 1731   8.578   3.293   8.317  0.0531 -0.2057  0.0211
  114POPC   GL1 1732   8.699   3.307   7.749 -0.0830  0.0740  0.2095
  114POPC   GL2 1733   8.519   3.497   7.617 -0.0662  0.0766 -0.1329
  114POPC   C1A 1734   8.907   3.245   7.350 -0.0644 -0.2047 -0.0683
  114POPC   D2A 1735   8.874   3.055   6.935  0.1771  0.0758 -0.0124
  114POPC   C3A 1736   8.671   2.671   6.958  0.1257  0.0014 -0.0086
  114POPC   C4A 1737   8.438   2.432   6.675  0.0206 -0.0118  0.0791
  114POPC   C1B 1738   8.756   3.705   7.212 -0.2481  0.0272  0.3054
  114POPC   C2B 1739   9.000   3.938   6.866  0.1096 -0.2363  0.2224
  114POPC   C3B 1740   9.435   3.828   6.668  0.0688 -0.1374 -0.1884
  114POPC   C4B 1741   9.955   3.744   6.560  0.0750 -0.0280 -0.1410
  115POPC   NC3 1742   8.882   8.865   8.430 -0.0835  0.2430  0.0305
  115POPC   PO4 1743   8.500   8.748   8.102  0.0210  0.1979 -0.0525
  115POPC   GL1 1744   8.579   8.766   7.605  0.1933  0.1438 -0.1205
  115POPC   GL2 1745   8.859   8.855   7.511 -0.1837 -0.1278 -0.0317
  115POPC   C1A 1746   8.547   8.904   7.131  0.1164 -0.0327 -0.2461
  115POPC   D2A 1747   8.236   8.925   6.764 -0.1546 -0.2327  0.2991
  115POPC   C3A 1748   8.060   9.424   6.635 -0.3570 -0.2445 -0.0425
  115POPC   C4A 1749   8.157   9.834   6.387 -0.0476 -0.1147 -0.0507
  115POPC   C1B 1750   9.009   8.924   7.070  0.0557 -0.1324  0.2450
  115POPC   C2B 1751   9.265   8.955   6.494 -0.0519  0.1697  0.0147
  115POPC   C3B 1752   9.667   9.028   6.299  0.1654 -0.1781  0.1210
  115POPC   C4B 1753   9.995   9.125   6.490 -0.2444  0.2967 -0.0768
  116POPC   NC3 1754   0.318   9.317   8.649  0.2604  0.1167 -0.3696
  116POPC   PO4 1755   0.302   9.508   8.241  0.1865  0.2234 -0.0662
  116POPC   GL1 1756   0.297   9.366   7.834  0.0770 -0.3286 -0.1979
  116POPC   GL2 1757   0.259   9.107   7.758  0.0106  0.3827  0.1704
  116POPC   C1A 1758   0.523   9.413   7.413 -0.0056 -0.0138 -0.0521
  116POPC   D2A 1759   0.829   9.439   7.123  0.1141 -0.4303 -0.1690
  116POPC   C3A 1760   0.914   9.569   6.666 -0.3156  0.3571 -0.1009
  116POPC   C4A 1761   0.964   9.867   6.346  0.1367 -0.0210 -0.0562
  116POPC   C1B 1762   0.104   9.015   7.391  0.0120  0.0134  0.3290
  116POPC   C2B 1763  -0.179   9.130   7.016  0.1751 -0.0603  0.1819
  116POPC   C3B 1764  -0.163   9.364   6.709 -0.0302 -0.0340  0.0630
  116POPC   C4B 1765  -0.281   9.695   6.445 -0.1159 -0.0683 -0.1222
  117POPC   NC3 1766   1.805   9.569   8.169  0.0873  0.0848 -0.1731
  117POPC   PO4 1767   1.342   9.524   7.979 -0.1990  0.0678  0.1710
  117POPC   GL1 1768   1.521   9.580   7.621  0.1810  0.5282 -0.2532
  117POPC   GL2 1769   1.859   9.592   7.521 -0.1791  0.1820  0.0350
  117POPC   C1A 1770   1.397   9.613   7.211 -0.1720 -0.2758  0.0402
  117POPC   D2A 1771   1.441   9.370   6.846  0.1232 -0.0186 -0.0688
  117POPC   C3A 1772   1.323   9.332   6.413 -0.0470  0.1620  0.3094
  117POPC   C4A 1773   1.038   9.465   6.137  0.3089  0.0643 -0.0297
  117POPC   C1B 1774   1.858   9.716   7.094  0.0948 -0.3573 -0.0510
  117POPC   C2B 1775   1.781   9.663   6.620  0.0819 -0.0899 -0.4548
  117POPC   C3B 1776   1.865   9.596   6.257 -0.2900  0.1659  0.1376
  117POPC   C4B 1777   2.150   9.471   5.955  0.0322 -0.0580 -0.0195
  118POPC   NC3 1778   3.949   8.669   8.627  0.1330  0.3206 -0.0625
  118POPC   PO4 1779   3.660   8.985   8.592  0.1922 -0.2931  0.1298
  118POPC   GL1 1780   3.612   9.070   8.095  0.1805 -0.0594 -0.0488
  118POPC   GL2 1781   3.634   8.860   7.840  0.2781 -0.0869 -0.2501
  118POPC   C1A 1782   3.607   9.353   7.675  0.0206 -0.1802  0.0136
  118POPC   D2A 1783   3.591   9.313   7.320 -0.1074  0.0049  0.1596
  118POPC   C3A 1784   3.854   9.605   7.190 -0.3090  0.5952  0.0208
  118POPC   C4A 1785   3.860  10.068   7.061 -0.0966 -0.3295  0.0515
  118POPC   C1B 1786   3.834   8.853   7.532  0.3755  0.0371 -0.0810
  118POPC   C2B 1787   3.822   8.923   7.203 -0.0854 -0.0771 -0.1481
  118POPC   C3B 1788   3.684   8.742   6.816 -0.1186  0.0970 -0.0971
  118POPC   C4B 1789   3.776   8.569   6.445  0.0776  0.1364 -0.0783
  119POPC   NC3 1790   1.909   6.880   8.473 -0.2589  0.1210  0.1520
  119POPC   PO4 1791   1.631   6.560   8.326 -0.2852 -0.3128 -0.1938
  119POPC   GL1 1792   1.968   6.415   8.029  0.2171  0.0077  0.0384
  119POPC   GL2 1793   1.995   6.766   7.946  0.2030  0.0678  0.0438
  119POPC   C1A 1794   1.984   6.359   7.567  0.0083 -0.1513  0.0914
  119POPC   D2A 1795   1.617   6.277   7.268 -0.1237  0.1441  0.0263
  119POPC   C3A 1796   1.511   6.454   6.844 -0.0049  0.0054  0.1226
  119POPC   C4A 1797   1.650   6.480   6.382  0.3220 -0.1432 -0.0858
  119POPC   C1B 1798   1.695   6.838   7.627  0.0438  0.4830 -0.1837
  119POPC   C2B 1799   1.346   6.635   7.483  0.0449 -0.3303 -0.0899
  119POPC   C3B 1800   1.081   6.333   7.366 -0.1655  0.0895  0.1232
  119POPC   C4B 1801   0.959   5.966   7.103 -0.0886  0.4335 -0.1740
  120POPC   NC3 1802   2.535   5.918   8.157 -0.1102  0.1418 -0.1512
  120POPC   PO4 1803   2.957   5.525   8.261 -0.1976 -0.1756  0.1504
  120POPC   GL1 1804   2.871   5.383   7.801 -0.0941  0.1688 -0.0462
  120POPC   GL2 1805   2.841   5.009   7.738  0.1755 -0.0407 -0.0304
  120POPC   C1A 1806   2.721   5.318   7.384  0.0216  0.1967  0.0496
  120POPC   D2A 1807   2.586   5.275   6.933  0.2125  0.1308  0.1402
  120POPC   C3A 1808   2.331   5.155   6.649 -0.2107 -0.1534  0.0524
  120POPC   C4A 1809   2.064   4.793   6.501 -0.1753  0.0412 -0.3387
  120POPC   C1B 1810   2.961   4.844   7.305 -0.0643  0.0051  0.1512
  120POPC   C2B 1811   3.084   4.879   6.831 -0.2109 -0.1523  0.1907
  120POPC   C3B 1812   3.070   4.620   6.444 -0.2464 -0.0455 -0.1888
  120POPC   C4B 1813   2.914   4.258   6.192 -0.1396 -0.1443 -0.2921
  121POPC   NC3 1814   9.648   9.207   8.025 -0.1832 -0.1281  0.0157
  121POPC   PO4 1815   9.593   8.820   8.022 -0.0164  0.0079  0.1204
  121POPC   GL1 1816   9.426   8.918   7.666  0.0460 -0.2512  0.0410
  121POPC   GL2 1817   9.354   8.655   7.444  0.0739  0.1208 -0.2295
  121POPC   C1A 1818   9.244   9.202   7.369  0.2332 -0.2326  0.1598
  121POPC   D2A 1819   9.448   9.566   7.094 -0.3852 -0.0615  0.2952
  121POPC   C3A 1820   9.193   9.902   6.900 -0.1014  0.1540 -0.1051
  121POPC   C4A 1821   9.027   9.856   6.491 -0.4143 -0.0018 -0.2850
  121POPC   C1B 1822   9.423   8.711   6.994 -0.2200 -0.0581 -0.0436
  121POPC   C2B 1823   9.639   8.553   6.602  0.0639  0.2292 -0.0349
  121POPC   C3B 1824   9.953   8.438   6.221  0.1985 -0.2316 -0.0571
  121POPC   C4B 1825   9.863   8.312   5.866 -0.1089  0.0341  0.0982
  122POPC   NC3 1826   7.410   1.219   9.163  0.1748  0.2049 -0.2223
  122POPC   PO4 1827   7.207   1.459   8.764 -0.4371  0.2158  0.4900
  122POPC   GL1 1828   6.923   1.619   8.472  0.1764 -0.0946  0.2636
  122POPC   GL2 1829   6.871   1.385   8.239 -0.1048  0.3909  0.0093
  122POPC   C1A 1830   6.574   1.822   8.221 -0.2169  0.3107  0.1124
  122POPC   D2A 1831   6.280   2.177   8.183  0.1574 -0.1849 -0.1719
  122POPC   C3A 1832   6.220   2.388   7.808  0.2321  0.3031 -0.1756
  122POPC   C4A 1833   6.393   2.789   7.615  0.1610 -0.0249  0.3340
  122POPC   C1B 1834   6.849   1.605   7.873 -0.2582  0.1353  0.0203
  122POPC   C2B 1835   6.819   1.571   7.414 -0.3349  0.0340  0.0544
  122POPC   C3B 1836   6.759   1.483   6.956  0.0123 -0.0887 -0.1782
  122POPC   C4B 1837   6.716   1.132   6.682  0.2993  0.1734 -0.2193
  123POPC   NC3 1838   2.181   8.315   8.205  0.0032 -0.0723  0.0113
  123POPC   PO4 1839   2.464   8.100   7.866  0.6946  0.0840 -0.1315
  123POPC   GL1 1840   2.437   8.036   7.449  0.0469 -0.0322 -0.2379
  123POPC   GL2 1841   2.651   7.759   7.197  0.0995  0.1355 -0.3443
  123POPC   C1A 1842   2.355   8.130   7.024  0.3701  0.0692  0.2480
  123POPC   D2A 1843   2.206   8.325   6.709  0.1788 -0.1120 -0.4568
  123POPC   C3A 1844   1.821   8.628   6.802 -0.2210 -0.0010  0.0965
  123POPC   C4A 1845   1.624   8.923   6.648  0.0815  0.0866 -0.2797
  123POPC   C1B 1846   2.894   7.600   6.799  0.1680 -0.0249  0.2325
  123POPC   C2B 1847   3.065   7.697   6.373 -0.1509 -0.0505  0.0845
  123POPC   C3B 1848   3.145   7.900   5.979 -0.1074  0.0207 -0.0519
  123POPC   C4B 1849   3.492   8.093   5.717 -0.2159 -0.1450 -0.3239
  124POPC   NC3 1850   5.132   7.839   8.109  0.0495 -0.2515  0.0213
  124POPC   PO4 1851   5.251   7.541   8.272 -0.0342 -0.2384 -0.0870
  124POPC   GL1 1852   5.093   7.521   7.747 -0.1134 -0.1343  0.2039
  124POPC   GL2 1853   4.785   7.500   7.561  0.0102 -0.2634  0.3818
  124POPC   C1A 1854   5.262   7.733   7.342  0.3089  0.3758  0.2847
  124POPC   D2A 1855   5.481   7.797   6.968 -0.0600  0.0799 -0.1106
  124POPC   C3A 1856   5.569   7.686   6.452 -0.2198 -0.1117 -0.0244
  124POPC   C4A 1857   5.520   7.651   5.992 -0.0100  0.1235 -0.4316
  124POPC   C1B 1858   5.013   7.385   7.062  0.0680  0.1840 -0.3683
  124POPC   C2B 1859   5.116   7.463   6.720 -0.2094 -0.0327 -0.0661
  124POPC   C3B 1860   5.142   7.437   6.307 -0.1991 -0.3966 -0.1226
  124POPC   C4B 1861   4.929   7.266   5.980  0.0708 -0.1963  0.2465
  125POPC   NC3 1862   2.465   8.758   8.007 -0.2342  0.2144 -0.0144
  125POPC   PO4 1863   2.861   8.529   7.953 -0.2248 -0.2110 -0.0724
  125POPC   GL1 1864   2.648   8.495   7.571  0.0277 -0.2106  0.3158
  125POPC   GL2 1865   2.256   8.543   7.532  0.2218 -0.0312 -0.1889
  125POPC   C1A 1866   2.681   8.511   7.145 -0.1144 -0.2537  0.0452
  125POPC   D2A 1867   2.703   8.491   6.719  0.3568  0.0450 -0.3099
  125POPC   C3A 1868   2.833   8.789   6.359 -0.0676  0.1740 -0.1306
  125POPC   C4A 1869   2.534   9.144   6.344  0.0536  0.1317 -0.4682
  125POPC   C1B 1870   1.918   8.426   7.262  0.0633 -0.2116  0.3643
  125POPC   C2B 1871   1.812   8.176   6.992 -0.0852  0.1123  0.0557
  125POPC   C3B 1872   1.656   8.036   6.675  0.3037  0.0352 -0.1330
  125POPC   C4B 1873   1.477   7.688   6.379 -0.0697  0.0044  0.0619
  126POPC   NC3 1874   5.869   8.460   8.179  0.0961  0.3155 -0.2910
  126POPC   PO4 1875   6.217   8.515   8.494 -0.1286  0.2679  0.0097
  126POPC   GL1 1876   6.235   8.855   8.041 -0.3690  0.1478 -0.1310
  126POPC   GL2 1877   6.061   8.757   7.803 -0.0641 -0.1359  0.3454
  126POPC   C1A 1878   6.439   9.044   7.624  0.0851 -0.2365  0.1677
  126POPC   D2A 1879   6.290   9.327   7.271 -0.0980  0.4159 -0.0593
  126POPC   C3A 1880   6.577   9.528   7.133 -0.1950 -0.1132 -0.0234
  126POPC   C4A 1881   6.432   9.786   6.775  0.0776  0.2208  0.0407
  126POPC   C1B 1882   5.992   8.902   7.407  0.3472  0.0052 -0.2078
  126POPC   C2B 1883   5.998   8.986   7.027 -0.0051 -0.3189  0.0116
  126POPC   C3B 1884   5.975   9.018   6.702 -0.0980  0.0205 -0.1859
  126POPC   C4B 1885   5.972   8.729   6.447 -0.3292 -0.0249 -0.0619
  127POPC   NC3 1886   5.836   3.188   9.465 -0.0636 -0.2846 -0.0364
  127POPC   PO4 1887   5.363   3.248   9.598  0.4829  0.0345  0.0854
  127POPC   GL1 1888   5.274   3.356   9.146 -0.0889 -0.2581 -0.1960
  127POPC   GL2 1889   5.083   3.537   9.049  0.1960 -0.0779 -0.0626
  127POPC   C1A 1890   5.295   3.482   8.653  0.0334  0.0722 -0.1284
  127POPC   D2A 1891   5.547   3.309   8.281  0.0868  0.2545 -0.0542
  127POPC   C3A 1892   5.800   3.426   8.002 -0.0504 -0.0071  0.0227
  127POPC   C4A 1893   6.067   3.625   7.768 -0.3515 -0.4352 -0.0141
  127POPC   C1B 1894   4.791   3.550   8.710  0.0082  0.0824 -0.3949
  127POPC   C2B 1895   4.752   3.674   8.277  0.0350  0.0282 -0.1742
  127POPC   C3B 1896   4.601   3.589   7.897  0.0695  0.3901 -0.0300
  127POPC   C4B 1897   4.460   3.111   7.642 -0.0341  0.1821 -0.0725
  128POPC   NC3 1898   5.045   5.689   7.864 -0.0275  0.2104  0.0490
  128POPC   PO4 1899   5.334   5.388   8.063  0.1032 -0.2065 -0.0341
  128POPC   GL1 1900   5.145   5.167   7.722  0.4415  0.2984  0.2199
  128POPC   GL2 1901   5.033   5.335   7.421 -0.1471  0.0352  0.0126
  128POPC   C1A 1902   4.975   4.857   7.357 -0.2306 -0.1401  0.0912
  128POPC   D2A 1903   4.961   4.883   6.813 -0.4462 -0.1516 -0.2251
  128POPC   C3A 1904   4.779   5.171   6.489  0.1949  0.0040 -0.1059
  128POPC   C4A 1905   4.448   5.034   6.235  0.0753 -0.2284  0.0919
  128POPC   C1B 1906   4.874   5.326   6.977 -0.2226  0.3271 -0.2168
  128POPC   C2B 1907   5.073   5.688   6.701 -0.1083  0.1501  0.0010
  128POPC   C3B 1908   5.509   5.776   6.629  0.1626 -0.1608 -0.1933
  128POPC   C4B 1909   5.658   6.111   6.436  0.0041 -0.0228  0.2087
  129POPC   NC3 1910   6.295   7.836   8.046  0.0247 -0.2736 -0.2023
  129POPC   PO4 1911   6.749   7.894   8.115 -0.0560  0.0808  0.0414
  129POPC   GL1 1912   6.714   7.916   7.724  0.0248  0.0119 -0.0081
  129POPC   GL2 1913   6.498   8.116   7.611  0.3006 -0.0447  0.0953
  129POPC   C1A 1914   6.855   7.970   7.281  0.2990 -0.1714 -0.1843
  129POPC   D2A 1915   6.695   7.683   7.014  0.2037  0.2959  0.2924
  129POPC   C3A 1916   6.459   7.748   6.582 -0.2998 -0.2395 -0.2909
  129POPC   C4A 1917   6.208   7.485   6.325 -0.0853 -0.1280 -0.3468
  129POPC   C1B 1918   6.353   7.841   7.362  0.0407 -0.1182 -0.1994
  129POPC   C2B 1919   6.315   7.435   7.264 -0.1918 -0.0086  0.3938
  129POPC   C3B 1920   6.452   7.084   7.364  0.0039 -0.0338  0.1582
  129POPC   C4B 1921   6.744   6.691   7.312  0.0861 -0.1541  0.1752
  130POPC   NC3 1922   2.116   0.887   8.219 -0.3447  0.1682 -0.0334
  130POPC   PO4 1923   1.928   1.282   8.212 -0.0395 -0.1285 -0.1149
  130POPC   GL1 1924   2.110   1.638   8.094 -0.2301 -0.2716  0.1027
  130POPC   GL2 1925   2.361   1.995   7.999  0.1421 -0.1497  0.3042
  130POPC   C1A 1926   2.492   1.588   7.673  0.1192  0.1108 -0.0612
  130POPC   D2A 1927   2.871   1.831   7.586  0.2193 -0.1188  0.2216
  130POPC   C3A 1928   2.762   2.000   7.236 -0.1202 -0.2016  0.0931
  130POPC   C4A 1929   2.737   2.111   6.843 -0.2015  0.0813 -0.2930
  130POPC   C1B 1930   2.470   2.240   7.629  0.0044  0.0492  0.2099
  130POPC   C2B 1931   2.440   2.408   7.176  0.4235  0.1384 -0.1728
  130POPC   C3B 1932   2.488   2.698   6.909 -0.1447 -0.0582 -0.1587
  130POPC   C4B 1933   2.558   2.588   6.535 -0.1210 -0.3102  0.1137
  131POPC   NC3 1934   9.088   1.725   7.853  0.1209  0.0083 -0.0642
  131POPC   PO4 1935   8.938   2.166   7.849  0.1868 -0.2046  0.1986
  131POPC   GL1 1936   8.897   2.047   7.409  0.1574  0.1269  0.2392
  131POPC   GL2 1937   8.580   2.133   7.466  0.2969  0.0003 -0.0197
  131POPC   C1A 1938   8.736   2.116   6.919 -0.0126 -0.2036  0.0100
  131POPC   D2A 1939   8.707   2.050   6.499 -0.0161  0.1476  0.0193
  131POPC   C3A 1940   8.750   1.674   6.341  0.4360  0.2339 -0.1433
  131POPC   C4A 1941   8.657   1.388   6.102 -0.1277  0.1792 -0.1467
  131POPC   C1B 1942   8.328   2.235   7.186  0.2214 -0.0320  0.1180
  131POPC   C2B 1943   8.060   2.226   6.841 -0.3434  0.4373 -0.2507
  131POPC   C3B 1944   8.004   2.070   6.372  0.1460 -0.4323 -0.0636
  131POPC   C4B 1945   7.835   2.201   5.925  0.0404  0.0568  0.0369
  132POPC   NC3 1946   2.763   7.679   7.758 -0.0712 -0.1864  0.0427
  132POPC   PO4 1947   2.805   7.293   8.020  0.0270 -0.1435  0.1838
  132POPC   GL1 1948   2.836   7.062   7.540 -0.0658  0.1186  0.1559
  132POPC   GL2 1949   2.964   7.390   7.430  0.2029 -0.1240 -0.1212
  132POPC   C1A 1950   2.865   6.747   7.297  0.1976 -0.3910 -0.0900
  132POPC   D2A 1951   2.939   6.606   6.864 -0.0152  0.0113 -0.0569
  132POPC   C3A 1952   2.555   6.484   6.627 -0.1389  0.0780 -0.2488
  132POPC   C4A 1953   2.417   6.158   6.297 -0.0094  0.2146 -0.0306
  132POPC   C1B 1954   2.805   7.154   6.966 -0.0463  0.0104  0.0037
  132POPC   C2B 1955   2.752   6.972   6.561  0.0307  0.1607 -0.1887
  132POPC   C3B 1956   2.694   6.684   6.207  0.1413  0.3990 -0.1694
  132POPC   C4B 1957   2.819   6.302   6.029 -0.1092 -0.1601 -0.0892
  133POPC   NC3 1958   7.042   3.432   9.035  0.1681 -0.0042  0.1670
  133POPC   PO4 1959   7.288   3.063   8.988 -0.1555 -0.1381  0.3453
  133POPC   GL1 1960   7.238   3.181   8.584 -0.2564  0.1823  0.3137
  133POPC   GL2 1961   7.365   2.872   8.357 -0.1146 -0.0677 -0.3043
  133POPC   C1A 1962   7.129   3.250   8.162  0.0382 -0.0894 -0.0975
  133POPC   D2A 1963   7.346   3.248   7.766  0.0773  0.2109  0.0045
  133POPC   C3A 1964   7.013   3.352   7.488  0.0852  0.2130  0.0379
  133POPC   C4A 1965   6.942   3.310   7.046  0.4377 -0.3998  0.4106
  133POPC   C1B 1966   7.304   2.767   7.887 -0.1152 -0.3354 -0.0220
  133POPC   C2B 1967   7.351   2.883   7.467 -0.2523 -0.0548  0.0759
  133POPC   C3B 1968   7.660   2.733   7.293  0.1655  0.0749  0.2703
  133POPC   C4B 1969   7.764   2.411   7.235  0.0461  0.2186 -0.1284
  134POPC   NC3 1970   2.897   4.630   8.267  0.0224 -0.0470 -0.1955
  134POPC   PO4 1971   2.437   4.620   8.180 -0.0839 -0.0906 -0.0263
  134POPC   GL1 1972   2.630   4.399   7.942  0.1225  0.2197 -0.0433
  134POPC   GL2 1973   2.420   4.163   7.874  0.2658  0.2970  0.0621
  134POPC   C1A 1974   2.910   4.346   7.535  0.0395 -0.1292 -0.2734
  134POPC   D2A 1975   3.316   4.351   7.451 -0.0236  0.3283  0.1452
  134POPC   C3A 1976   3.370   4.740   7.173 -0.0129 -0.1177  0.1548
  134POPC   C4A 1977   3.605   4.653   6.810  0.1289 -0.4604 -0.1807
  134POPC   C1B 1978   2.591   4.010   7.383 -0.1067  0.1446  0.3892
  134POPC   C2B 1979   2.529   3.940   6.926  0.1893  0.0668 -0.1122
  134POPC   C3B 1980   2.104   3.895   6.673  0.0975 -0.3127  0.0106
  134POPC   C4B 1981   1.749   4.225   6.460 -0.0683  0.0823 -0.1740
  135POPC   NC3 1982   5.153   6.762   8.450 -0.1027 -0.2617  0.0592
  135POPC   PO4 1983   5.138   7.021   8.085 -0.1772 -0.2040  0.2633
  135POPC   GL1 1984   5.119   6.948   7.594 -0.0153 -0.1778  0.1195
  135POPC   GL2 1985   5.295   7.160   7.475 -0.3425 -0.1305  0.0120
  135POPC   C1A 1986   4.780   7.005   7.358  0.1737 -0.2439  0.1310
  135POPC   D2A 1987   4.475   7.280   7.095 -0.0556 -0.0913  0.0221
  135POPC   C3A 1988   4.211   7.228   6.634  0.1080  0.2478  0.1960
  135POPC   C4A 1989   4.000   7.160   6.239 -0.1182  0.1204 -0.0653
  135POPC   C1B 1990   5.445   7.150   7.123 -0.1184  0.1840 -0.1713
  135POPC   C2B 1991   5.787   7.338   6.866 -0.2517 -0.0603  0.1395
  135POPC   C3B 1992   6.241   7.272   6.782  0.2136 -0.0851  0.0428
  135POPC   C4B 1993   6.666   7.230   6.876 -0.1357  0.2711 -0.0171
  136POPC   NC3 1994   3.909   4.730   8.255 -0.4715 -0.0268 -0.3323
  136POPC   PO4 1995   3.405   4.668   8.371 -0.0245  0.0456 -0.0640
  136POPC   GL1 1996   3.271   4.401   7.970 -0.0659 -0.2351  0.0804
  136POPC   GL2 1997   3.231   4.663   7.837  0.0024  0.2643  0.1191
  136POPC   C1A 1998   3.440   4.007   7.930 -0.1391 -0.3963  0.0205
  136POPC   D2A 1999   3.505   3.702   7.715 -0.2999 -0.1841 -0.1066
  136POPC   C3A 2000   3.628   3.882   7.368 -0.0286  0.1980  0.0005
  136POPC   C4A 2001   4.052   3.914   7.196 -0.0296 -0.0414 -0.1536
  136POPC   C1B 2002   3.302   5.121   7.620 -0.0425 -0.1638  0.1935
  136POPC   C2B 2003   3.177   5.253   7.216 -0.1832  0.0468 -0.0191
  136POPC   C3B 2004   3.031   5.369   6.810 -0.0568 -0.0969 -0.1812
  136POPC   C4B 2005   2.799   5.086   6.531  0.1043 -0.0106  0.1422
  137POPC   NC3 2006   6.481   0.916   9.202  0.0894  0.1128  0.0954
  137POPC   PO4 2007   6.127   1.225   9.266 -0.0874  0.2907  0.1257
  137POPC   GL1 2008   6.049   1.340   8.805 -0.2511  0.4407  0.2118
  137POPC   GL2 2009   5.805   1.588   8.832 -0.0943  0.0064 -0.3184
  137POPC   C1A 2010   6.025   1.681   8.388 -0.0522  0.0871 -0.2242
  137POPC   D2A 2011   5.814   1.675   8.051 -0.4524  0.3750  0.0199
  137POPC   C3A 2012   5.428   1.757   7.908  0.3927  0.1718 -0.0590
  137POPC   C4A 2013   5.077   1.602   7.732 -0.1470 -0.1324  0.0260
  137POPC   C1B 2014   5.526   1.566   8.573 -0.4746 -0.1209 -0.0171
  137POPC   C2B 2015   5.339   1.439   8.303 -0.2498  0.1927  0.1425
  137POPC   C3B 2016   4.971   1.212   8.075 -0.2513 -0.2023 -0.0702
  137POPC   C4B 2017   4.873   1.201   7.750  0.0931  0.4031  0.1257
  138POPC   NC3 2018   7.079   3.941   9.221 -0.1707 -0.1433 -0.2800
  138POPC   PO4 2019   6.985   3.786   8.709  0.0256  0.1777  0.1443
  138POPC   GL1 2020   6.894   3.764   8.272 -0.0893  0.0174  0.4559
  138POPC   GL2 2021   6.803   4.134   8.268 -0.4330 -0.0229 -0.0159
  138POPC   C1A 2022   6.587   3.501   8.070  0.0275  0.2521  0.1934
  138POPC   D2A 2023   6.511   3.328   7.736 -0.0330 -0.0691 -0.3140
  138POPC   C3A 2024   6.419   3.231   7.285  0.1161 -0.1250  0.1649
  138POPC   C4A 2025   6.143   3.196   6.941 -0.1434  0.1130 -0.1198
  138POPC   C1B 2026   6.493   4.097   8.007  0.0404 -0.2948  0.0293
  138POPC   C2B 2027   6.001   4.145   7.956 -0.0154  0.1990  0.0063
  138POPC   C3B 2028   5.725   4.431   7.627 -0.0165 -0.1168 -0.1335
  138POPC   C4B 2029   5.644   4.546   7.192  0.0322  0.1459 -0.1475
  139POPC   NC3 2030   0.337   5.450   8.047  0.1403  0.0594  0.2026
  139POPC   PO4 2031  -0.037   5.279   7.994 -0.1661 -0.3388 -0.1805
  139POPC   GL1 2032   0.109   5.435   7.588 -0.2892 -0.0763 -0.4409
  139POPC   GL2 2033   0.278   5.173   7.368 -0.0254 -0.1872 -0.0845
  139POPC   C1A 2034   0.044   5.631   7.178 -0.0102  0.1277 -0.1461
  139POPC   D2A 2035   0.029   6.014   6.838  0.3405  0.2230  0.0412
  139POPC   C3A 2036   0.253   6.038   6.555  0.2128 -0.2691 -0.0348
  139POPC   C4A 2037   0.346   6.126   6.194  0.2563  0.0177  0.0176
  139POPC   C1B 2038   0.229   5.241   6.857  0.3328 -0.2012  0.0736
  139POPC   C2B 2039   0.148   5.474   6.614  0.0616  0.0297 -0.1433
  139POPC   C3B 2040   0.478   5.467   6.331 -0.0025  0.1571  0.2037
  139POPC   C4B 2041   0.587   5.711   6.065 -0.0314 -0.0632 -0.1178
  140POPC   NC3 2042   5.987   9.146   9.070 -0.3499 -0.1728 -0.0448
  140POPC   PO4 2043   6.158   9.482   8.759  0.1280  0.1604 -0.2993
  140POPC   GL1 2044   6.043   9.579   8.446 -0.1388 -0.0959  0.3758
  140POPC   GL2 2045   5.878   9.339   8.351  0.0312 -0.2552 -0.0856
  140POPC   C1A 2046   6.066   9.798   8.031  0.0828  0.0266  0.2074
  140POPC   D2A 2047   6.172  10.091   7.721 -0.0522  0.0992  0.0405
  140POPC   C3A 2048   6.519  10.391   7.869 -0.0676  0.0394  0.0405
  140POPC   C4A 2049   6.523  10.517   8.278  0.1254  0.1505  0.0608
  140POPC   C1B 2050   6.060   9.254   7.870  0.3806 -0.0207  0.1027
  140POPC   C2B 2051   6.410   9.549   7.705 -0.3075  0.4895  0.1297
  140POPC   C3B 2052   6.778   9.371   7.852  0.1554 -0.0329  0.2225
  140POPC   C4B 2053   7.208   9.180   7.756 -0.3282  0.1451 -0.1511
  141POPC   NC3 2054   7.209   5.083   8.485 -0.3498  0.1761  0.3133
  141POPC   PO4 2055   6.953   5.003   8.014 -0.1045  0.1442  0.0721
  141POPC   GL1 2056   7.110   4.716   7.648  0.0311 -0.2373 -0.2745
  141POPC   GL2 2057   7.338   4.407   7.823 -0.2946 -0.0793 -0.1704
  141POPC   C1A 2058   7.299   4.676   7.201 -0.2374 -0.1525  0.0554
  141POPC   D2A 2059   7.414   4.584   6.851 -0.1055  0.2143 -0.0895
  141POPC   C3A 2060   7.882   4.552   6.790  0.4451  0.1135  0.0953
  141POPC   C4A 2061   8.198   4.520   7.129 -0.1546 -0.0518 -0.1136
  141POPC   C1B 2062   7.242   4.262   7.454  0.0230 -0.0882 -0.0175
  141POPC   C2B 2063   6.890   4.121   7.378  0.1899 -0.2915 -0.1550
  141POPC   C3B 2064   6.750   3.760   7.067 -0.0414 -0.1028  0.4751
  141POPC   C4B 2065   6.544   3.498   6.845 -0.1117 -0.1782  0.0009
  142POPC   NC3 2066   0.329   2.150   8.019  0.3331  0.1477  0.0549
  142POPC   PO4 2067   0.230   2.633   7.977 -0.1677 -0.0697  0.4489
  142POPC   GL1 2068   0.016   2.489   7.584 -0.1886 -0.0050 -0.3085
  142POPC   GL2 2069   0.064   2.170   7.516  0.0459 -0.4446 -0.2388
  142POPC   C1A 2070  -0.161   2.470   7.172  0.0789 -0.0416  0.1249
  142POPC   D2A 2071  -0.130   2.548   6.752  0.0589 -0.2028 -0.3316
  142POPC   C3A 2072  -0.386   2.286   6.536  0.0197 -0.1504 -0.1770
  142POPC   C4A 2073  -0.554   1.895   6.536 -0.1971  0.0721 -0.2879
  142POPC   C1B 2074  -0.034   1.953   7.112  0.1357  0.0975 -0.0450
  142POPC   C2B 2075  -0.110   1.915   6.699 -0.2474  0.2034 -0.2870
  142POPC   C3B 2076   0.190   1.919   6.480  0.1583  0.2008 -0.1404
  142POPC   C4B 2077   0.207   1.820   6.062  0.1793  0.2121  0.1171
  143POPC   NC3 2078   9.164   2.250   8.337  0.3084  0.1407 -0.0389
  143POPC   PO4 2079   8.794   2.566   8.151  0.1016 -0.0974 -0.1210
  143POPC   GL1 2080   8.741   2.793   7.736 -0.0259 -0.0335  0.0786
  143POPC   GL2 2081   8.847   2.658   7.491  0.1549 -0.0293 -0.0312
  143POPC   C1A 2082   8.363   2.993   7.516  0.1748 -0.2396  0.2106
  143POPC   D2A 2083   8.444   3.215   7.153  0.2968 -0.2057  0.0583
  143POPC   C3A 2084   8.335   3.052   6.800 -0.4337  0.2397  0.3374
  143POPC   C4A 2085   8.483   2.872   6.425  0.0718  0.1494 -0.0989
  143POPC   C1B 2086   9.223   2.877   7.315 -0.1994 -0.1585  0.1590
  143POPC   C2B 2087   9.364   3.128   7.009 -0.3439  0.2573 -0.0099
  143POPC   C3B 2088   9.592   3.177   6.715  0.0618  0.0641 -0.1492
  143POPC   C4B 2089   9.769   2.819   6.373  0.0843  0.3885 -0.1862
  144POPC   NC3 2090   4.288   7.308   4.056  0.0683 -0.0382 -0.0251
  144POPC   PO4 2091   4.589   7.564   4.141  0.0973  0.1893  0.0796
  144POPC   GL1 2092   4.500   7.753   4.498  0.0306 -0.2828 -0.1710
  144POPC   GL2 2093   4.307   7.989   4.658 -0.0571 -0.3194 -0.0412
  144POPC   C1A 2094   4.843   7.994   4.802  0.0253  0.0622 -0.3075
  144POPC   D2A 2095   5.242   8.097   4.989 -0.2570  0.0083  0.1477
  144POPC   C3A 2096   5.385   7.831   5.276  0.0286  0.0818  0.0533
  144POPC   C4A 2097   5.153   7.722   5.666  0.3062  0.0311  0.1557
  144POPC   C1B 2098   4.383   7.878   5.155 -0.0830  0.0290 -0.2338
  144POPC   C2B 2099   4.563   7.603   5.539 -0.1483 -0.1057 -0.0094
  144POPC   C3B 2100   4.649   7.723   5.873  0.0820  0.1929 -0.3630
  144POPC   C4B 2101   4.671   7.770   6.304  0.0206  0.4128  0.3179
  145POPC   NC3 2102   4.046   8.436   4.013  0.4632 -0.1223  0.2762
  145POPC   PO4 2103   4.232   8.029   4.147  0.2752  0.0497  0.3123
  145POPC   GL1 2104   4.238   8.447   4.483 -0.2013 -0.0075 -0.1273
  145POPC   GL2 2105   4.250   8.751   4.326  0.1786  0.0724  0.0651
  145POPC   C1A 2106   4.432   8.447   4.869  0.1901 -0.2780 -0.0766
  145POPC   D2A 2107   4.645   8.318   5.270  0.2976 -0.1157  0.0176
  145POPC   C3A 2108   4.873   7.962   5.372  0.1533 -0.2517 -0.1720
  145POPC   C4A 2109   4.898   7.622   5.143 -0.0964 -0.0020 -0.1389
  145POPC   C1B 2110   4.242   8.901   4.760 -0.1120 -0.0286  0.3541
  145POPC   C2B 2111   4.271   8.733   5.240  0.5034  0.0804 -0.2190
  145POPC   C3B 2112   4.357   8.599   5.590  0.1831 -0.1138 -0.1363
  145POPC   C4B 2113   4.651   8.752   5.988 -0.0671  0.2123 -0.2276
  146POPC   NC3 2114   1.903   0.094   4.332 -0.0970  0.2707  0.2214
  146POPC   PO4 2115   1.574  -0.146   4.431 -0.3029 -0.4205 -0.1269
  146POPC   GL1 2116   1.478   0.112   4.770 -0.2161 -0.0442 -0.0338
  146POPC   GL2 2117   1.807   0.274   4.790  0.0585  0.0569 -0.2369
  146POPC   C1A 2118   1.328   0.352   5.059 -0.2795 -0.0661  0.0434
  146POPC   D2A 2119   1.164   0.643   5.381  0.1354 -0.1135 -0.0876
  146POPC   C3A 2120   1.012   0.862   5.769 -0.0514 -0.0877  0.3625
  146POPC   C4A 2121   0.789   0.910   6.146  0.0311 -0.0595 -0.1219
  146POPC   C1B 2122   1.776   0.226   5.269  0.4179  0.1854  0.3332
  146POPC   C2B 2123   1.429   0.260   5.561  0.2100  0.4589 -0.0259
  146POPC   C3B 2124   1.363   0.462   5.869 -0.1735 -0.0018  0.0059
  146POPC   C4B 2125   1.562   0.661   6.112 -0.1127  0.1505 -0.1561
  147POPC   NC3 2126   6.703   3.892   3.841  0.0848 -0.0356  0.2977
  147POPC   PO4 2127   7.075   3.675   3.905 -0.1049 -0.1768  0.1457
  147POPC   GL1 2128   7.176   3.669   4.320 -0.1637 -0.1765  0.0744
  147POPC   GL2 2129   7.330   3.950   4.568 -0.2570  0.4787  0.3739
  147POPC   C1A 2130   7.033   3.404   4.748 -0.1850  0.2180 -0.2233
  147POPC   D2A 2131   7.083   3.138   5.101  0.1952 -0.2151  0.1795
  147POPC   C3A 2132   7.184   3.423   5.395 -0.0593  0.2938  0.3224
  147POPC   C4A 2133   7.267   3.630   5.838  0.2307  0.3589 -0.1461
  147POPC   C1B 2134   7.201   3.833   5.040  0.1608 -0.4532  0.1762
  147POPC   C2B 2135   7.108   3.881   5.433  0.1000 -0.0238  0.3865
  147POPC   C3B 2136   6.823   3.923   5.786  0.0386  0.3260 -0.1499
  147POPC   C4B 2137   6.915   3.950   6.242 -0.0851 -0.0394  0.0903
  148POPC   NC3 2138   9.019   9.707   4.325 -0.2287  0.1712 -0.0803
  148POPC   PO4 2139   9.510   9.583   4.568  0.3111 -0.0496  0.2768
  148POPC   GL1 2140   9.178   9.708   4.823 -0.0834  0.1215  0.1559
  148POPC   GL2 2141   9.270  10.054   4.675  0.0598 -0.0120  0.0985
  148POPC   C1A 2142   8.879   9.586   5.218 -0.1400  0.0845  0.3688
  148POPC   D2A 2143   8.518   9.263   5.178  0.0977 -0.4257 -0.0329
  148POPC   C3A 2144   8.134   9.314   5.382  0.1436  0.1172  0.0684
  148POPC   C4A 2145   7.848   9.356   5.668  0.3568 -0.2586  0.0665
  148POPC   C1B 2146   9.519  10.196   5.024  0.1178 -0.1782  0.1730
  148POPC   C2B 2147   9.483  10.321   5.417 -0.1330 -0.1494  0.0289
  148POPC   C3B 2148   9.748  10.246   5.778 -0.2313  0.0523  0.0093
  148POPC   C4B 2149   9.801   9.912   6.116 -0.1117 -0.1955 -0.0915
  149POPC   NC3 2150   1.641   9.192   4.550 -0.1514  0.0828 -0.0347
  149POPC   PO4 2151   2.062   9.429   4.504  0.1363 -0.0204  0.2069
  149POPC   GL1 2152   2.075   9.615   4.852  0.0295 -0.1150  0.0879
  149POPC   GL2 2153   1.761   9.512   4.919  0.1042  0.3828 -0.1202
  149POPC   C1A 2154   2.302   9.884   5.140 -0.0693  0.0028  0.3016
  149POPC   D2A 2155   2.199   9.999   5.532 -0.1052 -0.1568  0.1173
  149POPC   C3A 2156   2.479   9.906   5.898 -0.0284 -0.0146 -0.0322
  149POPC   C4A 2157   2.687   9.573   6.113 -0.0975 -0.0161 -0.3123
  149POPC   C1B 2158   1.370   9.612   5.205 -0.0350 -0.0674 -0.0043
  149POPC   C2B 2159   1.154   9.611   5.567  0.0205 -0.1343  0.0962
  149POPC   C3B 2160   0.982   9.893   5.836 -0.2630 -0.3847  0.3331
  149POPC   C4B 2161   0.850  10.213   6.003 -0.0916  0.1439 -0.0438
  150POPC   NC3 2162   4.279   6.241   4.418 -0.0529 -0.0052 -0.0453
  150POPC   PO4 2163   4.590   6.057   4.203 -0.0390  0.3588  0.0348
  150POPC   GL1 2164   4.779   6.005   4.567 -0.0098  0.3048  0.0846
  150POPC   GL2 2165   4.766   6.266   4.707 -0.3333 -0.0085 -0.1057
  150POPC   C1A 2166   4.748   5.883   5.040  0.0973 -0.1340 -0.0227
  150POPC   D2A 2167   4.761   5.906   5.470 -0.2667 -0.0697 -0.3528
  150POPC   C3A 2168   5.075   6.167   5.760  0.4116 -0.3129 -0.2238
  150POPC   C4A 2169   5.383   6.349   5.871 -0.4434  0.2399 -0.0739
  150POPC   C1B 2170   5.130   6.214   4.817  0.1173 -0.5285  0.1142
  150POPC   C2B 2171   5.579   6.299   4.986  0.0004  0.2132 -0.0600
  150POPC   C3B 2172   5.724   6.439   5.421 -0.1318  0.1174  0.0115
  150POPC   C4B 2173   5.466   6.741   5.596 -0.0112  0.0345  0.2853
  151POPC   NC3 2174   9.436   0.864   3.969  0.0489 -0.0918 -0.0157
  151POPC   PO4 2175   8.951   0.945   3.973  0.1622 -0.3003  0.0329
  151POPC   GL1 2176   8.956   0.893   4.382 -0.3254  0.0928  0.3282
  151POPC   GL2 2177   8.663   0.867   4.463  0.4200  0.0456  0.2592
  151POPC   C1A 2178   9.171   1.166   4.744 -0.2978 -0.0292  0.0366
  151POPC   D2A 2179   8.864   1.131   5.014 -0.1649  0.3390 -0.0128
  151POPC   C3A 2180   8.843   0.905   5.354 -0.0473 -0.1651  0.1597
  151POPC   C4A 2181   8.762   1.099   5.731 -0.0123 -0.0810 -0.2476
  151POPC   C1B 2182   8.954   0.625   4.801 -0.0384  0.1924  0.2777
  151POPC   C2B 2183   9.015   0.450   5.172 -0.0454 -0.0294 -0.4609
  151POPC   C3B 2184   8.836   0.270   5.585 -0.3739 -0.1375 -0.1754
  151POPC   C4B 2185   8.945   0.004   5.912 -0.2057  0.1201  0.1463
  152POPC   NC3 2186   3.321   8.593   3.627 -0.1858  0.0590 -0.1422
  152POPC   PO4 2187   3.508   8.597   4.039  0.4084 -0.0818 -0.6391
  152POPC   GL1 2188   3.747   8.612   4.444 -0.3595  0.1305 -0.1450
  152POPC   GL2 2189   3.720   8.856   4.669 -0.0698  0.2005 -0.1003
  152POPC   C1A 2190   3.931   8.384   4.890 -0.0474 -0.1233  0.0495
  152POPC   D2A 2191   4.047   8.280   5.253  0.1182 -0.1462  0.0850
  152POPC   C3A 2192   3.877   8.379   5.595 -0.0587  0.1028 -0.0910
  152POPC   C4A 2193   4.039   8.623   6.004  0.0925  0.1628 -0.3269
  152POPC   C1B 2194   3.740   9.296   4.851 -0.0703 -0.0688  0.4208
  152POPC   C2B 2195   4.059   9.623   4.937 -0.2812  0.1430  0.0880
  152POPC   C3B 2196   4.364   9.825   5.169 -0.0610 -0.1232 -0.2443
  152POPC   C4B 2197   4.680  10.048   5.065 -0.1579  0.2926 -0.0355
  153POPC   NC3 2198   3.546   7.663   4.103  0.0258  0.3916  0.0588
  153POPC   PO4 2199   3.136   7.668   4.366  0.1570  0.1022 -0.0393
  153POPC   GL1 2200   3.085   7.692   4.734  0.0928 -0.2355  0.1091
  153POPC   GL2 2201   2.827   7.685   4.952 -0.1270  0.1815  0.2556
  153POPC   C1A 2202   3.249   7.884   5.125  0.0006  0.0857  0.1254
  153POPC   D2A 2203   3.074   7.994   5.455 -0.4471 -0.0646  0.2399
  153POPC   C3A 2204   2.661   7.864   5.716 -0.1918 -0.1130 -0.2045
  153POPC   C4A 2205   2.378   7.543   5.732 -0.0659  0.0746 -0.1056
  153POPC   C1B 2206   2.814   7.539   5.341  0.3210  0.2087  0.0566
  153POPC   C2B 2207   2.846   7.412   5.841  0.0986  0.1542  0.2066
  153POPC   C3B 2208   3.031   7.160   6.075 -0.1022 -0.1928  0.2190
  153POPC   C4B 2209   3.070   6.715   5.884  0.0879  0.1576  0.1839
  154POPC   NC3 2210   2.996   4.001   4.576  0.0912 -0.1673  0.3942
  154POPC   PO4 2211   2.789   4.502   4.532 -0.0433  0.1203 -0.1959
  154POPC   GL1 2212   2.619   4.334   4.885  0.2448 -0.0899 -0.0396
  154POPC   GL2 2213   2.273   4.151   5.091  0.2067 -0.1023  0.2416
  154POPC   C1A 2214   2.709   3.964   5.265  0.1203 -0.0819  0.1383
  154POPC   D2A 2215   2.701   3.559   5.330  0.1184  0.3155  0.0360
  154POPC   C3A 2216   2.637   3.436   5.742  0.3025  0.2107  0.2049
  154POPC   C4A 2217   2.658   3.297   6.096  0.0696  0.0439  0.2509
  154POPC   C1B 2218   2.227   3.816   5.424 -0.0871 -0.0268  0.1726
  154POPC   C2B 2219   2.224   3.697   5.823 -0.0367  0.0931 -0.0092
  154POPC   C3B 2220   2.153   3.545   6.241 -0.0836 -0.0140 -0.1711
  154POPC   C4B 2221   1.930   3.411   6.631  0.2307 -0.2369 -0.0838
  155POPC   NC3 2222   5.846   3.589   3.262 -0.0663  0.0524  0.3135
  155POPC   PO4 2223   5.614   3.306   3.421 -0.0379 -0.1153  0.2150
  155POPC   GL1 2224   5.673   3.354   3.882 -0.0160 -0.0724 -0.1406
  155POPC   GL2 2225   5.454   3.336   4.204  0.3762 -0.1367 -0.2072
  155POPC   C1A 2226   5.941   3.119   4.081  0.0997  0.0132 -0.2916
  155POPC   D2A 2227   5.835   3.085   4.522  0.0694 -0.3349 -0.0216
  155POPC   C3A 2228   5.396   3.099   4.671  0.0105 -0.2955  0.1527
  155POPC   C4A 2229   5.102   3.408   4.902 -0.1133  0.2555 -0.2525
  155POPC   C1B 2230   5.743   3.665   4.259 -0.3844  0.1108 -0.2802
  155POPC   C2B 2231   5.971   3.587   4.549 -0.1412 -0.1653  0.0346
  155POPC   C3B 2232   6.426   3.685   4.753 -0.0060  0.2267  0.0559
  155POPC   C4B 2233   6.820   3.849   4.606 -0.0426 -0.0516  0.0517
  156POPC   NC3 2234   1.549   7.236   4.043  0.0340  0.1614  0.1576
  156POPC   PO4 2235   1.200   7.242   4.354  0.0835 -0.1014 -0.1574
  156POPC   GL1 2236   1.015   7.146   4.711  0.3361 -0.3237  0.1194
  156POPC   GL2 2237   0.983   7.479   4.823  0.2807 -0.1296 -0.1711
  156POPC   C1A 2238   1.284   7.059   5.089  0.0701 -0.1233  0.0107
  156POPC   D2A 2239   1.379   6.709   5.252 -0.2728  0.2233  0.0516
  156POPC   C3A 2240   0.919   6.727   5.547 -0.0551  0.0810  0.2041
  156POPC   C4A 2241   0.620   7.026   5.845  0.1880 -0.0139  0.3603
  156POPC   C1B 2242   1.064   7.708   5.258 -0.2210 -0.2253  0.0582
  156POPC   C2B 2243   0.964   7.889   5.621  0.0240  0.0997 -0.1137
  156POPC   C3B 2244   1.107   7.901   6.109 -0.1432 -0.1768  0.0993
  156POPC   C4B 2245   1.087   8.173   6.447 -0.3763 -0.2177 -0.0635
  157POPC   NC3 2246   4.078   4.810   4.398 -0.3043 -0.2104 -0.0580
  157POPC   PO4 2247   4.478   5.033   4.193  0.1553 -0.1430 -0.3069
  157POPC   GL1 2248   4.577   5.176   4.626 -0.0351  0.2223  0.3036
  157POPC   GL2 2249   4.773   5.433   4.793 -0.2055  0.0058  0.0121
  157POPC   C1A 2250   4.515   5.046   5.004  0.1678  0.0728 -0.0663
  157POPC   D2A 2251   4.414   5.020   5.367 -0.1900 -0.0052  0.0693
  157POPC   C3A 2252   4.515   4.899   5.753  0.3670  0.0279 -0.1718
  157POPC   C4A 2253   4.607   4.648   6.029 -0.2533  0.0270  0.1432
  157POPC   C1B 2254   4.815   5.377   5.241 -0.2746  0.1853  0.0111
  157POPC   C2B 2255   4.917   5.175   5.559 -0.0965 -0.1656 -0.3755
  157POPC   C3B 2256   5.024   5.147   5.950  0.1917 -0.0163 -0.3067
  157POPC   C4B 2257   5.137   4.799   6.133  0.0219  0.5385 -0.0362
  158POPC   NC3 2258   2.697   5.569   4.339 -0.2069 -0.1074  0.1754
  158POPC   PO4 2259   2.921   5.944   4.330 -0.0900 -0.3043 -0.1461
  158POPC   GL1 2260   2.944   5.714   4.794  0.0503 -0.0229  0.0542
  158POPC   GL2 2261   3.129   5.447   4.785 -0.3896  0.0769  0.0009
  158POPC   C1A 2262   2.923   5.634   5.231  0.0518 -0.4073  0.1349
  158POPC   D2A 2263   2.779   5.817   5.716  0.0506  0.1167  0.1324
  158POPC   C3A 2264   2.748   5.744   6.069  0.0622  0.3015  0.1765
  158POPC   C4A 2265   2.592   5.562   6.473 -0.0226 -0.3258 -0.2004
  158POPC   C1B 2266   3.172   5.246   5.166 -0.1187  0.0981 -0.3902
  158POPC   C2B 2267   3.377   5.252   5.534 -0.1566 -0.1182  0.5539
  158POPC   C3B 2268   3.169   5.490   5.892 -0.0853  0.0256  0.4168
  158POPC   C4B 2269   3.077   5.533   6.361  0.2951  0.1145  0.0768
  159POPC   NC3 2270   3.192   4.382   4.332 -0.0748  0.0749 -0.3140
  159POPC   PO4 2271   3.511   4.153   4.420 -0.1201  0.1368  0.2174
  159POPC   GL1 2272   3.390   4.196   4.850  0.1474 -0.4675 -0.3410
  159POPC   GL2 2273   3.107   4.438   5.002 -0.1606 -0.0215 -0.1106
  159POPC   C1A 2274   3.616   4.304   5.300  0.0179  0.1658  0.1828
  159POPC   D2A 2275   3.694   4.331   5.667  0.0415 -0.2178 -0.0678
  159POPC   C3A 2276   3.351   4.154   5.971 -0.0341  0.3056  0.1839
  159POPC   C4A 2277   3.470   4.095   6.485  0.0083  0.0957 -0.0178
  159POPC   C1B 2278   3.045   4.354   5.432  0.1644 -0.1440  0.2907
  159POPC   C2B 2279   2.863   4.015   5.747 -0.3264  0.1075  0.3542
  159POPC   C3B 2280   2.681   3.817   6.121 -0.1861  0.2165  0.1368
  159POPC   C4B 2281   2.616   3.580   6.531 -0.0840  0.0117  0.0091
  160POPC   NC3 2282   2.986   3.286   4.276  0.1303 -0.0348 -0.0429
  160POPC   PO4 2283   3.211   3.610   4.336 -0.1112  0.1637  0.1016
  160POPC   GL1 2284   3.300   3.625   4.846 -0.0060 -0.0726 -0.2183
  160POPC   GL2 2285   3.044   3.766   5.043 -0.3957  0.0520 -0.1515
  160POPC   C1A 2286   3.630   3.715   5.083 -0.1030 -0.1844  0.1339
  160POPC   D2A 2287   3.929   3.762   5.324  0.2820  0.1216  0.0872
  160POPC   C3A 2288   3.819   3.428   5.623 -0.1069  0.1330 -0.3208
  160POPC   C4A 2289   3.488   3.133   5.824  0.0285  0.2049  0.1024
  160POPC   C1B 2290   3.256   3.881   5.352 -0.0495  0.0836 -0.0294
  160POPC   C2B 2291   3.548   3.839   5.606 -0.0477  0.2137  0.1895
  160POPC   C3B 2292   3.621   3.632   6.010 -0.0235  0.1382  0.1553
  160POPC   C4B 2293   3.707   3.222   6.252 -0.0598 -0.3138 -0.1774
  161POPC   NC3 2294   0.789   5.470   4.148 -0.1045  0.0840 -0.1715
  161POPC   PO4 2295   0.324   5.614   4.176 -0.2230  0.3060 -0.0866
  161POPC   GL1 2296   0.384   5.625   4.593 -0.1859 -0.1836 -0.1531
  161POPC   GL2 2297   0.394   5.980   4.793  0.0002  0.0879 -0.2593
  161POPC   C1A 2298   0.534   5.611   5.085 -0.0859  0.2886 -0.0021
  161POPC   D2A 2299   0.543   5.568   5.598  0.0180  0.0134  0.0643
  161POPC   C3A 2300   0.348   5.268   5.919 -0.4652  0.0531 -0.0773
  161POPC   C4A 2301   0.133   5.028   6.229  0.0198  0.0239  0.0341
  161POPC   C1B 2302   0.407   6.084   5.297 -0.0210 -0.1232  0.1763
  161POPC   C2B 2303   0.491   6.107   5.717  0.1667 -0.1387  0.1846
  161POPC   C3B 2304   0.850   6.060   5.873 -0.4264  0.1198 -0.2129
  161POPC   C4B 2305   1.249   6.293   6.116  0.2469  0.0102  0.1050
  162POPC   NC3 2306   1.426   2.038   4.295 -0.1496  0.2605 -0.2914
  162POPC   PO4 2307   0.968   1.888   4.517 -0.1460  0.2536  0.2018
  162POPC   GL1 2308   0.969   1.851   4.927 -0.0678 -0.1961  0.0357
  162POPC   GL2 2309   0.903   2.157   4.936  0.0323  0.1729 -0.3767
  162POPC   C1A 2310   0.900   1.763   5.372 -0.0283  0.1044  0.2585
  162POPC   D2A 2311   0.594   1.682   5.737  0.1012  0.3479 -0.2160
  162POPC   C3A 2312   0.729   1.375   6.129  0.3006 -0.0121  0.2431
  162POPC   C4A 2313   0.646   1.524   6.552 -0.2778  0.2023 -0.1004
  162POPC   C1B 2314   0.846   2.332   5.314  0.1449 -0.2407  0.1121
  162POPC   C2B 2315   0.535   2.432   5.653  0.1243  0.0435  0.0685
  162POPC   C3B 2316   0.520   2.375   6.159 -0.1014  0.3815  0.1087
  162POPC   C4B 2317   0.307   2.431   6.475 -0.1588  0.1389 -0.1564
  163POPC   NC3 2318   7.680   7.768   3.918  0.0374 -0.0202  0.0337
  163POPC   PO4 2319   7.266   7.922   3.926 -0.1464  0.0476  0.1769
  163POPC   GL1 2320   7.311   7.753   4.341 -0.2490  0.2052  0.1733
  163POPC   GL2 2321   7.434   7.502   4.359 -0.0274 -0.4666 -0.3510
  163POPC   C1A 2322   7.138   7.990   4.762 -0.0986 -0.0422 -0.1022
  163POPC   D2A 2323   7.395   8.315   5.044 -0.1963  0.2707 -0.0783
  163POPC   C3A 2324   7.339   8.671   5.260 -0.3591 -0.0099  0.0015
  163POPC   C4A 2325   7.238   9.049   5.458  0.2738 -0.0055  0.0678
  163POPC   C1B 2326   7.200   7.505   4.787 -0.2506  0.0772  0.0569
  163POPC   C2B 2327   7.078   7.316   5.140 -0.2456  0.0594  0.0161
  163POPC   C3B 2328   7.006   7.303   5.582  0.1591  0.0936 -0.0852
  163POPC   C4B 2329   7.135   7.438   5.925 -0.0193 -0.2337  0.2610
  164POPC   NC3 2330   8.146   6.146   4.289  0.0045  0.0300 -0.0830
  164POPC   PO4 2331   8.182   5.721   4.326 -0.1570 -0.2979 -0.0059
  164POPC   GL1 2332   8.249   5.700   4.764  0.3140  0.1903 -0.3815
  164POPC   GL2 2333   8.259   5.506   4.764  0.2487 -0.0209  0.1144
  164POPC   C1A 2334   8.092   5.829   5.166  0.0830  0.1225  0.2263
  164POPC   D2A 2335   7.988   6.126   5.502  0.2395  0.2938 -0.2698
  164POPC   C3A 2336   7.598   6.178   5.702  0.2303  0.5174  0.1625
  164POPC   C4A 2337   7.315   5.838   5.763 -0.0328  0.0931 -0.1229
  164POPC   C1B 2338   8.308   5.306   5.139  0.1573 -0.0880  0.2405
  164POPC   C2B 2339   8.274   5.300   5.527  0.2364  0.0647  0.0642
  164POPC   C3B 2340   8.122   5.134   5.921  0.0258  0.2872 -0.2711
  164POPC   C4B 2341   7.735   4.889   6.022 -0.0758 -0.3762 -0.1203
  165POPC   NC3 2342   7.321   0.772   3.912  0.0536 -0.1222 -0.1914
  165POPC   PO4 2343   7.797   0.860   3.915  0.0813 -0.1341 -0.0804
  165POPC   GL1 2344   7.752   0.785   4.292 -0.1265  0.2343 -0.0314
  165POPC   GL2 2345   7.797   1.027   4.563 -0.1251  0.0757 -0.2150
  165POPC   C1A 2346   7.809   0.374   4.511 -0.2006  0.0354  0.2369
  165POPC   D2A 2347   7.637   0.132   4.744  0.0643  0.1777  0.0731
  165POPC   C3A 2348   7.136   0.099   4.910 -0.1902  0.1568 -0.0119
  165POPC   C4A 2349   6.817  -0.034   5.224 -0.2941 -0.0986  0.2735
  165POPC   C1B 2350   7.881   1.101   4.997  0.0641 -0.0498  0.0435
  165POPC   C2B 2351   7.943   0.917   5.440 -0.0041 -0.2965  0.3071
  165POPC   C3B 2352   7.827   0.934   5.886  0.2206 -0.0404  0.1115
  165POPC   C4B 2353   7.649   1.171   6.188 -0.1602 -0.0660  0.1908
  166POPC   NC3 2354   3.792   4.150   3.959  0.1784 -0.3092  0.0682
  166POPC   PO4 2355   4.102   4.502   3.991 -0.0246  0.0413  0.1343
  166POPC   GL1 2356   4.474   4.491   4.285  0.4176  0.1714 -0.4044
  166POPC   GL2 2357   4.567   4.568   4.547  0.2711 -0.3429 -0.0328
  166POPC   C1A 2358   4.533   4.122   4.713 -0.0374  0.0404 -0.1674
  166POPC   D2A 2359   4.585   3.692   4.814  0.1181  0.0196 -0.2366
  166POPC   C3A 2360   4.359   3.520   5.171  0.3426 -0.0691  0.1993
  166POPC   C4A 2361   4.295   3.150   5.480  0.1021 -0.0986 -0.3014
  166POPC   C1B 2362   4.539   4.527   5.015 -0.0514  0.1400  0.0743
  166POPC   C2B 2363   4.549   4.473   5.508 -0.2900  0.3782  0.0978
  166POPC   C3B 2364   4.393   4.170   5.989 -0.0643  0.1882 -0.2565
  166POPC   C4B 2365   4.458   3.796   6.089  0.1301  0.1287 -0.1453
  167POPC   NC3 2366   8.200   9.063   4.182 -0.1125  0.2299  0.0373
  167POPC   PO4 2367   8.253   8.649   4.520 -0.0304  0.0056 -0.1998
  167POPC   GL1 2368   8.110   8.622   4.893 -0.1562 -0.1227  0.0304
  167POPC   GL2 2369   7.863   8.540   4.982  0.1728 -0.3765  0.0834
  167POPC   C1A 2370   8.243   8.800   5.145 -0.1540  0.0323 -0.1263
  167POPC   D2A 2371   8.439   8.878   5.531 -0.2358  0.2553  0.5603
  167POPC   C3A 2372   8.396   9.096   5.771 -0.2001  0.0177 -0.0484
  167POPC   C4A 2373   8.335   9.140   6.340  0.2397  0.1176  0.1252
  167POPC   C1B 2374   7.722   8.394   5.434 -0.0063  0.0889 -0.2105
  167POPC   C2B 2375   7.952   8.248   5.752 -0.1669  0.0345  0.2015
  167POPC   C3B 2376   8.043   7.976   6.092 -0.0923 -0.1116  0.1344
  167POPC   C4B 2377   7.891   7.913   6.445 -0.1751  0.1118 -0.1139
  168POPC   NC3 2378   2.302   3.316   4.602 -0.1296 -0.0804 -0.1578
  168POPC   PO4 2379   2.774   3.392   4.700 -0.0131 -0.2150 -0.0871
  168POPC   GL1 2380   2.603   3.036   4.940  0.0485 -0.2652  0.2642
  168POPC   GL2 2381   2.378   3.158   5.143  0.0804 -0.2000  0.0111
  168POPC   C1A 2382   2.596   2.708   5.256 -0.1877 -0.0264  0.1698
  168POPC   D2A 2383   2.743   2.427   5.647  0.2341 -0.2747 -0.1059
  168POPC   C3A 2384   2.553   2.221   6.039  0.2194 -0.0954 -0.0504
  168POPC   C4A 2385   2.460   2.092   6.324 -0.0281 -0.2695 -0.2487
  168POPC   C1B 2386   2.296   3.267   5.431 -0.0113 -0.0582  0.1474
  168POPC   C2B 2387   2.208   3.186   5.824  0.1599 -0.1956  0.0444
  168POPC   C3B 2388   2.256   3.011   6.244  0.0822 -0.1523 -0.1431
  168POPC   C4B 2389   2.068   2.861   6.586 -0.0601  0.1836  0.0852
  169POPC   NC3 2390   2.840   1.570   4.235 -0.1849 -0.6048  0.1991
  169POPC   PO4 2391   2.580   1.529   4.147 -0.0432  0.0204  0.3372
  169POPC   GL1 2392   2.569   1.506   4.682  0.4447  0.0147  0.1787
  169POPC   GL2 2393   2.326   1.184   4.874 -0.0384 -0.0326  0.2178
  169POPC   C1A 2394   2.456   1.570   5.097 -0.0254 -0.2131 -0.0719
  169POPC   D2A 2395   2.429   1.313   5.390  0.0652 -0.1752 -0.2114
  169POPC   C3A 2396   2.496   1.294   5.897  0.0461  0.1284  0.0678
  169POPC   C4A 2397   2.494   1.041   6.206 -0.0260  0.2015 -0.2202
  169POPC   C1B 2398   2.000   1.178   5.113 -0.0749 -0.2104  0.4727
  169POPC   C2B 2399   1.944   1.208   5.547 -0.1712 -0.1051 -0.0566
  169POPC   C3B 2400   2.008   0.981   5.956  0.1215  0.1111  0.2770
  169POPC   C4B 2401   2.029   0.861   6.360 -0.0460 -0.0943 -0.0599
  170POPC   NC3 2402   1.516   3.604   4.510  0.0820  0.0713  0.0830
  170POPC   PO4 2403   1.333   3.250   4.584 -0.1539 -0.2108 -0.0544
  170POPC   GL1 2404   1.383   3.416   5.032  0.1375 -0.0246 -0.0046
  170POPC   GL2 2405   1.121   3.647   5.105  0.0041  0.0182 -0.1233
  170POPC   C1A 2406   1.499   3.160   5.456  0.2551 -0.0812 -0.0897
  170POPC   D2A 2407   1.768   2.997   5.729 -0.0627  0.0829 -0.2735
  170POPC   C3A 2408   1.817   3.155   6.152 -0.0290 -0.2562 -0.1373
  170POPC   C4A 2409   1.628   3.065   6.492 -0.0354 -0.0378 -0.5138
  170POPC   C1B 2410   0.957   3.778   5.518 -0.1205 -0.0676 -0.1622
  170POPC   C2B 2411   0.872   4.076   5.816 -0.0947 -0.4573  0.1707
  170POPC   C3B 2412   0.555   4.356   5.914  0.0785 -0.1062 -0.0065
  170POPC   C4B 2413   0.317   4.455   6.247 -0.0318 -0.2140 -0.0750
  171POPC   NC3 2414   9.637   9.177   4.289 -0.2311  0.1923 -0.0241
  171POPC   PO4 2415  10.112   9.113   4.398  0.1426 -0.1463  0.0230
  171POPC   GL1 2416   9.918   9.309   4.806  0.1079 -0.2949  0.0446
  171POPC   GL2 2417   9.922   9.708   4.894  0.0130 -0.1319  0.1302
  171POPC   C1A 2418   9.898   9.289   5.241 -0.2751 -0.0857  0.0029
  171POPC   D2A 2419   9.869   9.611   5.560 -0.3170 -0.1265 -0.0873
  171POPC   C3A 2420   9.616   9.792   5.697 -0.1828  0.0264  0.2595
  171POPC   C4A 2421   9.204   9.545   5.578  0.0360 -0.3215 -0.0735
  171POPC   C1B 2422  10.346   9.694   5.190 -0.4287 -0.3116 -0.1542
  171POPC   C2B 2423  10.464   9.537   5.583 -0.1477  0.0249 -0.2127
  171POPC   C3B 2424  10.441   9.303   5.891 -0.1555  0.1402 -0.1424
  171POPC   C4B 2425  10.425   9.314   6.332  0.0249 -0.1648 -0.0594
  172POPC   NC3 2426   1.611   3.202   4.125  0.2512  0.1783  0.0621
  172POPC   PO4 2427   1.908   3.384   4.307  0.2017 -0.0341 -0.0259
  172POPC   GL1 2428   1.828   3.371   4.779 -0.3119  0.2195 -0.0440
  172POPC   GL2 2429   2.061   3.582   5.041 -0.1909  0.1367 -0.3233
  172POPC   C1A 2430   1.804   3.107   5.086 -0.1031  0.1953 -0.1568
  172POPC   D2A 2431   1.366   2.925   5.032 -0.0485 -0.3369 -0.0873
  172POPC   C3A 2432   1.141   2.779   5.374 -0.1506  0.0063 -0.3557
  172POPC   C4A 2433   0.868   2.747   5.647 -0.0324 -0.0970  0.2344
  172POPC   C1B 2434   1.839   3.474   5.349  0.1730 -0.1523 -0.0738
  172POPC   C2B 2435   1.758   3.499   5.802 -0.1047  0.2391  0.0635
  172POPC   C3B 2436   1.702   3.721   6.229 -0.2172  0.0188  0.0724
  172POPC   C4B 2437   1.575   3.800   6.675  0.0460  0.3342 -0.0696
  173POPC   NC3 2438   6.804   6.315   3.561 -0.4353 -0.2341  0.2302
  173POPC   PO4 2439   7.125   6.422   3.866  0.0241 -0.0226 -0.0157
  173POPC   GL1 2440   7.322   6.593   4.314  0.3332  0.1533 -0.0217
  173POPC   GL2 2441   7.021   6.612   4.642 -0.2906  0.1171  0.1916
  173POPC   C1A 2442   7.374   6.957   4.679 -0.1292 -0.0028  0.2058
  173POPC   D2A 2443   7.491   6.966   5.163 -0.1379 -0.0565  0.3677
  173POPC   C3A 2444   7.641   6.585   5.374  0.2297 -0.1442  0.1575
  173POPC   C4A 2445   7.896   6.585   5.662  0.0024 -0.0268 -0.2186
  173POPC   C1B 2446   6.985   6.750   5.107  0.3649  0.3375 -0.1051
  173POPC   C2B 2447   7.203   6.758   5.551  0.0095  0.3045  0.0704
  173POPC   C3B 2448   7.336   6.975   5.979 -0.0288  0.3803 -0.1021
  173POPC   C4B 2449   7.469   7.092   6.335  0.3240 -0.3125 -0.1518
  174POPC   NC3 2450   0.742   7.700   4.449  0.0858  0.0342  0.0012
  174POPC   PO4 2451   0.519   8.115   4.491 -0.1018  0.2691 -0.0475
  174POPC   GL1 2452   0.698   8.051   4.855  0.2208  0.1929  0.1949
  174POPC   GL2 2453   1.029   8.055   4.943 -0.0524  0.0594 -0.1652
  174POPC   C1A 2454   0.599   8.132   5.267 -0.1783 -0.0634 -0.2239
  174POPC   D2A 2455   0.420   7.970   5.665 -0.4351 -0.0548 -0.0302
  174POPC   C3A 2456   0.564   8.157   5.967  0.0264  0.1661  0.2835
  174POPC   C4A 2457   0.987   8.341   5.944  0.0906 -0.1226  0.2933
  174POPC   C1B 2458   1.138   8.216   5.316  0.2779  0.0703 -0.1940
  174POPC   C2B 2459   1.413   8.221   5.767 -0.1774  0.1808  0.2611
  174POPC   C3B 2460   1.540   8.234   6.169  0.1177 -0.0640 -0.1789
  174POPC   C4B 2461   1.719   8.623   6.264 -0.1541 -0.2974  0.1254
  175POPC   NC3 2462   7.101   2.386   3.729 -0.1732 -0.0599 -0.3038
  175POPC   PO4 2463   6.656   2.378   3.541 -0.0797 -0.1934 -0.2714
  175POPC   GL1 2464   6.635   2.379   4.049 -0.0069 -0.1014 -0.0129
  175POPC   GL2 2465   6.546   2.771   4.144 -0.2712  0.0089 -0.3057
  175POPC   C1A 2466   6.770   2.301   4.564  0.2207 -0.2069 -0.0817
  175POPC   D2A 2467   6.699   2.294   4.928  0.2127 -0.0665 -0.0823
  175POPC   C3A 2468   6.648   1.928   5.155 -0.1783  0.0807  0.1310
  175POPC   C4A 2469   6.559   1.772   5.469 -0.0024 -0.0640 -0.1638
  175POPC   C1B 2470   6.536   2.767   4.536  0.2226 -0.1498 -0.3044
  175POPC   C2B 2471   6.660   3.045   4.742 -0.0031 -0.2584  0.1116
  175POPC   C3B 2472   6.623   3.395   5.116 -0.0205 -0.0953  0.3482
  175POPC   C4B 2473   6.707   3.739   5.158 -0.0339 -0.0033  0.2921
  176POPC   NC3 2474   0.789   8.836   4.446  0.2239 -0.0372 -0.2273
  176POPC   PO4 2475   1.275   8.781   4.628 -0.5022  0.3583  0.1689
  176POPC   GL1 2476   1.495   8.712   4.979 -0.4389 -0.0434  0.1287
  176POPC   GL2 2477   1.459   9.112   5.067  0.1712 -0.0563 -0.0885
  176POPC   C1A 2478   1.519   8.618   5.354  0.3509 -0.0491 -0.2826
  176POPC   D2A 2479   1.732   8.697   5.767 -0.1015  0.0721  0.1075
  176POPC   C3A 2480   1.324   8.671   5.957  0.1740 -0.2573  0.2824
  176POPC   C4A 2481   1.053   8.996   6.248  0.1831  0.1485 -0.1077
  176POPC   C1B 2482   1.808   9.028   5.252  0.3531  0.0950 -0.3090
  176POPC   C2B 2483   2.031   9.094   5.644 -0.1855 -0.0808 -0.0551
  176POPC   C3B 2484   2.240   8.792   5.835 -0.0638 -0.3068 -0.1342
  176POPC   C4B 2485   2.342   8.648   6.295 -0.1446  0.0772  0.0293
  177POPC   NC3 2486   9.248   1.693   3.873 -0.1756  0.2163 -0.0426
  177POPC   PO4 2487   9.494   1.872   4.066  0.3168 -0.0358  0.1474
  177POPC   GL1 2488   9.402   1.803   4.549  0.0262  0.3545 -0.0666
  177POPC   GL2 2489   9.660   2.050   4.642  0.1273  0.0287  0.1855
  177POPC   C1A 2490   9.290   1.620   5.012  0.0935 -0.1526 -0.1107
  177POPC   D2A 2491   9.456   1.478   5.338 -0.2095 -0.0948 -0.0867
  177POPC   C3A 2492   9.480   1.702   5.708  0.2187 -0.0446 -0.0852
  177POPC   C4A 2493   9.467   1.869   6.116  0.0848  0.0368 -0.3159
  177POPC   C1B 2494   9.543   2.074   5.025 -0.0528  0.0747  0.1940
  177POPC   C2B 2495   9.731   2.120   5.385 -0.0236  0.0851  0.1040
  177POPC   C3B 2496   9.836   2.191   5.837  0.0850 -0.0972 -0.2235
  177POPC   C4B 2497   9.728   2.325   6.187  0.0414 -0.1067  0.0534
  178POPC   NC3 2498   8.521   2.349   4.194  0.0785  0.3201  0.0358
  178POPC   PO4 2499   8.484   2.811   4.313  0.2350 -0.1256  0.0278
  178POPC   GL1 2500   8.248   2.695   4.663 -0.0269 -0.0787  0.1558
  178POPC   GL2 2501   8.104   3.022   4.879 -0.2280  0.1760 -0.1433
  178POPC   C1A 2502   8.555   2.674   5.095 -0.2890  0.2390  0.0855
  178POPC   D2A 2503   8.650   2.893   5.512 -0.0817 -0.1525  0.3961
  178POPC   C3A 2504   8.978   3.309   5.505 -0.5433 -0.3501 -0.1902
  178POPC   C4A 2505   9.347   3.483   5.291  0.3240 -0.0605 -0.3099
  178POPC   C1B 2506   8.030   3.304   5.230 -0.1328  0.0903 -0.1518
  178POPC   C2B 2507   7.744   3.312   5.597 -0.0041 -0.3158 -0.2267
  178POPC   C3B 2508   7.890   3.229   6.083 -0.1270 -0.1216  0.2355
  178POPC   C4B 2509   8.362   3.404   6.299  0.0443 -0.2479  0.1368
  179POPC   NC3 2510   1.448   6.839   4.512  0.1073 -0.4142 -0.1381
  179POPC   PO4 2511   1.290   6.484   4.701  0.0438 -0.0417  0.0474
  179POPC   GL1 2512   0.992   6.611   5.005 -0.0644 -0.1123 -0.0917
  179POPC   GL2 2513   0.781   6.344   4.964  0.3178 -0.1207  0.0820
  179POPC   C1A 2514   0.743   7.039   5.205 -0.0794  0.0987 -0.0056
  179POPC   D2A 2515   0.981   7.280   5.411 -0.1941  0.4404 -0.0584
  179POPC   C3A 2516   1.108   7.204   5.777  0.2536  0.2437 -0.2169
  179POPC   C4A 2517   1.196   6.928   6.074  0.1709 -0.5926  0.0373
  179POPC   C1B 2518   0.541   6.549   5.272 -0.0804  0.1510 -0.0896
  179POPC   C2B 2519   0.445   6.607   5.686  0.1322 -0.0631 -0.0711
  179POPC   C3B 2520   0.282   6.653   6.058  0.0548  0.0307 -0.0076
  179POPC   C4B 2521   0.414   6.494   6.507  0.1665  0.2232 -0.2144
  180POPC   NC3 2522   6.295   7.989   4.110 -0.0631 -0.0719 -0.0152
  180POPC   PO4 2523   6.544   8.276   4.271 -0.0713  0.0911 -0.1478
  180POPC   GL1 2524   6.559   7.903   4.492 -0.0425  0.0463 -0.1301
  180POPC   GL2 2525   6.769   7.708   4.342 -0.0224 -0.1000 -0.0706
  180POPC   C1A 2526   6.736   7.743   4.854 -0.0425 -0.1949 -0.3421
  180POPC   D2A 2527   6.990   7.860   5.216 -0.1172 -0.0330  0.0386
  180POPC   C3A 2528   6.937   7.839   5.668 -0.0189  0.0670  0.4162
  180POPC   C4A 2529   6.665   8.156   5.863 -0.3908 -0.0146  0.2502
  180POPC   C1B 2530   6.803   7.313   4.603 -0.0872  0.0169  0.0662
  180POPC   C2B 2531   6.604   7.073   4.890  0.0687 -0.2087  0.3290
  180POPC   C3B 2532   6.429   6.720   5.078  0.0894 -0.0222  0.0928
  180POPC   C4B 2533   6.185   6.543   5.267  0.0669 -0.0287  0.1323
  181POPC   NC3 2534   5.682   5.068   4.033  0.1025  0.0907  0.1395
  181POPC   PO4 2535   5.317   5.079   4.132  0.3390 -0.2876  0.2466
  181POPC   GL1 2536   5.526   4.780   4.356 -0.1119  0.0374 -0.0339
  181POPC   GL2 2537   5.315   4.567   4.450 -0.0249  0.3344 -0.2437
  181POPC   C1A 2538   5.553   4.935   4.802  0.0891  0.0247  0.0358
  181POPC   D2A 2539   5.854   4.927   5.121  0.0958  0.0026 -0.1163
  181POPC   C3A 2540   5.876   4.843   5.548  0.1528 -0.1660  0.0863
  181POPC   C4A 2541   5.907   4.529   5.995 -0.2580  0.2542  0.0532
  181POPC   C1B 2542   5.414   4.112   4.497 -0.1251  0.2182 -0.3070
  181POPC   C2B 2543   5.323   3.649   4.554  0.0654 -0.2416 -0.0739
  181POPC   C3B 2544   5.578   3.505   4.900 -0.1075 -0.5931 -0.1945
  181POPC   C4B 2545   5.930   3.575   5.097  0.0776  0.2566 -0.1546
  182POPC   NC3 2546   4.989   0.497   3.949  0.1259  0.1990  0.3817
  182POPC   PO4 2547   5.365   0.647   3.761 -0.2681  0.1697 -0.1441
  182POPC   GL1 2548   5.469   0.603   4.224  0.0977  0.0357  0.0769
  182POPC   GL2 2549   5.297   0.749   4.384  0.3295 -0.0680  0.0471
  182POPC   C1A 2550   5.645   0.375   4.582 -0.0936  0.0052 -0.0309
  182POPC   D2A 2551   6.003   0.375   4.767 -0.0131 -0.0642 -0.3306
  182POPC   C3A 2552   6.073   0.075   5.140 -0.0002  0.0700  0.0503
  182POPC   C4A 2553   6.341  -0.088   5.356  0.2010 -0.0448  0.0147
  182POPC   C1B 2554   5.196   0.666   4.845  0.0961 -0.1305  0.1357
  182POPC   C2B 2555   5.517   0.623   5.205 -0.0461 -0.0153  0.0569
  182POPC   C3B 2556   5.734   0.309   5.399 -0.1181 -0.0883 -0.0086
  182POPC   C4B 2557   5.614  -0.044   5.639 -0.2022 -0.3039  0.1925
  183POPC   NC3 2558   9.742   4.811   3.373  0.0683 -0.2042  0.0401
  183POPC   PO4 2559   9.797   4.862   3.771 -0.1520 -0.0820  0.0973
  183POPC   GL1 2560   9.660   4.929   4.164  0.0765  0.2061 -0.2397
  183POPC   GL2 2561   9.419   4.850   4.330 -0.2424 -0.0971 -0.0855
  183POPC   C1A 2562   9.882   5.010   4.595 -0.4647 -0.1098  0.0574
  183POPC   D2A 2563   9.932   5.200   5.087  0.1628  0.0730  0.1202
  183POPC   C3A 2564   9.887   5.091   5.494 -0.1073  0.1500 -0.2482
  183POPC   C4A 2565  10.006   4.762   5.831 -0.1882 -0.1701  0.0994
  183POPC   C1B 2566   9.464   4.654   4.763 -0.0233  0.2826  0.0060
  183POPC   C2B 2567   9.582   4.653   5.224 -0.0190 -0.0353  0.1157
  183POPC   C3B 2568   9.496   4.708   5.664  0.0991 -0.2849 -0.0584
  183POPC   C4B 2569   9.475   4.892   6.034  0.1621 -0.0378 -0.0289
  184POPC   NC3 2570   7.334   5.530   3.972  0.4783  0.3651 -0.0149
  184POPC   PO4 2571   6.916   5.340   3.934  0.3204 -0.1071 -0.1195
  184POPC   GL1 2572   6.797   5.225   4.420  0.0901  0.0182 -0.0102
  184POPC   GL2 2573   6.560   5.381   4.589 -0.1037 -0.0157  0.3800
  184POPC   C1A 2574   6.951   5.230   4.831 -0.0860 -0.0405 -0.0353
  184POPC   D2A 2575   6.906   5.184   5.168  0.3665 -0.2250  0.0268
  184POPC   C3A 2576   6.808   4.915   5.484  0.0428  0.3668  0.4501
  184POPC   C4A 2577   6.762   4.910   5.901  0.1943  0.3620 -0.2626
  184POPC   C1B 2578   6.481   5.113   4.841  0.0997 -0.0659  0.0563
  184POPC   C2B 2579   6.335   5.067   5.301 -0.2456 -0.0772  0.0230
  184POPC   C3B 2580   6.302   5.274   5.653  0.1912 -0.1283 -0.0733
  184POPC   C4B 2581   6.487   5.284   5.887 -0.0653 -0.1004  0.3788
  185POPC   NC3 2582   5.113   6.651   4.078 -0.0510 -0.0094 -0.3499
  185POPC   PO4 2583   4.716   6.575   4.291 -0.1157 -0.0203 -0.2888
  185POPC   GL1 2584   4.482   6.649   4.707  0.0890 -0.2022 -0.0916
  185POPC   GL2 2585   4.317   6.359   4.848 -0.2068  0.0091  0.1521
  185POPC   C1A 2586   4.387   6.902   5.070  0.0827  0.2149 -0.0802
  185POPC   D2A 2587   4.733   7.140   5.483 -0.1955  0.0720 -0.1919
  185POPC   C3A 2588   5.143   7.233   5.409 -0.1315  0.0330 -0.2018
  185POPC   C4A 2589   5.453   7.204   5.772  0.2335 -0.0207  0.2022
  185POPC   C1B 2590   4.068   6.530   5.136  0.2519  0.0572 -0.1530
  185POPC   C2B 2591   3.992   6.356   5.512 -0.1371  0.2761  0.1404
  185POPC   C3B 2592   4.066   6.261   5.945  0.3090  0.0836 -0.3325
  185POPC   C4B 2593   3.896   6.046   6.346  0.0641  0.2672  0.2493
  186POPC   NC3 2594   1.102   0.049   4.443 -0.0299  0.2004  0.1092
  186POPC   PO4 2595   1.127   0.508   4.334 -0.0854  0.2941  0.1578
  186POPC   GL1 2596   1.271   0.681   4.758  0.0618 -0.2063  0.2696
  186POPC   GL2 2597   1.115   0.948   4.948 -0.1825  0.3330 -0.1017
  186POPC   C1A 2598   1.687   0.691   5.013 -0.1069 -0.2422  0.1333
  186POPC   D2A 2599   1.945   0.736   5.324  0.0113 -0.2218 -0.0894
  186POPC   C3A 2600   1.811   0.626   5.675 -0.0826  0.3541  0.1501
  186POPC   C4A 2601   1.895   0.210   5.905  0.1028 -0.1330 -0.1116
  186POPC   C1B 2602   0.999   1.325   5.216  0.2561 -0.2035  0.1173
  186POPC   C2B 2603   1.029   1.323   5.648 -0.0652 -0.3561 -0.2295
  186POPC   C3B 2604   1.109   1.680   5.936 -0.0444  0.1695 -0.2909
  186POPC   C4B 2605   1.395   1.751   6.249 -0.2933 -0.1710 -0.1556
  187POPC   NC3 2606   5.145   2.741   3.522 -0.1549  0.3177 -0.1469
  187POPC   PO4 2607   4.999   2.404   3.242 -0.1697  0.0682 -0.2477
  187POPC   GL1 2608   5.008   2.234   3.680 -0.2477  0.4197  0.1725
  187POPC   GL2 2609   5.264   2.015   3.801 -0.0088 -0.0652 -0.1866
  187POPC   C1A 2610   4.832   1.984   4.096 -0.1923 -0.3445 -0.0809
  187POPC   D2A 2611   4.672   2.109   4.417  0.1571  0.1973 -0.2836
  187POPC   C3A 2612   4.253   2.209   4.564  0.0225 -0.1734 -0.1437
  187POPC   C4A 2613   4.037   2.096   4.872  0.2625 -0.0710 -0.1474
  187POPC   C1B 2614   5.406   2.188   4.160  0.0842  0.0484  0.0633
  187POPC   C2B 2615   5.730   2.182   4.476  0.0529 -0.1018 -0.0324
  187POPC   C3B 2616   5.930   2.202   4.854 -0.2442  0.0397 -0.0861
  187POPC   C4B 2617   6.211   2.332   5.097  0.0135 -0.0954  0.0968
  188POPC   NC3 2618   2.146   1.606   3.899 -0.4713  0.1265  0.1702
  188POPC   PO4 2619   1.778   1.521   4.176 -0.0880  0.4021 -0.0836
  188POPC   GL1 2620   1.660   1.582   4.598 -0.0094  0.0286  0.0904
  188POPC   GL2 2621   1.484   1.915   4.749  0.4358  0.0082  0.0347
  188POPC   C1A 2622   1.435   1.368   4.903 -0.2875  0.4726 -0.1137
  188POPC   D2A 2623   1.487   1.123   5.378  0.5101  0.0024  0.1730
  188POPC   C3A 2624   1.461   0.978   5.750  0.0470 -0.0282  0.1282
  188POPC   C4A 2625   1.279   1.169   6.082 -0.0573  0.4491  0.0955
  188POPC   C1B 2626   1.355   1.837   5.199 -0.3937 -0.1312  0.3048
  188POPC   C2B 2627   1.552   1.574   5.590  0.3108  0.1306 -0.0038
  188POPC   C3B 2628   1.807   1.504   5.908 -0.3421  0.1204 -0.3891
  188POPC   C4B 2629   1.693   1.355   6.353 -0.0556  0.0127 -0.0266
  189POPC   NC3 2630   5.125   5.722   4.298  0.3161 -0.0113  0.0803
  189POPC   PO4 2631   4.979   5.273   4.390  0.1515  0.0290 -0.0553
  189POPC   GL1 2632   4.960   4.948   4.722 -0.1769  0.2620 -0.1099
  189POPC   GL2 2633   5.153   5.150   4.958  0.0343  0.1574 -0.4113
  189POPC   C1A 2634   4.977   4.769   5.153  0.0955  0.1303 -0.0486
  189POPC   D2A 2635   5.028   4.688   5.607 -0.2070  0.2099  0.1376
  189POPC   C3A 2636   4.916   4.214   5.684  0.1924 -0.1518 -0.0544
  189POPC   C4A 2637   4.916   3.784   5.769 -0.4428  0.1498  0.0590
  189POPC   C1B 2638   5.374   4.957   5.413 -0.0055  0.1945  0.0129
  189POPC   C2B 2639   5.463   4.700   5.784 -0.0124  0.3843  0.0336
  189POPC   C3B 2640   5.524   4.486   6.267  0.1009  0.1448  0.1848
  189POPC   C4B 2641   5.405   4.417   6.706 -0.0008  0.0255  0.0629
  190POPC   NC3 2642   2.355   6.048   4.097 -0.1794  0.2395 -0.1922
  190POPC   PO4 2643   2.007   6.076   4.356 -0.0789  0.1155 -0.0534
  190POPC   GL1 2644   1.967   6.012   4.750  0.0865  0.0841 -0.3030
  190POPC   GL2 2645   1.796   5.666   4.735  0.0440 -0.0242  0.0477
  190POPC   C1A 2646   1.724   6.285   5.104 -0.0747  0.2264  0.3759
  190POPC   D2A 2647   1.622   6.260   5.532  0.3028 -0.0720 -0.1673
  190POPC   C3A 2648   1.223   6.347   5.580 -0.3959 -0.2125  0.4402
  190POPC   C4A 2649   0.912   6.220   5.395  0.2532  0.0510  0.1857
  190POPC   C1B 2650   1.592   5.804   5.188 -0.1349  0.0320  0.1056
  190POPC   C2B 2651   1.702   5.794   5.671 -0.4938  0.1055  0.1451
  190POPC   C3B 2652   1.851   5.747   6.063 -0.3165 -0.1020 -0.1319
  190POPC   C4B 2653   2.179   5.638   6.289 -0.0242 -0.1564  0.0150
  191POPC   NC3 2654   7.394   4.514   3.625  0.3154  0.2067 -0.2362
  191POPC   PO4 2655   7.069   4.231   3.994  0.1328 -0.2475  0.0379
  191POPC   GL1 2656   6.753   4.301   4.402  0.2746  0.0077 -0.1301
  191POPC   GL2 2657   6.553   4.034   4.260  0.3987  0.0995 -0.1743
  191POPC   C1A 2658   6.461   4.202   4.810 -0.0714  0.0497 -0.1854
  191POPC   D2A 2659   6.232   3.961   5.204 -0.2483  0.1718 -0.0253
  191POPC   C3A 2660   6.301   4.000   5.671 -0.1616 -0.2036  0.2228
  191POPC   C4A 2661   6.350   4.176   5.998 -0.3353  0.0572  0.3541
  191POPC   C1B 2662   6.055   4.066   4.360 -0.0751  0.0965 -0.2152
  191POPC   C2B 2663   5.901   4.040   4.786 -0.0850  0.2066 -0.1009
  191POPC   C3B 2664   5.612   4.036   5.131 -0.0481 -0.0897 -0.4733
  191POPC   C4B 2665   5.695   3.832   5.500 -0.0519  0.2763 -0.1830
  192POPC   NC3 2666   7.010   9.174   4.383  0.0037  0.0586 -0.1468
  192POPC   PO4 2667   7.319   9.045   4.410  0.1996  0.1923  0.1305
  192POPC   GL1 2668   7.380   8.989   4.841  0.3428  0.2116 -0.1449
  192POPC   GL2 2669   7.032   8.929   4.939  0.1926  0.2297 -0.0375
  192POPC   C1A 2670   7.777   8.988   5.138  0.2888  0.1709 -0.1282
  192POPC   D2A 2671   7.930   8.794   5.557 -0.0261 -0.0167  0.1710
  192POPC   C3A 2672   8.009   8.978   5.966  0.1942 -0.0519 -0.1593
  192POPC   C4A 2673   7.788   9.076   6.428  0.1350 -0.5790 -0.0628
  192POPC   C1B 2674   6.813   9.227   5.293 -0.0407 -0.1527  0.1654
  192POPC   C2B 2675   6.658   9.255   5.694  0.1689  0.2166  0.2761
  192POPC   C3B 2676   6.352   9.418   5.822 -0.0386 -0.1248 -0.0554
  192POPC   C4B 2677   5.945   9.405   5.837 -0.0918  0.2554  0.0717
  193POPC   NC3 2678   4.112   3.254   3.687 -0.1608  0.0325 -0.0296
  193POPC   PO4 2679   4.301   2.916   3.673  0.0872  0.1217  0.0269
  193POPC   GL1 2680   3.974   2.786   4.048 -0.3009 -0.3760  0.0772
  193POPC   GL2 2681   4.104   2.515   4.192 -0.3359  0.3921 -0.1513
  193POPC   C1A 2682   3.834   2.847   4.452 -0.2008  0.0258 -0.0158
  193POPC   D2A 2683   3.892   2.718   4.925  0.1736  0.0709 -0.0329
  193POPC   C3A 2684   4.314   2.532   4.985  0.1152  0.0128 -0.2566
  193POPC   C4A 2685   4.683   2.195   4.873 -0.1854  0.0056  0.1814
  193POPC   C1B 2686   4.297   2.726   4.485 -0.3204 -0.0701 -0.5274
  193POPC   C2B 2687   4.305   3.004   4.943  0.0006  0.0550 -0.0327
  193POPC   C3B 2688   4.710   3.182   5.127  0.0867 -0.1303 -0.0453
  193POPC   C4B 2689   4.901   3.450   5.395 -0.1109  0.1031 -0.1333
  194POPC   NC3 2690   5.884   5.500   4.422  0.2005 -0.0452 -0.0845
  194POPC   PO4 2691   6.253   5.623   4.291  0.0851 -0.0885 -0.0192
  194POPC   GL1 2692   6.218   5.734   4.707 -0.0275 -0.0616 -0.0249
  194POPC   GL2 2693   6.151   5.460   4.927 -0.1560 -0.0243 -0.0131
  194POPC   C1A 2694   6.141   6.046   5.011  0.0739  0.1867  0.1974
  194POPC   D2A 2695   6.097   6.097   5.518 -0.0624 -0.0086 -0.4779
  194POPC   C3A 2696   6.011   5.820   5.863  0.2058 -0.0018  0.0211
  194POPC   C4A 2697   5.737   5.551   6.120 -0.0184 -0.2954  0.1601
  194POPC   C1B 2698   6.085   5.652   5.330 -0.0903  0.2028  0.0277
  194POPC   C2B 2699   5.655   5.855   5.475  0.0608 -0.1261  0.0206
  194POPC   C3B 2700   5.515   5.905   5.874 -0.2785  0.0111  0.0696
  194POPC   C4B 2701   5.209   5.961   6.279  0.1248  0.0330  0.1650
  195POPC   NC3 2702   5.755   9.167   4.256 -0.0583 -0.1654 -0.1689
  195POPC   PO4 2703   6.113   8.981   4.303 -0.1407  0.0080 -0.3102
  195POPC   GL1 2704   6.001   8.794   4.709 -0.1610  0.1032  0.1294
  195POPC   GL2 2705   5.804   8.913   4.789  0.1012  0.3072 -0.1865
  195POPC   C1A 2706   5.612   8.551   5.037  0.0888 -0.0913  0.0948
  195POPC   D2A 2707   5.688   8.210   5.335 -0.1865  0.1715  0.0840
  195POPC   C3A 2708   5.427   8.171   5.783  0.1445 -0.0982 -0.4225
  195POPC   C4A 2709   5.133   7.979   6.117 -0.1673  0.0532 -0.0213
  195POPC   C1B 2710   5.904   8.943   5.172 -0.0508 -0.0041 -0.0944
  195POPC   C2B 2711   6.137   9.055   5.487 -0.0900  0.0204  0.3110
  195POPC   C3B 2712   5.986   8.889   5.991  0.0815 -0.0362  0.2216
  195POPC   C4B 2713   6.037   8.430   5.927  0.3343 -0.3242  0.0978
  196POPC   NC3 2714   0.784   0.947   4.431  0.1301  0.1504 -0.0918
  196POPC   PO4 2715   0.746   0.467   4.672  0.0399 -0.1804  0.1328
  196POPC   GL1 2716   0.857   0.513   4.999  0.4429 -0.2389 -0.4092
  196POPC   GL2 2717   0.698   0.744   5.107  0.1123  0.1643 -0.0304
  196POPC   C1A 2718   0.788   0.292   5.426  0.0399 -0.0188 -0.1131
  196POPC   D2A 2719   0.444   0.226   5.717 -0.2343  0.1820 -0.1037
  196POPC   C3A 2720   0.501  -0.011   5.983  0.3005  0.1794  0.1927
  196POPC   C4A 2721   0.260  -0.164   6.478  0.0160  0.3064 -0.3201
  196POPC   C1B 2722   0.370   0.608   5.375 -0.3159 -0.2264  0.2900
  196POPC   C2B 2723   0.106   0.255   5.311 -0.0149  0.0104  0.2223
  196POPC   C3B 2724  -0.272  -0.025   5.218  0.2440 -0.0442  0.1023
  196POPC   C4B 2725  -0.397  -0.438   5.164  0.2132 -0.2150  0.0480
  197POPC   NC3 2726   9.747   6.034   4.547 -0.2519  0.4479  0.0994
  197POPC   PO4 2727   9.282   6.055   4.528  0.4252  0.3188 -0.1770
  197POPC   GL1 2728   9.459   5.858   4.887  0.0802  0.1913 -0.0478
  197POPC   GL2 2729   9.784   5.694   4.952  0.2152  0.2690 -0.1918
  197POPC   C1A 2730   9.564   5.981   5.302 -0.2401 -0.1885  0.2280
  197POPC   D2A 2731   9.413   6.034   5.768  0.2353 -0.1322 -0.1904
  197POPC   C3A 2732   9.163   5.597   6.043 -0.0709  0.1016  0.1185
  197POPC   C4A 2733   9.015   5.175   6.178  0.3144 -0.2069  0.1476
  197POPC   C1B 2734   9.911   5.613   5.318  0.2778 -0.1552  0.0131
  197POPC   C2B 2735   9.844   5.835   5.750 -0.0389 -0.0197  0.0455
  197POPC   C3B 2736   9.854   5.704   6.128  0.0090 -0.0343 -0.0680
  197POPC   C4B 2737   9.547   5.849   6.376  0.3624  0.0375  0.2822
  198POPC   NC3 2738   8.822   6.313   4.619 -0.2380 -0.0760  0.1693
  198POPC   PO4 2739   8.650   5.986   4.381  0.0578  0.0134 -0.1410
  198POPC   GL1 2740   8.455   6.178   4.970  0.3256  0.3211  0.1552
  198POPC   GL2 2741   8.640   6.222   5.162  0.3680 -0.2026  0.0774
  198POPC   C1A 2742   8.569   5.731   5.242 -0.0496  0.3761 -0.1389
  198POPC   D2A 2743   8.408   5.804   5.658  0.0049  0.3023 -0.1379
  198POPC   C3A 2744   8.115   5.682   5.844 -0.5426  0.1387  0.3404
  198POPC   C4A 2745   7.780   5.823   5.976 -0.0055  0.1433  0.0856
  198POPC   C1B 2746   8.481   6.282   5.499  0.1963 -0.1029 -0.2124
  198POPC   C2B 2747   8.326   6.252   5.891  0.3124  0.2152  0.0462
  198POPC   C3B 2748   7.919   6.257   6.031  0.0748  0.1985  0.0638
  198POPC   C4B 2749   7.668   6.626   6.162  0.0991 -0.0675  0.1056
  199POPC   NC3 2750   3.017   9.618   4.284 -0.1054  0.0966 -0.0660
  199POPC   PO4 2751   3.272   9.984   4.117 -0.0595  0.0695  0.0939
  199POPC   GL1 2752   3.387   9.960   4.573  0.0663 -0.0378 -0.0569
  199POPC   GL2 2753   3.157  10.218   4.644  0.2716 -0.0594 -0.0456
  199POPC   C1A 2754   3.588   9.826   4.985 -0.0838  0.3654  0.2637
  199POPC   D2A 2755   3.886   9.996   5.288  0.0118  0.1672 -0.2675
  199POPC   C3A 2756   4.019   9.793   5.645 -0.1925 -0.0811 -0.2940
  199POPC   C4A 2757   4.302   9.570   5.944 -0.1013  0.1323 -0.0838
  199POPC   C1B 2758   3.161  10.522   5.013  0.2690  0.0324 -0.3059
  199POPC   C2B 2759   2.970  10.544   5.464  0.2220  0.0745 -0.0219
  199POPC   C3B 2760   2.980  10.872   5.759 -0.2016 -0.1700 -0.2794
  199POPC   C4B 2761   3.028  10.941   6.236 -0.2251 -0.2058  0.0744
  200POPC   NC3 2762   9.725   7.999   4.468 -0.1794  0.1342 -0.3109
  200POPC   PO4 2763  10.050   7.668   4.298  0.0675 -0.3822 -0.1976
  200POPC   GL1 2764  10.140   7.594   4.744 -0.0638  0.2063  0.0252
  200POPC   GL2 2765  10.134   7.294   4.746  0.0452  0.1692  0.0497
  200POPC   C1A 2766  10.287   7.602   5.154  0.3570  0.1372  0.0663
  200POPC   D2A 2767  10.332   7.469   5.543  0.2197 -0.2003 -0.0673
  200POPC   C3A 2768  10.471   7.645   5.973  0.0050  0.2027  0.0645
  200POPC   C4A 2769  10.781   7.410   6.246  0.1190  0.3437  0.0347
  200POPC   C1B 2770   9.925   7.151   5.133  0.1780 -0.2990  0.0387
  200POPC   C2B 2771   9.976   7.030   5.525 -0.5549 -0.1083 -0.0195
  200POPC   C3B 2772   9.726   7.002   5.964  0.0680  0.4161  0.1718
  200POPC   C4B 2773   9.847   6.918   6.429  0.2980 -0.2392  0.1903
  201POPC   NC3 2774   8.820   8.552   4.447 -0.0372 -0.0659 -0.1163
  201POPC   PO4 2775   8.608   8.989   4.460 -0.1065  0.2156 -0.1526
  201POPC   GL1 2776   8.644   8.846   4.881 -0.1059 -0.1786 -0.1811
  201POPC   GL2 2777   9.047   8.723   4.849  0.0974  0.1327  0.0835
  201POPC   C1A 2778   8.935   8.995   5.234 -0.0775  0.0728 -0.4736
  201POPC   D2A 2779   8.841   9.249   5.559 -0.0223 -0.1982  0.0862
  201POPC   C3A 2780   8.554   9.547   5.653 -0.2446  0.0314  0.0460
  201POPC   C4A 2781   8.245   9.530   5.927  0.0780 -0.0256  0.0997
  201POPC   C1B 2782   9.210   8.513   5.258  0.0809 -0.0675  0.0691
  201POPC   C2B 2783   9.427   8.416   5.553 -0.0244  0.1455 -0.2018
  201POPC   C3B 2784   9.456   8.016   5.920 -0.1076 -0.2736 -0.1433
  201POPC   C4B 2785   9.540   8.045   6.313  0.0935 -0.0343  0.2571
  202POPC   NC3 2786   3.923   8.968   3.990  0.1183  0.0431 -0.0091
  202POPC   PO4 2787   3.550   9.062   4.228 -0.1753  0.3344  0.0503
  202POPC   GL1 2788   3.212   8.976   4.488 -0.1153  0.1198 -0.0913
  202POPC   GL2 2789   3.194   9.300   4.674  0.0066 -0.2883 -0.0490
  202POPC   C1A 2790   3.358   8.976   5.019  0.2770  0.0421  0.1711
  202POPC   D2A 2791   3.780   8.935   5.242  0.1236 -0.0603  0.1039
  202POPC   C3A 2792   3.771   8.882   5.668 -0.0071  0.0980 -0.2904
  202POPC   C4A 2793   3.851   9.329   5.905 -0.0222  0.2216 -0.0051
  202POPC   C1B 2794   3.226   9.455   5.047  0.2050 -0.1250 -0.2588
  202POPC   C2B 2795   3.201   9.603   5.512  0.1874 -0.0536 -0.1226
  202POPC   C3B 2796   3.531   9.788   5.700 -0.4008  0.0902  0.0833
  202POPC   C4B 2797   3.762   9.768   6.171  0.0214  0.2402 -0.0196
  203POPC   NC3 2798   8.630   9.452   4.645  0.1622  0.2179  0.0357
  203POPC   PO4 2799   8.624   9.881   4.538  0.2507 -0.1737 -0.1962
  203POPC   GL1 2800   8.429  10.271   4.810  0.0845 -0.0786  0.1501
  203POPC   GL2 2801   8.148  10.571   4.753 -0.3697 -0.1685 -0.0644
  203POPC   C1A 2802   8.481  10.367   5.273  0.2901 -0.0102  0.2890
  203POPC   D2A 2803   8.546  10.435   5.675  0.1137  0.0793 -0.1689
  203POPC   C3A 2804   8.292  10.583   5.827 -0.0895 -0.0593 -0.2154
  203POPC   C4A 2805   8.241  10.738   6.230  0.0689  0.0174  0.2621
  203POPC   C1B 2806   8.390  10.818   5.022  0.2432  0.1776  0.3919
  203POPC   C2B 2807   8.462  11.055   5.321  0.1015 -0.3488 -0.1908
  203POPC   C3B 2808   8.468  11.410   5.680 -0.2681 -0.1827 -0.0328
  203POPC   C4B 2809   8.376  11.646   6.083  0.2064 -0.1017 -0.1568
  204POPC   NC3 2810   7.069   8.295   4.240 -0.1032 -0.0110 -0.3303
  204POPC   PO4 2811   6.918   8.674   4.348 -0.0377 -0.1150 -0.1396
  204POPC   GL1 2812   6.794   8.525   4.709  0.2482  0.0328  0.1722
  204POPC   GL2 2813   6.434   8.509   4.732 -0.0021 -0.0745  0.1756
  204POPC   C1A 2814   6.853   8.424   5.111 -0.1198 -0.0191 -0.2214
  204POPC   D2A 2815   7.094   8.297   5.575  0.1167 -0.1888 -0.0250
  204POPC   C3A 2816   7.445   8.694   5.727 -0.2088 -0.1071 -0.0712
  204POPC   C4A 2817   7.470   8.974   6.032 -0.1769 -0.1637  0.1282
  204POPC   C1B 2818   6.462   8.181   4.920 -0.0757 -0.2136 -0.1373
  204POPC   C2B 2819   6.549   7.989   5.372 -0.0077  0.1436 -0.1296
  204POPC   C3B 2820   6.455   7.669   5.644 -0.1350  0.0047  0.0837
  204POPC   C4B 2821   6.539   7.352   5.899  0.0191 -0.0878  0.3000
  205POPC   NC3 2822   0.045   7.672   3.803  0.3419  0.0852 -0.2231
  205POPC   PO4 2823  -0.261   7.586   4.159 -0.1356  0.0172  0.1164
  205POPC   GL1 2824  -0.135   7.477   4.649 -0.0546  0.0429  0.0886
  205POPC   GL2 2825  -0.334   7.272   4.771  0.0106  0.2222  0.0244
  205POPC   C1A 2826  -0.020   7.752   5.040  0.0098  0.1130  0.1355
  205POPC   D2A 2827   0.225   8.140   5.002 -0.1102  0.0864 -0.1272
  205POPC   C3A 2828   0.121   8.322   5.327  0.1816 -0.2073 -0.2917
  205POPC   C4A 2829   0.365   8.570   5.583 -0.0664 -0.1379 -0.0879
  205POPC   C1B 2830  -0.438   7.322   5.174  0.1279  0.0908  0.1846
  205POPC   C2B 2831  -0.473   7.434   5.585  0.0651 -0.1889 -0.0321
  205POPC   C3B 2832  -0.302   7.440   5.945  0.1891  0.0716 -0.2972
  205POPC   C4B 2833  -0.015   7.458   6.369  0.4205 -0.1295 -0.0949
  206POPC   NC3 2834   5.757   7.647   3.595 -0.0315  0.3385  0.0338
  206POPC   PO4 2835   6.075   7.550   3.948 -0.1111  0.3606  0.1063
  206POPC   GL1 2836   5.920   7.715   4.268 -0.0682 -0.0535  0.2341
  206POPC   GL2 2837   6.016   7.838   4.484 -0.2306  0.1808  0.1260
  206POPC   C1A 2838   5.864   7.386   4.588 -0.1112  0.3748 -0.2786
  206POPC   D2A 2839   5.595   7.382   5.113 -0.0840  0.4142 -0.2621
  206POPC   C3A 2840   5.750   7.473   5.507 -0.2185  0.0606 -0.1077
  206POPC   C4A 2841   6.045   7.431   5.862  0.2351 -0.2661 -0.1468
  206POPC   C1B 2842   6.266   7.614   4.804 -0.0022 -0.0688  0.0632
  206POPC   C2B 2843   6.446   7.496   5.184  0.0405  0.0432 -0.0013
  206POPC   C3B 2844   6.552   7.138   5.362  0.4092  0.1127  0.1830
  206POPC   C4B 2845   6.367   6.842   5.684  0.3419 -0.1138 -0.1304
  207POPC   NC3 2846   8.286   5.123   3.897 -0.4610 -0.0286  0.0265
  207POPC   PO4 2847   8.158   5.253   4.379 -0.1011 -0.2202 -0.0329
  207POPC   GL1 2848   7.942   5.097   4.821 -0.0869  0.1011  0.0714
  207POPC   GL2 2849   7.763   5.351   5.058  0.2082 -0.2017  0.1174
  207POPC   C1A 2850   8.115   4.838   5.141  0.1661 -0.1690 -0.0582
  207POPC   D2A 2851   8.149   4.748   5.584 -0.2254  0.2007 -0.0873
  207POPC   C3A 2852   8.280   4.527   5.831  0.2669  0.0964 -0.3911
  207POPC   C4A 2853   8.318   4.344   6.459 -0.1332  0.0493 -0.1668
  207POPC   C1B 2854   7.408   5.387   5.276 -0.2797  0.0693  0.1537
  207POPC   C2B 2855   7.326   4.993   5.576  0.1854 -0.3114  0.2797
  207POPC   C3B 2856   7.298   4.573   5.778  0.0843  0.0814 -0.3148
  207POPC   C4B 2857   7.263   4.247   6.039  0.1488 -0.1813 -0.2063
  208POPC   NC3 2858   7.771   1.765   4.099  0.3009  0.4056  0.0572
  208POPC   PO4 2859   7.802   1.318   4.158  0.0978 -0.1370  0.1725
  208POPC   GL1 2860   8.044   1.499   4.545 -0.0588  0.1220  0.0948
  208POPC   GL2 2861   8.253   1.329   4.618 -0.2408 -0.2487  0.0287
  208POPC   C1A 2862   8.193   1.584   5.006  0.3233  0.0650  0.0086
  208POPC   D2A 2863   8.100   1.854   5.247 -0.5839  0.0240  0.0617
  208POPC   C3A 2864   7.969   1.772   5.600  0.3379 -0.2484 -0.2994
  208POPC   C4A 2865   7.691   1.691   5.920 -0.1003  0.1820  0.3103
  208POPC   C1B 2866   8.617   1.639   4.736 -0.3432 -0.1851  0.0464
  208POPC   C2B 2867   8.808   1.617   5.142  0.0101 -0.2332 -0.0484
  208POPC   C3B 2868   8.994   1.517   5.539 -0.2061  0.3083  0.0960
  208POPC   C4B 2869   8.994   1.727   5.931 -0.1873 -0.1513 -0.1316
  209POPC   NC3 2870   3.248   4.830   4.484 -0.1200  0.0405  0.0295
  209POPC   PO4 2871   3.648   4.579   4.624  0.2177 -0.1134 -0.0512
  209POPC   GL1 2872   4.002   4.481   4.793  0.2211 -0.2417 -0.0634
  209POPC   GL2 2873   4.014   4.878   4.889  0.0057 -0.1185 -0.1847
  209POPC   C1A 2874   4.149   4.224   5.098  0.1276  0.1078 -0.1404
  209POPC   D2A 2875   4.193   4.161   5.471 -0.3789  0.1150 -0.2425
  209POPC   C3A 2876   3.966   3.931   5.842  0.1344 -0.0192 -0.0728
  209POPC   C4A 2877   3.847   4.157   6.130 -0.1516  0.1540 -0.2286
  209POPC   C1B 2878   4.029   4.619   5.314 -0.0156  0.0619 -0.1393
  209POPC   C2B 2879   4.161   4.584   5.855 -0.1394 -0.2855 -0.1607
  209POPC   C3B 2880   4.170   4.513   6.287 -0.3035 -0.1442  0.0765
  209POPC   C4B 2881   3.950   4.450   6.560 -0.0576  0.1759  0.1288
  210POPC   NC3 2882   7.604   9.538   3.750  0.3022 -0.2835  0.0704
  210POPC   PO4 2883   7.420   9.593   4.145  0.0031  0.0444 -0.1380
  210POPC   GL1 2884   7.346   9.469   4.622 -0.0159 -0.3008 -0.4956
  210POPC   GL2 2885   7.629   9.397   4.701  0.0839  0.0196  0.2166
  210POPC   C1A 2886   7.268   9.453   5.064  0.2195  0.1874 -0.1706
  210POPC   D2A 2887   7.123   9.504   5.583  0.0546 -0.1931 -0.0581
  210POPC   C3A 2888   7.437   9.522   5.916 -0.1180 -0.0562 -0.2143
  210POPC   C4A 2889   7.809   9.487   6.155 -0.2656  0.0351 -0.0903
  210POPC   C1B 2890   7.802   9.568   5.063  0.3728 -0.2051 -0.0799
  210POPC   C2B 2891   7.982   9.759   5.402  0.0520 -0.2736 -0.1543
  210POPC   C3B 2892   7.877   9.844   5.866 -0.0696  0.1124  0.4274
  210POPC   C4B 2893   8.108  10.216   6.115  0.0811 -0.3537  0.0629
  211POPC   NC3 2894   2.197   6.563   4.456 -0.2275 -0.1163 -0.2297
  211POPC   PO4 2895   2.441   6.896   4.557 -0.0388  0.2448  0.0700
  211POPC   GL1 2896   2.341   6.669   4.959 -0.0258 -0.2158 -0.3225
  211POPC   GL2 2897   2.245   6.397   4.898 -0.0441 -0.1707 -0.0886
  211POPC   C1A 2898   2.536   6.557   5.412 -0.0948 -0.2298  0.1021
  211POPC   D2A 2899   2.402   6.437   5.808  0.1351  0.0277  0.1974
  211POPC   C3A 2900   2.365   6.044   5.811  0.2194 -0.1680  0.3294
  211POPC   C4A 2901   2.344   5.558   5.827 -0.1837  0.2774  0.0105
  211POPC   C1B 2902   2.178   6.251   5.321  0.1725 -0.3285 -0.2332
  211POPC   C2B 2903   2.142   5.840   5.415  0.1367  0.4651  0.2075
  211POPC   C3B 2904   1.939   5.409   5.332  0.2741  0.1444  0.0329
  211POPC   C4B 2905   1.748   4.982   5.441  0.4337  0.1861 -0.1913
  212POPC   NC3 2906   0.499   4.555   3.973 -0.2540  0.0928 -0.1604
  212POPC   PO4 2907   0.793   4.662   4.256  0.1761  0.0005  0.3195
  212POPC   GL1 2908   0.844   4.609   4.637  0.0667 -0.0880 -0.2990
  212POPC   GL2 2909   0.590   4.748   4.784  0.4150  0.2735  0.0738
  212POPC   C1A 2910   1.078   4.363   4.854  0.1229 -0.1347 -0.1510
  212POPC   D2A 2911   1.140   4.180   5.251  0.1853 -0.2242  0.0257
  212POPC   C3A 2912   1.355   4.320   5.583 -0.0539 -0.1349  0.1147
  212POPC   C4A 2913   1.630   4.418   5.968 -0.1901  0.2908  0.0960
  212POPC   C1B 2914   0.835   4.616   5.182  0.3726 -0.1936  0.1295
  212POPC   C2B 2915   0.944   4.567   5.582  0.3693  0.0462 -0.0549
  212POPC   C3B 2916   0.716   4.842   5.936  0.1176  0.1564  0.2071
  212POPC   C4B 2917   0.587   4.902   6.276 -0.1118  0.1138  0.1694
  213POPC   NC3 2918   1.236   4.502   4.145  0.2676  0.1192 -0.3154
  213POPC   PO4 2919   1.588   4.756   4.224  0.2185  0.1950  0.1331
  213POPC   GL1 2920   1.423   4.683   4.576 -0.1527 -0.2843 -0.0224
  213POPC   GL2 2921   1.290   4.835   4.884  0.3134 -0.0901 -0.0237
  213POPC   C1A 2922   1.655   4.444   4.950  0.0278 -0.3454 -0.3249
  213POPC   D2A 2923   1.965   4.529   5.243  0.3846 -0.2494 -0.0127
  213POPC   C3A 2924   1.967   4.588   5.620 -0.0848  0.0083 -0.0453
  213POPC   C4A 2925   2.142   4.609   5.997 -0.0244 -0.0417  0.1659
  213POPC   C1B 2926   1.320   4.624   5.219 -0.3715  0.1526 -0.1231
  213POPC   C2B 2927   1.414   4.780   5.712  0.5072  0.0247  0.0965
  213POPC   C3B 2928   1.775   4.941   5.983 -0.1238  0.2892 -0.0418
  213POPC   C4B 2929   1.947   5.329   5.836  0.1390 -0.2296 -0.0588
  214POPC   NC3 2930   8.552   5.529   4.041 -0.0007  0.1202 -0.3652
  214POPC   PO4 2931   8.717   5.105   4.148  0.0650  0.1106  0.2446
  214POPC   GL1 2932   8.642   4.973   4.561  0.2235 -0.2032 -0.0660
  214POPC   GL2 2933   8.384   4.940   4.644  0.3588  0.3923  0.2274
  214POPC   C1A 2934   8.704   4.666   4.895 -0.1939  0.2320  0.0251
  214POPC   D2A 2935   8.626   4.314   5.283  0.0440 -0.3395 -0.0660
  214POPC   C3A 2936   8.717   4.305   5.645  0.0700 -0.1195  0.2013
  214POPC   C4A 2937   8.774   3.925   5.843 -0.1805  0.1273 -0.1874
  214POPC   C1B 2938   7.999   4.621   4.652  0.1021 -0.2419  0.1550
  214POPC   C2B 2939   7.671   4.630   5.024 -0.2263  0.1280  0.2832
  214POPC   C3B 2940   7.666   4.685   5.499 -0.3313  0.0050  0.0491
  214POPC   C4B 2941   7.830   5.082   5.490  0.0349  0.0951 -0.0051
  215POPC   NC3 2942   0.420   1.379   3.895 -0.0100  0.0020  0.0852
  215POPC   PO4 2943   0.217   1.057   4.139  0.0170  0.4298  0.0194
  215POPC   GL1 2944  -0.032   1.122   4.431  0.0301  0.0265 -0.0222
  215POPC   GL2 2945  -0.196   0.823   4.510 -0.0023 -0.0771  0.0858
  215POPC   C1A 2946  -0.143   1.380   4.744 -0.0893 -0.0195  0.1313
  215POPC   D2A 2947   0.079   1.702   5.012 -0.0966  0.1720  0.1526
  215POPC   C3A 2948   0.137   1.655   5.538  0.1155 -0.1366 -0.0646
  215POPC   C4A 2949   0.143   1.328   5.832 -0.0940  0.0477 -0.2107
  215POPC   C1B 2950  -0.175   0.893   4.861 -0.3985  0.1276  0.1526
  215POPC   C2B 2951  -0.468   1.007   5.174 -0.5534  0.0030 -0.0718
  215POPC   C3B 2952  -0.525   1.033   5.583 -0.0207 -0.0613 -0.1285
  215POPC   C4B 2953  -0.726   0.732   5.861  0.2507  0.0514  0.1087
  216POPC   NC3 2954   9.378   2.886   4.085  0.1349  0.1022  0.0011
  216POPC   PO4 2955   9.029   3.128   4.120 -0.1533  0.0196  0.0913
  216POPC   GL1 2956   9.195   3.373   4.476  0.0499 -0.0409  0.0460
  216POPC   GL2 2957   9.436   3.378   4.637 -0.1888  0.0570  0.1223
  216POPC   C1A 2958   9.009   3.403   4.902 -0.2805 -0.0958  0.0209
  216POPC   D2A 2959   8.575   3.265   5.097 -0.0901 -0.0396 -0.2658
  216POPC   C3A 2960   8.490   3.323   5.516  0.0409 -0.4547 -0.0186
  216POPC   C4A 2961   8.184   3.531   5.714 -0.1224 -0.1132  0.4521
  216POPC   C1B 2962   9.550   3.181   4.930  0.0497 -0.0584 -0.1602
  216POPC   C2B 2963   9.834   2.784   5.173 -0.1104  0.0771  0.0286
  216POPC   C3B 2964  10.054   2.429   5.111  0.0503  0.2548 -0.3139
  216POPC   C4B 2965  10.224   2.059   5.379  0.0827  0.0532 -0.1164
  217POPC   NC3 2966   3.963   0.917   3.876  0.0631  0.0757  0.2693
  217POPC   PO4 2967   3.692   1.176   4.056 -0.1199 -0.1484 -0.0731
  217POPC   GL1 2968   3.978   1.256   4.282 -0.2690 -0.3593 -0.1140
  217POPC   GL2 2969   4.291   1.045   4.335  0.0148 -0.2954  0.0843
  217POPC   C1A 2970   3.720   1.186   4.680  0.2652  0.2147  0.3213
  217POPC   D2A 2971   3.556   1.074   5.004  0.1558  0.3649 -0.1038
  217POPC   C3A 2972   3.447   0.943   5.477 -0.1578  0.0365 -0.1533
  217POPC   C4A 2973   3.457   0.905   6.007 -0.0840  0.2738  0.0956
  217POPC   C1B 2974   4.142   0.868   4.705  0.3255 -0.1416  0.4121
  217POPC   C2B 2975   4.054   1.102   5.027 -0.0887  0.3113 -0.1852
  217POPC   C3B 2976   3.965   1.396   5.077 -0.5107  0.3050  0.3780
  217POPC   C4B 2977   4.091   1.521   4.658  0.1731  0.0837 -0.1019
  218POPC   NC3 2978   5.981   6.228   4.336 -0.0620  0.0485 -0.0102
  218POPC   PO4 2979   5.600   5.924   4.363 -0.2564  0.3989  0.3287
  218POPC   GL1 2980   5.634   5.816   4.831  0.2645  0.1547 -0.0099
  218POPC   GL2 2981   5.253   5.671   4.922 -0.1871 -0.0339  0.5773
  218POPC   C1A 2982   5.633   5.330   5.042 -0.1697  0.0801  0.0015
  218POPC   D2A 2983   5.716   5.346   5.530  0.0380 -0.2138 -0.3215
  218POPC   C3A 2984   5.449   5.252   5.785 -0.2931 -0.2296  0.0711
  218POPC   C4A 2985   5.235   5.452   6.274  0.1297 -0.1625  0.0087
  218POPC   C1B 2986   5.251   5.535   5.369  0.1522 -0.1176  0.1609
  218POPC   C2B 2987   5.119   5.571   5.726 -0.0303 -0.2302  0.1115
  218POPC   C3B 2988   4.771   5.777   6.049  0.0162 -0.1359 -0.1004
  218POPC   C4B 2989   4.509   6.072   6.250  0.2213 -0.0155 -0.2288
  219POPC   NC3 2990   6.617   0.306   3.996  0.0987  0.0831 -0.1113
  219POPC   PO4 2991   6.810   0.661   3.832  0.2330 -0.4139 -0.1377
  219POPC   GL1 2992   6.985   0.676   4.251 -0.0009 -0.0401 -0.0626
  219POPC   GL2 2993   6.779   0.904   4.467 -0.0102  0.0801  0.0350
  219POPC   C1A 2994   6.976   0.523   4.709  0.4374  0.0071  0.0908
  219POPC   D2A 2995   7.147   0.607   5.093 -0.0730 -0.2081  0.1453
  219POPC   C3A 2996   7.125   0.432   5.472 -0.3617  0.1114  0.3418
  219POPC   C4A 2997   6.898   0.164   5.698  0.3273  0.0975 -0.0115
  219POPC   C1B 2998   6.783   0.951   4.971  0.1931  0.0113 -0.3752
  219POPC   C2B 2999   6.953   1.026   5.392  0.4245 -0.1762 -0.2071
  219POPC   C3B 3000   6.807   1.269   5.809 -0.0536 -0.1358  0.3094
  219POPC   C4B 3001   6.902   1.054   6.196 -0.0504 -0.1238  0.3514
  220POPC   NC3 3002   9.009   4.163   4.132 -0.2441 -0.3441 -0.1183
  220POPC   PO4 3003   9.385   3.853   4.366  0.0953 -0.1820  0.1866
  220POPC   GL1 3004   9.493   3.925   4.746  0.0152 -0.1178 -0.0960
  220POPC   GL2 3005   9.233   3.873   4.928  0.1900 -0.1188  0.2203
  220POPC   C1A 3006   9.611   4.146   5.142  0.0048  0.2162  0.1426
  220POPC   D2A 3007   9.887   4.325   5.580 -0.1377  0.1482 -0.0829
  220POPC   C3A 3008   9.830   4.180   5.904 -0.1443  0.2311 -0.0948
  220POPC   C4A 3009   9.705   4.110   6.346 -0.0472 -0.0398  0.1784
  220POPC   C1B 3010   9.109   4.346   5.157 -0.3038  0.3545 -0.2674
  220POPC   C2B 3011   9.013   4.646   5.415 -0.4496  0.4592  0.0904
  220POPC   C3B 3012   9.113   4.935   5.252 -0.1126 -0.0469  0.2029
  220POPC   C4B 3013   9.426   5.123   5.253  0.1704  0.1384  0.1284
  221POPC   NC3 3014   6.137   1.820   3.355  0.1842  0.1187 -0.4423
  221POPC   PO4 3015   5.791   1.791   3.551  0.0891  0.2609  0.0041
  221POPC   GL1 3016   5.778   1.920   3.926 -0.0681 -0.1782 -0.2947
  221POPC   GL2 3017   5.914   2.195   3.984  0.2849  0.0077 -0.1359
  221POPC   C1A 3018   5.634   1.587   4.333 -0.1087 -0.1570 -0.2655
  221POPC   D2A 3019   5.551   1.180   4.444 -0.1331  0.0766  0.0475
  221POPC   C3A 3020   5.214   1.276   4.507  0.2820  0.1982  0.2005
  221POPC   C4A 3021   4.988   1.306   4.830  0.0826  0.2156  0.0546
  221POPC   C1B 3022   6.238   2.026   4.070 -0.2687 -0.4642  0.1972
  221POPC   C2B 3023   6.588   1.892   4.333 -0.1789  0.0138  0.0634
  221POPC   C3B 3024   6.925   1.781   4.714  0.0865  0.2859 -0.0371
  221POPC   C4B 3025   7.260   1.769   4.879  0.1226  0.3375  0.0586
  222POPC   NC3 3026   7.624   8.169   3.396  0.1098 -0.1035  0.0959
  222POPC   PO4 3027   7.596   8.269   3.793 -0.1508 -0.0837 -0.0707
  222POPC   GL1 3028   7.649   8.209   4.225  0.2462 -0.1698 -0.0629
  222POPC   GL2 3029   7.977   8.245   4.446  0.1129 -0.0414 -0.1185
  222POPC   C1A 3030   7.629   8.006   4.647 -0.2466  0.2423  0.4557
  222POPC   D2A 3031   7.778   7.961   5.136  0.0019  0.1549  0.1265
  222POPC   C3A 3032   8.197   8.279   5.323  0.4187 -0.0823 -0.1574
  222POPC   C4A 3033   8.526   8.176   5.534  0.2935 -0.0557 -0.0413
  222POPC   C1B 3034   8.212   8.073   4.820  0.1492 -0.0906  0.0655
  222POPC   C2B 3035   8.492   7.893   5.062 -0.0669 -0.0185 -0.1576
  222POPC   C3B 3036   8.666   7.665   5.438 -0.1825 -0.1614 -0.0399
  222POPC   C4B 3037   8.831   7.204   5.625  0.2193  0.1543 -0.1351
  223POPC   NC3 3038   3.010   8.565   4.170 -0.4511  0.2613 -0.5202
  223POPC   PO4 3039   3.237   8.089   4.102 -0.2152  0.2142  0.0875
  223POPC   GL1 3040   3.265   8.232   4.445  0.0040  0.2645 -0.0931
  223POPC   GL2 3041   3.005   8.163   4.578  0.2433  0.0857 -0.0459
  223POPC   C1A 3042   3.453   8.305   4.762 -0.1823 -0.1173  0.2435
  223POPC   D2A 3043   3.563   8.299   5.231  0.0828  0.0065  0.3302
  223POPC   C3A 3044   3.413   8.587   5.367  0.1564  0.2008  0.1107
  223POPC   C4A 3045   3.331   8.918   5.482  0.0366  0.3198  0.2908
  223POPC   C1B 3046   2.989   8.432   4.886 -0.1510  0.3536 -0.2121
  223POPC   C2B 3047   2.914   8.550   5.302  0.0468  0.1458  0.1616
  223POPC   C3B 3048   3.040   8.453   5.742  0.1861 -0.0064 -0.0141
  223POPC   C4B 3049   3.450   8.562   5.938  0.0512  0.0259  0.5171
  224POPC   NC3 3050   5.462   9.296   3.744  0.1172 -0.1566 -0.0502
  224POPC   PO4 3051   5.388   9.498   4.119 -0.0359  0.0204 -0.1036
  224POPC   GL1 3052   5.494   9.640   4.513 -0.2460  0.2865  0.0451
  224POPC   GL2 3053   5.566   9.437   4.660 -0.3562 -0.0886 -0.5276
  224POPC   C1A 3054   5.304   9.907   4.832 -0.2266  0.0186 -0.1948
  224POPC   D2A 3055   5.265  10.001   5.369  0.4085  0.0384 -0.0865
  224POPC   C3A 3056   4.865  10.034   5.578 -0.0006  0.1141 -0.0254
  224POPC   C4A 3057   4.447  10.082   5.547 -0.0244 -0.0482  0.0176
  224POPC   C1B 3058   5.918   9.416   4.968 -0.1030 -0.0257  0.1921
  224POPC   C2B 3059   5.847   9.436   5.347 -0.2176 -0.0460  0.1965
  224POPC   C3B 3060   5.584   9.168   5.627  0.1590 -0.1273  0.0449
  224POPC   C4B 3061   5.612   8.628   5.643  0.1805  0.1984 -0.2215
  225POPC   NC3 3062   3.686   5.047   3.784  0.2936 -0.1443  0.1895
  225POPC   PO4 3063   3.662   5.075   4.358  0.0862 -0.0990  0.0153
  225POPC   GL1 3064   3.571   5.247   4.744 -0.2884 -0.0406  0.2104
  225POPC   GL2 3065   3.503   5.001   4.909 -0.1402 -0.4462  0.6706
  225POPC   C1A 3066   3.811   5.327   5.129 -0.0725 -0.1641 -0.0585
  225POPC   D2A 3067   3.821   5.509   5.601 -0.2087  0.2711  0.0561
  225POPC   C3A 3068   3.626   5.367   6.000  0.0048  0.1825  0.0850
  225POPC   C4A 3069   3.603   5.482   6.412 -0.3101 -0.0993  0.1476
  225POPC   C1B 3070   3.509   4.760   5.298 -0.0630  0.1444 -0.1614
  225POPC   C2B 3071   3.705   4.943   5.684 -0.0096 -0.1281 -0.0909
  225POPC   C3B 3072   4.069   5.195   5.812 -0.0973  0.1756 -0.1931
  225POPC   C4B 3073   4.516   5.438   5.799  0.2661  0.1381  0.0145
  226POPC   NC3 3074   8.349   0.066   4.068 -0.3449  0.0198 -0.1433
  226POPC   PO4 3075   8.246  -0.190   4.390 -0.0410  0.1224  0.0245
  226POPC   GL1 3076   8.140   0.098   4.796  0.1045  0.0571  0.1156
  226POPC   GL2 3077   8.319  -0.142   4.928  0.1074  0.1874  0.0185
  226POPC   C1A 3078   8.042   0.342   5.116  0.2689 -0.4601 -0.1610
  226POPC   D2A 3079   8.009   0.467   5.603  0.4198  0.0111  0.2786
  226POPC   C3A 3080   7.621   0.506   5.742  0.0529 -0.1498 -0.0347
  226POPC   C4A 3081   7.361   0.263   5.964 -0.4382  0.2774  0.1516
  226POPC   C1B 3082   8.481   0.092   5.301  0.1843  0.2812  0.0569
  226POPC   C2B 3083   8.395   0.195   5.782 -0.2598  0.1142 -0.0902
  226POPC   C3B 3084   8.668   0.312   6.130  0.4571 -0.1267  0.0456
  226POPC   C4B 3085   8.559   0.425   6.521 -0.2159  0.0764  0.0478
  227POPC   NC3 3086   8.726   5.471   4.530  0.2872  0.0575 -0.2126
  227POPC   PO4 3087   9.159   5.553   4.684 -0.2552 -0.0436 -0.4499
  227POPC   GL1 3088   9.001   5.437   5.093 -0.0440  0.2795 -0.6393
  227POPC   GL2 3089   8.756   5.262   4.999 -0.1698 -0.1689  0.2307
  227POPC   C1A 3090   9.328   5.540   5.476 -0.1336  0.0864 -0.0875
  227POPC   D2A 3091   9.596   5.367   5.869  0.1377  0.1005 -0.1023
  227POPC   C3A 3092   9.537   5.314   6.338 -0.0429 -0.1744 -0.0331
  227POPC   C4A 3093   9.331   5.516   6.773 -0.1749  0.0474  0.2705
  227POPC   C1B 3094   8.590   4.961   5.305  0.1073  0.1970 -0.0485
  227POPC   C2B 3095   8.591   4.953   5.688 -0.2824  0.0948  0.2334
  227POPC   C3B 3096   8.882   4.726   5.877 -0.0264  0.2807 -0.0436
  227POPC   C4B 3097   9.145   4.683   6.303  0.4874 -0.1220  0.3499
  228POPC   NC3 3098   1.465   0.639   3.900  0.4296 -0.0820 -0.0583
  228POPC   PO4 3099   1.620   0.540   4.409 -0.1797 -0.1354 -0.2243
  228POPC   GL1 3100   2.037   0.599   4.482  0.1713  0.1867 -0.0898
  228POPC   GL2 3101   2.290   0.711   4.352 -0.3317 -0.0461  0.1032
  228POPC   C1A 3102   2.191   0.638   4.893  0.2576 -0.2629 -0.1407
  228POPC   D2A 3103   2.477   0.841   5.230 -0.1549  0.0960 -0.0744
  228POPC   C3A 3104   2.420   0.795   5.642  0.2491 -0.1013  0.0539
  228POPC   C4A 3105   2.285   0.572   6.004 -0.1421  0.1269 -0.3163
  228POPC   C1B 3106   2.679   0.681   4.740  0.2865  0.4424  0.0824
  228POPC   C2B 3107   2.754   0.420   5.142  0.1740 -0.0612  0.2300
  228POPC   C3B 3108   2.741   0.291   5.522 -0.1734 -0.0325 -0.1520
  228POPC   C4B 3109   2.985   0.207   5.844 -0.0832  0.3107  0.0531
  229POPC   NC3 3110   0.543   3.703   4.283 -0.1344  0.0553  0.0142
  229POPC   PO4 3111   0.983   3.717   4.579  0.3077 -0.0786  0.0516
  229POPC   GL1 3112   0.703   3.824   4.763 -0.2290 -0.3696 -0.1000
  229POPC   GL2 3113   0.589   3.674   5.042 -0.0546 -0.1961 -0.1346
  229POPC   C1A 3114   0.621   4.174   5.031 -0.2973  0.0952  0.2520
  229POPC   D2A 3115   0.586   4.202   5.438 -0.1094  0.2344  0.0895
  229POPC   C3A 3116   0.398   3.839   5.700 -0.0532 -0.1024 -0.2036
  229POPC   C4A 3117   0.355   3.775   6.095 -0.0207  0.0474  0.3850
  229POPC   C1B 3118   0.555   3.500   5.388  0.0664 -0.0910 -0.2618
  229POPC   C2B 3119   0.290   3.347   5.762 -0.3086  0.1590 -0.4593
  229POPC   C3B 3120  -0.153   3.214   5.925  0.0545  0.0176 -0.1942
  229POPC   C4B 3121  -0.521   3.100   6.030  0.0706  0.4217 -0.2121
  230POPC   NC3 3122   0.896   2.948   3.926  0.2487  0.0822 -0.2532
  230POPC   PO4 3123   1.271   2.653   4.172  0.1360  0.0718 -0.0665
  230POPC   GL1 3124   1.152   2.431   4.541 -0.0919 -0.1799 -0.1281
  230POPC   GL2 3125   1.462   2.371   4.685 -0.1595 -0.2670  0.3534
  230POPC   C1A 3126   0.961   2.657   4.932  0.2231 -0.0974 -0.0830
  230POPC   D2A 3127   0.646   2.750   5.118  0.0325  0.0016 -0.2101
  230POPC   C3A 3128   0.483   2.956   5.483 -0.1318  0.0331 -0.0588
  230POPC   C4A 3129   0.252   2.822   5.887 -0.1176 -0.0149  0.0479
  230POPC   C1B 3130   1.372   2.393   5.185  0.3967  0.1531  0.0661
  230POPC   C2B 3131   1.480   2.591   5.651  0.2267 -0.0246 -0.3256
  230POPC   C3B 3132   1.316   2.942   5.867 -0.2209  0.1119 -0.1165
  230POPC   C4B 3133   1.242   3.395   5.855  0.0441  0.0607  0.0798
  231POPC   NC3 3134   9.093   7.896   4.201 -0.0813 -0.1197  0.3449
  231POPC   PO4 3135   9.271   8.217   4.407  0.4596  0.0032 -0.0073
  231POPC   GL1 3136   9.096   8.217   4.800 -0.1416 -0.0752 -0.4840
  231POPC   GL2 3137   8.767   8.182   4.788  0.2102 -0.1872 -0.0520
  231POPC   C1A 3138   9.453   8.125   5.088  0.3425  0.1082 -0.4299
  231POPC   D2A 3139   9.445   7.898   5.382 -0.3804  0.2561 -0.2804
  231POPC   C3A 3140   9.822   7.607   5.476 -0.0630 -0.1020  0.1168
  231POPC   C4A 3141   9.919   7.544   5.865  0.1059 -0.2352 -0.1667
  231POPC   C1B 3142   8.692   8.507   5.191 -0.1976 -0.0048  0.2224
  231POPC   C2B 3143   8.833   8.560   5.619 -0.1216 -0.1108  0.0141
  231POPC   C3B 3144   8.911   8.834   6.072 -0.0116  0.4656  0.0487
  231POPC   C4B 3145   8.744   9.318   6.078 -0.0404 -0.1923  0.0482
  232POPC   NC3 3146   6.108   8.453   4.347  0.0159 -0.1811  0.0942
  232POPC   PO4 3147   5.712   8.135   4.285 -0.0114  0.0405  0.0172
  232POPC   GL1 3148   5.659   8.161   4.677  0.0237  0.1188 -0.1232
  232POPC   GL2 3149   5.962   8.284   4.773  0.0576  0.4305  0.1476
  232POPC   C1A 3150   5.784   7.822   4.920 -0.0280  0.0411  0.1954
  232POPC   D2A 3151   6.013   7.858   5.306  0.0391 -0.2441 -0.1667
  232POPC   C3A 3152   6.073   7.948   5.816  0.1412  0.1332  0.1227
  232POPC   C4A 3153   6.303   8.005   6.189  0.1398 -0.1989 -0.2627
  232POPC   C1B 3154   6.163   8.437   5.204 -0.2819  0.1675  0.0605
  232POPC   C2B 3155   6.375   8.537   5.619  0.0523  0.2574  0.0374
  232POPC   C3B 3156   6.444   8.858   5.882 -0.2662  0.0370  0.1529
  232POPC   C4B 3157   6.590   9.061   6.199 -0.1104 -0.1101 -0.1946
  233POPC   NC3 3158   2.132   4.167   4.005 -0.3015 -0.1332 -0.0875
  233POPC   PO4 3159   2.120   4.604   4.190 -0.0824  0.1957 -0.4683
  233POPC   GL1 3160   1.913   4.754   4.566 -0.0338  0.5870 -0.1497
  233POPC   GL2 3161   2.235   4.650   4.818  0.1553 -0.0125  0.1751
  233POPC   C1A 3162   1.782   4.911   4.915  0.1096 -0.0285 -0.2223
  233POPC   D2A 3163   1.477   5.278   5.172 -0.1996  0.2702  0.0854
  233POPC   C3A 3164   1.468   5.351   5.601  0.2308  0.1690 -0.2290
  233POPC   C4A 3165   1.459   5.335   6.041 -0.2297 -0.0140  0.1048
  233POPC   C1B 3166   2.466   4.635   5.241  0.0915  0.0584 -0.0210
  233POPC   C2B 3167   2.404   4.326   5.552 -0.4128  0.0019  0.3271
  233POPC   C3B 3168   2.469   4.280   5.975 -0.2409  0.2581 -0.1360
  233POPC   C4B 3169   2.545   4.632   6.348 -0.0580 -0.0791 -0.1281
  234POPC   NC3 3170   7.246   3.301   3.508  0.1737  0.1253  0.1823
  234POPC   PO4 3171   7.445   3.012   3.594  0.0080  0.0684  0.2007
  234POPC   GL1 3172   7.364   2.743   4.057  0.1173 -0.2583 -0.0456
  234POPC   GL2 3173   7.101   2.516   4.254 -0.0942  0.4422  0.2200
  234POPC   C1A 3174   7.443   2.765   4.560  0.1679 -0.2033 -0.0450
  234POPC   D2A 3175   7.768   2.506   4.730  0.0642  0.0080  0.3590
  234POPC   C3A 3176   7.610   2.453   5.180  0.1299  0.4542 -0.0178
  234POPC   C4A 3177   7.521   2.432   5.582  0.0700 -0.0036  0.3506
  234POPC   C1B 3178   7.271   2.275   4.687  0.0846 -0.2530  0.3199
  234POPC   C2B 3179   7.193   2.192   5.117  0.0628  0.1368 -0.2530
  234POPC   C3B 3180   6.924   2.176   5.466  0.2221  0.0697 -0.1608
  234POPC   C4B 3181   6.947   2.516   5.756 -0.1573  0.4154  0.3022
  235POPC   NC3 3182   9.354   2.316   4.364  0.1899  0.1638  0.0441
  235POPC   PO4 3183   9.631   2.585   4.460 -0.2325 -0.0195  0.0839
  235POPC   GL1 3184   9.482   2.513   4.908  0.3092  0.0603 -0.0952
  235POPC   GL2 3185   9.055   2.515   4.841 -0.0078  0.1568  0.1466
  235POPC   C1A 3186   9.394   2.482   5.375  0.0536 -0.0259 -0.1145
  235POPC   D2A 3187   9.497   2.631   5.798 -0.0263 -0.0489  0.0755
  235POPC   C3A 3188   9.297   2.596   6.181 -0.3745  0.0003 -0.1425
  235POPC   C4A 3189   8.885   2.561   6.400  0.1194 -0.1780 -0.1142
  235POPC   C1B 3190   8.934   2.442   5.325 -0.2202 -0.2403  0.1456
  235POPC   C2B 3191   9.025   2.587   5.666 -0.3109  0.0751  0.0001
  235POPC   C3B 3192   8.792   2.778   5.975  0.1462 -0.0948  0.0434
  235POPC   C4B 3193   8.657   3.167   5.938  0.0878  0.1172  0.0630
  236POPC   NC3 3194   6.464   2.948   3.611  0.0813 -0.1031  0.2051
  236POPC   PO4 3195   6.758   3.289   3.513  0.1907 -0.1604 -0.1547
  236POPC   GL1 3196   6.602   3.374   3.945  0.0149 -0.1708  0.0535
  236POPC   GL2 3197   6.845   3.333   4.233  0.0339  0.3059  0.1530
  236POPC   C1A 3198   6.348   3.198   4.314 -0.1042  0.0390  0.0134
  236POPC   D2A 3199   6.210   3.199   4.847  0.1278 -0.0233  0.0848
  236POPC   C3A 3200   5.801   3.012   5.102 -0.2843 -0.1208  0.2673
  236POPC   C4A 3201   5.386   3.028   5.131  0.0033  0.0845  0.1051
  236POPC   C1B 3202   6.997   2.940   4.405 -0.3118  0.3149  0.0477
  236POPC   C2B 3203   6.997   2.704   4.810  0.0697  0.0805  0.0816
  236POPC   C3B 3204   7.093   2.654   5.265 -0.0476  0.1505  0.2363
  236POPC   C4B 3205   7.342   2.889   5.644  0.0858 -0.0633  0.0897
  237POPC   NC3 3206   8.795   6.675   4.047 -0.0453 -0.1962 -0.4072
  237POPC   PO4 3207   8.462   6.550   4.284  0.0123  0.2190 -0.2671
  237POPC   GL1 3208   8.255   6.584   4.694 -0.2295  0.4566  0.2949
  237POPC   GL2 3209   8.358   6.840   4.788 -0.1199  0.0031  0.1021
  237POPC   C1A 3210   7.799   6.619   4.705 -0.1335 -0.0341  0.1719
  237POPC   D2A 3211   7.413   6.459   4.886  0.0304  0.0872 -0.1447
  237POPC   C3A 3212   7.549   5.952   5.257 -0.1544  0.0752  0.4207
  237POPC   C4A 3213   7.790   5.582   5.488  0.2528 -0.3056  0.0919
  237POPC   C1B 3214   8.058   6.967   4.945 -0.0625  0.1424 -0.2780
  237POPC   C2B 3215   7.976   7.072   5.333  0.0767 -0.1198  0.1218
  237POPC   C3B 3216   8.322   7.247   5.628  0.1086  0.0167 -0.2434
  237POPC   C4B 3217   8.545   7.462   5.963  0.1784  0.0060  0.0306
  238POPC   NC3 3218   3.426   2.037   3.947  0.0007 -0.1309 -0.3698
  238POPC   PO4 3219   2.947   1.929   3.959  0.1841 -0.1310 -0.2667
  238POPC   GL1 3220   3.004   2.067   4.364 -0.1148  0.1607 -0.0368
  238POPC   GL2 3221   2.683   1.997   4.438 -0.0066  0.3073 -0.0618
  238POPC   C1A 3222   3.161   2.011   4.758  0.3022  0.1818 -0.0485
  238POPC   D2A 3223   2.948   1.767   4.971 -0.2139 -0.0263 -0.0465
  238POPC   C3A 3224   3.123   1.862   5.469 -0.1707  0.0280 -0.0134
  238POPC   C4A 3225   3.494   1.805   5.699 -0.1199 -0.0144 -0.3032
  238POPC   C1B 3226   2.623   2.164   4.906 -0.0165 -0.0692 -0.3045
  238POPC   C2B 3227   2.650   2.078   5.325  0.0005 -0.0345  0.4938
  238POPC   C3B 3228   2.680   1.842   5.670  0.2430 -0.0954  0.0666
  238POPC   C4B 3229   2.970   1.551   5.905  0.4389  0.2212 -0.2178
  239POPC   NC3 3230   2.695   7.844   4.257 -0.1530  0.3246  0.0950
  239POPC   PO4 3231   2.648   8.176   4.230  0.0878 -0.5583 -0.2817
  239POPC   GL1 3232   2.527   8.469   4.507  0.2309 -0.0902  0.1142
  239POPC   GL2 3233   2.718   8.763   4.593 -0.1110  0.3376 -0.2847
  239POPC   C1A 3234   2.416   8.505   4.987  0.3446  0.1215  0.0032
  239POPC   D2A 3235   2.496   8.301   5.530  0.2040 -0.4074 -0.0369
  239POPC   C3A 3236   2.242   7.929   5.461  0.1248  0.1417 -0.0768
  239POPC   C4A 3237   1.899   7.788   5.832  0.1343 -0.0219 -0.0257
  239POPC   C1B 3238   2.889   8.985   5.016 -0.1940  0.0610 -0.2035
  239POPC   C2B 3239   2.939   9.174   5.464 -0.0224  0.1917 -0.0017
  239POPC   C3B 3240   3.116   9.224   5.832 -0.0139 -0.1144  0.0323
  239POPC   C4B 3241   3.363   9.481   6.062 -0.0077 -0.1374 -0.1822
  240POPC   NC3 3242   4.597   9.590   3.921  0.2964  0.1885 -0.0987
  240POPC   PO4 3243   4.316   9.273   3.956 -0.0545 -0.0670  0.3156
  240POPC   GL1 3244   4.569   9.188   4.321  0.0667 -0.0825 -0.0974
  240POPC   GL2 3245   4.683   8.815   4.495 -0.1235 -0.1780  0.4558
  240POPC   C1A 3246   4.494   9.321   4.775 -0.1500 -0.0849  0.3250
  240POPC   D2A 3247   4.421   9.308   5.175  0.0554 -0.2065 -0.0859
  240POPC   C3A 3248   4.118   9.287   5.461  0.0719  0.3247  0.2527
  240POPC   C4A 3249   3.697   9.449   5.402  0.0842 -0.1476 -0.0036
  240POPC   C1B 3250   4.694   8.877   4.943 -0.1171  0.3359 -0.2596
  240POPC   C2B 3251   4.736   8.881   5.313  0.0790 -0.0704 -0.0082
  240POPC   C3B 3252   4.558   9.102   5.624  0.1146  0.1576 -0.0222
  240POPC   C4B 3253   4.289   9.072   5.933 -0.0105  0.1525  0.1508
  241POPC   NC3 3254   2.662   9.206   4.359  0.2808 -0.1647 -0.0806
  241POPC   PO4 3255   2.541   8.789   4.110  0.2081 -0.2788 -0.0143
  241POPC   GL1 3256   2.227   8.961   4.499  0.0077  0.0213 -0.3546
  241POPC   GL2 3257   2.359   9.166   4.768 -0.1522 -0.1074  0.0437
  241POPC   C1A 3258   2.054   8.765   4.850  0.0616 -0.2396 -0.0806
  241POPC   D2A 3259   1.860   8.417   4.932  0.0365 -0.0328 -0.3942
  241POPC   C3A 3260   2.130   8.062   5.037 -0.0066  0.1450 -0.3572
  241POPC   C4A 3261   2.676   8.108   5.081  0.0824  0.2790 -0.2717
  241POPC   C1B 3262   2.223   9.207   5.126  0.0927  0.1075 -0.1296
  241POPC   C2B 3263   2.003   9.536   5.373 -0.2323  0.2001 -0.0165
  241POPC   C3B 3264   1.789   9.508   5.616 -0.4978  0.1186 -0.4338
  241POPC   C4B 3265   1.461   9.631   6.001 -0.0033  0.0080  0.1880
  242POPC   NC3 3266   4.554   5.532   4.316 -0.6979 -0.0630 -0.1412
  242POPC   PO4 3267   4.201   5.787   4.459 -0.2682  0.1475  0.0701
  242POPC   GL1 3268   4.373   5.751   4.748 -0.0378  0.2892 -0.0002
  242POPC   GL2 3269   4.348   5.542   4.999 -0.3176 -0.1594  0.3199
  242POPC   C1A 3270   4.274   6.030   5.199 -0.1088  0.0938  0.0292
  242POPC   D2A 3271   4.423   6.307   5.359 -0.1433 -0.1471  0.2712
  242POPC   C3A 3272   4.607   6.307   5.807 -0.1073 -0.1140 -0.0668
  242POPC   C4A 3273   4.859   6.426   6.256  0.0044  0.3663  0.0749
  242POPC   C1B 3274   4.249   5.536   5.347  0.0891  0.1096  0.0521
  242POPC   C2B 3275   4.259   5.868   5.652  0.3936 -0.0913  0.0955
  242POPC   C3B 3276   4.184   5.760   6.003  0.0014 -0.3845 -0.0475
  242POPC   C4B 3277   4.105   5.461   6.270 -0.1036  0.2355 -0.0130
  243POPC   NC3 3278   0.389   6.838   4.185  0.1591 -0.2681 -0.0897
  243POPC   PO4 3279   0.348   6.443   4.438 -0.0510 -0.0741 -0.2251
  243POPC   GL1 3280   0.068   6.524   4.893  0.0710  0.2404  0.0813
  243POPC   GL2 3281   0.075   6.310   5.019 -0.2298  0.4271 -0.0319
  243POPC   C1A 3282  -0.132   6.697   5.344 -0.1763 -0.2753  0.3785
  243POPC   D2A 3283  -0.365   6.603   5.703 -0.2827 -0.0996 -0.1079
  243POPC   C3A 3284  -0.606   6.942   5.907  0.0065 -0.2008  0.0109
  243POPC   C4A 3285  -0.916   6.905   6.134 -0.1898 -0.0920 -0.4050
  243POPC   C1B 3286   0.051   6.324   5.575 -0.1659  0.2893 -0.2064
  243POPC   C2B 3287  -0.064   6.331   6.021 -0.1018 -0.1630  0.3893
  243POPC   C3B 3288  -0.114   6.389   6.444  0.2429  0.0142 -0.1489
  243POPC   C4B 3289  -0.274   6.446   6.827 -0.0781  0.2386  0.0219
  244POPC   NC3 3290   9.509   3.393   4.131 -0.3450 -0.0735  0.0931
  244POPC   PO4 3291   9.907   3.483   4.120 -0.2012 -0.0311 -0.0069
  244POPC   GL1 3292   9.859   3.731   4.490  0.0019  0.3195  0.3714
  244POPC   GL2 3293   9.989   3.505   4.676  0.0716  0.0069 -0.0355
  244POPC   C1A 3294  10.043   3.967   4.828  0.1877 -0.1139 -0.3982
  244POPC   D2A 3295   9.952   4.401   4.947  0.1037  0.1470  0.1096
  244POPC   C3A 3296  10.129   4.687   5.325  0.1184  0.1799 -0.1822
  244POPC   C4A 3297  10.333   4.962   5.467 -0.0973  0.0136 -0.1539
  244POPC   C1B 3298   9.775   3.607   5.034 -0.1274 -0.1869 -0.3674
  244POPC   C2B 3299   9.786   3.762   5.405  0.1664  0.0392  0.1782
  244POPC   C3B 3300   9.706   3.703   5.804  0.2502 -0.0366  0.0944
  244POPC   C4B 3301   9.604   3.591   6.269  0.1549 -0.1656  0.2928
  245POPC   NC3 3302   5.008   7.464   4.396  0.1084  0.5579 -0.1223
  245POPC   PO4 3303   5.328   7.059   4.273 -0.0520  0.0756  0.2936
  245POPC   GL1 3304   5.194   6.940   4.623  0.0991  0.0268 -0.1912
  245POPC   GL2 3305   5.066   6.688   4.702  0.2365  0.0526  0.0811
  245POPC   C1A 3306   4.817   7.129   4.943  0.0174  0.0204  0.0029
  245POPC   D2A 3307   4.450   7.400   5.035 -0.0425 -0.1788  0.0262
  245POPC   C3A 3308   4.081   7.618   4.880  0.0504 -0.0592 -0.0661
  245POPC   C4A 3309   3.743   7.890   4.782  0.1584  0.0007 -0.1486
  245POPC   C1B 3310   4.820   6.675   5.134  0.2403  0.1682 -0.1419
  245POPC   C2B 3311   4.874   6.674   5.596  0.0457 -0.1336 -0.0643
  245POPC   C3B 3312   5.083   6.821   5.904 -0.1462  0.2929 -0.0366
  245POPC   C4B 3313   4.939   6.921   6.369  0.4250  0.1546  0.0659
  246POPC   NC3 3314   4.631   3.220   3.823  0.1230  0.0683 -0.2016
  246POPC   PO4 3315   5.142   3.203   3.734 -0.1581 -0.0927 -0.2387
  246POPC   GL1 3316   5.413   2.912   3.890 -0.0315  0.1026 -0.2882
  246POPC   GL2 3317   5.276   2.655   4.025  0.0112  0.1139  0.0372
  246POPC   C1A 3318   5.772   2.655   4.148 -0.1788  0.1061  0.0806
  246POPC   D2A 3319   6.044   2.702   4.286  0.1766 -0.0539  0.0434
  246POPC   C3A 3320   6.277   2.354   4.460  0.2258 -0.1698 -0.4072
  246POPC   C4A 3321   6.375   1.971   4.777  0.3337 -0.2962 -0.0794
  246POPC   C1B 3322   5.385   2.685   4.426  0.0757 -0.1395  0.2063
  246POPC   C2B 3323   5.674   2.648   4.709  0.0350  0.0384 -0.0794
  246POPC   C3B 3324   6.119   2.696   4.842 -0.1695 -0.0804 -0.0219
  246POPC   C4B 3325   6.433   2.769   5.101 -0.1306 -0.0186 -0.1141
  247POPC   NC3 3326   0.570   9.328   3.984 -0.1316  0.1810  0.1638
  247POPC   PO4 3327   0.790   9.352   4.415  0.0771  0.3390 -0.0103
  247POPC   GL1 3328   0.680   9.318   4.864  0.3560 -0.2203 -0.0658
  247POPC   GL2 3329   0.520   9.029   4.893 -0.0364  0.0242  0.1135
  247POPC   C1A 3330   0.976   9.245   5.264  0.0102  0.0039 -0.2387
  247POPC   D2A 3331   1.091   9.029   5.509 -0.2197 -0.0655  0.1294
  247POPC   C3A 3332   1.358   9.213   5.727  0.1556  0.0825 -0.1321
  247POPC   C4A 3333   1.598   9.179   6.038  0.3016  0.1957  0.2329
  247POPC   C1B 3334   0.530   9.020   5.345 -0.2431  0.2474  0.0307
  247POPC   C2B 3335   0.260   9.136   5.661  0.0114  0.1123  0.2309
  247POPC   C3B 3336  -0.057   8.763   5.896 -0.1978  0.0243  0.1831
  247POPC   C4B 3337  -0.443   8.558   6.115  0.1163  0.2731  0.0746
  248POPC   NC3 3338   3.955   1.883   3.542  0.0002 -0.1461  0.0600
  248POPC   PO4 3339   4.448   1.890   3.504  0.0019 -0.1278 -0.0407
  248POPC   GL1 3340   4.457   2.114   3.769  0.0579  0.1610 -0.4709
  248POPC   GL2 3341   4.316   1.857   4.034 -0.1552  0.1224 -0.0568
  248POPC   C1A 3342   4.579   2.376   4.019 -0.0265  0.0552  0.0759
  248POPC   D2A 3343   4.801   2.576   4.360 -0.0472  0.0761  0.1662
  248POPC   C3A 3344   5.112   2.346   4.568 -0.1047  0.1950 -0.2302
  248POPC   C4A 3345   5.358   2.153   4.812  0.2078  0.3729 -0.0777
  248POPC   C1B 3346   4.477   1.541   4.236  0.1384 -0.2111  0.0766
  248POPC   C2B 3347   4.724   1.275   4.377  0.0414  0.4382 -0.1523
  248POPC   C3B 3348   4.794   0.865   4.466 -0.3106  0.2543 -0.0310
  248POPC   C4B 3349   4.661   0.518   4.642  0.1963 -0.1606  0.2236
  249POPC   NC3 3350   2.467   4.873   4.417 -0.0593 -0.0188 -0.0180
  249POPC   PO4 3351   2.744   5.106   4.396 -0.1815 -0.0026  0.1037
  249POPC   GL1 3352   2.656   5.137   4.861  0.1028 -0.4102 -0.0578
  249POPC   GL2 3353   2.703   4.858   4.895 -0.0415  0.0096 -0.2357
  249POPC   C1A 3354   2.634   5.256   5.280  0.0829 -0.2146 -0.0992
  249POPC   D2A 3355   2.790   5.328   5.655 -0.0126 -0.1051 -0.0641
  249POPC   C3A 3356   2.657   5.233   6.091 -0.3287  0.3164  0.2995
  249POPC   C4A 3357   2.296   5.132   6.139  0.0286 -0.1871 -0.0450
  249POPC   C1B 3358   2.959   4.840   5.281 -0.2671  0.3049  0.1429
  249POPC   C2B 3359   3.113   4.822   5.646  0.0856  0.2368  0.1006
  249POPC   C3B 3360   3.386   4.712   5.912  0.2721  0.0892  0.0199
  249POPC   C4B 3361   3.556   4.563   6.257 -0.0211 -0.0542 -0.0003
  250POPC   NC3 3362   6.573   1.186   3.808  0.3085 -0.1070 -0.0388
  250POPC   PO4 3363   6.922   1.106   4.022 -0.3848  0.1092 -0.1361
  250POPC   GL1 3364   7.278   1.090   4.323  0.2340 -0.0854  0.2082
  250POPC   GL2 3365   7.428   1.430   4.431 -0.1275  0.0829  0.0559
  250POPC   C1A 3366   7.382   0.786   4.666  0.0051  0.2532  0.0024
  250POPC   D2A 3367   7.671   0.615   4.942  0.2755 -0.1687  0.0575
  250POPC   C3A 3368   7.568   0.258   5.265 -0.0810 -0.1951  0.0250
  250POPC   C4A 3369   7.514   0.061   5.531  0.1829 -0.2215 -0.0203
  250POPC   C1B 3370   7.684   1.492   4.824 -0.0499  0.1777  0.1400
  250POPC   C2B 3371   7.684   1.446   5.248  0.0345  0.0190 -0.1507
  250POPC   C3B 3372   7.450   1.341   5.687  0.0444  0.0007  0.1654
  250POPC   C4B 3373   7.288   0.969   5.868  0.2521  0.2022  0.0747
  251POPC   NC3 3374   2.121   1.793   4.416 -0.2173 -0.1267 -0.1695
  251POPC   PO4 3375   1.940   2.245   4.385  0.0642 -0.0388  0.2469
  251POPC   GL1 3376   2.056   2.094   4.796 -0.0174 -0.0201  0.0385
  251POPC   GL2 3377   2.042   1.749   4.911 -0.2979  0.1343  0.2213
  251POPC   C1A 3378   1.770   2.140   5.088  0.2835 -0.1529  0.1198
  251POPC   D2A 3379   1.722   2.144   5.521  0.0009 -0.0421 -0.1458
  251POPC   C3A 3380   1.341   2.047   5.672  0.2333  0.1187 -0.2383
  251POPC   C4A 3381   0.886   2.096   5.821  0.0758 -0.0076  0.1913
  251POPC   C1B 3382   1.996   1.663   5.317 -0.1149 -0.0933 -0.1317
  251POPC   C2B 3383   2.181   1.801   5.690  0.0838  0.0431  0.0996
  251POPC   C3B 3384   2.241   1.723   6.069 -0.5028 -0.0420 -0.0213
  251POPC   C4B 3385   2.612   1.574   6.389  0.2637 -0.2708  0.4056
  252POPC   NC3 3386   2.775   2.417   3.987  0.1418  0.0259  0.0427
  252POPC   PO4 3387   2.946   2.872   3.996 -0.0308  0.0830  0.2796
  252POPC   GL1 3388   3.028   2.775   4.458  0.1023 -0.2806 -0.0400
  252POPC   GL2 3389   3.222   2.883   4.580 -0.0348 -0.1708  0.1434
  252POPC   C1A 3390   2.856   2.603   4.805  0.3117  0.0155 -0.2247
  252POPC   D2A 3391   3.046   2.345   5.182  0.1026 -0.0024  0.0101
  252POPC   C3A 3392   3.204   2.331   5.541 -0.1117 -0.1417 -0.2391
  252POPC   C4A 3393   3.120   2.172   5.941 -0.2145  0.2192  0.3492
  252POPC   C1B 3394   3.427   3.052   4.972 -0.0591  0.0580  0.1409
  252POPC   C2B 3395   3.446   3.314   5.332  0.1294 -0.0049  0.0542
  252POPC   C3B 3396   3.129   3.458   5.663  0.0291  0.1272  0.2371
  252POPC   C4B 3397   3.085   3.521   6.054 -0.1888 -0.1235  0.0467
  253POPC   NC3 3398   5.881   1.330   3.473  0.1116 -0.1478  0.0994
  253POPC   PO4 3399   6.051   1.381   3.816  0.3342 -0.0898  0.2057
  253POPC   GL1 3400   6.131   1.217   4.153 -0.1015  0.1952 -0.5323
  253POPC   GL2 3401   6.396   1.233   4.283  0.3187  0.1573  0.2320
  253POPC   C1A 3402   6.030   1.228   4.623  0.1390  0.1126  0.0268
  253POPC   D2A 3403   5.830   1.326   5.023 -0.0093  0.4340  0.1773
  253POPC   C3A 3404   5.877   0.991   5.168  0.2731  0.2563 -0.1856
  253POPC   C4A 3405   6.070   0.648   5.269 -0.0838 -0.1031  0.1804
  253POPC   C1B 3406   6.626   1.345   4.584 -0.0848 -0.0467 -0.1573
  253POPC   C2B 3407   7.065   1.335   4.674  0.0417  0.0031 -0.1351
  253POPC   C3B 3408   7.277   1.182   4.981  0.0741 -0.0946 -0.2272
  253POPC   C4B 3409   7.460   0.988   5.282  0.0828  0.2413  0.0122
  254POPC   NC3 3410   3.754   0.217   4.055  0.0644  0.1654 -0.3171
  254POPC   PO4 3411   4.217   0.138   3.960 -0.0780 -0.1059 -0.1998
  254POPC   GL1 3412   4.176   0.074   4.340  0.2222  0.0979  0.2028
  254POPC   GL2 3413   3.912   0.120   4.550 -0.0544 -0.0743 -0.0538
  254POPC   C1A 3414   4.522   0.028   4.618  0.0869  0.1004  0.0911
  254POPC   D2A 3415   4.925  -0.148   4.852 -0.0108 -0.0141 -0.1369
  254POPC   C3A 3416   4.892  -0.312   5.256 -0.0216  0.2053  0.1867
  254POPC   C4A 3417   4.641  -0.191   5.563 -0.2258  0.0330  0.1897
  254POPC   C1B 3418   4.138   0.347   4.884  0.0298  0.0680 -0.4066
  254POPC   C2B 3419   4.322   0.597   5.044 -0.1797 -0.0299  0.0104
  254POPC   C3B 3420   4.401   0.815   5.385  0.0507  0.1298  0.0808
  254POPC   C4B 3421   4.230   0.780   5.834  0.1961 -0.1348  0.1134
  255POPC   NC3 3422   7.032   4.707   4.041 -0.1226 -0.1544  0.4488
  255POPC   PO4 3423   7.419   4.659   4.143 -0.0477  0.3336  0.1738
  255POPC   GL1 3424   7.100   4.612   4.531 -0.2381 -0.2192  0.1402
  255POPC   GL2 3425   6.849   4.806   4.568 -0.3103 -0.0608  0.1693
  255POPC   C1A 3426   6.995   4.246   4.845 -0.1255  0.1419 -0.0614
  255POPC   D2A 3427   6.735   4.193   5.267 -0.0122 -0.0030 -0.0434
  255POPC   C3A 3428   6.846   4.416   5.532 -0.0864 -0.2871  0.1055
  255POPC   C4A 3429   6.828   4.413   5.951  0.0600 -0.2063  0.2483
  255POPC   C1B 3430   6.781   4.677   5.002  0.0068 -0.0816 -0.1384
  255POPC   C2B 3431   6.444   4.593   5.289 -0.0636 -0.0094 -0.0400
  255POPC   C3B 3432   6.346   4.662   5.668  0.2896 -0.2384 -0.0008
  255POPC   C4B 3433   6.382   4.691   6.130 -0.2970  0.0973 -0.2821
  256POPC   NC3 3434   2.120   8.529   4.219 -0.0080  0.1606  0.1012
  256POPC   PO4 3435   1.944   8.216   4.502  0.3518 -0.0141 -0.1488
  256POPC   GL1 3436   1.856   7.839   4.676  0.1982  0.3955 -0.0867
  256POPC   GL2 3437   1.597   7.908   4.958  0.6180  0.0404 -0.2249
  256POPC   C1A 3438   1.945   7.585   5.071  0.0379 -0.3163 -0.2039
  256POPC   D2A 3439   1.916   7.289   5.501 -0.1253 -0.0089  0.2560
  256POPC   C3A 3440   1.588   7.055   5.654  0.2224 -0.1249  0.0770
  256POPC   C4A 3441   1.555   6.681   5.857  0.1125 -0.0058  0.0257
  256POPC   C1B 3442   1.697   7.926   5.354  0.1530  0.0794  0.3034
  256POPC   C2B 3443   1.914   8.269   5.512 -0.1317 -0.2593 -0.1821
  256POPC   C3B 3444   2.129   8.620   5.335  0.0085 -0.0913 -0.1890
  256POPC   C4B 3445   2.524   8.883   5.403  0.0118 -0.0506 -0.1037
  257POPC   NC3 3446   7.669   5.370   4.529 -0.0090 -0.0333 -0.3647
  257POPC   PO4 3447   7.373   5.549   4.504 -0.3983  0.0774  0.1239
  257POPC   GL1 3448   7.235   5.658   4.880 -0.1351 -0.1973 -0.3857
  257POPC   GL2 3449   7.221   5.988   4.858 -0.2051 -0.0552 -0.1217
  257POPC   C1A 3450   7.022   5.722   5.307 -0.0482 -0.1297  0.0610
  257POPC   D2A 3451   6.822   5.509   5.596 -0.2024  0.1724  0.0093
  257POPC   C3A 3452   7.032   5.339   6.001 -0.4792 -0.2772  0.0119
  257POPC   C4A 3453   7.193   4.976   6.115  0.0769 -0.3418  0.2000
  257POPC   C1B 3454   7.114   6.249   5.291 -0.2879  0.0052 -0.3275
  257POPC   C2B 3455   6.966   6.220   5.664  0.3570  0.4268  0.1121
  257POPC   C3B 3456   7.145   6.456   5.987 -0.2428 -0.2289 -0.0560
  257POPC   C4B 3457   7.040   6.749   6.304  0.4021  0.1203 -0.1156
  258POPC   NC3 3458   9.197   2.403   3.882  0.1978 -0.1022  0.0948
  258POPC   PO4 3459   8.957   2.093   4.034  0.2272  0.3370 -0.1938
  258POPC   GL1 3460   8.928   2.133   4.508  0.3667  0.2467  0.0841
  258POPC   GL2 3461   8.597   2.235   4.769 -0.3898 -0.0069 -0.2251
  258POPC   C1A 3462   9.065   2.022   4.888  0.0800  0.1108 -0.1319
  258POPC   D2A 3463   9.171   1.975   5.362  0.2031  0.2456  0.1486
  258POPC   C3A 3464   9.272   2.200   5.800  0.1643 -0.4085 -0.1567
  258POPC   C4A 3465   9.008   2.205   6.142 -0.1795  0.0343  0.2099
  258POPC   C1B 3466   8.574   2.069   5.204  0.1512 -0.1674  0.1455
  258POPC   C2B 3467   8.610   2.116   5.572  0.1503 -0.0595 -0.1154
  258POPC   C3B 3468   8.616   2.312   5.860 -0.3791 -0.1892 -0.2141
  258POPC   C4B 3469   8.402   2.483   6.151 -0.0293  0.1760  0.1059
  259POPC   NC3 3470   2.307   0.265   4.112  0.1528 -0.1725 -0.1896
  259POPC   PO4 3471   2.447  -0.093   4.325 -0.4383 -0.0321  0.1632
  259POPC   GL1 3472   2.741  -0.178   4.714 -0.0413 -0.1675  0.1881
  259POPC   GL2 3473   2.793   0.028   4.790  0.0255  0.2095 -0.2411
  259POPC   C1A 3474   2.631  -0.292   5.100  0.1251 -0.0274  0.1836
  259POPC   D2A 3475   2.675  -0.178   5.558  0.0051  0.0562 -0.4154
  259POPC   C3A 3476   2.542  -0.555   5.765 -0.0351  0.0075  0.0777
  259POPC   C4A 3477   2.789  -0.928   5.858  0.1906 -0.2564 -0.0407
  259POPC   C1B 3478   3.139   0.165   5.081  0.2789  0.1905 -0.0085
  259POPC   C2B 3479   3.427   0.397   5.323  0.2586 -0.0277 -0.1054
  259POPC   C3B 3480   3.331   0.539   5.710 -0.0954 -0.1504  0.3524
  259POPC   C4B 3481   3.302   0.482   6.191 -0.0256 -0.2903 -0.1639
  260POPC   NC3 3482   4.951   4.763   4.215  0.0778 -0.0284  0.0924
  260POPC   PO4 3483   4.835   4.405   3.944  0.1541 -0.0398  0.0508
  260POPC   GL1 3484   4.941   4.201   4.311 -0.0286 -0.1374  0.0044
  260POPC   GL2 3485   4.830   3.867   4.410 -0.1800 -0.1300 -0.0156
  260POPC   C1A 3486   4.984   4.363   4.721  0.1630  0.3107  0.0605
  260POPC   D2A 3487   4.904   4.249   5.196 -0.2857  0.0283 -0.3774
  260POPC   C3A 3488   4.651   3.895   5.352 -0.0671  0.1641  0.1270
  260POPC   C4A 3489   4.324   3.577   5.649  0.0926 -0.3695 -0.2412
  260POPC   C1B 3490   5.005   3.865   4.880 -0.2259 -0.1481 -0.1577
  260POPC   C2B 3491   5.298   3.684   5.271  0.1436  0.0448  0.4770
  260POPC   C3B 3492   5.618   3.352   5.405  0.2110  0.1319  0.0897
  260POPC   C4B 3493   5.810   3.231   5.773  0.0572 -0.1347 -0.2363
  261POPC   NC3 3494   1.473   8.302   4.667 -0.0336  0.2644  0.2478
  261POPC   PO4 3495   1.026   8.336   4.562  0.2279  0.0534 -0.2534
  261POPC   GL1 3496   0.859   8.507   4.917  0.2987 -0.1120 -0.2011
  261POPC   GL2 3497   0.992   8.820   5.054 -0.0602 -0.2920 -0.0842
  261POPC   C1A 3498   0.443   8.578   5.098  0.1200 -0.1267  0.1014
  261POPC   D2A 3499   0.045   8.778   5.033 -0.0466 -0.0319 -0.0501
  261POPC   C3A 3500  -0.199   8.836   5.354  0.2768  0.2002  0.0057
  261POPC   C4A 3501  -0.415   9.131   5.761 -0.0099  0.1569 -0.2671
  261POPC   C1B 3502   0.823   8.583   5.473  0.1361 -0.1958 -0.1459
  261POPC   C2B 3503   0.739   8.778   5.805 -0.1289  0.5842 -0.0036
  261POPC   C3B 3504   0.415   8.859   6.056  0.0059  0.0782  0.1611
  261POPC   C4B 3505   0.157   9.360   6.046  0.2758 -0.0500  0.0807
  262POPC   NC3 3506   1.250   1.499   4.319  0.1297 -0.0781 -0.0599
  262POPC   PO4 3507   0.892   1.369   4.104 -0.1763 -0.3701  0.0655
  262POPC   GL1 3508   0.535   1.410   4.428  0.1131  0.2622 -0.1287
  262POPC   GL2 3509   0.510   1.819   4.610  0.1661  0.0027  0.0521
  262POPC   C1A 3510   0.320   1.183   4.787  0.1285  0.0367 -0.1078
  262POPC   D2A 3511   0.094   1.175   5.191 -0.1139 -0.0897 -0.0849
  262POPC   C3A 3512   0.010   0.889   5.550  0.1391  0.0470 -0.0742
  262POPC   C4A 3513  -0.178   0.895   5.922 -0.2006  0.1501  0.0876
  262POPC   C1B 3514   0.555   1.609   5.093  0.2719  0.0602  0.2273
  262POPC   C2B 3515   0.530   1.355   5.374  0.1007  0.1419 -0.0538
  262POPC   C3B 3516   0.554   1.081   5.701 -0.1562  0.3673 -0.2056
  262POPC   C4B 3517   0.404   0.688   5.862 -0.0981 -0.1046 -0.2697
  263POPC   NC3 3518   8.633   7.299   4.096 -0.0342 -0.0343  0.0345
  263POPC   PO4 3519   8.666   7.610   4.330  0.1041  0.2797  0.1388
  263POPC   GL1 3520   8.799   7.702   4.775  0.1315 -0.1004 -0.0216
  263POPC   GL2 3521   8.779   7.376   4.897  0.1819 -0.3007  0.2423
  263POPC   C1A 3522   9.013   7.873   5.155  0.3310 -0.1756 -0.0288
  263POPC   D2A 3523   9.063   8.090   5.628  0.1055  0.1837  0.2073
  263POPC   C3A 3524   9.022   7.710   5.880  0.2394 -0.0979  0.0520
  263POPC   C4A 3525   9.041   7.365   6.168  0.1005 -0.2629 -0.2115
  263POPC   C1B 3526   8.553   7.153   5.198  0.2505 -0.1182 -0.0464
  263POPC   C2B 3527   8.319   6.789   5.354 -0.3540 -0.2205 -0.0811
  263POPC   C3B 3528   8.097   6.514   5.157 -0.0054  0.0082  0.2278
  263POPC   C4B 3529   7.957   6.209   4.917  0.2173 -0.1958  0.2669
  264POPC   NC3 3530   1.855   6.884   3.811  0.0196  0.3512  0.2943
  264POPC   PO4 3531   1.911   6.916   4.252 -0.2635  0.1703  0.1231
  264POPC   GL1 3532   1.968   6.977   4.711  0.0380 -0.3698 -0.2784
  264POPC   GL2 3533   1.841   6.720   4.826 -0.1663 -0.0426  0.0076
  264POPC   C1A 3534   1.740   7.154   5.097  0.1108  0.1903  0.0265
  264POPC   D2A 3535   1.463   7.482   5.265  0.1157  0.1294  0.2465
  264POPC   C3A 3536   1.449   7.592   5.653  0.5342  0.2048  0.1252
  264POPC   C4A 3537   1.660   7.417   5.998  0.0516 -0.3381 -0.0673
  264POPC   C1B 3538   1.914   6.710   5.399 -0.0708 -0.2639 -0.0018
  264POPC   C2B 3539   2.055   6.788   5.849  0.2995 -0.1692  0.0400
  264POPC   C3B 3540   2.362   7.053   6.087  0.0642 -0.1000  0.1228
  264POPC   C4B 3541   2.642   7.359   6.281 -0.0341 -0.1260  0.0845
  265POPC   NC3 3542   7.661   2.566   3.737 -0.2244 -0.0466  0.0040
  265POPC   PO4 3543   7.576   2.217   4.089 -0.3003  0.3462 -0.2325
  265POPC   GL1 3544   7.712   2.009   4.539 -0.0444  0.4348 -0.0188
  265POPC   GL2 3545   8.048   2.065   4.550 -0.2286 -0.1507 -0.0432
  265POPC   C1A 3546   7.686   1.941   4.962 -0.1432 -0.0262 -0.1496
  265POPC   D2A 3547   7.477   1.856   5.451 -0.3271 -0.0778  0.0335
  265POPC   C3A 3548   7.033   1.661   5.415 -0.2975  0.0159  0.0553
  265POPC   C4A 3549   6.804   1.414   5.085 -0.2488 -0.0804 -0.0534
  265POPC   C1B 3550   8.096   2.239   4.960 -0.3094 -0.2712  0.0043
  265POPC   C2B 3551   8.170   2.379   5.426 -0.0095  0.2114  0.0877
  265POPC   C3B 3552   8.248   2.619   5.728 -0.0666 -0.0288  0.4672
  265POPC   C4B 3553   8.201   3.016   5.765 -0.0830  0.2043 -0.0305
  266POPC   NC3 3554   3.719   5.603   4.437  0.0341 -0.1338 -0.0978
  266POPC   PO4 3555   3.816   6.093   4.610 -0.0818  0.2540 -0.4085
  266POPC   GL1 3556   3.785   5.897   4.935  0.0527  0.2490  0.0691
  266POPC   GL2 3557   3.506   5.697   5.045  0.0197  0.2454 -0.4852
  266POPC   C1A 3558   3.805   5.946   5.372  0.2097 -0.0439  0.1111
  266POPC   D2A 3559   3.700   5.977   5.837 -0.2411  0.2198 -0.2289
  266POPC   C3A 3560   3.534   6.302   6.105 -0.0366  0.2516 -0.1301
  266POPC   C4A 3561   3.210   6.491   6.315  0.3272 -0.0381 -0.0638
  266POPC   C1B 3562   3.334   5.806   5.547  0.2346  0.0687  0.1103
  266POPC   C2B 3563   3.167   5.977   6.013 -0.0594 -0.1352 -0.1328
  266POPC   C3B 3564   3.333   5.959   6.375  0.0654 -0.0270  0.1928
  266POPC   C4B 3565   3.389   5.665   6.794 -0.0619 -0.1351 -0.1641
  267POPC   NC3 3566   8.608   3.345   4.388  0.0536 -0.0552 -0.1179
  267POPC   PO4 3567   8.183   3.470   4.546  0.0304  0.1789  0.1132
  267POPC   GL1 3568   7.822   3.441   4.819 -0.1038 -0.1861 -0.2962
  267POPC   GL2 3569   7.549   3.230   4.751  0.3688  0.0201 -0.0340
  267POPC   C1A 3570   7.594   3.559   5.125 -0.0195  0.0332 -0.1010
  267POPC   D2A 3571   7.610   3.767   5.513  0.0139  0.0902 -0.1851
  267POPC   C3A 3572   7.863   3.809   5.953  0.0790  0.1822 -0.1873
  267POPC   C4A 3573   7.609   3.891   6.294 -0.0462  0.2106  0.3112
  267POPC   C1B 3574   7.553   3.018   5.079  0.2079 -0.2475 -0.2786
  267POPC   C2B 3575   7.900   2.827   5.384 -0.2976 -0.0362  0.3960
  267POPC   C3B 3576   7.774   2.772   5.859  0.0602  0.0270  0.0877
  267POPC   C4B 3577   7.990   2.761   6.238  0.0153  0.1455  0.0195
  268POPC   NC3 3578   7.910   6.977   3.799  0.2484  0.0734 -0.0462
  268POPC   PO4 3579   8.080   7.324   3.898  0.0596 -0.0375  0.0487
  268POPC   GL1 3580   8.176   7.105   4.290 -0.1512 -0.1193 -0.0336
  268POPC   GL2 3581   8.275   7.283   4.599 -0.0062  0.2919 -0.1170
  268POPC   C1A 3582   7.816   7.170   4.487 -0.0295 -0.0932  0.0620
  268POPC   D2A 3583   7.744   7.498   4.783  0.0137 -0.0204  0.0723
  268POPC   C3A 3584   7.687   7.468   5.208  0.2796  0.3367 -0.3334
  268POPC   C4A 3585   7.367   7.642   5.549 -0.1270 -0.1799 -0.2789
  268POPC   C1B 3586   8.202   7.493   5.029 -0.1454  0.1984 -0.1585
  268POPC   C2B 3587   8.178   7.743   5.433 -0.0855 -0.0544 -0.0033
  268POPC   C3B 3588   8.010   7.660   5.760  0.2182  0.1677 -0.1421
  268POPC   C4B 3589   7.710   7.283   5.689  0.2128 -0.0613  0.1396
  269POPC   NC3 3590   7.684   3.528   4.351 -0.3133  0.1556  0.1343
  269POPC   PO4 3591   7.969   3.745   4.128  0.1279 -0.2953 -0.2094
  269POPC   GL1 3592   7.900   3.880   4.603  0.1673 -0.1620  0.1696
  269POPC   GL2 3593   8.158   3.936   4.652 -0.0643 -0.0387 -0.3364
  269POPC   C1A 3594   7.741   4.051   4.895 -0.2087  0.2886 -0.0293
  269POPC   D2A 3595   7.494   4.199   5.204 -0.0788 -0.0725  0.1012
  269POPC   C3A 3596   7.276   4.574   5.251 -0.0117  0.4344  0.2666
  269POPC   C4A 3597   7.235   4.871   4.967 -0.0078  0.1483  0.0473
  269POPC   C1B 3598   8.194   3.792   5.128  0.0171 -0.0793 -0.1476
  269POPC   C2B 3599   8.286   3.997   5.555 -0.2755  0.0670 -0.1666
  269POPC   C3B 3600   8.329   4.011   6.009  0.3165 -0.0270 -0.3553
  269POPC   C4B 3601   8.640   3.939   6.443 -0.0135  0.0751 -0.0251
  270POPC   NC3 3602   2.288   4.223   4.528 -0.1069 -0.0394  0.0776
  270POPC   PO4 3603   2.058   3.789   4.554 -0.0104  0.1750 -0.0707
  270POPC   GL1 3604   1.814   3.986   4.969 -0.2649 -0.0547  0.0274
  270POPC   GL2 3605   1.522   3.940   4.981  0.0796  0.0429 -0.2396
  270POPC   C1A 3606   1.792   4.128   5.420 -0.0386 -0.0856  0.1916
  270POPC   D2A 3607   1.838   4.026   5.721  0.0806 -0.2097 -0.2475
  270POPC   C3A 3608   2.082   4.088   6.148  0.1080  0.3253  0.1518
  270POPC   C4A 3609   2.465   4.125   6.434  0.0762 -0.0767 -0.0935
  270POPC   C1B 3610   1.442   3.802   5.428  0.2422 -0.0314  0.0423
  270POPC   C2B 3611   1.366   3.911   5.892  0.2383  0.1076 -0.1087
  270POPC   C3B 3612   1.291   4.124   6.268  0.0719 -0.1384 -0.2483
  270POPC   C4B 3613   1.245   4.323   6.582  0.0680  0.0847  0.0440
  271POPC   NC3 3614   1.977   5.095   4.182 -0.2722 -0.2856  0.1579
  271POPC   PO4 3615   2.275   5.513   4.088 -0.0342 -0.1100 -0.0231
  271POPC   GL1 3616   2.243   5.503   4.505 -0.3689 -0.1361 -0.1276
  271POPC   GL2 3617   2.139   5.194   4.624  0.0218 -0.0352 -0.0055
  271POPC   C1A 3618   2.283   5.587   4.964 -0.2592 -0.2964 -0.1839
  271POPC   D2A 3619   2.508   5.756   5.056 -0.1767  0.1810 -0.0463
  271POPC   C3A 3620   2.652   6.151   5.206 -0.2560  0.3419  0.2024
  271POPC   C4A 3621   2.921   6.261   5.558  0.2923  0.1173  0.0089
  271POPC   C1B 3622   2.238   5.053   5.081  0.1743  0.1679 -0.3741
  271POPC   C2B 3623   2.235   5.005   5.526 -0.2628  0.1329  0.1853
  271POPC   C3B 3624   2.444   4.835   5.717  0.2360  0.0932  0.3895
  271POPC   C4B 3625   2.771   4.706   5.973  0.1036 -0.0750  0.0326
  272POPC   NC3 3626   3.533   7.130   3.667 -0.0844  0.0101  0.1427
  272POPC   PO4 3627   3.814   7.238   4.075 -0.3752  0.1329 -0.0736
  272POPC   GL1 3628   3.627   6.914   4.418 -0.0267 -0.2463 -0.1030
  272POPC   GL2 3629   3.877   6.672   4.671 -0.0356  0.2240 -0.2699
  272POPC   C1A 3630   3.412   6.901   4.768 -0.0576  0.1376 -0.3450
  272POPC   D2A 3631   3.295   6.806   5.264  0.0327 -0.0926 -0.2884
  272POPC   C3A 3632   2.917   7.072   5.496 -0.1059  0.0799 -0.0110
  272POPC   C4A 3633   2.421   7.027   5.603 -0.2562 -0.1792 -0.1182
  272POPC   C1B 3634   4.025   7.045   4.746  0.3420 -0.1458 -0.3782
  272POPC   C2B 3635   3.975   7.165   5.106 -0.0058 -0.0989  0.1270
  272POPC   C3B 3636   3.783   6.919   5.381 -0.4145 -0.3565 -0.0221
  272POPC   C4B 3637   3.921   6.801   5.834 -0.3783 -0.2930  0.0655
  273POPC   NC3 3638   5.125   8.761   4.277  0.0638 -0.0862  0.1947
  273POPC   PO4 3639   5.217   9.106   4.411 -0.3265  0.1883  0.5943
  273POPC   GL1 3640   5.150   9.115   4.787  0.4332  0.0179 -0.0178
  273POPC   GL2 3641   5.207   8.786   4.808 -0.0479  0.0501 -0.3192
  273POPC   C1A 3642   5.201   9.043   5.267 -0.1168 -0.0021  0.0013
  273POPC   D2A 3643   5.029   8.985   5.693  0.2504  0.1232  0.3704
  273POPC   C3A 3644   5.282   8.752   5.971 -0.0082 -0.0804  0.2197
  273POPC   C4A 3645   5.462   8.512   6.182 -0.2052  0.1008 -0.0387
  273POPC   C1B 3646   5.054   8.571   5.054 -0.1616 -0.0015 -0.0636
  273POPC   C2B 3647   5.215   8.372   5.408 -0.3229 -0.0864  0.2331
  273POPC   C3B 3648   4.804   8.276   5.749 -0.1077  0.3541 -0.1898
  273POPC   C4B 3649   4.516   8.230   6.184 -0.0041  0.0008 -0.1091
  274POPC   NC3 3650   4.446   4.099   3.991 -0.1025  0.1591 -0.4940
  274POPC   PO4 3651   4.414   3.737   3.764  0.0143  0.1987 -0.3416
  274POPC   GL1 3652   4.241   3.479   4.115 -0.0204 -0.2414 -0.0466
  274POPC   GL2 3653   4.539   3.439   4.287  0.2701  0.1861 -0.1059
  274POPC   C1A 3654   4.158   3.236   4.533 -0.2041 -0.1283 -0.0345
  274POPC   D2A 3655   3.895   3.261   4.973  0.0033  0.1323  0.0248
  274POPC   C3A 3656   3.873   2.976   5.358  0.2566  0.0755 -0.1415
  274POPC   C4A 3657   3.671   2.682   5.674  0.2606  0.2296  0.0833
  274POPC   C1B 3658   4.684   3.177   4.620 -0.0243 -0.0316 -0.4018
  274POPC   C2B 3659   4.806   2.764   4.827 -0.0230 -0.1522  0.2590
  274POPC   C3B 3660   5.115   2.540   5.058 -0.1486  0.1429  0.0977
  274POPC   C4B 3661   5.510   2.473   5.161  0.0366  0.1480 -0.2152
  275POPC   NC3 3662   6.278   6.117   3.788  0.1855 -0.0337  0.0052
  275POPC   PO4 3663   6.446   6.084   4.218 -0.1130 -0.0236 -0.0488
  275POPC   GL1 3664   6.618   6.043   4.659 -0.3507 -0.3178 -0.0570
  275POPC   GL2 3665   6.716   5.898   4.960  0.3474 -0.1680 -0.2582
  275POPC   C1A 3666   6.712   6.366   5.004 -0.0090  0.1466  0.5445
  275POPC   D2A 3667   6.544   6.253   5.393 -0.1647 -0.0756  0.3434
  275POPC   C3A 3668   6.738   6.613   5.556 -0.2818  0.0307  0.2342
  275POPC   C4A 3669   6.849   6.967   5.898 -0.0210  0.0042 -0.2730
  275POPC   C1B 3670   6.561   5.676   5.176  0.0904 -0.0706  0.2222
  275POPC   C2B 3671   6.484   5.829   5.624  0.1033 -0.1253  0.1287
  275POPC   C3B 3672   6.386   6.135   5.883  0.0102  0.0003 -0.3877
  275POPC   C4B 3673   6.621   6.459   6.038  0.0327 -0.0323 -0.1781
  276POPC   NC3 3674   2.450   7.427   4.474 -0.2204  0.1611 -0.1649
  276POPC   PO4 3675   2.445   7.379   4.850  0.2878  0.2575 -0.1261
  276POPC   GL1 3676   2.682   7.115   5.098  0.0884  0.0476 -0.3619
  276POPC   GL2 3677   3.134   7.168   5.081 -0.2842 -0.1797 -0.0984
  276POPC   C1A 3678   2.862   6.675   5.064  0.0733 -0.2261  0.0317
  276POPC   D2A 3679   3.166   6.334   5.168  0.2804 -0.2357  0.1697
  276POPC   C3A 3680   3.556   6.369   5.210 -0.0376  0.1990  0.2130
  276POPC   C4A 3681   3.509   6.528   5.674 -0.0021  0.0991  0.2828
  276POPC   C1B 3682   3.539   7.430   5.061  0.0211 -0.1233 -0.1169
  276POPC   C2B 3683   3.767   7.727   5.279  0.2198  0.1736  0.0563
  276POPC   C3B 3684   4.088   7.776   5.591  0.0090 -0.1158  0.2017
  276POPC   C4B 3685   4.326   8.095   5.666  0.1203 -0.0449 -0.2863
  277POPC   NC3 3686   2.163   2.401   3.937 -0.2166 -0.3780 -0.1068
  277POPC   PO4 3687   2.353   2.476   4.376  0.0545  0.2645 -0.3179
  277POPC   GL1 3688   2.293   2.514   4.820  0.0890  0.1863 -0.0723
  277POPC   GL2 3689   1.940   2.617   4.855  0.2582 -0.1233 -0.0393
  277POPC   C1A 3690   2.229   2.265   5.218  0.3417  0.1385 -0.1227
  277POPC   D2A 3691   2.223   2.294   5.669  0.1669 -0.0726 -0.2101
  277POPC   C3A 3692   1.875   2.485   5.862  0.1293  0.0416  0.1573
  277POPC   C4A 3693   1.668   2.692   6.156 -0.0976  0.1985  0.1955
  277POPC   C1B 3694   1.868   2.647   5.255  0.0124  0.0035 -0.3326
  277POPC   C2B 3695   2.113   2.803   5.497 -0.2149  0.0260  0.1250
  277POPC   C3B 3696   2.419   2.744   5.877  0.0351 -0.0796  0.0328
  277POPC   C4B 3697   2.857   2.658   6.108 -0.1211 -0.1429  0.1605
  278POPC   NC3 3698   6.655   0.015   3.630 -0.0664  0.0401  0.1054
  278POPC   PO4 3699   6.390  -0.168   3.969  0.3465 -0.1226 -0.2456
  278POPC   GL1 3700   6.474  -0.128   4.465  0.0023 -0.1348 -0.0176
  278POPC   GL2 3701   6.345  -0.370   4.637  0.2330  0.0906 -0.2214
  278POPC   C1A 3702   6.525   0.107   4.798 -0.1609  0.1911 -0.1523
  278POPC   D2A 3703   6.708   0.440   5.113 -0.1569  0.1321  0.2657
  278POPC   C3A 3704   6.486   0.456   5.499  0.0433 -0.0566 -0.0393
  278POPC   C4A 3705   6.098   0.139   5.724  0.3077  0.0589 -0.1594
  278POPC   C1B 3706   6.419  -0.501   5.000 -0.0352  0.1770 -0.0444
  278POPC   C2B 3707   6.524  -0.932   5.163 -0.0088 -0.0561 -0.1137
  278POPC   C3B 3708   6.793  -1.036   5.496  0.1853 -0.3020 -0.0149
  278POPC   C4B 3709   6.928  -1.126   5.919 -0.1194  0.2530 -0.0185
  279POPC   NC3 3710   8.434   4.733   4.162 -0.1167 -0.3423  0.3663
  279POPC   PO4 3711   8.552   4.286   4.064 -0.1888  0.0674 -0.0955
  279POPC   GL1 3712   8.628   4.136   4.515  0.1743 -0.0893 -0.1581
  279POPC   GL2 3713   8.526   4.356   4.622  0.1747  0.2667  0.1358
  279POPC   C1A 3714   8.595   3.911   4.897  0.0940  0.1987  0.2310
  279POPC   D2A 3715   8.773   3.732   5.308  0.0658  0.2154 -0.2538
  279POPC   C3A 3716   9.064   3.952   5.403  0.1135  0.1306 -0.0578
  279POPC   C4A 3717   9.371   4.231   5.567  0.0309  0.0403 -0.1327
  279POPC   C1B 3718   8.236   4.276   4.951  0.0046 -0.0070  0.3519
  279POPC   C2B 3719   7.971   4.306   5.313 -0.5516 -0.0953  0.0165
  279POPC   C3B 3720   7.708   4.272   5.704  0.2861  0.0757 -0.0645
  279POPC   C4B 3721   7.898   4.277   6.156 -0.0706  0.2147  0.0111
  280POPC   NC3 3722   3.316   0.983   3.696  0.2580  0.1286  0.1301
  280POPC   PO4 3723   3.577   0.560   3.680 -0.0804 -0.3302  0.0870
  280POPC   GL1 3724   3.465   0.675   4.121  0.3176 -0.2226  0.1150
  280POPC   GL2 3725   3.662   0.577   4.428  0.0537 -0.2872 -0.0601
  280POPC   C1A 3726   3.273   0.903   4.543  0.2241  0.1210  0.1082
  280POPC   D2A 3727   3.198   1.324   4.674 -0.0361 -0.0801 -0.0428
  280POPC   C3A 3728   2.993   1.229   4.912  0.0250  0.2407 -0.0882
  280POPC   C4A 3729   3.021   1.394   5.310 -0.2623  0.0385  0.0572
  280POPC   C1B 3730   3.670   0.546   4.903  0.1807  0.0824  0.0145
  280POPC   C2B 3731   3.845   0.705   5.210 -0.2159 -0.0616 -0.5139
  280POPC   C3B 3732   3.803   0.572   5.624 -0.2351  0.2348 -0.0777
  280POPC   C4B 3733   3.793   0.463   6.057  0.0163 -0.3160 -0.2038
  281POPC   NC3 3734   0.799   6.249   4.482 -0.0882 -0.4918 -0.0728
  281POPC   PO4 3735   0.947   5.891   4.293 -0.1121  0.1953 -0.0508
  281POPC   GL1 3736   0.885   5.567   4.617 -0.0362  0.4111 -0.4250
  281POPC   GL2 3737   1.165   5.534   4.820  0.1065  0.0592 -0.1018
  281POPC   C1A 3738   0.881   5.189   4.987  0.2400  0.1432 -0.0668
  281POPC   D2A 3739   1.062   5.048   5.326 -0.2861 -0.3239 -0.1440
  281POPC   C3A 3740   0.922   5.214   5.654  0.2503 -0.2889  0.3105
  281POPC   C4A 3741   0.991   5.506   5.937 -0.0977 -0.3028 -0.0465
  281POPC   C1B 3742   1.069   5.680   5.151  0.0891 -0.0459  0.0058
  281POPC   C2B 3743   1.185   5.831   5.518  0.1413  0.3198  0.3479
  281POPC   C3B 3744   1.347   5.846   5.996  0.2861  0.1604  0.0254
  281POPC   C4B 3745   1.546   5.953   6.430  0.4469  0.3214  0.1495
  282POPC   NC3 3746   4.090   2.404   3.665 -0.0163 -0.1495 -0.1989
  282POPC   PO4 3747   3.810   2.294   3.887 -0.2411 -0.2337  0.0126
  282POPC   GL1 3748   3.785   2.136   4.318  0.1104 -0.0213 -0.2482
  282POPC   GL2 3749   3.560   2.364   4.385 -0.0532  0.1762  0.4895
  282POPC   C1A 3750   3.671   1.781   4.625  0.2105 -0.0292 -0.2342
  282POPC   D2A 3751   3.533   1.561   5.001  0.1102 -0.0274 -0.3251
  282POPC   C3A 3752   3.542   1.446   5.344  0.2002  0.0513 -0.1290
  282POPC   C4A 3753   3.541   1.307   5.780  0.2464  0.0609  0.2432
  282POPC   C1B 3754   3.460   2.407   4.839 -0.0138  0.1011  0.2269
  282POPC   C2B 3755   3.495   2.605   5.178  0.1436 -0.0671 -0.0342
  282POPC   C3B 3756   3.269   2.864   5.461 -0.0285  0.0579 -0.1233
  282POPC   C4B 3757   2.868   2.980   5.696 -0.0563 -0.0177  0.1059
  283POPC   NC3 3758   0.306   2.682   4.265 -0.2538  0.0290 -0.1532
  283POPC   PO4 3759   0.471   3.087   4.233 -0.1305 -0.2484 -0.4769
  283POPC   GL1 3760   0.457   3.029   4.656  0.3212  0.0062  0.0384
  283POPC   GL2 3761   0.704   3.295   4.771  0.0374 -0.1239 -0.0272
  283POPC   C1A 3762   0.277   3.202   5.062 -0.0963  0.0880  0.3828
  283POPC   D2A 3763  -0.054   3.215   5.426 -0.1570 -0.0568  0.0479
  283POPC   C3A 3764  -0.387   2.978   5.356  0.1614  0.0562  0.0853
  283POPC   C4A 3765  -0.724   3.012   5.113  0.0809  0.0288 -0.3434
  283POPC   C1B 3766   0.892   3.220   5.218 -0.0924  0.3233  0.1984
  283POPC   C2B 3767   0.866   3.227   5.645 -0.0932 -0.1273  0.0954
  283POPC   C3B 3768   0.780   3.042   6.067  0.0875 -0.1437 -0.2751
  283POPC   C4B 3769   1.153   2.967   6.287  0.0399 -0.1686  0.3496
  284POPC   NC3 3770   9.433   6.991   4.343 -0.0272 -0.3465 -0.1576
  284POPC   PO4 3771   9.117   6.713   4.529  0.3206 -0.2260 -0.2330
  284POPC   GL1 3772   9.377   6.788   4.946 -0.2931 -0.1816  0.0949
  284POPC   GL2 3773   9.293   6.455   4.942 -0.1433 -0.0649 -0.1966
  284POPC   C1A 3774   9.150   6.893   5.406  0.3333  0.2365  0.0214
  284POPC   D2A 3775   8.790   6.738   5.459  0.2806  0.1990  0.1356
  284POPC   C3A 3776   8.867   6.329   5.794 -0.2858 -0.0155  0.0388
  284POPC   C4A 3777   8.800   5.908   5.906 -0.3387 -0.5292 -0.1671
  284POPC   C1B 3778   9.140   6.312   5.290  0.0339 -0.2168 -0.0950
  284POPC   C2B 3779   8.954   5.958   5.397  0.2174 -0.5927  0.2010
  284POPC   C3B 3780   8.837   5.464   5.552  0.5133 -0.1288  0.2991
  284POPC   C4B 3781   9.097   5.142   5.716 -0.2403 -0.0847  0.2153
  285POPC   NC3 3782   6.425   5.028   3.661 -0.0834  0.3659  0.0776
  285POPC   PO4 3783   6.099   4.786   3.875  0.1463  0.2138 -0.0287
  285POPC   GL1 3784   6.019   4.593   4.331 -0.1845 -0.1678 -0.0743
  285POPC   GL2 3785   6.302   4.516   4.483 -0.1187 -0.1526 -0.0380
  285POPC   C1A 3786   5.788   4.484   4.685  0.0104 -0.3693  0.0500
  285POPC   D2A 3787   5.395   4.482   4.953  0.4767  0.0041 -0.4488
  285POPC   C3A 3788   5.491   4.445   5.331  0.0730 -0.1180  0.1099
  285POPC   C4A 3789   5.394   4.193   5.676  0.1829  0.0923  0.0519
  285POPC   C1B 3790   6.199   4.645   4.901  0.2082  0.1374  0.0393
  285POPC   C2B 3791   6.007   4.434   5.136  0.0661 -0.1213 -0.0146
  285POPC   C3B 3792   5.903   4.285   5.573  0.1991 -0.1214  0.1212
  285POPC   C4B 3793   5.793   4.055   5.995 -0.0572 -0.0238 -0.1344
  286POPC   NC3 3794   6.465   7.019   4.056 -0.0028  0.3517  0.2735
  286POPC   PO4 3795   6.156   6.696   4.230 -0.1962  0.0903  0.1794
  286POPC   GL1 3796   5.896   6.803   4.591  0.0058 -0.0587  0.0687
  286POPC   GL2 3797   6.187   6.977   4.684  0.0691  0.0784  0.2632
  286POPC   C1A 3798   5.672   6.894   4.879 -0.2011 -0.1030  0.1840
  286POPC   D2A 3799   5.292   6.809   5.110  0.1757  0.0134  0.4843
  286POPC   C3A 3800   5.185   6.419   5.315 -0.3446  0.1944 -0.0698
  286POPC   C4A 3801   5.231   6.033   5.274  0.0126  0.0440  0.2493
  286POPC   C1B 3802   6.117   7.108   5.020  0.0104  0.0653  0.2266
  286POPC   C2B 3803   5.890   6.952   5.403 -0.1277  0.1529 -0.0772
  286POPC   C3B 3804   5.865   6.952   5.818  0.0398 -0.0645  0.3725
  286POPC   C4B 3805   5.534   6.727   6.148  0.5079 -0.2232 -0.2510
  287W        W 3806   1.852   8.664   0.523  0.1381  0.0217  0.1966
  288W        W 3807   5.065   2.374   2.715 -0.0718  0.2093  0.1124
  289W        W 3808   5.690   7.269  12.068  0.0413  0.2805  0.2727
  290W        W 3809   1.084   3.205   9.826 -0.0143 -0.1160 -0.0770
  291W        W 3810   2.586   1.650   9.789  0.3264 -0.0012 -0.2764
  292W        W 3811   1.218   2.612   1.624  0.0599 -0.1117 -0.1043
  293W        W 3812   6.331   7.139  10.592  0.1427 -0.2200 -0.2318
  294W        W 3813   7.773   4.796   3.279 -0.0708 -0.1298 -0.0535
  295W        W 3814   9.228   1.312  11.303 -0.1623 -0.2247 -0.1610
  296W        W 3815   5.001   7.919   4.240  0.1341  0.0701  0.0356
  297W        W 3816   3.498   0.865   9.341  0.0777 -0.1146 -0.1242
  298W        W 3817   7.531   1.800   9.186  0.0218  0.2515 -0.0676
  299W        W 3818   1.003   6.795   2.201  0.2533  0.1446  0.1449
  300W        W 3819   1.787   7.126   9.586  0.1504  0.2067  0.4615
  301W        W 3820   0.978   7.789   9.253  0.4880 -0.2100 -0.4274
  302W        W 3821   7.851   4.270   2.768 -0.1618 -0.2674 -0.1979
  303W        W 3822   1.824   6.081   9.234 -0.2495  0.0854 -0.5128
  304W        W 3823   1.244   9.152   4.256  0.0835  0.1457  0.1936
  305W        W 3824   3.653   6.433   1.281  0.0363  0.2410  0.1091
  306W        W 3825   9.087   3.698   2.353 -0.1540 -0.0572 -0.1421
  307W        W 3826   1.922   1.014  10.781  0.0739  0.1330 -0.0106
  308W        W 3827   1.915   8.529   1.470  0.2818 -0.2965 -0.1927
  309W        W 3828   4.031   0.285  10.857 -0.0953 -0.0289  0.0352
  310W        W 3829   9.737   9.117   1.318 -0.0277  0.0221  0.2499
  311W        W 3830   6.150   8.632  12.284 -0.2950 -0.0340 -0.0487
  312W        W 3831   4.825   8.058  10.678  0.1778 -0.1818  0.2571
  313W        W 3832   7.037   6.405   2.204  0.2097 -0.2466  0.1814
  314W        W 3833   9.558   6.267   8.766 -0.1625  0.1228 -0.2261
  315W        W 3834   8.582   1.085  12.033  0.0402 -0.2470 -0.0648
  316W        W 3835   6.134   6.330   0.119 -0.0050 -0.1425 -0.0500
  317W        W 3836   7.712   5.587   7.731 -0.4042 -0.0042  0.0905
  318W        W 3837   3.609   6.358   1.826 -0.0948  0.2702  0.1386
  319W        W 3838   4.992   0.421  10.075  0.1458 -0.2025  0.1047
  320W        W 3839   0.326   0.909   2.448 -0.1319  0.1294  0.0097
  321W        W 3840   4.186   2.180   2.639 -0.0854  0.0543  0.0824
  322W        W 3841   4.832   7.088   4.121  0.2677  0.2457 -0.1369
  323W        W 3842   4.661   4.524  12.007  0.0149  0.0253 -0.1387
  324W        W 3843   6.803   7.089   9.158 -0.1831  0.0872 -0.0024
  325W        W 3844   4.189   1.161  10.950  0.3224 -0.1639  0.0814
  326W        W 3845   7.518   5.156  11.219 -0.1973  0.0010 -0.0283
  327W        W 3846   1.993   2.520  11.528 -0.1058  0.2013 -0.0506
  328W        W 3847   3.128   1.128   4.135 -0.1900  0.0505  0.2597
  329W        W 3848   2.648   4.789   1.242 -0.1307  0.4107  0.0364
  330W        W 3849   2.610   0.546   8.876  0.1041  0.4837 -0.0691
  331W        W 3850   6.225   3.558   0.891 -0.0407  0.2679 -0.0696
  332W        W 3851   6.069   7.059   0.517 -0.2593  0.1250 -0.0094
  333W        W 3852   7.238   4.259   1.645  0.1028 -0.0782  0.0513
  334W        W 3853   4.709   8.760   2.312 -0.1477  0.0601  0.2502
  335W        W 3854   5.648   7.879  10.269 -0.0065  0.1070  0.1237
  336W        W 3855   6.590   2.879  11.974  0.3181  0.1043 -0.1234
  337W        W 3856   6.745   6.657   8.801  0.0474  0.1626  0.0535
  338W        W 3857   7.759   1.013   9.465  0.3195  0.1641 -0.4025
  339W        W 3858   4.063   4.583   9.886 -0.1364  0.3059 -0.2919
  340W        W 3859   3.878   0.836   0.636 -0.0216 -0.2944 -0.4114
  341W        W 3860   8.161   9.184   8.307 -0.0213  0.0584 -0.1931
  342W        W 3861   6.908   0.637  10.127 -0.3817  0.0405 -0.2146
  343W        W 3862   5.596   6.081   2.255  0.0566  0.0212 -0.2918
  344W        W 3863   5.005   9.053   9.053 -0.0697 -0.0605  0.1584
  345W        W 3864   1.337   2.705  10.818  0.1230 -0.2642 -0.0922
  346W        W 3865   8.893   6.794   1.271  0.0689 -0.1486 -0.1203
  347W        W 3866   8.511   2.686   9.014 -0.0492  0.0738 -0.0820
  348W        W 3867   8.144   2.963   9.186 -0.0804 -0.1425  0.0449
  349W        W 3868   8.616   4.649   1.634 -0.1207  0.4266 -0.3026
  350W        W 3869   5.269   9.038  12.015  0.1753  0.1640  0.0729
  351W        W 3870   9.004   2.488   9.125 -0.2123  0.0694  0.3470
  352W        W 3871   7.135   3.402  10.854 -0.2006 -0.0301  0.1075
  353W        W 3872   4.833   3.651  12.119 -0.1691  0.2045 -0.0240
  354W        W 3873   2.323   1.363  11.370  0.1876 -0.1285 -0.0462
  355W        W 3874   9.148   8.315  11.483 -0.0541 -0.0601  0.2679
  356W        W 3875   0.592   5.517  12.188  0.0236  0.1800 -0.0310
  357W        W 3876   6.526   6.468   9.618 -0.0895  0.0666  0.2052
  358W        W 3877   1.115   6.941   3.167 -0.2291  0.1366 -0.1566
  359W        W 3878   7.828   1.363   3.651 -0.0650 -0.0720  0.0921
  360W        W 3879   2.682   7.475   3.567 -0.3063  0.0626 -0.0721
  361W        W 3880   4.765   9.777   8.940  0.0208  0.1085 -0.0274
  362W        W 3881   8.942   0.771  11.922  0.2907 -0.3593  0.3431
  363W        W 3882   0.687   0.677   2.018  0.1371 -0.0682  0.3307
  364W        W 3883   6.598   7.314   1.912  0.1480 -0.0531 -0.2103
  365W        W 3884   9.586   4.351   0.088 -0.0682 -0.2687 -0.1639
  366W        W 3885   1.298   9.507   9.996  0.1143 -0.1457  0.0109
  367W        W 3886   5.816   6.165   1.239  0.1129 -0.0407 -0.0938
  368W        W 3887   1.116   4.499   2.805  0.0560  0.0693 -0.1654
  369W        W 3888   9.505   3.380  12.169 -0.0026 -0.3295  0.1386
  370W        W 3889   1.773   2.684   4.079  0.0537  0.2902  0.0730
  371W        W 3890   0.126   6.204   2.532  0.5019 -0.0365  0.0439
  372W        W 3891   9.123   8.496   3.994 -0.1506 -0.0498  0.0131
  373W        W 3892   5.960   2.617  11.093 -0.0327  0.0709  0.1590
  374W        W 3893   6.347   8.482   1.445 -0.1546  0.1120  0.0209
  375W        W 3894   0.437   8.659   9.345 -0.2645  0.0391  0.1295
  376W        W 3895   3.244   1.472   0.893 -0.3162  0.1236  0.0393
  377W        W 3896   9.214   7.677  12.154  0.0894 -0.0142 -0.2158
  378W        W 3897   4.780   4.924   9.543  0.0624  0.2525  0.0375
  379W        W 3898   8.055   0.906  12.063  0.1679  0.1595  0.1292
  380W        W 3899   1.799   1.357   0.946  0.3106  0.1236 -0.3223
  381W        W 3900   6.646   1.871   9.236  0.0391  0.1285  0.0502
  382W        W 3901   7.699   3.641   0.378  0.2039 -0.2096 -0.1927
  383W        W 3902   7.547   7.593   2.926 -0.0648 -0.0101  0.1326
  384W        W 3903   2.950   4.143   0.885  0.0420 -0.1091  0.1451
  385W        W 3904   5.999   5.401   0.368  0.0697 -0.3328  0.3729
  386W        W 3905   2.645   9.388   3.871  0.1775 -0.2246  0.2257
  387W        W 3906   6.117   4.367   1.319  0.4044  0.1059 -0.0691
  388W        W 3907   8.441   4.943   2.152 -0.1916  0.0892  0.4032
  389W        W 3908   1.699   7.240   0.070  0.2282 -0.2217  0.3133
  390W        W 3909   2.762   4.274   2.561  0.0496  0.1523  0.1797
  391W        W 3910   7.666   2.449   0.821 -0.3345  0.1151 -0.1630
  392W        W 3911   5.754   4.278   8.739  0.1240 -0.0007  0.1126
  393W        W 3912   0.371   3.948   2.413  0.1508 -0.0649  0.1926
  394W        W 3913   2.068   0.664   0.109 -0.0706 -0.0869  0.3412
  395W        W 3914   6.711   3.999  10.140  0.2347 -0.3593 -0.1948
  396W        W 3915   5.337   7.662   9.865  0.3442  0.0657 -0.3369
  397W        W 3916   4.879   6.170   0.828 -0.0826 -0.0225  0.1578
  398W        W 3917   4.067   7.724   9.256 -0.0079  0.1189 -0.1509
  399W        W 3918   9.590   8.130   4.021 -0.2165 -0.1103 -0.0688
  400W        W 3919   4.323   7.949   2.271 -0.1594 -0.3564 -0.0059
  401W        W 3920   6.832   2.861   1.240 -0.0468 -0.2869  0.3130
  402W        W 3921   2.231   6.918   1.588 -0.3068 -0.4862  0.4222
  403W        W 3922   8.175   0.494  10.693  0.1344  0.0875  0.1052
  404W        W 3923   4.580   0.650   0.115 -0.2659 -0.0163  0.2855
  405W        W 3924   5.084   1.618   2.431  0.2256  0.2278  0.2259
  406W        W 3925   1.459   8.209   4.181 -0.0747 -0.3531 -0.3084
  407W        W 3926   9.337   5.483   8.250 -0.2412  0.0325 -0.1295
  408W        W 3927   9.059   4.447   8.369 -0.1119 -0.3405 -0.1540
  409W        W 3928   3.379   2.930   1.966  0.0324 -0.0052  0.2966
  410W        W 3929   3.968   2.519   2.261  0.2367  0.1043 -0.0889
  411W        W 3930   1.304   5.617  11.471 -0.1224 -0.0361  0.0450
  412W        W 3931   4.152   2.917   0.068 -0.0192  0.1572  0.0048
  413W        W 3932   4.623   6.045   3.622  0.2893  0.0122 -0.1879
  414W        W 3933   2.334   3.430   8.952 -0.0379 -0.1550 -0.0056
  415W        W 3934   0.737   0.479  11.159  0.0798 -0.1651 -0.0932
  416W        W 3935   6.246   6.316   1.048 -0.0498  0.1475 -0.1055
  417W        W 3936   7.887   3.531   2.606 -0.1560 -0.0778 -0.3640
  418W        W 3937   0.309   7.723   0.750 -0.1050  0.1810 -0.4300
  419W        W 3938   2.529   7.914   3.760 -0.1068 -0.3251  0.0982
  420W        W 3939   0.253   1.357  10.089  0.0123  0.2351 -0.0083
  421W        W 3940   2.188   4.625  11.673  0.2906 -0.0477  0.2787
  422W        W 3941   3.617   1.667  10.596 -0.1039  0.1416  0.0905
  423W        W 3942   9.709   5.229   3.009  0.3328  0.0662  0.0356
  424W        W 3943   7.265   2.031  10.700  0.2836  0.0907  0.0443
  425W        W 3944   6.072   4.143   9.385 -0.1013 -0.2820 -0.0501
  426W        W 3945   1.985   7.974  10.605 -0.1273 -0.2443 -0.1737
  427W        W 3946   2.966   5.452   0.316  0.0350  0.2003 -0.1061
  428W        W 3947   8.332   5.097   0.275  0.0295 -0.0328 -0.1437
  429W        W 3948   8.408   2.691   8.480 -0.0810 -0.0139  0.1645
  430W        W 3949   9.478   3.236   2.641  0.1581  0.0745 -0.1029
  431W        W 3950   0.408   5.935  11.636 -0.0724 -0.0928  0.0139
  432W        W 3951   6.069   7.730   3.049  0.2213 -0.1216  0.1841
  433W        W 3952   1.126   5.959   2.860 -0.0207  0.1646  0.0522
  434W        W 3953   5.999   0.435   0.318  0.2151 -0.2667 -0.0477
  435W        W 3954   9.052   6.069   9.423 -0.0273  0.0879 -0.0604
  436W        W 3955   0.454   0.981   8.306 -0.0002  0.2255 -0.1271
  437W        W 3956   4.056   4.253  10.756 -0.0297 -0.0423  0.1854
  438W        W 3957   8.346   0.002   1.982 -0.0044  0.1595  0.1023
  439W        W 3958   6.004   9.028   0.155  0.0299 -0.2344 -0.1482
  440W        W 3959   6.115   6.468   1.893 -0.0697  0.1243 -0.1886
  441W        W 3960   1.515   0.661   1.488 -0.2328  0.2152  0.1770
  442W        W 3961   1.748   3.429   3.677 -0.1271  0.0223  0.0832
  443W        W 3962   0.625   4.335  10.739  0.3099 -0.2940  0.0436
  444W        W 3963   2.452   2.001   3.988 -0.2127 -0.1168  0.2709
  445W        W 3964   5.675   7.010  10.613 -0.1784 -0.1867 -0.1227
  446W        W 3965   1.461   9.229   0.132 -0.1522  0.2052 -0.2006
  447W        W 3966   3.881   6.907  10.954  0.4014 -0.1240 -0.1524
  448W        W 3967   3.405   4.643  11.514  0.0724 -0.1496  0.2647
  449W        W 3968   6.276   0.240   3.152 -0.1470  0.0673 -0.1970
  450W        W 3969   5.723   6.585   8.781 -0.1084  0.1103  0.0902
  451W        W 3970   0.517   0.174   2.814 -0.0474  0.2302 -0.1999
  452W        W 3971   9.668   3.013   0.068 -0.1088  0.0561 -0.0468
  453W        W 3972   8.044   1.374  10.976  0.1693  0.1247  0.3195
  454W        W 3973   7.915   7.939   2.964  0.2217  0.3190 -0.6243
  455W        W 3974   5.629   1.669   3.059 -0.0552  0.3456  0.3338
  456W        W 3975   7.514   6.276   2.189 -0.4068  0.1021  0.0997
  457W        W 3976   0.198   2.810   1.209  0.2577  0.0847  0.2045
  458W        W 3977   8.223   5.898  12.225  0.4472 -0.2232 -0.2778
  459W        W 3978   7.834   4.314  10.686 -0.3660  0.1119  0.1111
  460W        W 3979   3.651   5.946   7.533 -0.3730  0.1864  0.0311
  461W        W 3980   0.672   5.994  10.002 -0.0863 -0.1110  0.2740
  462W        W 3981   2.317   9.672   0.284  0.0962 -0.1430 -0.0642
  463W        W 3982   7.288   9.328   8.211  0.2059 -0.0950  0.1467
  464W        W 3983   3.644   6.333   3.774  0.1181 -0.2373 -0.1785
  465W        W 3984   1.479   7.698   3.713 -0.0041 -0.1382  0.0671
  466W        W 3985   8.097   1.136   1.541 -0.1369 -0.1253 -0.1776
  467W        W 3986   1.358   4.981   1.935  0.1138 -0.2474  0.0544
  468W        W 3987   6.244   4.697  11.947 -0.1790  0.1042 -0.0154
  469W        W 3988   1.398   1.010   3.314 -0.1311  0.1435  0.4374
  470W        W 3989   3.727   3.533   2.170  0.2818 -0.4163 -0.0330
  471W        W 3990   7.158   5.630   0.052 -0.0209  0.0957  0.0627
  472W        W 3991   1.305   7.388   3.356  0.5286  0.2001 -0.0571
  473W        W 3992   8.800   8.111   2.419 -0.0685  0.2417 -0.1555
  474W        W 3993   1.480   3.441   0.184 -0.2232  0.2784 -0.3148
  475W        W 3994   6.790   3.581   2.112  0.0121 -0.0642  0.0243
  476W        W 3995   2.958   2.735   1.232  0.0989 -0.1818 -0.0559
  477W        W 3996   6.624   9.378  12.015  0.4186 -0.1088 -0.0167
  478W        W 3997   7.394   8.136  11.641  0.3804 -0.0925  0.0487
  479W        W 3998   2.765   3.510   9.765 -0.3471  0.1446  0.1065
  480W        W 3999   5.566   3.771   9.607  0.0730 -0.2818 -0.0340
  481W        W 4000   0.619   4.516  11.368 -0.1507 -0.0883  0.3063
  482W        W 4001   1.668   8.805   0.999  0.2891  0.0998 -0.1831
  483W        W 4002   1.187   5.990   3.473 -0.0239 -0.0428 -0.0073
  484W        W 4003   0.076   3.153  11.544  0.2680  0.0750 -0.1688
  485W        W 4004   5.422   5.326   1.824  0.0653  0.2086  0.0488
  486W        W 4005   6.579   3.074  11.483 -0.2165  0.1232  0.0161
  487W        W 4006   5.582   9.181   2.111 -0.1159  0.0819  0.1280
  488W        W 4007   4.165   9.217   9.195  0.1854  0.0649 -0.0577
  489W        W 4008   8.017   4.664   8.355 -0.1111 -0.0761  0.2498
  490W        W 4009   0.227   4.263  12.215  0.0682  0.1582 -0.0566
  491W        W 4010   0.659   2.147   3.773  0.1542  0.0156 -0.0543
  492W        W 4011   8.251   4.007   3.788  0.0901  0.1056 -0.0852
  493W        W 4012   7.813   6.394   8.381  0.2507 -0.1304 -0.1189
  494W        W 4013   9.759   2.719  11.791 -0.2587  0.1701  0.3532
  495W        W 4014   5.391   4.670   3.867 -0.3695  0.1389 -0.4930
  496W        W 4015   0.070   5.370   0.484 -0.3279 -0.1353 -0.1895
  497W        W 4016   5.118   4.420  12.257  0.3573  0.2047  0.0507
  498W        W 4017   5.954   5.242   1.586  0.1187  0.0156  0.0637
  499W        W 4018   0.937   0.022   7.505  0.2595 -0.2668  0.0380
  500W        W 4019   1.849   8.347  10.271 -0.2376  0.1302 -0.0609
  501W        W 4020   1.396   9.570   3.432  0.1359 -0.2423  0.1178
  502W        W 4021   9.605   2.857   9.359 -0.0386 -0.1552  0.0819
  503W        W 4022   9.131   0.063   2.395  0.0661 -0.2361  0.0654
  504W        W 4023   5.747   4.718   1.040  0.2067  0.0253 -0.2394
  505W        W 4024   4.349   4.964  10.915 -0.1687 -0.0121 -0.4561
  506W        W 4025   5.555   1.687  12.023  0.0829 -0.0549  0.5820
  507W        W 4026   9.690   1.720  10.138 -0.0769 -0.1865  0.1738
  508W        W 4027   8.486   2.388  11.235 -0.0937  0.1458  0.2029
  509W        W 4028   8.971   8.868   9.964 -0.0610  0.2923 -0.0885
  510W        W 4029   3.046   6.408   0.756 -0.1215  0.1936 -0.3052
  511W        W 4030   0.188   5.280   3.457 -0.1987 -0.0690  0.0265
  512W        W 4031   8.974   5.264  10.544 -0.0033 -0.1872  0.0888
  513W        W 4032   4.185   1.386   3.740 -0.3274  0.2991  0.0715
  514W        W 4033   5.040   4.970  10.072  0.1075 -0.0118  0.3282
  515W        W 4034   6.177   6.587  12.033 -0.0551  0.1852 -0.3203
  516W        W 4035   9.537   4.701   1.521  0.0970  0.2599 -0.1314
  517W        W 4036   0.261   4.275   8.125  0.1038  0.0300 -0.0552
  518W        W 4037   0.255   0.457   3.447  0.0505 -0.0810  0.2661
  519W        W 4038   5.048   8.251   3.469 -0.1663 -0.1320  0.0646
  520W        W 4039   2.732   0.675   9.968 -0.1364 -0.1018  0.0211
  521W        W 4040   4.784   9.518   0.187 -0.2115 -0.0572 -0.0647
  522W        W 4041   3.728   8.745  10.793  0.2229 -0.0711 -0.2053
  523W        W 4042   2.556   5.135   0.521 -0.0819 -0.2263 -0.0743
  524W        W 4043   5.573   8.657   4.427  0.3261 -0.1305 -0.0310
  525W        W 4044   4.052   3.819   0.568  0.1821 -0.0375  0.3462
  526W        W 4045   5.937   2.894   3.591 -0.2580  0.1454 -0.0058
  527W        W 4046   2.534   5.463   8.569  0.0109  0.0564  0.1461
  528W        W 4047   7.209   1.695   1.257 -0.2616  0.1336  0.0202
  529W        W 4048   8.119   2.674   1.510 -0.0734 -0.0901 -0.0502
  530W        W 4049   9.748   7.770   9.371  0.1192 -0.1177  0.1750
  531W        W 4050   9.122   0.734   0.554 -0.0503 -0.0847  0.1327
  532W        W 4051   5.170   9.522   8.848  0.1833  0.0673 -0.0785
  533W        W 4052   3.823   2.737  10.535  0.4118  0.1841 -0.1090
  534W        W 4053   1.212   5.723   2.398 -0.2178  0.0988 -0.0372
  535W        W 4054   7.142   2.499   2.299 -0.1599 -0.3234 -0.0259
  536W        W 4055   6.809   6.113  10.045 -0.1133 -0.0677 -0.1688
  537W        W 4056   8.972   0.355  12.139  0.2051  0.0753 -0.3489
  538W        W 4057   7.956   2.823   9.710 -0.1299  0.0050  0.0842
  539W        W 4058   7.837   4.296   0.000  0.2700 -0.1151 -0.2061
  540W        W 4059   1.033   0.530   1.609  0.4073  0.0907  0.3181
  541W        W 4060   7.469   2.945   1.975  0.2386  0.0546  0.0119
  542W        W 4061   1.331   7.405   9.495 -0.3679  0.0134 -0.0083
  543W        W 4062   0.267   7.701   2.993 -0.0256  0.0752 -0.1018
  544W        W 4063   3.940   1.708  12.209  0.1482 -0.2776 -0.2316
  545W        W 4064   6.634   3.222   2.525  0.5877 -0.2111 -0.0686
  546W        W 4065   5.381   9.390   0.983  0.1885  0.4464 -0.0050
  547W        W 4066   2.614   5.068   9.001  0.6282  0.0802  0.0531
  548W        W 4067   7.413   6.263  10.734 -0.0960 -0.0163 -0.1728
  549W        W 4068   0.104   5.254  12.256 -0.0364 -0.0508 -0.2799
  550W        W 4069   2.150   7.779  12.240 -0.2513 -0.0896 -0.3302
  551W        W 4070   0.250   3.984   2.913 -0.2304  0.0467  0.0766
  552W        W 4071   7.985   6.321   1.854 -0.0868  0.0175  0.3152
  553W        W 4072   2.598   7.771   1.474 -0.4921  0.2308  0.1150
  554W        W 4073   2.989   6.665   9.060 -0.0708  0.0993  0.1625
  555W        W 4074   7.964   5.474  11.411  0.0100 -0.0775 -0.0002
  556W        W 4075   7.262   8.607  11.960 -0.0047 -0.1029  0.1156
  557W        W 4076   9.451   9.481   2.190 -0.2946  0.1906 -0.2212
  558W        W 4077   1.427   9.682   0.346 -0.0367  0.0716 -0.0504
  559W        W 4078   3.047   1.411   9.832  0.1906 -0.0515 -0.3071
  560W        W 4079   0.777   0.046   4.098 -0.0532  0.1328  0.1763
  561W        W 4080   3.474   1.741   3.393 -0.0394  0.0434 -0.0997
  562W        W 4081   0.614   7.594   0.385 -0.6338 -0.3533  0.2970
  563W        W 4082   3.103   2.472   0.344  0.1465 -0.0486 -0.0276
  564W        W 4083   1.068   7.520   8.315 -0.0281 -0.2602 -0.1676
  565W        W 4084   4.202   4.217  11.255  0.0420  0.1530 -0.1818
  566W        W 4085   0.442   6.942   2.481 -0.2980  0.0037 -0.0509
  567W        W 4086   1.998   3.440   0.069  0.1057 -0.4671  0.2373
  568W        W 4087   1.937   8.293  11.340  0.2028 -0.0960 -0.0603
  569W        W 4088   9.576   4.861   2.023  0.1464  0.1029  0.1465
  570W        W 4089   4.359   6.846   2.212 -0.0076 -0.1424 -0.0488
  571W        W 4090   1.556   0.007  10.394  0.1412  0.1396  0.1029
  572W        W 4091   8.610   6.386   2.109  0.0553  0.4828  0.3301
  573W        W 4092   3.571   9.357   1.063 -0.1147  0.0811  0.0572
  574W        W 4093   1.145   6.984   8.361 -0.0720  0.4501  0.1827
  575W        W 4094   6.356   8.810  10.083  0.0132  0.1320 -0.2083
  576W        W 4095   4.783   7.808   9.900 -0.2416  0.3112 -0.1528
  577W        W 4096   8.447   2.144  10.804 -0.0562 -0.0024 -0.2027
  578W        W 4097   7.362   7.696   0.861  0.0683 -0.0303 -0.0931
  579W        W 4098   5.657   2.574   0.427  0.1002 -0.0379  0.2648
  580W        W 4099   7.673   3.402   3.271 -0.2060  0.2763 -0.0046
  581W        W 4100   5.811   5.006   9.995  0.0924  0.1674 -0.1198
  582W        W 4101   9.596   4.466   0.717 -0.1702  0.2175 -0.0763
  583W        W 4102   4.297   7.488   3.219 -0.2390 -0.1051 -0.1768
  584W        W 4103   5.838   0.415  11.825  0.1935 -0.0807  0.2229
  585W        W 4104   0.861   4.184   4.084  0.1181  0.2640  0.0592
  586W        W 4105   3.349   6.907  10.800 -0.1312  0.1410  0.0238
  587W        W 4106   0.562   1.484   2.420  0.1748 -0.1688  0.0981
  588W        W 4107   2.743   2.048   1.805  0.1279 -0.0969 -0.2185
  589W        W 4108   4.232   5.412   0.544 -0.1701 -0.0497  0.2012
  590W        W 4109   5.132   8.655  12.302 -0.0573 -0.0674 -0.0219
  591W        W 4110   7.210   9.250   1.865 -0.0208 -0.2942 -0.1836
  592W        W 4111   3.506   3.486   1.216 -0.1753 -0.3297 -0.1071
  593W        W 4112   6.485   0.564   2.619 -0.1198  0.0619 -0.0132
  594W        W 4113   8.192   4.491  10.992  0.3321 -0.1947 -0.4112
  595W        W 4114   3.960   0.413   3.124  0.0994 -0.0106  0.0884
  596W        W 4115   9.688   8.149   8.715 -0.0678 -0.3311  0.1192
  597W        W 4116   6.756   5.503   0.670 -0.2495  0.1492 -0.4835
  598W        W 4117   3.247   6.150   3.566 -0.1809  0.1287  0.0252
  599W        W 4118   3.197   8.587  12.145 -0.0232 -0.3010 -0.0064
  600W        W 4119   4.442   5.620   2.624  0.2086  0.0606 -0.1549
  601W        W 4120   2.864   4.663   0.721  0.1147 -0.1931 -0.1816
  602W        W 4121   0.269   7.067   3.354 -0.3803  0.0379 -0.0017
  603W        W 4122   3.626   7.381  11.207 -0.0952  0.0769 -0.1549
  604W        W 4123   1.885   1.052   1.421 -0.0710 -0.0680  0.0853
  605W        W 4124   4.814   4.944  11.297 -0.0413 -0.0073 -0.3433
  606W        W 4125   3.053   2.162   2.178 -0.0996 -0.3663  0.3092
  607W        W 4126   3.733   4.080   9.834  0.0781 -0.0572  0.3223
  608W        W 4127   1.827   0.047   2.352  0.0171  0.1458  0.1129
  609W        W 4128   1.150   6.651   7.995  0.1681  0.0684 -0.1852
  610W        W 4129   3.550   2.729   0.936  0.1557 -0.3338  0.1641
  611W        W 4130   0.575   9.109   9.351  0.0865 -0.2716 -0.1972
  612W        W 4131   0.349   2.583  10.919  0.0356 -0.0200  0.3551
  613W        W 4132   3.427   5.910  11.239 -0.1303  0.0811  0.2639
  614W        W 4133   1.719   7.180  11.314  0.1573  0.1892 -0.3482
  615W        W 4134   7.935   4.817   8.992  0.2995  0.2308 -0.3151
  616W        W 4135   6.559   1.140   0.490 -0.2566  0.0450  0.1204
  617W        W 4136   3.798   8.349   2.310  0.1209  0.1408 -0.2451
  618W        W 4137   3.000   3.364   1.311  0.1593  0.1719 -0.3075
  619W        W 4138   1.198   4.264   0.794  0.1982  0.2440  0.1956
  620W        W 4139   3.809   6.869  10.406 -0.2978 -0.0220 -0.3943
  621W        W 4140   5.919   7.125   8.655  0.0441  0.0963 -0.0659
  622W        W 4141   2.177   2.924   0.049 -0.0339 -0.1890  0.2389
  623W        W 4142   6.160   5.623  12.222  0.1069  0.0400  0.0968
  624W        W 4143   4.797   2.770   3.820 -0.1218 -0.1500  0.0115
  625W        W 4144   1.173   0.647   0.389  0.4681  0.0563  0.2368
  626W        W 4145   9.613   3.624   2.266 -0.2115 -0.0645  0.2718
  627W        W 4146   6.740   9.032  11.353 -0.1538 -0.3697 -0.1089
  628W        W 4147   2.847   5.755   3.837  0.1178  0.1374  0.1523
  629W        W 4148   9.715   6.838  11.357  0.0287 -0.4351  0.2767
  630W        W 4149   9.488   4.371   1.893  0.1298 -0.0759  0.1177
  631W        W 4150   1.969   0.944  12.003 -0.1412  0.0042  0.1359
  632W        W 4151   1.263   5.202   2.973  0.1074  0.0617 -0.0708
  633W        W 4152   6.562   9.772   9.613 -0.1036 -0.1493  0.0244
  634W        W 4153   7.570   8.220   0.984  0.0696  0.1271 -0.0992
  635W        W 4154   5.207   5.329   2.916  0.1893 -0.1245  0.2928
  636W        W 4155   6.305   8.913   0.553  0.0601 -0.2402  0.2068
  637W        W 4156   6.404   3.463   1.693 -0.1670 -0.2333  0.0207
  638W        W 4157   1.315   8.177   2.313 -0.1363 -0.4091 -0.3006
  639W        W 4158   9.227   9.674   7.980  0.4182 -0.2747 -0.2694
  640W        W 4159   9.398   5.186   3.370 -0.0076  0.0805 -0.2205
  641W        W 4160   2.201   4.094  10.509 -0.2859 -0.1853 -0.1564
  642W        W 4161   8.637   8.915  11.879  0.0534 -0.2416  0.0923
  643W        W 4162   0.419   3.099   3.546  0.1277 -0.3874 -0.3700
  644W        W 4163   3.646   7.248  10.122 -0.0455  0.0852  0.2715
  645W        W 4164   3.304   0.478  11.796 -0.0280  0.2624 -0.2312
  646W        W 4165   2.999   4.390   1.351 -0.5157  0.0115  0.0106
  647W        W 4166   0.174   2.686   8.986 -0.0770 -0.1646 -0.3638
  648W        W 4167   5.062   8.434  11.864 -0.4944  0.3671 -0.0135
  649W        W 4168   5.514   1.646  10.872 -0.0847  0.2818  0.3269
  650W        W 4169   1.004   1.469  11.304 -0.1984  0.3174 -0.2745
  651W        W 4170   4.149   8.479   3.159 -0.0059 -0.1746  0.1715
  652W        W 4171   5.283   9.763   3.120 -0.0329 -0.1249  0.1749
  653W        W 4172   8.771   6.495   0.501 -0.1088  0.5332  0.0034
  654W        W 4173   1.329   4.489   9.815  0.0153 -0.0420  0.0269
  655W        W 4174   2.603   0.046   8.965 -0.1823 -0.1217  0.2080
  656W        W 4175   7.948   5.588  11.902 -0.1454  0.0400  0.0564
  657W        W 4176   4.418   6.455   0.889 -0.3688 -0.2811 -0.0768
  658W        W 4177   3.173   1.891   9.104 -0.0408  0.0515  0.1820
  659W        W 4178   7.166   3.957   0.648  0.2751  0.1638  0.0361
  660W        W 4179   3.001   1.317   2.293  0.0098 -0.0647  0.0919
  661W        W 4180   4.409   7.450   1.430 -0.1874  0.2254 -0.0710
  662W        W 4181   3.687   6.479   7.544  0.0067 -0.2044 -0.2622
  663W        W 4182   1.315   4.750   0.551  0.0001  0.3881 -0.1141
  664W        W 4183   3.047   5.388   9.148 -0.2151  0.0187 -0.0399
  665W        W 4184   5.100   2.550   1.018  0.2411 -0.1578 -0.1410
  666W        W 4185   9.133   1.887  11.372  0.0152  0.0360  0.0582
  667W        W 4186   3.142   6.538   2.031 -0.5349 -0.2553 -0.1709
  668W        W 4187   0.508   2.704   0.275 -0.1034  0.0003  0.2902
  669W        W 4188   7.792   1.325   3.156 -0.2662  0.1288 -0.1216
  670W        W 4189   3.704   2.425  11.120 -0.0488 -0.0992 -0.1281
  671W        W 4190   4.565   3.703   0.208 -0.0542 -0.4559 -0.0472
  672W        W 4191   2.185   4.172  11.003  0.1600  0.0143  0.1414
  673W        W 4192   1.584   4.814   9.460  0.0085 -0.2426 -0.0208
  674W        W 4193   4.625   0.801   1.490  0.0689 -0.1174  0.0249
  675W        W 4194   0.933   6.824   2.670 -0.0947  0.2178 -0.0386
  676W        W 4195   8.997   4.661   4.228 -0.1065 -0.3463 -0.1661
  677W        W 4196   3.211   7.476  10.300 -0.1772  0.1366 -0.1174
  678W        W 4197   4.680   5.337   0.287 -0.1639 -0.1994 -0.0415
  679W        W 4198   9.631   5.543   0.883 -0.0084 -0.0518 -0.1187
  680W        W 4199   8.575   2.235   1.122 -0.0121  0.0286 -0.3893
  681W        W 4200   7.865   9.532  10.105  0.0357  0.1145  0.1280
  682W        W 4201   7.418   4.926  12.159 -0.3099  0.1067 -0.1989
  683W        W 4202   1.761   0.784  10.025  0.2353 -0.1172 -0.0358
  684W        W 4203   7.025   6.590  10.946  0.0251 -0.0775  0.1974
  685W        W 4204   0.878   3.444   1.348 -0.0592  0.3610 -0.1318
  686W        W 4205   1.848   6.642  10.506 -0.1197  0.0912  0.1428
  687W        W 4206   0.648   9.396   3.056  0.1062 -0.0020 -0.1316
  688W        W 4207   6.452   9.433   2.494  0.1908  0.0139  0.3265
  689W        W 4208   4.655   7.332   2.869 -0.1484 -0.2979  0.3036
  690W        W 4209   9.692   2.506   3.939  0.1635  0.1500  0.0948
  691W        W 4210   1.488   8.927  11.944  0.1480  0.0610 -0.1477
  692W        W 4211   2.607   0.211   0.650  0.2103  0.2076  0.0420
  693W        W 4212   8.562   9.203   8.695 -0.1190  0.1356  0.1819
  694W        W 4213   6.513   5.448   1.277  0.2968  0.0437  0.1924
  695W        W 4214   0.328   8.022   8.524 -0.0921 -0.1633 -0.0014
  696W        W 4215   2.872   3.383   2.092 -0.3422  0.2097  0.0568
  697W        W 4216   7.974   6.846   2.941 -0.4223 -0.2987  0.2773
  698W        W 4217   3.579   4.503   1.931  0.1051 -0.0993  0.2407
  699W        W 4218   2.162   0.067  12.150 -0.2047  0.2109  0.0522
  700W        W 4219   4.189   3.557   0.980 -0.0303  0.3143 -0.0549
  701W        W 4220   8.695   5.600   0.591  0.0382 -0.1334  0.0608
  702W        W 4221   8.354   8.100  10.872  0.1525  0.1249 -0.2855
  703W        W 4222   1.689   4.386  10.967  0.1741 -0.1666 -0.3477
  704W        W 4223   2.806   2.236  11.356 -0.1204  0.2230 -0.1362
  705W        W 4224   8.162   3.144   1.363  0.4267  0.1268 -0.0026
  706W        W 4225   5.421   7.673   1.818  0.1202 -0.1175 -0.1009
  707W        W 4226   3.326   1.045   0.583  0.0452  0.0024  0.1005
  708W        W 4227   1.155   4.021   7.820 -0.3464  0.0279 -0.0833
  709W        W 4228   1.922   8.703   7.898 -0.1782 -0.0982 -0.1420
  710W        W 4229   6.323   4.025   0.844 -0.1225 -0.0274  0.1861
  711W        W 4230   3.196   7.311   9.849  0.2041  0.0411 -0.0955
  712W        W 4231   4.404   0.180  12.250 -0.1758 -0.0046 -0.2713
  713W        W 4232   0.823   8.488  10.983  0.0623 -0.1177 -0.0624
  714W        W 4233   5.361   9.098   0.104  0.0327 -0.0008 -0.1371
  715W        W 4234   5.063   5.769   1.497 -0.0509 -0.2876 -0.2391
  716W        W 4235   5.084   4.496   9.401 -0.1014 -0.0992 -0.0715
  717W        W 4236   5.595   7.176   0.694 -0.2061 -0.2286 -0.0737
  718W        W 4237   7.527   5.204   2.993 -0.0911 -0.0985  0.1855
  719W        W 4238   6.656   4.009  11.332  0.1078 -0.0221  0.3336
  720W        W 4239   7.714   5.800   4.772  0.3513  0.1493 -0.2650
  721W        W 4240   4.586   9.080  11.719  0.4675  0.0042 -0.1369
  722W        W 4241   4.644   2.476   1.106 -0.2563 -0.1545 -0.0301
  723W        W 4242   0.853   1.016   9.785 -0.2333  0.0382  0.0572
  724W        W 4243   1.349   8.759   1.724 -0.0506  0.0143 -0.0071
  725W        W 4244   8.052   9.639  12.045  0.0916  0.0201  0.0349
  726W        W 4245   1.652   7.548   2.758  0.2178 -0.0002  0.1498
  727W        W 4246   7.455   4.541   9.127  0.0852  0.3142  0.1079
  728W        W 4247   7.338   2.562   3.324  0.2067 -0.0057 -0.0354
  729W        W 4248   1.231   5.099   9.780 -0.1189  0.0715 -0.0535
  730W        W 4249   6.243   2.104  12.015 -0.2231  0.2732 -0.2181
  731W        W 4250   8.941   5.290   3.681  0.0439  0.2187 -0.3263
  732W        W 4251   6.901   7.644   0.301  0.1577 -0.2257 -0.1996
  733W        W 4252   7.929   3.779  11.373 -0.0305  0.3103 -0.2201
  734W        W 4253   9.212   0.746   2.879  0.3216  0.1865  0.2528
  735W        W 4254   2.999   7.177   8.885 -0.0905 -0.0041  0.0881
  736W        W 4255   2.273   5.846   1.023 -0.1692  0.1474  0.0598
  737W        W 4256   9.482   2.591   0.827  0.0482 -0.0565 -0.1942
  738W        W 4257   3.687   0.863   3.336  0.5596 -0.2680 -0.0259
  739W        W 4258   6.043   9.180   2.763 -0.0112 -0.1235  0.1582
  740W        W 4259   4.063   5.336   3.509 -0.0282  0.1430 -0.0954
  741W        W 4260   0.082   8.657   2.798  0.0915  0.3285 -0.4636
  742W        W 4261   3.082   0.559   8.703  0.0932 -0.1131 -0.2779
  743W        W 4262   3.711   3.703   4.284 -0.0763 -0.1833 -0.1101
  744W        W 4263   3.680   7.774  10.309 -0.1047  0.0007  0.0509
  745W        W 4264   3.357   8.742   2.947 -0.1236  0.0295  0.1937
  746W        W 4265   7.092   1.136  10.114  0.1114  0.1378 -0.1847
  747W        W 4266   0.592   8.601  10.533 -0.0480 -0.0125  0.3182
  748W        W 4267   2.396   9.096   9.284 -0.0163 -0.2670  0.0252
  749W        W 4268   0.259   1.844   0.077 -0.1437  0.1372 -0.4876
  750W        W 4269   3.318   2.211  11.464  0.0795 -0.1417 -0.0399
  751W        W 4270   6.405   8.154  12.128 -0.1320  0.2960 -0.1304
  752W        W 4271   7.812   9.043  11.491  0.5051 -0.2822  0.1538
  753W        W 4272   8.485   7.476   8.991 -0.0327  0.3076 -0.0062
  754W        W 4273   7.194   1.957   4.340  0.0894  0.0605  0.0127
  755W        W 4274   9.547   4.229   2.908  0.0066 -0.2461 -0.2293
  756W        W 4275   0.273   9.601   2.248 -0.1324  0.1273 -0.1725
  757W        W 4276   6.462   4.486  11.544  0.4020  0.1737  0.0433
  758W        W 4277   6.825   0.737   1.684  0.1540 -0.0718  0.2838
  759W        W 4278   3.120   5.072   8.131  0.2817  0.0587  0.1392
  760W        W 4279   0.443   1.841   1.573 -0.3368  0.2313  0.1525
  761W        W 4280   8.717   4.938  10.308 -0.1979 -0.0271  0.0555
  762W        W 4281   4.455   8.829   9.157  0.0024 -0.1173  0.2279
  763W        W 4282   2.322   0.295   2.419  0.0995 -0.1733  0.0527
  764W        W 4283   7.983   1.729   0.525  0.2058  0.1437  0.0282
  765W        W 4284   3.494   7.273  12.320  0.2234 -0.3107 -0.1455
  766W        W 4285   2.913   8.239   9.952 -0.0442  0.1149  0.1913
  767W        W 4286   3.274   5.888   9.044 -0.0487 -0.0301  0.1183
  768W        W 4287   6.291   0.096   0.588 -0.1291 -0.1872  0.3714
  769W        W 4288   5.227   1.217   2.765  0.1993  0.0476 -0.0672
  770W        W 4289   8.855   7.019   9.047 -0.0256  0.2760 -0.0726
  771W        W 4290   1.746   5.257   9.683 -0.1696  0.4509 -0.0102
  772W        W 4291   5.912   8.875  11.668 -0.0062  0.2033 -0.2293
  773W        W 4292   8.119   2.223   1.344 -0.0366  0.5735  0.2812
  774W        W 4293   7.822   8.129   8.626 -0.1904 -0.4914 -0.1798
  775W        W 4294   6.500   1.119   9.680 -0.1806 -0.2793  0.1029
  776W        W 4295   5.833   2.116   3.125 -0.2966 -0.0498 -0.2815
  777W        W 4296   2.328   8.081   0.843  0.1707 -0.0160  0.5870
  778W        W 4297   7.330   5.290   9.320  0.0959  0.1634 -0.1351
  779W        W 4298   5.144   3.454   9.986 -0.0640 -0.3394  0.0238
  780W        W 4299   9.075   2.542   3.186  0.0732  0.2626 -0.0042
  781W        W 4300   3.314   2.598   3.732  0.0953  0.2027  0.2388
  782W        W 4301   5.615   2.227  11.312 -0.0811 -0.2011  0.1831
  783W        W 4302   6.198   2.552   9.951 -0.1239  0.0961  0.1023
  784W        W 4303   2.596   2.720   1.565 -0.0218 -0.0059  0.1300
  785W        W 4304   0.335   6.875  11.036 -0.1336 -0.4028 -0.0390
  786W        W 4305   0.138   5.574  11.411  0.3818  0.0045 -0.2071
  787W        W 4306   9.478   5.379  10.412 -0.0936  0.1520  0.0917
  788W        W 4307   1.501   4.815   8.793 -0.0994  0.1442  0.0376
  789W        W 4308   6.751   2.672   0.479 -0.0760 -0.3695  0.0264
  790W        W 4309   2.796   3.820   0.049  0.0014 -0.0826 -0.3332
  791W        W 4310   6.208   8.261   0.942  0.4096  0.1672 -0.2537
  792W        W 4311   8.389   8.712   2.766  0.1444  0.0655 -0.1748
  793W        W 4312   6.750   0.259  10.687 -0.0228  0.0107 -0.1169
  794W        W 4313   7.828   3.254   0.688 -0.1840 -0.2127 -0.0040
  795W        W 4314   4.185   1.970  11.843  0.1732  0.0690 -0.0540
  796W        W 4315   5.935   7.107   1.042 -0.1085 -0.0052 -0.1919
  797W        W 4316   1.571   4.492  11.782  0.1228  0.2201 -0.1288
  798W        W 4317   6.054   8.194   2.356  0.2218 -0.1622  0.0499
  799W        W 4318   7.758   2.939   7.952  0.0357  0.0513  0.0613
  800W        W 4319   1.937   3.303  11.389 -0.4301 -0.0362  0.2317
  801W        W 4320   7.827   9.275  10.594 -0.3673  0.0506  0.0578
  802W        W 4321   5.561   2.653  12.146 -0.1219 -0.4319  0.2019
  803W        W 4322   3.483   6.478  11.313 -0.2396  0.2244 -0.2366
  804W        W 4323   8.811   7.840  10.668 -0.3096 -0.1112  0.2491
  805W        W 4324   6.809   9.445   4.817 -0.3044 -0.0472 -0.0352
  806W        W 4325   3.848   0.859   1.976 -0.0400  0.0865 -0.1319
  807W        W 4326   8.759   0.926   9.677 -0.0620 -0.2010 -0.0777
  808W        W 4327   2.711   5.569  10.213  0.0059  0.0275 -0.1517
  809W        W 4328   9.282   9.166  11.331 -0.1784 -0.1416  0.1141
  810W        W 4329   4.534   5.619  11.138 -0.1165  0.4329 -0.1548
  811W        W 4330   0.546   3.786   3.278  0.2227 -0.0512  0.0902
  812W        W 4331   0.494   9.777   1.051  0.3518 -0.0660 -0.2202
  813W        W 4332   0.120   3.710   1.223 -0.1833  0.1742 -0.1269
  814W        W 4333   0.666   3.238   2.507  0.0146 -0.2665 -0.0349
  815W        W 4334   3.172   0.874   9.736  0.0231  0.1842  0.0296
  816W        W 4335   8.426   8.040   8.692 -0.0773 -0.1388  0.0231
  817W        W 4336   5.816   7.607  11.425 -0.0802  0.2456  0.0993
  818W        W 4337   4.379   2.098   1.029 -0.3898 -0.2291  0.0148
  819W        W 4338   1.464   1.016  10.600 -0.0420  0.3718  0.1127
  820W        W 4339   8.872   2.082   0.567  0.1274  0.0208 -0.1737
  821W        W 4340   3.836   4.087   8.976  0.1287  0.2114  0.5001
  822W        W 4341   6.695   0.341  11.538  0.1235  0.4517  0.1155
  823W        W 4342   8.703   3.558  10.765  0.2790 -0.3092  0.2562
  824W        W 4343   7.060   5.605  11.800 -0.0639  0.4862  0.1418
  825W        W 4344   1.341   1.141   3.916  0.0058 -0.1584  0.2538
  826W        W 4345   8.112   4.118   9.279  0.1131 -0.0816 -0.2056
  827W        W 4346   1.422   4.631  11.328  0.0592  0.1920 -0.0575
  828W        W 4347   6.582   9.178   4.168  0.0957 -0.0539  0.2044
  829W        W 4348   2.325   7.300  12.095 -0.1992 -0.3995 -0.1675
  830W        W 4349   2.957   2.534  11.733  0.2926 -0.2817  0.4137
  831W        W 4350   4.843   3.457   2.917 -0.4006  0.0134  0.3161
  832W        W 4351   2.903   0.007   9.891  0.0224  0.1766  0.1661
  833W        W 4352   3.530   0.004   7.947 -0.0543  0.1625  0.1828
  834W        W 4353   8.754   3.408   9.558 -0.0905 -0.1687 -0.1345
  835W        W 4354   8.924   4.856   8.665  0.0451 -0.0553 -0.0553
  836W        W 4355   4.853   9.607  10.875  0.1287 -0.0185 -0.2661
  837W        W 4356   0.400   9.358  11.610 -0.0246 -0.0858  0.1673
  838W        W 4357   3.834   8.247  11.800 -0.3089  0.0192  0.1347
  839W        W 4358   3.753   8.084   4.307 -0.0265 -0.1996 -0.3414
  840W        W 4359   4.025   4.948  10.508  0.1415 -0.0451  0.2183
  841W        W 4360   3.803   8.083   1.614 -0.0328 -0.0605  0.1294
  842W        W 4361   9.665   6.468   9.985 -0.2521  0.1862  0.0615
  843W        W 4362   5.305   0.098   1.581 -0.2726  0.0237  0.2764
  844W        W 4363   8.882   5.267   8.280  0.0438 -0.3587  0.2601
  845W        W 4364   8.928   8.078   9.544  0.0140  0.2517 -0.2350
  846W        W 4365   9.051   8.772   1.588 -0.1307 -0.1225 -0.3763
  847W        W 4366   6.926   6.036   9.517  0.1986 -0.1359 -0.1456
  848W        W 4367   6.216   3.976   2.831 -0.0301 -0.0866 -0.1109
  849W        W 4368   7.939   0.300   8.882  0.2104  0.1540  0.3207
  850W        W 4369   9.551   0.311   0.149  0.2313  0.0193 -0.1018
  851W        W 4370   4.421   4.462  10.434  0.1711  0.1577  0.0476
  852W        W 4371   9.312   6.926   2.897  0.1598  0.0654  0.0263
  853W        W 4372   8.393   6.124   3.493  0.0543  0.0028 -0.0623
  854W        W 4373   4.400   0.359   8.919  0.0701 -0.0291 -0.0017
  855W        W 4374   0.306   5.872  10.482  0.2193  0.3241 -0.1884
  856W        W 4375   3.265   5.560   8.647 -0.2041 -0.0458 -0.3341
  857W        W 4376   6.961   0.719   1.158  0.0859 -0.2153  0.2583
  858W        W 4377   5.625   7.153   9.753 -0.1203 -0.2031  0.1499
  859W        W 4378   8.812   2.992   0.280  0.4384  0.1277 -0.1909
  860W        W 4379   9.422   3.567   8.925 -0.0776 -0.2042  0.0657
  861W        W 4380   2.203   7.189   1.993  0.0288 -0.0827  0.1878
  862W        W 4381   9.036   0.636   2.331 -0.1106 -0.3493 -0.5041
  863W        W 4382   7.209   4.912   2.442  0.1281 -0.0466  0.0541
  864W        W 4383   7.694   5.796   4.233 -0.1995  0.0094  0.4623
  865W        W 4384   7.479   7.029   4.149  0.0099 -0.0164 -0.2562
  866W        W 4385   0.665   0.954   3.936 -0.0987  0.0625  0.2186
  867W        W 4386   2.919   6.324   8.267  0.3970  0.0213 -0.0540
  868W        W 4387   6.888   1.502  12.334 -0.2116  0.0594 -0.0179
  869W        W 4388   9.098   7.200  10.045 -0.1070 -0.0165 -0.1824
  870W        W 4389   9.536   8.958   0.862 -0.0725 -0.1546 -0.0517
  871W        W 4390   2.087   6.289   9.600 -0.4010  0.1181 -0.2526
  872W        W 4391   8.557   3.621   9.989 -0.1184  0.1451 -0.1361
  873W        W 4392   3.940   9.053   1.336 -0.0375  0.0359  0.4310
  874W        W 4393   7.370   3.551   1.387 -0.1169 -0.1609 -0.0098
  875W        W 4394   7.563   3.937  12.181  0.4603 -0.1061  0.2013
  876W        W 4395   2.649   5.015  11.031 -0.3171 -0.1012  0.0753
  877W        W 4396   8.681   1.806  11.163 -0.1986 -0.2828 -0.1054
  878W        W 4397   1.414   3.786   3.601 -0.1368  0.0528  0.0091
  879W        W 4398   5.584   2.964   0.994  0.2566  0.1422  0.2587
  880W        W 4399   7.539   2.500   0.228 -0.0166 -0.1530 -0.1527
  881W        W 4400   6.157   1.258   0.830  0.2745  0.1177  0.0667
  882W        W 4401   7.036   8.604   2.218  0.0561  0.1093  0.0724
  883W        W 4402   3.162   7.622  11.340  0.0141 -0.2224  0.2293
  884W        W 4403   3.432   5.520   2.424 -0.0762 -0.2316 -0.1674
  885W        W 4404   6.940   4.095   2.293 -0.2450 -0.3317 -0.3498
  886W        W 4405   7.877   3.263  10.319  0.1742  0.2327 -0.0799
  887W        W 4406   0.889   5.374  11.265 -0.3022  0.3181 -0.4871
  888W        W 4407   9.206   7.532  10.490  0.0094  0.1107 -0.1756
  889W        W 4408   0.384   5.766   0.234  0.1782 -0.0121  0.0996
  890W        W 4409   7.677   7.999   2.414  0.1547  0.0649  0.1426
  891W        W 4410   1.095   9.335   0.541  0.0656  0.2237 -0.2199
  892W        W 4411   0.568   7.560   2.114  0.1498  0.1324 -0.1500
  893W        W 4412   7.354   5.497  10.204 -0.0865 -0.0150 -0.0746
  894W        W 4413   3.691   7.817  12.084 -0.1028  0.1842  0.1664
  895W        W 4414   3.504   2.938  10.894  0.2382  0.3289  0.3550
  896W        W 4415   5.319   6.471  11.194  0.0247 -0.3643  0.3463
  897W        W 4416   1.463   7.995   2.712 -0.0283 -0.0669  0.0341
  898W        W 4417   6.138   6.692   8.519 -0.0942  0.0436  0.0867
  899W        W 4418   8.753   2.040   9.754  0.0334 -0.1391 -0.3128
  900W        W 4419   9.740   0.325   4.560  0.0860 -0.2219  0.0496
  901W        W 4420   6.964   9.592  10.661  0.1449  0.1989 -0.3473
  902W        W 4421   2.356   6.416   3.690  0.1492  0.3166  0.2520
  903W        W 4422   6.533   0.461   8.940  0.0395 -0.1172  0.0511
  904W        W 4423   4.694   3.772  10.082  0.2370 -0.3260  0.2146
  905W        W 4424   6.558   6.062  12.350  0.0015  0.0002  0.1599
  906W        W 4425   4.682   1.642   2.083  0.3289  0.0583 -0.1123
  907W        W 4426   5.639   5.685  12.095 -0.1030 -0.3284 -0.1029
  908W        W 4427   7.507   8.164  11.064  0.1757 -0.4847 -0.1710
  909W        W 4428   9.263   9.114   1.292 -0.1037  0.1303  0.0704
  910W        W 4429   0.996   2.332  10.978 -0.3242  0.0104  0.1721
  911W        W 4430   0.346   2.174   9.670 -0.0336  0.0367  0.1487
  912W        W 4431   6.922   3.072   0.718 -0.2938  0.0689 -0.0149
  913W        W 4432   0.953   5.966  12.014  0.2123  0.1330  0.2037
  914W        W 4433   5.140   1.562   1.922  0.2982  0.1639  0.1613
  915W        W 4434   8.131   8.039   4.027  0.2030  0.1163  0.1074
  916W        W 4435   7.620   9.593   8.925 -0.2837 -0.2833 -0.1443
  917W        W 4436   0.848   0.523   9.844  0.1315  0.2170  0.1649
  918W        W 4437   1.181   3.577  10.645 -0.0758  0.0326 -0.1879
  919W        W 4438   8.235   3.974  10.759 -0.1720  0.3518  0.0231
  920W        W 4439   9.311   1.626  11.841 -0.0974  0.1944  0.0864
  921W        W 4440   2.467   6.511   8.156  0.2705  0.4919  0.2108
  922W        W 4441   0.168   6.862   9.960 -0.0961  0.6200 -0.1132
  923W        W 4442   0.314   4.893   3.021 -0.1498 -0.0202 -0.5947
  924W        W 4443   7.195   2.538   8.994  0.1992  0.1408 -0.0559
  925W        W 4444   4.454   9.311   1.171 -0.1988 -0.0434 -0.0315
  926W        W 4445   0.259   7.005   8.671  0.2548  0.3211 -0.1310
  927W        W 4446   4.593   1.492   0.049  0.1828  0.0025 -0.0942
  928W        W 4447   1.701   8.998   1.516  0.0336 -0.2003  0.0692
  929W        W 4448   8.129   9.062   1.363  0.1134 -0.0952 -0.2206
  930W        W 4449   7.386   2.939   2.500  0.2527  0.1568 -0.1012
  931W        W 4450   5.220   5.753   2.050  0.2116  0.1891  0.0027
  932W        W 4451   9.193   0.370   3.307 -0.0626  0.0214 -0.1278
  933W        W 4452   2.895   2.300   9.097  0.2502 -0.0767  0.2294
  934W        W 4453   7.231   2.093  12.306 -0.0976 -0.0175 -0.1049
  935W        W 4454   8.361   0.691  11.785 -0.4878 -0.1195  0.1696
  936W        W 4455   8.827   3.927   8.459 -0.0511 -0.0418 -0.0699
  937W        W 4456   6.823   6.161   9.013  0.0164  0.0533 -0.0526
  938W        W 4457   9.044   5.609  12.324  0.0266  0.1749 -0.0853
  939W        W 4458   2.942   7.243   4.627  0.1045  0.0021 -0.3362
  940W        W 4459   5.234   0.620   1.687  0.1711 -0.1908 -0.2934
  941W        W 4460   5.724   3.254   8.952 -0.5220 -0.0600 -0.1419
  942W        W 4461   8.737   3.646  11.583 -0.1069 -0.1189 -0.1129
  943W        W 4462   9.456   7.292   3.752  0.2531 -0.0735 -0.3607
  944W        W 4463   6.466   8.323   3.807  0.1765 -0.2102  0.1369
  945W        W 4464   4.574   9.496   9.759  0.1270  0.0240  0.0404
  946W        W 4465   6.369   9.532   2.043 -0.0762 -0.2149  0.1691
  947W        W 4466   3.008   0.563   1.120  0.5390  0.4768  0.0497
  948W        W 4467   3.908   3.414  11.221  0.3613  0.2146 -0.1425
  949W        W 4468   7.043   9.039  12.287 -0.1129  0.2243  0.0586
  950W        W 4469   1.197   1.801   0.485 -0.2226 -0.3129  0.1470
  951W        W 4470   9.381   8.282   0.295 -0.0977  0.4442  0.3898
  952W        W 4471   3.814   9.177  11.058  0.1815  0.2209  0.0737
  953W        W 4472   9.158   4.742   0.066  0.0986  0.2418 -0.1984
  954W        W 4473   6.680   1.521   1.421  0.0053  0.1891  0.1958
  955W        W 4474   2.289   7.826   3.184 -0.4598 -0.2727 -0.2856
  956W        W 4475   8.603   4.815   3.679 -0.2346 -0.3345 -0.1473
  957W        W 4476   2.500   7.675  11.788  0.3171 -0.2510 -0.0028
  958W        W 4477   3.634   7.615   9.756 -0.0400  0.1321 -0.3407
  959W        W 4478   4.899   2.872  11.159  0.1246  0.0514 -0.2134
  960W        W 4479   6.391   8.964   8.699 -0.0225  0.2020 -0.0512
  961W        W 4480   9.118   7.409   4.405 -0.1791  0.1195  0.1702
  962W        W 4481   0.821   4.726   1.895 -0.1110  0.0138  0.1903
  963W        W 4482   7.103   7.585   7.699 -0.1063  0.1304  0.0554
  964W        W 4483   6.357   5.992   2.581 -0.0916 -0.0173  0.0280
  965W        W 4484   2.256   1.437   1.288 -0.1131 -0.0838  0.0888
  966W        W 4485   9.115   9.660   0.066 -0.1527  0.1897  0.1295
  967W        W 4486   1.472   5.851   1.576  0.2191  0.2628 -0.1313
  968W        W 4487   2.644   7.027   9.954 -0.0827 -0.0242 -0.0627
  969W        W 4488   3.818   6.126  11.002  0.0074  0.0793 -0.2578
  970W        W 4489   4.467   1.637   0.587  0.1863  0.3471 -0.2035
  971W        W 4490   6.105   9.142   3.816 -0.0418 -0.0898 -0.1028
  972W        W 4491   7.922   8.419  10.911 -0.2106 -0.1749 -0.1807
  973W        W 4492   6.265   9.398   9.449  0.0058 -0.3735 -0.1576
  974W        W 4493   0.248   0.197   8.415 -0.0783 -0.0315  0.0375
  975W        W 4494   7.783   0.502   0.791 -0.0371  0.0833 -0.1005
  976W        W 4495   2.057   5.944   2.810  0.4589  0.1465 -0.0698
  977W        W 4496   6.639   5.862   1.081  0.1870 -0.2014 -0.0878
  978W        W 4497   5.729   0.863   1.615 -0.2626  0.1615  0.3373
  979W        W 4498   2.179   1.401   9.468  0.2325 -0.3452  0.3091
  980W        W 4499   5.822   8.661   2.049  0.2599  0.1483  0.1708
  981W        W 4500   3.960   8.449   1.192 -0.1501  0.0060  0.0347
  982W        W 4501   6.632   2.342   2.503 -0.0892  0.0859 -0.1120
  983W        W 4502   8.808   7.898   8.972  0.0198  0.1548 -0.1124
  984W        W 4503   9.039   3.685   1.629 -0.0341  0.0660 -0.0635
  985W        W 4504   0.910   9.204   9.825  0.0145 -0.0655  0.1733
  986W        W 4505   1.115   1.098   7.943  0.0704 -0.3192 -0.1333
  987W        W 4506   7.344   1.682   2.908 -0.0476  0.0547 -0.0937
  988W        W 4507   4.156   0.984   3.371 -0.0700 -0.0627 -0.2186
  989W        W 4508   7.771   3.201   9.333  0.2695 -0.0618 -0.1980
  990W        W 4509   9.361   1.168   0.409 -0.0260  0.1308  0.2379
  991W        W 4510   0.468   2.666   3.811 -0.1714 -0.0906  0.0487
  992W        W 4511   5.192   8.614   9.457 -0.1713  0.3573  0.2980
  993W        W 4512   6.468   2.404  10.385  0.1216 -0.1966  0.1936
  994W        W 4513   1.253   4.103   4.467 -0.1606 -0.1631 -0.0580
  995W        W 4514   1.054   6.348   2.503  0.2734 -0.1083 -0.2085
  996W        W 4515   3.918   9.443   8.512 -0.0052  0.0939 -0.1083
  997W        W 4516   1.686   7.814   1.569  0.4349  0.0072 -0.0554
  998W        W 4517   3.433   2.340   1.272 -0.3324  0.3017  0.0190
  999W        W 4518   7.908   8.838   2.773  0.3303  0.0416  0.0581
 1000W        W 4519   3.953   6.829   3.857 -0.3225  0.1243 -0.3016
 1001W        W 4520   8.463   9.345   9.246 -0.0273  0.0934 -0.3044
 1002W        W 4521   1.685   1.284  11.728 -0.1969 -0.2687 -0.1755
 1003W        W 4522   4.941   6.674   2.601 -0.0692  0.0707  0.2425
 1004W        W 4523   7.686   0.987  10.023 -0.2474  0.2246  0.3420
 1005W        W 4524   7.088   9.228   1.366  0.1907 -0.0515 -0.1956
 1006W        W 4525   9.042   8.978   9.490  0.1204  0.1812 -0.0400
 1007W        W 4526   2.133   0.600   1.384 -0.0202 -0.0692 -0.0801
 1008W        W 4527   8.056   3.864  12.241  0.3595 -0.0015 -0.0893
 1009W        W 4528   0.476   9.302   1.315 -0.0102 -0.2355  0.1371
 1010W        W 4529   8.212   8.012  11.349 -0.0111 -0.1360  0.2184
 1011W        W 4530   2.190   7.894   9.287  0.4259  0.0235  0.0283
 1012W        W 4531   9.373   5.816  11.342  0.1051 -0.3959  0.1183
 1013W        W 4532   4.550   7.277   4.562  0.3252 -0.0478 -0.0381
 1014W        W 4533   5.386   0.343  11.602 -0.1133 -0.0473  0.1870
 1015W        W 4534   8.572   4.871   1.149  0.1477 -0.1944  0.2588
 1016W        W 4535   4.082   2.614   9.681  0.3607  0.2157 -0.0043
 1017W        W 4536   4.770   2.416   0.517  0.0635  0.3552 -0.0646
 1018W        W 4537   2.131   3.979   1.215 -0.1312 -0.0728  0.1691
 1019W        W 4538   8.004   8.425   0.859  0.0949  0.4930 -0.0788
 1020W        W 4539   1.221   5.290   8.854  0.2133  0.0141 -0.0661
 1021W        W 4540   4.817   0.965   2.033 -0.2931  0.3285 -0.0838
 1022W        W 4541   2.106   4.249   0.245 -0.1305 -0.6010  0.2308
 1023W        W 4542   5.978   2.445   9.279  0.1204 -0.0930  0.2475
 1024W        W 4543   8.224   2.018   1.878 -0.3110 -0.0053 -0.1393
 1025W        W 4544   3.845   0.349   2.644  0.4123 -0.1039  0.0634
 1026W        W 4545   2.477   0.100  10.730 -0.1664  0.2269 -0.1590
 1027W        W 4546   5.009   6.794  12.224 -0.0296 -0.1883 -0.0911
 1028W        W 4547   7.300   3.876   1.954 -0.0834 -0.0891 -0.0756
 1029W        W 4548   1.696   3.006  11.049 -0.0129 -0.1498 -0.0364
 1030W        W 4549   5.657   2.196  10.777  0.2009  0.1563  0.1139
 1031W        W 4550   2.492   8.575   0.928  0.1909 -0.2508  0.5467
 1032W        W 4551   5.182   1.020   8.932  0.3233 -0.1585 -0.0322
 1033W        W 4552   4.240   6.070  11.331 -0.0709  0.1736 -0.2155
 1034W        W 4553   7.655   0.400  10.681  0.1743 -0.1665 -0.1244
 1035W        W 4554   7.763   8.999   3.735 -0.2302  0.0286 -0.0543
 1036W        W 4555   9.305   4.873  10.388 -0.0131  0.0240 -0.1622
 1037W        W 4556   7.173   2.933   1.565 -0.1465  0.1916  0.2032
 1038W        W 4557   3.621   5.931   1.520 -0.1783  0.1261 -0.5428
 1039W        W 4558   8.290   6.071  11.222 -0.2540 -0.3319 -0.2822
 1040W        W 4559   3.377   6.819   2.570 -0.0079  0.2280  0.0781
 1041W        W 4560   7.050   0.003   1.451  0.0538 -0.0984  0.2624
 1042W        W 4561   8.365   1.891   9.549  0.0743  0.2673  0.1254
 1043W        W 4562   4.344   3.725  11.959 -0.0081 -0.0992 -0.1798
 1044W        W 4563   7.936   0.512   3.446  0.1616 -0.0187  0.0378
 1045W        W 4564   5.805   4.550   9.164 -0.1906  0.1823  0.0163
 1046W        W 4565   1.458   7.426   4.743 -0.1475  0.1695  0.0811
 1047W        W 4566   1.192   6.424   3.058  0.1624  0.1578  0.1203
 1048W        W 4567   3.224   8.480  10.764 -0.1185 -0.1565 -0.1231
 1049W        W 4568   2.165   3.058   0.879  0.1037 -0.1362  0.0114
 1050W        W 4569   3.742   5.841   9.247  0.0275  0.0742  0.1157
 1051W        W 4570   0.691   6.084   8.517 -0.2108 -0.0829 -0.2379
 1052W        W 4571   9.585   5.669   0.076  0.0774  0.0967  0.3164
 1053W        W 4572   8.421   4.682  11.679  0.1086  0.0282 -0.1542
 1054W        W 4573   4.930   7.698   1.550 -0.0062  0.1175 -0.0349
 1055W        W 4574   0.502   9.514   9.649 -0.1453 -0.3609 -0.1194
 1056W        W 4575   1.447   5.117  11.229  0.1905 -0.2160 -0.2741
 1057W        W 4576   7.139   4.982  10.257 -0.0800 -0.0218 -0.2240
 1058W        W 4577   1.896   7.406   4.506 -0.2272  0.2049 -0.1881
 1059W        W 4578   2.792   2.169   0.083  0.1047  0.1287 -0.0204
 1060W        W 4579   8.628   0.678   0.438  0.5166 -0.0839  0.2528
 1061W        W 4580   9.768   5.762   9.494  0.0737  0.0170  0.2870
 1062W        W 4581   7.098   4.164  10.384  0.0611 -0.1370  0.1305
 1063W        W 4582   7.842   5.087   8.456 -0.1013  0.2847 -0.3006
 1064W        W 4583   0.724   3.453   3.826 -0.0433 -0.0088  0.0673
 1065W        W 4584   2.501   1.013   1.366  0.1818 -0.3925  0.1160
 1066W        W 4585   7.303   0.663   0.411  0.2282 -0.2659 -0.0856
 1067W        W 4586   2.775   9.576   1.034  0.0488 -0.1776 -0.0239
 1068W        W 4587   1.309   5.404   9.393  0.0277 -0.0069  0.0413
 1069W        W 4588   6.060   0.990   3.144  0.0411 -0.1306 -0.0201
 1070W        W 4589   1.602   4.392   8.545  0.1246 -0.1481  0.1136
 1071W        W 4590   4.796   3.175   2.460  0.1688  0.0830 -0.2848
 1072W        W 4591   2.615   3.691   4.326  0.0967 -0.0473 -0.0546
 1073W        W 4592   1.068   5.759  11.013  0.0823 -0.0398 -0.0358
 1074W        W 4593   1.138   5.946   0.943 -0.0132  0.0593  0.0849
 1075W        W 4594   3.926   4.118   1.832  0.0154 -0.1700  0.0255
 1076W        W 4595   8.738   6.672   2.843 -0.1167 -0.0564  0.0807
 1077W        W 4596   3.994   9.713   2.407  0.0640 -0.0972 -0.2146
 1078W        W 4597   0.767   0.000   1.529 -0.0249 -0.3509 -0.0201
 1079W        W 4598   4.102   3.391   0.283  0.0360  0.0475 -0.2323
 1080W        W 4599   4.513   1.297   1.776 -0.0589 -0.1370  0.3966
 1081W        W 4600   9.174   6.433   1.464  0.0009  0.1854  0.3210
 1082W        W 4601   8.103   3.705   0.686  0.1495 -0.4159 -0.4215
 1083W        W 4602   8.288   3.539   1.085 -0.3395 -0.1760 -0.1739
 1084W        W 4603   6.356   3.874  10.958  0.0051  0.1846 -0.3178
 1085W        W 4604   5.147   0.222   4.302 -0.3598 -0.1873 -0.0645
 1086W        W 4605   7.255   2.914  11.789  0.1138 -0.3194 -0.2068
 1087W        W 4606   7.179   7.702  11.761 -0.0696  0.0679 -0.2594
 1088W        W 4607   8.746   8.441   1.551 -0.5792 -0.2634 -0.1611
 1089W        W 4608   9.562   5.499  11.875  0.1280 -0.0770 -0.2356
 1090W        W 4609   1.090   0.158   3.666 -0.1463 -0.1991  0.4568
 1091W        W 4610   9.631   1.415   3.447 -0.2423 -0.1040  0.0494
 1092W        W 4611   2.875   8.348  11.764 -0.4573 -0.4118  0.2516
 1093W        W 4612   2.216   0.920   1.776  0.2004  0.1338  0.1027
 1094W        W 4613   8.793   3.427   1.027 -0.2894  0.0624 -0.1934
 1095W        W 4614   2.380   1.032  11.752 -0.0165  0.0578  0.1446
 1096W        W 4615   8.092   1.658   8.732  0.1942 -0.1805  0.1068
 1097W        W 4616   2.879   8.106   2.332 -0.2388  0.0911 -0.1470
 1098W        W 4617   1.927   8.454  10.860 -0.0550  0.0759  0.0333
 1099W        W 4618   8.184   3.381  12.135 -0.1600  0.0315 -0.0190
 1100W        W 4619   3.355   1.321   9.356  0.2464 -0.0351  0.0317
 1101W        W 4620   9.208   0.609   1.048 -0.2574  0.3444  0.1582
 1102W        W 4621   4.825   2.089   1.810 -0.2579 -0.3462 -0.0462
 1103W        W 4622   4.515   7.914   1.793  0.3576  0.3484  0.1542
 1104W        W 4623   8.181   8.324   3.628 -0.2432 -0.1344  0.1372
 1105W        W 4624   4.300   8.906   3.027  0.1697 -0.2371 -0.0637
 1106W        W 4625   6.031   3.091   1.865  0.2156 -0.0823  0.0868
 1107W        W 4626   8.623   0.664   2.717 -0.3596 -0.4341 -0.1961
 1108W        W 4627   2.882   2.586   8.725 -0.0626 -0.0949  0.0978
 1109W        W 4628   3.355   9.445   1.661 -0.2726 -0.0831 -0.2102
 1110W        W 4629   9.516   4.660   8.754 -0.0338 -0.0636  0.0688
 1111W        W 4630   7.851   4.273  11.306  0.0745  0.0144  0.4030
 1112W        W 4631   7.457   5.595  11.464  0.2451  0.0853 -0.3350
 1113W        W 4632   3.160   4.341   9.472  0.0269  0.1927  0.0520
 1114W        W 4633   8.213   0.933  11.237 -0.1364  0.0123 -0.3141
 1115W        W 4634   3.375   4.676  12.329 -0.1865 -0.0226 -0.0038
 1116W        W 4635   4.601   6.444   9.599 -0.0684 -0.0318  0.0150
 1117W        W 4636   0.568   1.727   8.151  0.0579  0.0105  0.0521
 1118W        W 4637   3.916   6.770   9.877  0.0012 -0.0904 -0.1670
 1119W        W 4638   7.274   6.091   1.347 -0.1299 -0.2398 -0.1422
 1120W        W 4639   5.756   2.653   8.848  0.1448 -0.4075 -0.2086
 1121W        W 4640   4.478   7.055  10.523  0.1095  0.1518 -0.3060
 1122W        W 4641   9.364   6.588   4.041  0.0685  0.0690 -0.0083
 1123W        W 4642   0.539   1.827   4.179  0.0907  0.4382 -0.1839
 1124W        W 4643   8.504   6.033   0.732  0.0154 -0.0526  0.0417
 1125W        W 4644   3.835   9.607   0.499 -0.0604 -0.1995 -0.0549
 1126W        W 4645   1.805   0.596   9.581 -0.1965  0.1773  0.2055
 1127W        W 4646   8.961   5.202   0.286  0.0605 -0.2530 -0.1458
 1128W        W 4647   8.570   8.122   9.886 -0.3231 -0.1536 -0.3133
 1129W        W 4648   0.747   5.937  10.726 -0.2935  0.0518  0.3232
 1130W        W 4649   5.247   8.272   9.079  0.0764  0.0083  0.3022
 1131W        W 4650   7.707   5.569   0.640  0.0456  0.3563 -0.1249
 1132W        W 4651   6.769   5.868   2.205 -0.0994 -0.1334 -0.1017
 1133W        W 4652   8.271   6.385  12.014  0.1034  0.0427  0.0018
 1134W        W 4653   0.564   8.258   1.206 -0.0469  0.0011 -0.2884
 1135W        W 4654   6.602   7.518   3.913  0.2759  0.1535  0.0492
 1136W        W 4655   8.697   4.453   3.302  0.1108  0.3447 -0.1673
 1137W        W 4656   5.183   3.327   0.791  0.3050  0.0028  0.2713
 1138W        W 4657   5.790   5.017   3.486 -0.2429  0.0842 -0.0389
 1139W        W 4658   7.575   3.782  10.067 -0.0393  0.1915  0.0934
 1140W        W 4659   4.418   0.260  11.744 -0.1415 -0.3140  0.1558
 1141W        W 4660   6.948   4.896  10.772  0.1024  0.3062 -0.1423
 1142W        W 4661   2.868   8.330   0.616  0.0858  0.2499 -0.2404
 1143W        W 4662   8.468   7.072  10.701  0.2115 -0.0889  0.0549
 1144W        W 4663   0.000   9.496   1.724 -0.1989 -0.0774 -0.1234
 1145W        W 4664   3.347   3.795   3.861  0.0553 -0.0194 -0.0946
 1146W        W 4665   7.873   8.896   8.791 -0.2476 -0.1106  0.0772
 1147W        W 4666   8.325   3.335   3.047  0.2498 -0.2331  0.2686
 1148W        W 4667   1.997   8.456   9.242 -0.0469  0.0450 -0.0117
 1149W        W 4668   8.992   0.773   8.682  0.0586  0.0766  0.1774
 1150W        W 4669   0.992   1.322   0.221 -0.5870 -0.3186 -0.1981
 1151W        W 4670   9.498   9.657   1.274  0.0150 -0.1101 -0.0863
 1152W        W 4671   6.985   1.462   1.996 -0.1034 -0.0524 -0.0840
 1153W        W 4672   5.501   1.792   2.097 -0.4646 -0.2465  0.0915
 1154W        W 4673   8.453   1.269   2.901  0.1224 -0.0922 -0.0651
 1155W        W 4674   4.147   6.295   7.237  0.2054  0.0869 -0.2926
 1156W        W 4675   7.928   9.627   2.308  0.2146  0.0355 -0.0637
 1157W        W 4676   5.437   1.244   9.920  0.4802 -0.0162  0.3647
 1158W        W 4677   0.387   6.895   9.137 -0.3323 -0.0954  0.1417
 1159W        W 4678   9.554   1.356  12.246  0.0044  0.1803  0.1854
 1160W        W 4679   0.357   5.220   0.863  0.0473 -0.1568 -0.1128
 1161W        W 4680   4.782   5.053   8.619 -0.0002  0.0505  0.1440
 1162W        W 4681   2.494   9.156   1.624  0.1827  0.1919  0.0668
 1163W        W 4682   1.526   6.157   1.109 -0.1026 -0.0893  0.0904
 1164W        W 4683   3.289   1.561  10.207 -0.0501  0.2660 -0.3084
 1165W        W 4684   3.514   4.101  10.755 -0.1164 -0.1516 -0.0265
 1166W        W 4685   8.906   8.655   1.094 -0.2381 -0.0315 -0.1483
 1167W        W 4686   8.288   2.360   9.860 -0.0541 -0.2171  0.0306
 1168W        W 4687   1.111   8.592   3.587 -0.1531 -0.0110  0.0405
 1169W        W 4688   8.706   7.000   0.683 -0.0116 -0.1943  0.1985
 1170W        W 4689   3.489   0.242   8.397  0.1978  0.2290 -0.0101
 1171W        W 4690   3.166   7.498   2.928 -0.2551 -0.2897  0.2336
 1172W        W 4691   4.267   5.943   1.909 -0.0809 -0.0522 -0.1481
 1173W        W 4692   5.167   3.099   1.728  0.1299  0.2674  0.1905
 1174W        W 4693   9.749   6.199   9.293  0.1696 -0.0662 -0.3013
 1175W        W 4694   0.910   9.610   8.928  0.0761 -0.2770  0.0882
 1176W        W 4695   9.314   2.156  10.523 -0.0492  0.2872 -0.3205
 1177W        W 4696   1.248   7.841   4.539  0.0285 -0.1315 -0.0014
 1178W        W 4697   3.838   7.833   0.755  0.2433 -0.0967 -0.4814
 1179W        W 4698   9.062   7.127   9.550  0.2725 -0.1981  0.0677
 1180W        W 4699   7.385   7.809  10.703 -0.0304 -0.1092 -0.1348
 1181W        W 4700   6.226   1.655   0.510 -0.3701  0.1959  0.1312
 1182W        W 4701   9.595   6.476   4.446 -0.1506 -0.0610 -0.0688
 1183W        W 4702   4.829   7.055   0.206  0.0093 -0.0883  0.0778
 1184W        W 4703   2.969   8.854   2.457 -0.0978 -0.1086 -0.0745
 1185W        W 4704   8.479   9.387   1.601 -0.1532  0.1013 -0.4207
 1186W        W 4705   6.885   6.569   7.816 -0.2676  0.4343 -0.0086
 1187W        W 4706   3.777   8.130  11.158  0.0775  0.3132 -0.0423
 1188W        W 4707   4.402   3.386   9.278  0.3324 -0.0024  0.0401
 1189W        W 4708   4.283   1.688   2.497 -0.0004 -0.0054  0.1402
 1190W        W 4709   4.061   6.163   1.481 -0.0080 -0.0702  0.0636
 1191W        W 4710   8.530   4.978   9.776 -0.1545  0.1187  0.1976
 1192W        W 4711   9.113   3.789  10.722 -0.0946  0.0395  0.1412
 1193W        W 4712   0.722   9.033  10.275  0.4708 -0.3190  0.0719
 1194W        W 4713   4.298   8.515   2.296  0.0146 -0.0854 -0.0389
 1195W        W 4714   1.185   6.953  10.314  0.2226  0.0370 -0.0424
 1196W        W 4715   3.748   9.160   1.810  0.0829  0.2588  0.2209
 1197W        W 4716   7.981   8.673   4.023  0.1407  0.1652  0.0347
 1198W        W 4717   2.333   3.282   0.463 -0.1095 -0.0884 -0.0399
 1199W        W 4718   9.441   1.599   2.076  0.2154 -0.0106 -0.2304
 1200W        W 4719   2.114   0.342   8.546  0.1530 -0.1980  0.2536
 1201W        W 4720   9.223   0.526   4.182  0.3222  0.0640 -0.0265
 1202W        W 4721   5.560   2.925  11.180 -0.0978 -0.1974 -0.0449
 1203W        W 4722   1.895   4.304  11.439  0.2113  0.3520 -0.4139
 1204W        W 4723   1.701   6.394  11.591  0.2012  0.4704 -0.1971
 1205W        W 4724   4.085   9.272   4.404 -0.1634 -0.0111  0.1615
 1206W        W 4725   5.938   0.859   1.101  0.0347  0.1680  0.0238
 1207W        W 4726   6.743   8.004  11.760 -0.0066 -0.2140 -0.0857
 1208W        W 4727   4.889   7.718  11.084 -0.3232  0.0230 -0.2876
 1209W        W 4728   9.695   3.688  11.815 -0.0235 -0.2406 -0.0713
 1210W        W 4729   4.095   3.735  11.542 -0.1194  0.1227  0.0570
 1211W        W 4730   4.005   2.885   2.748  0.1349 -0.0822  0.2586
 1212W        W 4731   6.124   8.444   9.867 -0.1836  0.0451  0.4413
 1213W        W 4732   1.910   6.640   0.503 -0.0858 -0.1789 -0.1318
 1214W        W 4733   4.516   3.812   3.162  0.1793 -0.0539  0.3099
 1215W        W 4734   8.822   1.543   1.021 -0.1209  0.0486  0.1817
 1216W        W 4735   8.735   0.494   9.494  0.2824  0.1019 -0.1066
 1217W        W 4736   3.037   9.035   4.016  0.1836  0.1352  0.2812
 1218W        W 4737   2.466   3.786   4.835  0.2122  0.0965  0.2323
 1219W        W 4738   9.496   6.619   8.442 -0.1480 -0.1070 -0.0151
 1220W        W 4739   8.370   1.229   1.156  0.0682  0.1857 -0.1753
 1221W        W 4740   6.900   9.089   8.455  0.3395 -0.5468 -0.2373
 1222W        W 4741   5.577   5.674   1.417 -0.1277 -0.0582  0.2322
 1223W        W 4742   1.805   0.223   7.802  0.1957  0.0304  0.0103
 1224W        W 4743   1.114   2.783  11.846  0.1574 -0.0909  0.2211
 1225W        W 4744   8.207   6.318   9.200  0.2112 -0.2567 -0.0354
 1226W        W 4745   7.569   8.865  12.322 -0.1283 -0.0651 -0.1036
 1227W        W 4746   9.452   6.134   1.012  0.4338  0.1514  0.1124
 1228W        W 4747   4.274   3.178  11.422 -0.3650  0.0622 -0.4533
 1229W        W 4748   2.340   8.144  10.962  0.1702 -0.4351  0.1501
 1230W        W 4749   4.641   1.126  10.723 -0.1132 -0.0105 -0.1553
 1231W        W 4750   9.156   6.504  11.937 -0.0813  0.3474 -0.2074
 1232W        W 4751   1.920   1.571   0.437  0.0457 -0.2216 -0.1752
 1233W        W 4752   3.406   0.867  11.186  0.0780 -0.1847 -0.0745
 1234W        W 4753   0.957   1.185   9.282 -0.1341  0.0536  0.1065
 1235W        W 4754   9.775   8.734   9.757  0.1804 -0.2463 -0.3423
 1236W        W 4755   0.039   4.866  10.182 -0.1904  0.4516 -0.0491
 1237W        W 4756   5.206   7.249   1.605 -0.2746 -0.0262 -0.0918
 1238W        W 4757   3.920   2.338   0.810 -0.1431  0.0331  0.0434
 1239W        W 4758   4.874   8.564   1.357  0.2303 -0.2741 -0.0602
 1240W        W 4759   8.543   6.216  10.859 -0.1456 -0.0512 -0.1530
 1241W        W 4760   9.451   5.504   1.957  0.0122 -0.0941 -0.0192
 1242W        W 4761   7.710   0.735   8.965 -0.4082  0.2437 -0.0895
 1243W        W 4762   0.505   4.051   8.952 -0.2634 -0.0417 -0.1824
 1244W        W 4763   3.415   4.689   2.558 -0.0084  0.0190 -0.0985
 1245W        W 4764   4.058   8.854   9.986 -0.1185  0.0681 -0.2387
 1246W        W 4765   6.023   2.338   2.634  0.0840 -0.2421  0.1705
 1247W        W 4766   5.985   2.592   0.102  0.0227 -0.0978  0.0527
 1248W        W 4767   4.634   7.124  12.026 -0.0196  0.2645  0.2760
 1249W        W 4768   4.081   3.714   4.646 -0.5270  0.2097  0.0463
 1250W        W 4769   6.109   0.813   9.565 -0.0471  0.0247 -0.0377
 1251W        W 4770   2.781   0.900  10.515 -0.0117  0.0007 -0.1690
 1252W        W 4771   8.467   9.394   2.959 -0.2173 -0.0882  0.1372
 1253W        W 4772   8.373   1.815   0.899 -0.1167 -0.2148  0.3655
 1254W        W 4773   6.487   5.010  11.223  0.0216 -0.0794 -0.0764
 1255W        W 4774   7.897   3.010   4.451  0.0965 -0.2236 -0.1470
 1256W        W 4775   8.665   6.452   1.584  0.1287  0.0047  0.1144
 1257W        W 4776   3.180   2.160   3.528 -0.2205  0.2938  0.3743
 1258W        W 4777   7.708   2.506  11.845  0.0820  0.0833  0.1498
 1259W        W 4778   6.091   1.450   3.030  0.3346  0.0805  0.0251
 1260W        W 4779   8.507   4.298   2.829  0.1383  0.0519 -0.0243
 1261W        W 4780   2.780   4.216   8.961 -0.0389 -0.3214 -0.1157
 1262W        W 4781   9.494   6.108   4.084  0.1458  0.2182  0.0376
 1263W        W 4782   5.108   7.014   3.735 -0.1610  0.2478  0.0995
 1264W        W 4783   9.211   0.199   0.491  0.2031 -0.0748 -0.0535
 1265W        W 4784   5.637   2.856  11.655  0.1859  0.1756  0.1382
 1266W        W 4785   1.803   1.626   8.512  0.2157 -0.1528  0.1262
 1267W        W 4786   2.502   0.700   3.875 -0.0846 -0.1941  0.1267
 1268W        W 4787   8.967   5.827  10.330 -0.1451 -0.1236 -0.3226
 1269W        W 4788   4.058   7.243   8.835  0.2395  0.1637  0.1015
 1270W        W 4789   0.573   3.812  11.363 -0.0722 -0.0754  0.1558
 1271W        W 4790   3.310   0.962   1.996 -0.0682 -0.2493 -0.1382
 1272W        W 4791   2.713   2.771   0.199  0.1023  0.1279  0.1345
 1273W        W 4792   4.844   4.263  10.355 -0.4375  0.1155 -0.1420
 1274W        W 4793   5.228   7.334  12.269 -0.1368  0.1354  0.5387
 1275W        W 4794   0.131   5.826  12.042  0.3678 -0.2293 -0.0693
 1276W        W 4795   7.804   5.655   3.097 -0.0727 -0.0644 -0.0355
 1277W        W 4796   7.256   8.646   1.077  0.2640  0.1363  0.0747
 1278W        W 4797   9.713   5.151   9.592  0.1107  0.1287  0.2149
 1279W        W 4798   5.451   8.833   3.932  0.0782 -0.1844 -0.3084
 1280W        W 4799   1.465   2.839   2.785  0.1621 -0.1776  0.1143
 1281W        W 4800   3.616   8.412   3.189  0.4940  0.0130 -0.0514
 1282W        W 4801   7.730   6.522  11.044  0.0163  0.1254 -0.0795
 1283W        W 4802   2.848   5.634   9.494 -0.0871  0.1162 -0.2427
 1284W        W 4803   9.629   2.504   9.752 -0.1056 -0.2033  0.0272
 1285W        W 4804   3.201   2.582   3.143 -0.0202 -0.5160  0.0677
 1286W        W 4805   4.704   2.050   3.059 -0.1579 -0.2397  0.1169
 1287W        W 4806   1.484   7.535   0.478 -0.0871 -0.3097 -0.1869
 1288W        W 4807   1.896   1.274   2.145 -0.2099  0.0389  0.1703
 1289W        W 4808   1.123   9.094  12.174  0.0378  0.2291 -0.2793
 1290W        W 4809   5.474   1.048   3.476 -0.0102 -0.3304 -0.1970
 1291W        W 4810   1.815   3.063   0.442  0.3615  0.1259 -0.1095
 1292W        W 4811   6.654   6.898   0.463 -0.0655 -0.2758 -0.0293
 1293W        W 4812   1.655   5.140   3.367 -0.0946  0.1574 -0.1999
 1294W        W 4813   4.966   5.778   8.883  0.1773 -0.0378 -0.0926
 1295W        W 4814   3.084   9.727   8.281 -0.4297  0.2340 -0.1254
 1296W        W 4815   8.978   3.029   8.172  0.0204  0.1252 -0.0685
 1297W        W 4816   6.786   1.607  11.403  0.0613 -0.3252  0.1657
 1298W        W 4817   0.274   8.421   8.915  0.1135 -0.1623 -0.1218
 1299W        W 4818   1.798   1.144   9.677  0.0612 -0.0055 -0.2115
 1300W        W 4819   7.892   6.647   2.218 -0.1556 -0.2899 -0.2369
 1301W        W 4820   8.671   0.551   4.062  0.0518 -0.2036  0.0570
 1302W        W 4821   9.554   3.346   1.219 -0.0127 -0.0001  0.3680
 1303W        W 4822   6.704   1.648   0.389 -0.0322  0.1262  0.1745
 1304W        W 4823   8.692   8.163   3.666 -0.2580  0.0525  0.0628
 1305W        W 4824   2.451   6.796   4.045 -0.0411 -0.3025 -0.0270
 1306W        W 4825   4.290   7.296   2.572 -0.0383  0.0750 -0.0848
 1307W        W 4826   6.429   6.291   8.751 -0.0843 -0.1314 -0.0685
 1308W        W 4827   2.897   5.275   0.891  0.0371  0.1598  0.3918
 1309W        W 4828   4.461   8.869   1.393 -0.1544  0.0310 -0.0499
 1310W        W 4829   0.451   1.824  10.037  0.3692  0.1768  0.1286
 1311W        W 4830   2.740   6.425   1.753 -0.1231  0.1430  0.3932
 1312W        W 4831   0.992   1.161   3.539  0.0644  0.1985  0.2337
 1313W        W 4832   1.405   0.094  10.875  0.1645  0.0649  0.1520
 1314W        W 4833   6.289   6.078   1.541 -0.1224 -0.0410 -0.2499
 1315W        W 4834   3.312   7.237   4.232  0.5599 -0.0525  0.0319
 1316W        W 4835   2.748   0.829   0.122  0.1855 -0.1018 -0.1476
 1317W        W 4836   9.504   0.077   4.145 -0.0760 -0.1924 -0.1431
 1318W        W 4837   2.312   1.924   1.525  0.2076  0.1034 -0.2560
 1319W        W 4838   2.203   4.086   0.711  0.0833  0.1243  0.2257
 1320W        W 4839   5.543   8.943   3.315 -0.0221 -0.2153  0.0077
 1321W        W 4840   1.365   2.474   2.368 -0.0469 -0.1911 -0.1630
 1322W        W 4841   6.276   2.784   0.463 -0.1150  0.1498  0.0524
 1323W        W 4842   5.746   3.633   0.007  0.1856 -0.1916 -0.0350
 1324W        W 4843   2.710   4.676   0.200  0.1427 -0.4065 -0.1035
 1325W        W 4844   8.817   7.825   8.387 -0.0050  0.0549 -0.0099
 1326W        W 4845   2.148   3.602  10.418 -0.1339 -0.0725  0.2403
 1327W        W 4846   6.544   4.814   4.156  0.0377 -0.1044 -0.1586
 1328W        W 4847   6.721   5.877   1.636 -0.0430 -0.0385  0.0113
 1329W        W 4848   6.759   8.496  10.408  0.2595 -0.2838  0.1070
 1330W        W 4849   5.390   5.539  11.664 -0.2483 -0.0036  0.0559
 1331W        W 4850   2.747   8.253   1.669  0.0909  0.2039 -0.2614
 1332W        W 4851   4.597   3.777   0.752 -0.3979 -0.2218  0.2418
 1333W        W 4852   8.740   6.253  11.472 -0.1175  0.1232  0.1022
 1334W        W 4853   8.300   8.563   0.430  0.0188  0.2016  0.0082
 1335W        W 4854   7.183   2.013   3.255  0.1114 -0.1524  0.1993
 1336W        W 4855   0.476   2.178   8.548 -0.1099  0.0861 -0.2041
 1337W        W 4856   1.962   0.432   3.287 -0.2444  0.3766 -0.0203
 1338W        W 4857   6.793   2.390   3.037 -0.0162 -0.0225 -0.1587
 1339W        W 4858   7.455   1.894   9.756 -0.0309 -0.1412  0.1673
 1340W        W 4859   5.941   1.199   0.304 -0.1939 -0.1239  0.1114
 1341W        W 4860   0.144   1.051   3.171 -0.0036  0.1843  0.1617
 1342W        W 4861   6.705   2.386   9.106  0.0330  0.2355  0.0907
 1343W        W 4862   5.978   0.976   2.628 -0.0313 -0.0422  0.1013
 1344W        W 4863   1.955   6.939  12.062 -0.2231  0.1013 -0.0402
 1345W        W 4864   6.308   5.609   1.811  0.0869  0.1118 -0.0172
 1346W        W 4865   4.991   8.903   0.474  0.1534 -0.0484  0.1366
 1347W        W 4866   5.989   8.649   3.922  0.1798 -0.3192  0.0828
 1348W        W 4867   6.670   8.567   9.342 -0.3202  0.3153  0.1852
 1349W        W 4868   1.447   9.591   0.837 -0.1228  0.0967  0.1162
 1350W        W 4869   6.988   1.158   1.383 -0.2771 -0.0149  0.2675
 1351W        W 4870   7.668   5.465   1.672 -0.0608  0.1818  0.2639
 1352W        W 4871   1.691   5.279   9.117 -0.0323 -0.0957  0.1666
 1353W        W 4872   6.100   1.822   2.696 -0.0957  0.2297  0.2445
 1354W        W 4873   5.454   7.406   8.752 -0.1693  0.2523 -0.1878
 1355W        W 4874   7.496   0.655  10.322 -0.2100 -0.1347  0.2743
 1356W        W 4875   0.615   8.380   3.647 -0.1579  0.2481  0.0709
 1357W        W 4876   9.199   4.888   9.519 -0.2005 -0.2194 -0.1875
 1358W        W 4877   4.422   3.285   8.212  0.3992 -0.2111  0.0831
 1359W        W 4878   0.455   1.225   2.830 -0.2329 -0.3221  0.0224
 1360W        W 4879   8.761   7.959  11.156  0.0048 -0.4853 -0.0979
 1361W        W 4880   7.174   7.869   3.008 -0.0878 -0.1810 -0.2131
 1362W        W 4881   6.686   8.772   1.840  0.1058 -0.0494  0.0569
 1363W        W 4882   2.108   5.672  11.541  0.1688  0.2317  0.1220
 1364W        W 4883   1.041   7.409   3.771 -0.1769 -0.2162  0.0315
 1365W        W 4884   2.272   9.603   2.068 -0.0437 -0.1919  0.1697
 1366W        W 4885   4.790   4.762  10.656  0.1525  0.0625  0.2111
 1367W        W 4886   2.445   8.589  11.034 -0.1402 -0.1856  0.0646
 1368W        W 4887   8.299   4.886  12.142 -0.1289  0.1362  0.3950
 1369W        W 4888   2.631   9.610  10.274 -0.0340  0.1983 -0.1562
 1370W        W 4889   4.586   1.892  11.532 -0.2136  0.1457 -0.2502
 1371W        W 4890   6.771   6.330   2.592 -0.0315  0.1632 -0.1779
 1372W        W 4891   1.451   0.325   9.780  0.1365 -0.0746 -0.1828
 1373W        W 4892   9.707   3.525   8.477  0.1974 -0.0365  0.1847
 1374W        W 4893   3.539   9.338   9.231 -0.0725 -0.1557 -0.0592
 1375W        W 4894   7.385   4.307  11.875  0.0579  0.0635  0.3721
 1376W        W 4895   5.497   5.798   3.672 -0.1054  0.1279  0.2570
 1377W        W 4896   4.415   1.202   1.290  0.0221 -0.0773 -0.2646
 1378W        W 4897   1.078   7.420   8.878  0.2855 -0.3985  0.0157
 1379W        W 4898   7.943   8.239  11.706  0.0301 -0.3346  0.0430
 1380W        W 4899   6.861   6.823   2.454 -0.3410  0.4658 -0.0026
 1381W        W 4900   6.908   2.802   8.614 -0.1566  0.0842 -0.0066
 1382W        W 4901   3.258   7.032   0.792 -0.0493  0.0390 -0.0165
 1383W        W 4902   7.846   4.202   3.429 -0.3247 -0.2585  0.1583
 1384W        W 4903   0.875   6.968  12.325  0.2853 -0.5372  0.2000
 1385W        W 4904   1.248   3.228  12.117  0.3677 -0.0742 -0.2262
 1386W        W 4905   2.213   1.528   3.371 -0.1202 -0.2049  0.3621
 1387W        W 4906   4.270   5.304  12.243  0.0243 -0.0569  0.1085
 1388W        W 4907   6.519   4.953   3.160 -0.0056 -0.0074 -0.0033
 1389W        W 4908   8.268   8.956   3.705 -0.1495  0.3607 -0.0616
 1390W        W 4909   4.096   0.131   0.768 -0.1178  0.0341 -0.1181
 1391W        W 4910   1.304   8.539   1.226  0.1784  0.1860 -0.2196
 1392W        W 4911   0.155   0.065  11.793  0.1381  0.0552 -0.1570
 1393W        W 4912   1.030   7.624  11.763 -0.1386  0.0144  0.2261
 1394W        W 4913   1.317   7.862   3.154 -0.2272  0.0358 -0.4198
 1395W        W 4914   5.778   2.737   9.713  0.1645 -0.3234 -0.0989
 1396W        W 4915   4.040   0.240  11.321 -0.2234  0.1777 -0.3007
 1397W        W 4916   6.768   0.435   3.356  0.2184 -0.0657  0.1189
 1398W        W 4917   0.477   8.420   0.351 -0.0688  0.0295 -0.1137
 1399W        W 4918   5.344   2.441   9.089  0.1685 -0.0903  0.0144
 1400W        W 4919   7.617   6.081   0.677 -0.0346 -0.2300  0.1502
 1401W        W 4920   4.643   6.677  11.853  0.0739  0.1427 -0.0168
 1402W        W 4921   6.301   1.787   1.398  0.0474  0.1434  0.1706
 1403W        W 4922   2.942   1.792   3.272  0.0614 -0.2689 -0.0285
 1404W        W 4923   9.155   0.031   7.418  0.0245 -0.0075 -0.0643
 1405W        W 4924   2.968   9.772  11.604  0.2400 -0.2011  0.1532
 1406W        W 4925   0.343   8.634   4.605  0.2443 -0.1100  0.1486
 1407W        W 4926   6.792   5.975   0.576  0.1464 -0.0831 -0.1480
 1408W        W 4927   0.344   8.560   3.235 -0.0236  0.1255 -0.0939
 1409W        W 4928   2.466   6.550   9.907  0.0471  0.2874  0.0311
 1410W        W 4929   5.945   1.362   9.692  0.0413 -0.0805 -0.0530
 1411W        W 4930   5.892   5.336   9.457  0.0534 -0.1412 -0.0414
 1412W        W 4931   0.177   0.598   0.313  0.0098  0.4226  0.1151
 1413W        W 4932   6.451   6.818   0.997 -0.2191  0.1357 -0.0039
 1414W        W 4933   1.833   3.164   1.644  0.0894 -0.3241  0.2530
 1415W        W 4934   3.496   4.348  11.965 -0.0747 -0.0562 -0.1682
 1416W        W 4935   1.797   8.752   0.045  0.0620 -0.3099 -0.0180
 1417W        W 4936   0.696   4.307   8.564  0.4942 -0.0567 -0.0981
 1418W        W 4937   7.579   4.183   1.236  0.0594 -0.0944  0.0511
 1419W        W 4938   7.964   9.429   3.365  0.1249  0.1570  0.0349
 1420W        W 4939   5.181   0.143  10.486 -0.2232 -0.0608  0.1813
 1421W        W 4940   4.870   2.019   0.823 -0.0476  0.1254  0.1894
 1422W        W 4941   5.917   3.654   1.947  0.1483  0.1219  0.2174
 1423W        W 4942   1.401   1.233   2.848 -0.0217 -0.1058  0.1645
 1424W        W 4943   0.293   8.232   0.773 -0.1318 -0.0192  0.0727
 1425W        W 4944   0.898   1.417   8.894 -0.1911 -0.2746 -0.2869
 1426W        W 4945   1.579   6.905  11.741  0.0494 -0.3599  0.0560
 1427W        W 4946   9.044   4.721   9.994 -0.3368  0.0453  0.1020
 1428W        W 4947   9.605   3.941  12.260 -0.1991  0.3648  0.1865
 1429W        W 4948   6.279   7.859   9.687 -0.0459  0.0436 -0.6573
 1430W        W 4949   2.317   2.396   1.768 -0.0496 -0.0742  0.2394
 1431W        W 4950   1.440   2.777   0.768 -0.0587  0.1317 -0.0087
 1432W        W 4951   2.694   7.374   9.542  0.3448 -0.3212 -0.0170
 1433W        W 4952   7.589   2.056   0.463 -0.3208  0.0787  0.1526
 1434W        W 4953   9.421   4.474   3.415 -0.2435 -0.2300 -0.0828
 1435W        W 4954   0.480   6.177  12.099  0.0741  0.0914  0.2507
 1436W        W 4955   2.574   5.662   2.878  0.0605  0.0297 -0.1479
 1437W        W 4956   2.697   6.280  10.912 -0.1647  0.2093 -0.2166
 1438W        W 4957   3.852   8.773  12.106  0.1097  0.0606 -0.1989
 1439W        W 4958   0.780   7.453   9.714 -0.1510  0.2652 -0.0008
 1440W        W 4959   4.221   6.409   1.966 -0.0517 -0.3067  0.0866
 1441W        W 4960   4.860   6.647  11.040  0.2700 -0.1567  0.0014
 1442W        W 4961   6.035   6.330   9.107  0.1112  0.0922  0.1522
 1443W        W 4962   4.538   8.434   0.568  0.0240  0.0674  0.0450
 1444W        W 4963   4.888   0.178   9.379  0.1714  0.0240 -0.1722
 1445W        W 4964   8.937   5.652   9.117 -0.0161  0.1169  0.3299
 1446W        W 4965   4.515   5.717   1.546 -0.1172 -0.0600  0.2645
 1447W        W 4966   7.094   5.744   9.111  0.0138  0.3726  0.0843
 1448W        W 4967   1.943   7.752  11.099  0.0522  0.0668 -0.1197
 1449W        W 4968   3.363   3.371   3.065  0.2060  0.0854  0.0554
 1450W        W 4969   8.497   9.399  11.748 -0.0662 -0.0521  0.0919
 1451W        W 4970   6.046   7.357   0.066 -0.1483 -0.1674  0.0175
 1452W        W 4971   8.115   8.660  10.431  0.0096 -0.1974  0.0661
 1453W        W 4972   7.405   8.053   8.865 -0.0256  0.0927 -0.0748
 1454W        W 4973   0.813   3.890  10.917  0.0219  0.0237 -0.1932
 1455W        W 4974   5.912   6.163   0.619  0.2763  0.0626 -0.0098
 1456W        W 4975   9.225   9.384   8.710 -0.0918  0.0670  0.1755
 1457W        W 4976   4.885   0.616  11.393  0.1812 -0.1532  0.0494
 1458W        W 4977   5.309   4.888   3.442 -0.0319  0.0853 -0.1985
 1459W        W 4978   3.793   1.710   3.953  0.1907  0.0623 -0.0274
 1460W        W 4979   5.272   5.732   9.720  0.0210 -0.1799  0.0380
 1461W        W 4980   7.325   7.352  10.484  0.3683  0.0108  0.3837
 1462W        W 4981   8.307   4.681   0.740  0.1888 -0.1446  0.0664
 1463W        W 4982   1.408   5.796  12.076 -0.2776 -0.0241  0.2802
 1464W        W 4983   5.464   0.313  10.888  0.1950 -0.3035  0.2386
 1465W        W 4984   3.223   1.518   3.782  0.1845  0.0840  0.1178
 1466W        W 4985   4.197   7.894  10.767  0.0653 -0.1847 -0.1274
 1467W        W 4986   4.455   4.608   2.407  0.2830 -0.0411 -0.0922
 1468W        W 4987   0.649   8.250   9.155 -0.2116  0.5669  0.2598
 1469W        W 4988   0.371   6.529   0.010  0.0951 -0.0606  0.1086
 1470W        W 4989   8.118   8.856   2.297  0.1458 -0.0117  0.3307
 1471W        W 4990   2.891   1.027   0.799 -0.1996 -0.1093 -0.2369
 1472W        W 4991   0.010   4.477   1.151 -0.2788 -0.0827 -0.1006
 1473W        W 4992   4.430   5.573  11.719  0.0199 -0.4141  0.0018
 1474W        W 4993   7.318   8.088   0.528 -0.1361  0.1628  0.0476
 1475W        W 4994   2.229   4.595   1.492 -0.1810 -0.0541  0.0180
 1476W        W 4995   0.043   3.958   3.406  0.0295 -0.0800 -0.5900
 1477W        W 4996   9.150   0.230   9.703  0.1444  0.2293 -0.4668
 1478W        W 4997   9.519   6.191   3.564 -0.1770 -0.0143  0.1687
 1479W        W 4998   8.714   2.671   3.837 -0.0431  0.4881 -0.1187
 1480W        W 4999   8.699   6.847  12.098  0.1041  0.0391 -0.2359
 1481W        W 5000   7.964   9.578   9.318 -0.2517 -0.0777  0.0613
 1482W        W 5001   4.350   9.534  11.534  0.0973 -0.1820 -0.1686
 1483W        W 5002   7.505   4.682   8.566  0.0707 -0.0084 -0.0448
 1484W        W 5003   4.116   4.930   2.150  0.1455 -0.1306  0.0846
 1485W        W 5004   7.283   4.091   8.238  0.0011  0.0649 -0.1824
 1486W        W 5005   2.915   2.204  10.864 -0.0378 -0.0387 -0.0000
 1487W        W 5006   6.110   2.301   3.544 -0.1801  0.2699 -0.0177
 1488W        W 5007   5.829   8.072   3.297 -0.3313  0.4609 -0.0494
 1489W        W 5008   8.749   9.051   3.719 -0.0755  0.1132  0.1594
 1490W        W 5009   9.703   8.220  11.278 -0.2017 -0.0189 -0.1307
 1491W        W 5010   5.468   6.781  12.053  0.0719  0.1961  0.1636
 1492W        W 5011   3.212   6.345   4.295  0.1368  0.2739 -0.0920
 1493W        W 5012   5.124   8.739   3.129 -0.0384  0.2194  0.0794
 1494W        W 5013   4.619   6.234   9.045  0.2961  0.1010 -0.1480
 1495W        W 5014   4.702   2.907   3.346 -0.1735 -0.3352  0.2601
 1496W        W 5015   9.278   7.386   0.233  0.1175  0.0551  0.0042
 1497W        W 5016   7.723   9.225   4.208 -0.0679 -0.1199  0.0881
 1498W        W 5017   0.823   7.260   2.464 -0.0647  0.3028 -0.1062
 1499W        W 5018   1.945   1.062  11.356 -0.2412  0.1079 -0.1638
 1500W        W 5019   3.083   9.702   2.637 -0.0081 -0.2267  0.2807
 1501W        W 5020   3.008   1.769  10.661 -0.1091  0.0961 -0.1017
 1502W        W 5021   7.438   9.385   0.074 -0.0426  0.1812 -0.1470
 1503W        W 5022   9.421   3.357  10.436  0.1775 -0.0502 -0.0126
 1504W        W 5023   3.416   4.963   8.740  0.1522 -0.2348  0.0508
 1505W        W 5024   9.592   7.137   8.521  0.0690  0.1496  0.0719
 1506W        W 5025   6.365   8.758  11.329  0.1676 -0.2265  0.1559
 1507W        W 5026   2.325   8.251  10.086 -0.0657  0.1111 -0.1342
 1508W        W 5027   4.512   1.064   9.564 -0.1493  0.3598  0.2567
 1509W        W 5028   1.038   7.018   9.784 -0.0533  0.0600 -0.1766
 1510W        W 5029   2.086   2.792   9.597  0.2540  0.1587  0.0734
 1511W        W 5030   6.588   7.491   9.530 -0.2375 -0.1311 -0.1019
 1512W        W 5031   3.919   6.536   8.039 -0.0622  0.3295 -0.2425
 1513W        W 5032   7.595   5.985   1.794 -0.1235 -0.2276  0.1342
 1514W        W 5033   6.465   5.045   8.838 -0.1095 -0.0256  0.2418
 1515W        W 5034   0.823   5.151   9.487  0.0321  0.2205  0.2740
 1516W        W 5035   2.276   9.416   2.513  0.1587 -0.3656  0.4353
 1517W        W 5036   1.323   5.931   0.163  0.3023 -0.4474 -0.0767
 1518W        W 5037   4.969   1.685  10.837 -0.1200  0.0488  0.1412
 1519W        W 5038   8.432   6.602  10.569  0.2837  0.0526 -0.2105
 1520W        W 5039   5.671   0.797  12.123  0.1416 -0.0485  0.2283
 1521W        W 5040   0.789   2.498   4.208 -0.1418  0.0566 -0.0487
 1522W        W 5041   8.312   9.719   0.099 -0.0831 -0.0690  0.2753
 1523W        W 5042   7.459   8.894  11.030  0.0099  0.2185  0.0309
 1524W        W 5043   3.919   1.424  11.814  0.0553 -0.3923 -0.1715
 1525W        W 5044   5.749   9.719  11.069  0.1984  0.0266 -0.3660
 1526W        W 5045   7.259   6.163   2.631  0.0189 -0.1736  0.2659
 1527W        W 5046   0.975   0.039  11.078  0.5195 -0.1021  0.0537
 1528W        W 5047   0.038   2.807   3.369 -0.3065  0.0178  0.0761
 1529W        W 5048   0.246   5.771   9.937 -0.0861 -0.1485 -0.2628
 1530W        W 5049   4.575   6.204  10.963 -0.0743  0.0288 -0.1712
 1531W        W 5050   8.229   9.279   0.472  0.4316  0.2559 -0.4029
 1532W        W 5051   5.808   3.785   0.641 -0.1200 -0.2124 -0.0628
 1533W        W 5052   3.233   0.619   3.319  0.1859  0.1344 -0.2151
 1534W        W 5053   7.108   8.998   3.133 -0.1459 -0.2000 -0.3134
 1535W        W 5054   0.125   8.215   1.535  0.0184  0.1536  0.1285
 1536W        W 5055   9.483   6.012   3.088 -0.1866  0.0273 -0.0997
 1537W        W 5056   1.083   2.000   3.501 -0.2884  0.2425 -0.0216
 1538W        W 5057   0.618   4.607   1.419 -0.0882  0.2775  0.0594
 1539W        W 5058   2.089   1.425   1.735 -0.0401 -0.2026  0.3283
 1540W        W 5059   5.225   6.921  10.812 -0.1020 -0.1380 -0.0459
 1541W        W 5060   0.406   1.454  11.274  0.1289 -0.0860 -0.0089
 1542W        W 5061   0.243   5.343  10.565  0.0477 -0.0169  0.0644
 1543W        W 5062   9.205   6.068   0.083 -0.0737 -0.0323 -0.1632
 1544W        W 5063   7.674   0.083  11.085  0.1611 -0.2661  0.1119
 1545W        W 5064   6.881   0.243   9.276 -0.1516 -0.2131 -0.0987
 1546W        W 5065   6.735   1.941   1.155  0.1109  0.1152 -0.1018
 1547W        W 5066   2.197   7.348   9.293 -0.3634  0.3088  0.0971
 1548W        W 5067   7.300   0.084   2.096  0.1020 -0.0247 -0.0687
 1549W        W 5068   8.661   9.347   4.150  0.0730  0.0286 -0.2836
 1550W        W 5069   9.269   8.052   9.195 -0.1717  0.1686 -0.1453
 1551W        W 5070   8.927   7.926   2.937  0.2621  0.1664 -0.0839
 1552W        W 5071   1.749   6.156  11.143 -0.1788 -0.2578  0.2122
 1553W        W 5072   4.230   2.895  10.054 -0.1917 -0.3679  0.0936
 1554W        W 5073   7.875   8.315   2.057  0.1595 -0.0119 -0.1021
 1555W        W 5074   4.693   6.118  11.793  0.1720 -0.2190  0.1477
 1556W        W 5075   0.581   9.174  12.074  0.0891  0.4161  0.0594
 1557W        W 5076   6.917   9.537   0.092  0.0595  0.1731 -0.1061
 1558W        W 5077   1.224   3.293   8.980 -0.1994 -0.1000  0.2365
 1559W        W 5078   6.249   5.415   0.864 -0.0080  0.1366  0.0656
 1560W        W 5079   6.500   8.108  11.258  0.1627  0.2084 -0.1041
 1561W        W 5080   5.043   6.004   8.319  0.2881  0.2596 -0.0698
 1562W        W 5081   6.046   2.049   9.734  0.1077 -0.0938  0.1630
 1563W        W 5082   8.061   7.691   8.838 -0.0269  0.1796  0.0886
 1564W        W 5083   2.909   3.762   2.594  0.0268  0.3098  0.3718
 1565W        W 5084   0.572   6.789   9.616  0.1219  0.1898 -0.1950
 1566W        W 5085   3.530   2.709  11.461  0.5008 -0.1120  0.0110
 1567W        W 5086   3.489   1.031   8.850 -0.2146 -0.0843 -0.3260
 1568W        W 5087   9.070   4.324   4.621 -0.1338 -0.1200  0.1771
 1569W        W 5088   1.553   7.426   1.099 -0.2216 -0.2317 -0.1183
 1570W        W 5089   4.216   9.729  10.097  0.0123  0.1079  0.1433
 1571W        W 5090   4.407   9.696   1.529 -0.2066 -0.1702  0.1907
 1572W        W 5091   7.258   1.345  11.302 -0.0003  0.0108  0.2471
 1573W        W 5092   6.306   1.710  11.450  0.1157 -0.5179  0.0551
 1574W        W 5093   8.611   5.106   1.699  0.0081 -0.0339  0.1157
 1575W        W 5094   3.948   4.665  11.067 -0.1233  0.1106 -0.0303
 1576W        W 5095   5.997   0.562   2.900  0.0381 -0.1111 -0.1316
 1577W        W 5096   3.332   8.297  11.487 -0.0395  0.3200  0.1268
 1578W        W 5097   8.529   4.925   8.408  0.0091 -0.0419  0.3657
 1579W        W 5098   8.254   1.420   3.343  0.0890  0.1320  0.1367
 1580W        W 5099   5.508   6.180   8.430  0.0052 -0.0177 -0.1528
 1581W        W 5100   7.452   4.746  11.535 -0.2628  0.3151  0.1420
 1582W        W 5101   4.178   2.501  10.311 -0.0763 -0.1229 -0.0650
 1583W        W 5102   1.524   5.353  12.229  0.3162  0.0008  0.2470
 1584W        W 5103   0.819   7.107   9.306 -0.0693 -0.1344  0.0682
 1585W        W 5104   4.534   8.213  11.033  0.0429 -0.0851 -0.2100
 1586W        W 5105   2.502   8.992   0.242  0.2802  0.0863  0.3202
 1587W        W 5106   0.608   9.678  12.080  0.1134 -0.0620  0.1801
 1588W        W 5107   9.018   6.301   3.638  0.2547  0.1638  0.2124
 1589W        W 5108   0.742   7.978   0.708 -0.0707 -0.0397 -0.0342
 1590W        W 5109   3.967   6.951   9.282 -0.4095  0.5312  0.1038
 1591W        W 5110   5.813   0.423   9.411  0.1583  0.3160  0.1027
 1592W        W 5111   2.167   3.368   1.338  0.2886 -0.0668  0.0096
 1593W        W 5112   7.424   7.153   7.966 -0.2405 -0.2815  0.2680
 1594W        W 5113   6.909   1.059   0.159  0.1071  0.0299  0.4260
 1595W        W 5114   0.452   2.973   1.965  0.0414 -0.3816  0.0111
 1596W        W 5115   9.753   1.848   3.183  0.2621 -0.0025  0.1155
 1597W        W 5116   5.021   3.479   2.110 -0.0516  0.2472 -0.3826
 1598W        W 5117   3.819   1.397   2.097  0.1539  0.2398  0.1062
 1599W        W 5118   4.068   0.669   0.116 -0.1413 -0.1753  0.0765
 1600W        W 5119   3.333   7.137   7.933 -0.3592  0.1162 -0.2350
 1601W        W 5120   7.924   0.865  10.804 -0.0648 -0.2546 -0.3485
 1602W        W 5121   9.031   8.261   3.293  0.1210  0.3179 -0.2728
 1603W        W 5122   7.263   2.508   2.821 -0.0760 -0.1462 -0.3197
 1604W        W 5123   0.185   8.914   3.970 -0.0225  0.0932 -0.4016
 1605W        W 5124   6.767   3.031   1.808  0.1990 -0.1280  0.0673
 1606W        W 5125   8.818   1.868   9.264  0.1060  0.1299  0.0879
 1607W        W 5126   4.059   3.694  10.579  0.0277  0.1800 -0.3748
 1608W        W 5127   2.620   5.646  11.784 -0.1150 -0.0578  0.0546
 1609W        W 5128   0.137   6.172   2.004  0.0640  0.0517 -0.2626
 1610W        W 5129   3.573   8.220  10.613  0.2304 -0.1174  0.0435
 1611W        W 5130   3.276   8.145  11.947 -0.3515  0.1769  0.0177
 1612W        W 5131   4.538   5.993   8.525 -0.0421 -0.2542  0.1212
 1613W        W 5132   0.751   7.295   1.591 -0.0506  0.4294 -0.0103
 1614W        W 5133   6.466   1.769   8.734  0.0107  0.1621 -0.1814
 1615W        W 5134   5.092   5.517   0.065  0.0318 -0.0208  0.1519
 1616W        W 5135   7.991   2.210   2.338  0.1034 -0.0075  0.3240
 1617W        W 5136   7.650   0.087   3.373 -0.0203 -0.2498 -0.1025
 1618W        W 5137   3.334   7.731   8.370 -0.0428 -0.2596 -0.1402
 1619W        W 5138   3.044   5.515   2.050 -0.0868 -0.1241 -0.1813
 1620W        W 5139   7.466   3.857   3.448  0.1057  0.3481  0.1713
 1621W        W 5140   3.592   8.182   8.499 -0.1133  0.1651  0.1135
 1622W        W 5141   2.236   0.357   9.785 -0.3955  0.1165 -0.0515
 1623W        W 5142   5.783   6.274   3.565  0.1496 -0.1246  0.0394
 1624W        W 5143   0.196   1.901   9.213  0.2625 -0.2940 -0.2785
 1625W        W 5144   2.295   9.442  10.828  0.0620 -0.2143 -0.1477
 1626W        W 5145   8.402   3.522   2.482 -0.0496  0.0720 -0.3660
 1627W        W 5146   9.441   8.489   1.554  0.1001 -0.2525  0.0683
 1628W        W 5147   6.078   0.358   8.848 -0.1050 -0.4709  0.3763
 1629W        W 5148   1.247   4.244   3.714  0.0421 -0.0278 -0.0596
 1630W        W 5149   3.413   0.568   0.785  0.1522 -0.1713  0.2828
 1631W        W 5150   7.616   9.490   1.867 -0.1183  0.1998  0.1199
 1632W        W 5151   7.782   5.170  10.269 -0.1380 -0.2761 -0.1112
 1633W        W 5152   0.534   8.787   8.693 -0.2209  0.1226 -0.3195
 1634W        W 5153   3.286   6.320  11.765 -0.1601  0.0365  0.0438
 1635W        W 5154   4.747   1.591   2.877  0.0274  0.0272  0.0828
 1636W        W 5155   1.081   0.054  11.949  0.0353 -0.0186 -0.1342
 1637W        W 5156   0.066   2.997   8.404 -0.0279 -0.2767  0.1325
 1638W        W 5157   1.379   8.721   9.901  0.0002  0.2199  0.0667
 1639W        W 5158   2.877   3.988   8.018  0.1997 -0.1519 -0.0104
 1640W        W 5159   6.886   2.676  11.410  0.2544 -0.0675 -0.0420
 1641W        W 5160   0.340   0.776   9.191 -0.2973 -0.3469  0.1765
 1642W        W 5161   1.995   6.503   9.042  0.0149  0.2653  0.2893
 1643W        W 5162   8.894   0.803  10.998  0.0624  0.2680  0.0415
 1644W        W 5163   7.593   4.886   2.027 -0.1756 -0.1765  0.1734
 1645W        W 5164   3.645   4.236   0.089  0.1375  0.0073  0.1970
 1646W        W 5165   0.661   6.697   3.183 -0.0526  0.0038 -0.1393
 1647W        W 5166   2.587   6.697   7.750 -0.2149 -0.0521  0.3430
 1648W        W 5167   0.475   6.074   4.129 -0.1813  0.2323 -0.4392
 1649W        W 5168   8.525   8.582   4.001  0.0507 -0.0338 -0.2082
 1650W        W 5169   1.612   8.737  10.502  0.1134 -0.2460 -0.0388
 1651W        W 5170   2.578   5.822  10.698 -0.2312 -0.1441 -0.2243
 1652W        W 5171   7.865   6.846  11.407  0.2557 -0.0518  0.1920
 1653W        W 5172   1.800   1.513   2.984 -0.1111 -0.0605  0.2090
 1654W        W 5173   1.656   2.621   0.293  0.0019 -0.0293 -0.3711
 1655W        W 5174   7.033   7.009   3.705 -0.2911 -0.0959  0.4190
 1656W        W 5175   3.779   6.565  11.754 -0.2987 -0.2468 -0.2249
 1657W        W 5176   7.609   8.305   2.851 -0.3247  0.1191 -0.4688
 1658W        W 5177   1.991   9.418   1.668 -0.0537 -0.2486  0.0015
 1659W        W 5178   2.165   7.804   4.221  0.2161  0.0872  0.0575
 1660W        W 5179   7.979   6.889  10.774 -0.3132  0.3758 -0.1719
 1661W        W 5180   3.798   4.168  10.332 -0.0194 -0.1292 -0.0930
 1662W        W 5181   2.381   4.613   0.678  0.0423  0.0070  0.2194
 1663W        W 5182   3.757   6.352   0.463 -0.0606 -0.1494  0.1882
 1664W        W 5183   8.865   8.552   2.980  0.2058 -0.1086 -0.0286
 1665W        W 5184   6.873   2.030   1.618  0.1389  0.1687 -0.0344
 1666W        W 5185   2.214   1.313   8.670 -0.1953 -0.2049 -0.0993
 1667W        W 5186   1.836   1.539  11.199  0.0184 -0.0713 -0.1222
 1668W        W 5187   3.627   4.014   3.461 -0.2000 -0.0918 -0.0658
 1669W        W 5188   5.754   0.627   3.392 -0.2234 -0.1415  0.1655
 1670W        W 5189   5.734   8.922  12.148 -0.1928  0.1109  0.3785
 1671W        W 5190   1.401   4.710   3.730 -0.1104  0.0264 -0.0052
 1672W        W 5191   7.544   8.555  11.427  0.1328  0.1987  0.4533
 1673W        W 5192   8.227   2.752   3.831 -0.2410  0.1348  0.0521
 1674W        W 5193   3.499   2.288   2.292 -0.2482  0.1477  0.0425
 1675W        W 5194   0.000   3.841   7.564  0.3124 -0.2124 -0.0519
 1676W        W 5195   8.780   9.721   3.260 -0.2739 -0.3401  0.1086
 1677W        W 5196   8.084   1.110   2.160  0.2392  0.2436  0.4202
 1678W        W 5197   1.451   3.703   2.405 -0.2250  0.0188  0.0217
 1679W        W 5198   4.260   3.390   1.437  0.0813  0.1408 -0.5194
 1680W        W 5199   2.754   6.119   2.804  0.0476  0.0569  0.1825
 1681W        W 5200   5.052   8.320   0.393  0.0934 -0.2921  0.5682
 1682W        W 5201   1.029   5.465  11.921  0.0531  0.0274 -0.2834
 1683W        W 5202   1.938   3.911   2.828  0.2669 -0.1579  0.3116
 1684W        W 5203   3.953   7.193   3.006  0.0498 -0.1583 -0.3473
 1685W        W 5204   6.140   4.099   3.380 -0.2046 -0.0308  0.0517
 1686W        W 5205   9.499   2.616   2.871  0.1472 -0.1102 -0.1363
 1687W        W 5206   2.929   4.573   9.928  0.1593  0.0291 -0.0621
 1688W        W 5207   2.060   3.095   3.859 -0.1002  0.0383  0.1416
 1689W        W 5208   2.943   6.622  10.090  0.0710 -0.1887 -0.2143
 1690W        W 5209   5.069   0.551   0.327 -0.3995 -0.6285  0.1899
 1691W        W 5210   1.254   4.304  12.143  0.0792  0.0130  0.1117
 1692W        W 5211   7.596   2.123   2.691  0.0875  0.2345  0.3912
 1693W        W 5212   1.912   5.114   2.422 -0.1185 -0.0804 -0.0946
 1694W        W 5213   8.270   5.132   8.782  0.3573  0.1411  0.0571
 1695W        W 5214   6.651   6.843   1.968  0.0076 -0.0428 -0.0310
 1696W        W 5215   7.707   2.032   1.547 -0.0822  0.1441 -0.1463
 1697W        W 5216   8.418   9.193  12.336 -0.4030  0.4730 -0.1455
 1698W        W 5217   0.682   1.853   9.508  0.1462  0.0378  0.1483
 1699W        W 5218   8.814   9.713   3.826 -0.0106 -0.2020  0.0166
 1700W        W 5219   7.387   2.423  10.391  0.1506 -0.1271 -0.1334
 1701W        W 5220   2.594   6.849   1.941  0.0770 -0.1104  0.2092
 1702W        W 5221   6.575   8.966   1.369 -0.2464 -0.0992 -0.1957
 1703W        W 5222   2.905   7.798   1.861 -0.0369 -0.1798 -0.3945
 1704W        W 5223   3.199   6.221   7.650  0.0907 -0.2093  0.2933
 1705W        W 5224   3.369   7.369  11.756  0.3729 -0.0395 -0.1274
 1706W        W 5225   8.779   1.829  11.757  0.0002 -0.3828  0.0934
 1707W        W 5226   5.243   1.902   2.901 -0.0830  0.0425  0.1356
 1708W        W 5227   3.888   6.942   0.038 -0.2619  0.1487 -0.0098
 1709W        W 5228   8.234   1.745   2.300  0.2850 -0.0019 -0.3631
 1710W        W 5229   0.394   3.581   8.980  0.2243  0.0086  0.1032
 1711W        W 5230   7.776   7.800  11.469 -0.2039 -0.0995  0.1227
 1712W        W 5231   0.924   3.701   9.104  0.0049  0.3382  0.0500
 1713W        W 5232   6.323   7.644  10.865 -0.0035 -0.1371  0.2023
 1714W        W 5233   7.189   4.862   3.245 -0.1610 -0.0386 -0.0229
 1715W        W 5234   1.021   8.440  12.345  0.0097  0.0116 -0.1950
 1716W        W 5235   3.057   0.193   3.044  0.2520  0.4122  0.1476
 1717W        W 5236   7.553   2.880  10.161  0.1200 -0.0183 -0.1375
 1718W        W 5237   1.262   0.991   4.371 -0.1293  0.0709 -0.2454
 1719W        W 5238   4.809   1.157  11.994  0.1335  0.1434 -0.1026
 1720W        W 5239   5.358   5.314  12.104 -0.1332 -0.1077  0.2552
 1721W        W 5240   0.940   9.754   9.679  0.2529 -0.0041  0.0819
 1722W        W 5241   2.749   6.309   2.261 -0.2128 -0.1795 -0.4865
 1723W        W 5242   9.616   5.875  10.243  0.1516 -0.2478  0.0548
 1724W        W 5243   6.281   7.784   2.104 -0.1733  0.0097 -0.2248
 1725W        W 5244   3.639   1.110  10.742 -0.2986 -0.0861 -0.1352
 1726W        W 5245   0.741   5.728   8.121 -0.1947  0.4164 -0.0902
 1727W        W 5246   9.399   7.202  11.235  0.1586  0.0010 -0.0289
 1728W        W 5247   4.583   2.865   0.316 -0.0365 -0.1654 -0.0206
 1729W        W 5248   0.071   9.216   2.568  0.0602 -0.2238 -0.0513
 1730W        W 5249   2.699   5.287  10.599 -0.0696  0.1188 -0.1223
 1731W        W 5250   0.994   2.608   0.301 -0.2389 -0.1369 -0.0283
 1732W        W 5251   0.746   5.060   0.013  0.4177  0.0258  0.0804
 1733W        W 5252   0.052   7.352   9.108 -0.1229  0.0506  0.1210
 1734W        W 5253   2.223   4.827   0.235 -0.0260 -0.0122 -0.0658
 1735W        W 5254   7.434   7.246   8.439 -0.3283 -0.1380  0.4817
 1736W        W 5255   8.677   9.765  11.330 -0.1927 -0.0295  0.1126
 1737W        W 5256   7.179   3.375   1.873  0.0595  0.1884  0.3176
 1738W        W 5257   9.465   0.585  11.969 -0.1421  0.0350  0.1800
 1739W        W 5258   5.598   9.626   8.669 -0.2428  0.0783  0.2436
 1740W        W 5259   5.369   7.988  12.091  0.1746  0.1416  0.2629
 1741W        W 5260   4.033   5.534   8.597 -0.1440  0.1294  0.1183
 1742W        W 5261   2.860   1.833  10.197 -0.2515 -0.1485 -0.0573
 1743W        W 5262   3.618   1.061   9.772 -0.3010 -0.1578  0.0498
 1744W        W 5263   4.587   1.141   0.703 -0.0107  0.1687 -0.0947
 1745W        W 5264   8.636   0.729   3.565 -0.0705  0.0864  0.0798
 1746W        W 5265   9.246   6.506  10.703 -0.0762 -0.2601  0.1295
 1747W        W 5266   7.580   9.544  11.547 -0.0094 -0.0489 -0.3593
 1748W        W 5267   5.800   2.123  12.219  0.0880 -0.3856 -0.1048
 1749W        W 5268   9.753   6.114   0.046  0.0248 -0.1322 -0.3292
 1750W        W 5269   2.531   4.309  11.308 -0.0427 -0.1406 -0.0476
 1751W        W 5270   6.347   9.771  10.744 -0.0258 -0.2068  0.2184
 1752W        W 5271   1.731   6.453   4.426  0.1697 -0.1001  0.3064
 1753W        W 5272   0.381   2.259   2.339 -0.2867  0.0205 -0.1041
 1754W        W 5273   2.393   9.763  11.687  0.0506  0.0102  0.1608
 1755W        W 5274   5.162   4.622   2.533 -0.1882  0.1450  0.1686
 1756W        W 5275   7.225   9.073   0.413 -0.0025 -0.0915  0.3059
 1757W        W 5276   5.685   0.916   2.149 -0.0140 -0.0530  0.4996
 1758W        W 5277   0.852   4.575   3.210 -0.0250  0.0809 -0.1038
 1759W        W 5278   0.400   8.220  10.887 -0.0270 -0.0582 -0.0324
 1760W        W 5279   4.078   3.668   3.382  0.1440  0.1598 -0.1134
 1761W        W 5280   2.658   9.602  11.149  0.0426  0.2505  0.3265
 1762W        W 5281   6.359   8.517   2.132  0.0333 -0.1772 -0.1030
 1763W        W 5282   2.000   5.809   9.781  0.2808 -0.0385  0.2557
 1764W        W 5283   0.718   1.929   2.557  0.1298 -0.1192  0.1262
 1765W        W 5284   2.659   5.788   0.096  0.1655 -0.0079 -0.2485
 1766W        W 5285   6.796   0.094  10.136 -0.0003 -0.0359 -0.0474
 1767W        W 5286   8.399   6.050   1.764  0.5854 -0.1388 -0.1983
 1768W        W 5287   2.225   2.184   0.835 -0.1277  0.3500  0.0390
 1769W        W 5288   5.452   9.775   0.201  0.0421 -0.0798  0.0512
 1770W        W 5289   0.654   5.392   0.401 -0.2072 -0.1705 -0.1463
 1771W        W 5290   1.913   5.938   1.353  0.1279  0.3038 -0.3265
 1772W        W 5291   6.922   1.414   3.071  0.1643 -0.1060  0.1464
 1773W        W 5292   6.789   7.188  12.340  0.4294 -0.1698  0.1219
 1774W        W 5293   8.398   7.519   8.030  0.2005  0.0531  0.1570
 1775W        W 5294   6.743   4.560   2.351  0.1136  0.1194 -0.3108
 1776W        W 5295   1.152   6.100   9.945  0.0275  0.2515  0.1658
 1777W        W 5296   5.086   6.294  10.770  0.0189  0.2416 -0.2174
 1778W        W 5297   5.061   9.139   2.425  0.1042  0.4617 -0.4202
 1779W        W 5298   6.075   7.060   3.742 -0.0231  0.0318  0.0685
 1780W        W 5299   5.890   9.771  11.549 -0.0564 -0.2293 -0.0585
 1781W        W 5300   2.541   6.255  12.245 -0.3500 -0.0219  0.0283
 1782W        W 5301   4.080   8.695   9.412  0.1639 -0.5321 -0.0194
 1783W        W 5302   0.913   8.666   9.138  0.0716 -0.0975  0.0693
 1784W        W 5303   1.220   3.358   3.739 -0.2238  0.0632 -0.0301
 1785W        W 5304   3.255   6.326  10.888  0.0010 -0.1597  0.2413
 1786W        W 5305   1.782   4.393  10.451 -0.0014 -0.0814  0.2984
 1787W        W 5306   1.714   8.714   4.440 -0.2431 -0.2310 -0.1546
 1788W        W 5307   5.611   0.479   1.318  0.0274 -0.0713  0.2028
 1789W        W 5308   6.032   3.621  10.678 -0.1228  0.0911 -0.1593
 1790W        W 5309   3.385   8.597   8.251  0.2238 -0.1928  0.1366
 1791W        W 5310   8.313   4.792   7.975  0.0663  0.2111 -0.0217
 1792W        W 5311   1.077   0.216   0.143 -0.3530  0.3078  0.0571
 1793W        W 5312   9.372   9.675   9.301  0.2166  0.2823 -0.3718
 1794W        W 5313   6.745   8.067   9.466 -0.0660  0.0060  0.0196
 1795W        W 5314   4.165   0.570   4.236 -0.1875  0.3869 -0.5161
 1796W        W 5315   1.751   7.722   3.223 -0.1617 -0.6636 -0.0188
 1797W        W 5316   2.909   3.291   2.970  0.0572 -0.0223 -0.3811
 1798W        W 5317   5.176   7.108   2.745 -0.1723 -0.0583 -0.3188
 1799W        W 5318   0.978   8.180   2.722 -0.0153  0.1300 -0.1726
 1800W        W 5319   7.905   4.580   1.126 -0.0574  0.2386  0.2026
 1801W        W 5320   3.788   0.960  12.092 -0.1077 -0.1835 -0.3688
 1802W        W 5321   5.039   9.771   3.891 -0.2695 -0.1501  0.2717
 1803W        W 5322   0.087   7.999   9.835 -0.3175 -0.1711 -0.1399
 1804W        W 5323   5.985   4.125   0.330  0.5756 -0.3162  0.0732
 1805W        W 5324   2.127   1.566  11.834 -0.0749 -0.1102 -0.2891
 1806W        W 5325   1.169   0.202   8.702 -0.2893  0.3340 -0.0811
 1807W        W 5326   0.208   9.553   2.957 -0.0428  0.1494  0.0630
 1808W        W 5327   7.735   0.436   0.297 -0.0527 -0.0185 -0.1368
 1809W        W 5328   1.209   3.625   9.524  0.2719 -0.3838 -0.0835
 1810W        W 5329   2.599   2.372   2.201  0.3667 -0.3422  0.1757
 1811W        W 5330   2.242   6.729   2.363 -0.1426  0.0600 -0.1521
 1812W        W 5331   2.503   1.258   0.473  0.2102 -0.0157  0.1032
 1813W        W 5332   3.423   7.479   0.508  0.2109  0.0782  0.3320
 1814W        W 5333   8.519   5.966   9.383  0.2423  0.0791 -0.1065
 1815W        W 5334   7.125   4.410  10.858 -0.0316  0.1047 -0.0191
 1816W        W 5335   6.207   7.917  11.649  0.1368 -0.4546 -0.0760
 1817W        W 5336   7.188   9.493   0.775  0.4707  0.2250 -0.0561
 1818W        W 5337   3.119   9.703   9.399  0.1142  0.1775 -0.0487
 1819W        W 5338   4.716   7.668   2.383  0.0153  0.0329 -0.1046
 1820W        W 5339   0.797   1.615   0.811  0.1991  0.1474 -0.1028
 1821W        W 5340   0.689   1.878   2.045 -0.1326 -0.1622 -0.0722
 1822W        W 5341   7.239   4.705   9.530 -0.1253 -0.0764  0.0047
 1823W        W 5342   5.706   6.912  11.109  0.0033  0.3758 -0.2462
 1824W        W 5343   7.464   1.566  10.548 -0.2044 -0.1297  0.1184
 1825W        W 5344   3.869   4.554   2.364  0.0528 -0.0154 -0.0314
 1826W        W 5345   0.369   3.731   7.986 -0.4808  0.0929  0.1018
 1827W        W 5346   6.167   6.649  11.383  0.4326  0.1184  0.0632
 1828W        W 5347   9.504   7.681  11.282 -0.1897 -0.1845  0.1497
 1829W        W 5348   1.761   1.107   8.729 -0.0192 -0.2812  0.0538
 1830W        W 5349   5.617   4.163  12.304  0.1215 -0.1756 -0.0552
 1831W        W 5350   1.661   4.339   2.816  0.3698  0.2958  0.1924
 1832W        W 5351   5.928   3.265   0.615  0.1175  0.4549  0.0851
 1833W        W 5352   0.253   2.217   1.420 -0.0143 -0.1330 -0.1551
 1834W        W 5353   0.482   6.805   7.807  0.1761 -0.0172  0.0335
 1835W        W 5354   3.393   1.658   0.416  0.0698  0.1574 -0.0110
 1836W        W 5355   5.720   1.592   0.575  0.1421 -0.0367 -0.0472
 1837W        W 5356   4.208   9.640   3.526 -0.1563 -0.1768 -0.0738
 1838W        W 5357   8.587   4.253   0.481  0.0794 -0.2175  0.1458
 1839W        W 5358   3.902   3.791   1.349  0.0235 -0.1088  0.0446
 1840W        W 5359   4.913   1.542  11.293  0.3358 -0.1796  0.0111
 1841W        W 5360   1.320   7.810   8.643  0.2034 -0.2524 -0.0345
 1842W        W 5361   5.812   8.586   0.890  0.6204  0.1079 -0.0850
 1843W        W 5362   9.743   3.455   0.258 -0.0079 -0.0849 -0.0249
 1844W        W 5363   9.698   5.434   3.821  0.0879  0.2519  0.1197
 1845W        W 5364   5.633   6.539  11.586 -0.0021  0.2140  0.1946
 1846W        W 5365   3.428   6.393   4.781  0.1972  0.2922  0.0549
 1847W        W 5366   1.252   3.258   2.253 -0.0071  0.0006 -0.2512
 1848W        W 5367   8.484   8.665  12.286 -0.1012  0.1414 -0.0345
 1849W        W 5368   5.977   5.827   3.421  0.0310 -0.0145 -0.0532
 1850W        W 5369   4.981   4.502   2.000  0.1675  0.1989 -0.1663
 1851W        W 5370   2.824   1.983   2.716 -0.3252  0.0074  0.2420
 1852W        W 5371   6.829   0.867  11.753  0.0294  0.1220  0.0172
 1853W        W 5372   6.242   0.045  10.269  0.1263 -0.2504 -0.5512
 1854W        W 5373   6.650   6.507  12.193  0.0218 -0.0707 -0.0784
 1855W        W 5374   2.476   6.567   2.915  0.1084 -0.0192  0.3527
 1856W        W 5375   3.170   5.074   2.298 -0.0748 -0.1981 -0.2157
 1857W        W 5376   3.667   0.744  10.273 -0.0772  0.1708 -0.0661
 1858W        W 5377   1.645   4.111   9.328 -0.0125 -0.2228  0.0152
 1859W        W 5378   7.685   5.392   2.133 -0.0129 -0.0574 -0.1293
 1860W        W 5379   3.962   9.136   0.226  0.0871  0.1525 -0.2626
 1861W        W 5380   7.668   1.644   2.502  0.0594  0.1141 -0.3360
 1862W        W 5381   1.531   3.550  11.524  0.0189  0.3988 -0.1065
 1863W        W 5382   3.972   8.684   1.674  0.0460  0.0896 -0.1779
 1864W        W 5383   1.667   4.503   0.032  0.0714 -0.2658 -0.2040
 1865W        W 5384   6.733   3.507  11.206  0.1023  0.0629 -0.2936
 1866W        W 5385   0.571   7.723  10.968 -0.3676  0.2728 -0.0401
 1867W        W 5386   7.018   5.300   2.889 -0.0892 -0.1306 -0.0868
 1868W        W 5387   9.233   7.426   2.793  0.0520 -0.1420  0.0675
 1869W        W 5388   2.933   2.101  11.991  0.0610  0.1627  0.2093
 1870W        W 5389   8.443   6.771   1.014  0.0239  0.1602 -0.0948
 1871W        W 5390   0.043   8.530   0.097 -0.1146  0.2776 -0.0108
 1872W        W 5391   7.635   4.192   2.054 -0.2047 -0.1817  0.2288
 1873W        W 5392   2.204   5.932  10.982  0.1354  0.1622  0.0879
 1874W        W 5393   4.984   6.140   7.717 -0.0043  0.3507  0.0986
 1875W        W 5394   1.025   8.486   1.978  0.1771  0.0430  0.0301
 1876W        W 5395   8.012   5.265  12.283  0.3161  0.0524 -0.0850
 1877W        W 5396   6.949   9.561   9.736  0.0282  0.0742  0.0386
 1878W        W 5397   5.221   9.392   0.469  0.0795 -0.1541 -0.0836
 1879W        W 5398   3.077   5.083  10.238 -0.0871  0.3517  0.0054
 1880W        W 5399   5.521   6.693   2.676 -0.2186  0.1736 -0.3073
 1881W        W 5400   1.079   0.863  11.003  0.3426 -0.1998 -0.3403
 1882W        W 5401   2.632   2.258  10.406  0.2249  0.2940 -0.1403
 1883W        W 5402   9.695   7.752  11.848 -0.0414 -0.1529  0.1682
 1884W        W 5403   4.322   8.080   9.656 -0.2929 -0.0096  0.4132
 1885W        W 5404   3.757   3.793  12.033  0.0763  0.1431  0.1913
 1886W        W 5405   3.760   0.087   3.588 -0.0215  0.0571  0.0720
 1887W        W 5406   2.846   8.447   9.463 -0.3195 -0.0832 -0.3100
 1888W        W 5407   5.026   0.066   0.495 -0.2550 -0.2531 -0.0904
 1889W        W 5408   3.231   6.206   1.614  0.2515  0.2305 -0.0667
 1890W        W 5409   0.213   0.632   8.637  0.1619 -0.0139  0.0551
 1891W        W 5410   4.692   8.339   4.347  0.1541  0.1732 -0.1746
 1892W        W 5411   6.442   4.484   9.641  0.0244 -0.3129  0.0830
 1893W        W 5412   3.127   4.541   8.793  0.0835  0.1698 -0.0842
 1894W        W 5413   5.912   6.874   9.307 -0.3396 -0.0041  0.0319
 1895W        W 5414   1.049   1.337  10.783  0.1899  0.1815 -0.2137
 1896W        W 5415   0.640   0.378   3.729  0.2160 -0.2385  0.0379
 1897W        W 5416   5.052   9.115  11.013 -0.1925  0.3360  0.0983
 1898W        W 5417   5.962   2.405  11.825  0.0907 -0.2589  0.1559
 1899W        W 5418   5.722   8.996   1.630 -0.1187  0.3162 -0.2716
 1900W        W 5419   6.747   4.943   9.374  0.2027  0.0692 -0.0129
 1901W        W 5420   5.608   2.257   9.794 -0.0785 -0.2783  0.0387
 1902W        W 5421   9.127   2.016   2.265  0.2049 -0.1343 -0.2477
 1903W        W 5422   6.565   9.109   3.154 -0.1888 -0.1535  0.0025
 1904W        W 5423   4.343   9.222  10.100  0.1676 -0.3608 -0.3599
 1905W        W 5424   0.157   5.074   8.871 -0.1858  0.0938  0.1161
 1906W        W 5425   7.346   7.740  11.296 -0.2075  0.1661 -0.1123
 1907W        W 5426   4.143   5.903  10.162 -0.1782 -0.2552  0.2685
 1908W        W 5427   6.429   3.873  11.798 -0.3439 -0.1740  0.0929
 1909W        W 5428   9.393   2.585   0.241 -0.0326 -0.0066 -0.1111
 1910W        W 5429   2.822   7.605   9.117  0.0903 -0.1376  0.0276
 1911W        W 5430   9.075   3.137   1.441  0.1957 -0.1119  0.1004
 1912W        W 5431   5.969   2.480  10.508 -0.1147  0.0923  0.3421
 1913W        W 5432   9.005   7.493   1.794 -0.0946  0.0502  0.1848
 1914W        W 5433   0.325   6.048   8.880  0.2781 -0.2136 -0.2313
 1915W        W 5434   7.676   7.146   2.006 -0.1459 -0.0426  0.4136
 1916W        W 5435   1.024   9.280   1.563 -0.1799  0.0862 -0.1437
 1917W        W 5436   7.706   4.525   1.649  0.1024 -0.1303  0.4683
 1918W        W 5437   0.041   8.305   2.044  0.1985 -0.0218 -0.2601
 1919W        W 5438   7.765   2.798  10.637  0.1127 -0.0582  0.0502
 1920W        W 5439   0.911   8.614  10.104 -0.0265  0.0454  0.0294
 1921W        W 5440   9.207   1.346   1.710  0.1621 -0.0690  0.0541
 1922W        W 5441   3.659   2.587   1.862  0.2489  0.0316  0.3811
 1923W        W 5442   7.843   0.198  11.690  0.0753 -0.1571 -0.4213
 1924W        W 5443   9.296   7.291   1.252 -0.1345 -0.1433 -0.0936
 1925W        W 5444   0.368   4.669  10.997 -0.0689  0.0231 -0.2502
 1926W        W 5445   7.301   0.755   9.852  0.1415 -0.0989  0.1579
 1927W        W 5446   2.825   9.394   9.082 -0.0781  0.1129 -0.0192
 1928W        W 5447   1.572   7.214   8.673  0.0056  0.1084 -0.1539
 1929W        W 5448   2.972   6.768   4.450  0.0650 -0.0602 -0.1218
 1930W        W 5449   0.534   0.354  11.776 -0.1454 -0.1825  0.0561
 1931W        W 5450   8.745   7.037   4.532  0.1615  0.0241  0.1426
 1932W        W 5451   8.966   8.517   0.205 -0.0887 -0.0761 -0.3967
 1933W        W 5452   4.937   5.761   2.968  0.0986 -0.1376 -0.1292
 1934W        W 5453   0.795   4.399   0.579 -0.1237 -0.1076  0.0821
 1935W        W 5454   2.069   7.519   0.359 -0.0873 -0.2506  0.1837
 1936W        W 5455   0.984   2.508   3.677  0.0661  0.3045 -0.1206
 1937W        W 5456   1.139   7.808  10.359  0.4001  0.0222  0.1508
 1938W        W 5457   4.751   3.415   1.684  0.4020 -0.0964 -0.0808
 1939W        W 5458   1.022   4.668   1.047 -0.0307 -0.1107  0.1168
 1940W        W 5459   4.897   8.217  12.272  0.0987  0.0405  0.0453
 1941W        W 5460   1.748   3.730   1.399 -0.0376 -0.0905  0.0099
 1942W        W 5461   3.193   4.960   1.148  0.3210 -0.0311 -0.4450
 1943W        W 5462   1.478   2.659  10.284  0.2076  0.1652  0.1047
 1944W        W 5463   5.887   4.609   1.680 -0.1025 -0.1290 -0.2574
 1945W        W 5464   9.237   9.675   1.769 -0.1223  0.1149  0.0042
 1946W        W 5465   0.874   6.734   1.723 -0.4693 -0.0383 -0.1506
 1947W        W 5466   3.916   6.194   0.911 -0.2361  0.2373 -0.1505
 1948W        W 5467   8.281   5.590  11.011  0.1975  0.1411  0.2135
 1949W        W 5468   2.929   7.104  10.369  0.1442 -0.0115 -0.0717
 1950W        W 5469   3.106   5.622   2.945 -0.0649 -0.1437  0.0917
 1951W        W 5470   2.627   6.385   8.714 -0.0578  0.2679 -0.0816
 1952W        W 5471   8.433   2.831   9.706  0.3985 -0.1446  0.2368
 1953W        W 5472   7.725   9.777   2.842  0.1587  0.1285  0.1962
 1954W        W 5473   3.548   1.416  12.225  0.3320 -0.0505  0.0019
 1955W        W 5474   6.973   2.985   3.867 -0.2166 -0.0129 -0.3023
 1956W        W 5475   3.358   0.955   1.071 -0.0088 -0.3364  0.0056
 1957W        W 5476   7.128   0.389   0.854 -0.0087  0.2626  0.2054
 1958W        W 5477   7.566   3.405  11.293 -0.2719  0.1855 -0.0600
 1959W        W 5478   8.849   8.446   2.051 -0.1289 -0.2618  0.0594
 1960W        W 5479   7.620   7.029  12.188  0.0045 -0.3691  0.3226
 1961W        W 5480   0.061   7.179   1.172 -0.2902 -0.3204  0.0081
 1962W        W 5481   6.324   4.616   9.117 -0.1085  0.1270  0.2788
 1963W        W 5482   4.568   0.784   2.439  0.1307  0.2406 -0.0900
 1964W        W 5483   4.850   0.277   2.946  0.2605  0.0033 -0.0792
 1965W        W 5484   4.992   1.369   3.245  0.0453  0.1479  0.1145
 1966W        W 5485   6.775   5.530   9.485  0.1781 -0.5001  0.2603
 1967W        W 5486   6.297   8.278   9.401 -0.2477  0.1855  0.2212
 1968W        W 5487   6.120   9.311  12.038 -0.1197 -0.1101 -0.0934
 1969W        W 5488   5.789   5.232   1.127 -0.0974 -0.0202 -0.3544
 1970W        W 5489   7.742   3.111   0.208  0.2292  0.0272  0.2794
 1971W        W 5490   4.734   8.098   1.292  0.3157  0.0065 -0.1048
 1972W        W 5491   5.077   2.478  12.031  0.0417 -0.0308 -0.0759
 1973W        W 5492   1.745   8.312  11.877 -0.0020 -0.0275  0.0055
 1974W        W 5493   5.953   5.080   8.977  0.1015  0.1684 -0.1226
 1975W        W 5494   8.172   0.708   1.829  0.0610  0.2367  0.1287
 1976W        W 5495   0.108   2.365   3.122  0.1930 -0.2067  0.1018
 1977W        W 5496   4.251   4.441   0.083  0.0490 -0.2501 -0.2190
 1978W        W 5497   8.988   2.640   1.098  0.0510  0.5524 -0.0937
 1979W        W 5498   9.218   1.257   3.670 -0.1978  0.1310  0.0437
 1980W        W 5499   2.219   4.752  11.165  0.1376 -0.3037  0.0622
 1981W        W 5500   3.125   5.867   0.129  0.0163  0.0955  0.1658
 1982W        W 5501   4.119   0.596  11.987  0.3779 -0.0127 -0.1152
 1983W        W 5502   6.617   8.601   0.970 -0.1701 -0.1183  0.1568
 1984W        W 5503   7.616   8.624   2.379  0.2095 -0.0870  0.3448
 1985W        W 5504   8.133   3.501  10.926 -0.1600  0.0704 -0.0975
 1986W        W 5505   4.765   5.737   1.018 -0.0777 -0.2200 -0.0435
 1987W        W 5506   3.586   8.294   0.778 -0.2337 -0.1744 -0.0990
 1988W        W 5507   6.687   9.319   1.740  0.2593 -0.1031 -0.0883
 1989W        W 5508   9.552   6.536   2.718 -0.2572  0.0966 -0.4505
 1990W        W 5509   9.109   0.306   1.960  0.2675 -0.0670  0.2082
 1991W        W 5510   1.958   3.282  10.050 -0.1017  0.0840 -0.1752
 1992W        W 5511   7.989   8.936  10.977 -0.1992 -0.2220  0.0480
 1993W        W 5512   1.847   2.654   0.942  0.1386  0.0092  0.0896
 1994W        W 5513   4.912   1.149   1.095  0.3550 -0.0110  0.0156
 1995W        W 5514   7.511   3.945   4.050 -0.1207  0.0608  0.0363
 1996W        W 5515   5.496   4.917   2.922  0.0037 -0.2477 -0.1722
 1997W        W 5516   4.907   0.177  12.345 -0.0449  0.1622  0.1590
 1998W        W 5517   8.172   8.030   0.464  0.0191  0.1780  0.1122
 1999W        W 5518   1.319   8.549   2.719  0.0373  0.0616 -0.0939
 2000W        W 5519   3.567   0.021   3.111 -0.1244 -0.0065 -0.2262
 2001W        W 5520   3.355   5.842   9.630 -0.1689  0.0057 -0.0945
 2002W        W 5521   3.121   6.902   9.535 -0.1288 -0.0866  0.1102
 2003W        W 5522   0.447   0.952   0.996  0.1938 -0.1003 -0.2052
 2004W        W 5523   2.886   2.880  10.228 -0.1341  0.1663  0.0007
 2005W        W 5524   3.527   4.883   0.849  0.0544 -0.2357  0.1035
 2006W        W 5525   8.212   0.626   3.859  0.2777 -0.1076  0.1170
 2007W        W 5526   3.953   2.873  11.126  0.2252 -0.0495  0.1322
 2008W        W 5527   5.184   0.996  12.295  0.0643  0.1241  0.2169
 2009W        W 5528   1.030   6.873   8.885  0.2518  0.0020  0.1766
 2010W        W 5529   6.072   0.042   9.719  0.1670  0.5050  0.1252
 2011W        W 5530   9.766   1.905  10.601 -0.1831  0.2237  0.0210
 2012W        W 5531   6.436   7.366   0.405  0.1357 -0.0459  0.1125
 2013W        W 5532   3.115   3.646   3.404  0.3561  0.1251 -0.2972
 2014W        W 5533   9.304   3.035   3.183  0.0589 -0.0872 -0.5120
 2015W        W 5534   4.145   6.346   8.844 -0.2107 -0.1457  0.0125
 2016W        W 5535   8.026   7.287   0.248 -0.2082 -0.0290  0.1593
 2017W        W 5536   1.618   5.152   4.529 -0.2444 -0.5168 -0.3241
 2018W        W 5537   3.922   1.360   2.593  0.2429  0.0699 -0.0339
 2019W        W 5538   4.626   0.290   4.219 -0.4175  0.0951 -0.0399
 2020W        W 5539   3.426   6.825   0.329  0.1815  0.0425  0.2507
 2021W        W 5540   8.136   3.431   9.056  0.0584  0.1875  0.4323
 2022W        W 5541   6.754   6.063  11.877  0.4554  0.0899 -0.1462
 2023W        W 5542   1.299   4.062  10.894  0.0903  0.1042 -0.0468
 2024W        W 5543   1.453   2.511   8.692 -0.1661 -0.0460 -0.1401
 2025W        W 5544   1.916   2.155   0.462 -0.0538  0.3267  0.0896
 2026W        W 5545   4.520   2.529   9.843 -0.0985  0.0167  0.0169
 2027W        W 5546   2.990   7.035   2.187  0.2194  0.0973  0.2204
 2028W        W 5547   2.006   5.438   3.690  0.2398  0.3086  0.2592
 2029W        W 5548   1.222   6.029   4.866 -0.1513 -0.0957  0.0375
 2030W        W 5549   4.970   5.245   3.405  0.1113  0.1146  0.1758
 2031W        W 5550   2.293   2.607   2.968 -0.3250 -0.1730  0.0907
 2032W        W 5551   3.104   8.001   9.144 -0.0540 -0.0215 -0.0712
 2033W        W 5552   7.374   1.317   3.835  0.1458 -0.1536  0.3674
 2034W        W 5553   2.615   3.013   9.776 -0.0138 -0.1665 -0.0107
 2035W        W 5554   5.805   2.076   0.359  0.1551  0.0032 -0.0528
 2036W        W 5555   3.890   4.991   0.462  0.0217 -0.1333  0.2096
 2037W        W 5556   5.406   6.460   1.369 -0.0422 -0.0232  0.2829
 2038W        W 5557   9.703   0.819   9.526 -0.1918 -0.0019  0.0650
 2039W        W 5558   1.369   1.939   8.693  0.1393  0.0302 -0.2178
 2040W        W 5559   3.819   1.910   2.410 -0.1870  0.0837  0.3455
 2041W        W 5560   6.441   8.530   0.257 -0.4517  0.2059 -0.1632
 2042W        W 5561   9.550   7.161   9.758  0.0202  0.1182 -0.1641
 2043W        W 5562   0.534   5.495   1.293 -0.0871 -0.2089 -0.1553
 2044W        W 5563   7.096   1.555   2.500  0.0031 -0.0785  0.2643
 2045W        W 5564   4.167   2.252   3.195 -0.4010  0.3341  0.0080
 2046W        W 5565   6.222   9.398   0.773 -0.2248 -0.1099  0.0004
 2047W        W 5566   7.785   7.910   0.674 -0.0578  0.1004  0.2056
 2048W        W 5567   6.048   8.028   8.456  0.1235  0.1686  0.0499
 2049W        W 5568   6.235   5.222   4.092  0.0315  0.1041 -0.2846
 2050W        W 5569   7.310   5.753   2.134  0.0551  0.0745 -0.2798
 2051W        W 5570   9.052   6.094   0.572 -0.0139 -0.2187 -0.0120
 2052W        W 5571   1.804   3.847  11.188 -0.2508  0.1668 -0.0065
 2053W        W 5572   7.899   8.833   0.410  0.0875 -0.0619 -0.2587
 2054W        W 5573   1.571   6.141   3.168  0.0165  0.0391 -0.0651
 2055W        W 5574   9.180   4.053   8.044 -0.1189  0.1333  0.4099
 2056W        W 5575   3.752   2.947   3.614  0.0017 -0.0819 -0.0463
 2057W        W 5576   8.027   8.564  11.369 -0.0765  0.0416  0.0240
 2058W        W 5577   9.282   2.885   4.585  0.2412  0.0139 -0.2408
 2059W        W 5578   7.961   9.180   9.604 -0.0397  0.1060 -0.0749
 2060W        W 5579   4.142   0.454  10.310 -0.0792  0.0573  0.0777
 2061W        W 5580   8.393   6.321   9.852 -0.2082  0.1806  0.0556
 2062W        W 5581   6.157   2.447   2.150  0.0280 -0.2193 -0.4819
 2063W        W 5582   1.411   2.873   3.718 -0.1079 -0.0059 -0.0857
 2064W        W 5583   1.161   5.087   0.284  0.2228  0.0730  0.1190
 2065W        W 5584   4.698   6.411   2.235 -0.1024 -0.1352  0.0806
 2066W        W 5585   6.689   6.572   3.117 -0.0000 -0.0155 -0.0285
 2067W        W 5586   2.006   1.828   7.678  0.0990 -0.1756  0.2538
 2068W        W 5587   2.082   7.493   0.868  0.0979  0.3088 -0.1217
 2069W        W 5588   0.537   5.183   4.472  0.2754  0.1753  0.1659
 2070W        W 5589   2.624   0.218   1.982 -0.0631  0.4653  0.2387
 2071W        W 5590   6.357   6.213   3.309 -0.1291  0.0052 -0.1216
 2072W        W 5591   8.802   3.067   3.181  0.0903  0.0279 -0.0851
 2073W        W 5592   7.951   2.238   0.203 -0.2065  0.3059 -0.1256
 2074W        W 5593   3.591   6.347   8.487 -0.0113 -0.1624 -0.0612
 2075W        W 5594   8.631   8.515   8.656 -0.0271  0.0767 -0.1534
 2076W        W 5595   0.644   6.434   2.207 -0.3827  0.0824 -0.4350
 2077W        W 5596   9.450   4.465   3.926  0.0658 -0.1383 -0.3149
 2078W        W 5597   4.991   7.321  10.003 -0.0185  0.2672  0.1167
 2079W        W 5598   6.392   5.084   1.740  0.1684 -0.2420  0.1844
 2080W        W 5599   8.594   6.862   2.341  0.2210 -0.0824  0.1934
 2081W        W 5600   7.217   8.183   2.554 -0.1777  0.0604 -0.1572
 2082W        W 5601   7.866   4.833   3.752  0.0732  0.3221  0.0450
 2083W        W 5602   1.774   0.231   1.393 -0.2489 -0.0166  0.1041
 2084W        W 5603   5.914   0.596   3.884 -0.1577  0.1762 -0.0602
 2085W        W 5604   1.731   4.598   1.844  0.0522 -0.0073 -0.1790
 2086W        W 5605   4.130   6.825  11.976 -0.2012  0.2497  0.3724
 2087W        W 5606   6.735   3.811  12.252  0.1992 -0.1073  0.2913
 2088W        W 5607   0.389   1.708   2.869  0.2739 -0.0542  0.0445
 2089W        W 5608   8.230   7.225  11.124  0.0211  0.0740 -0.1292
 2090W        W 5609   6.663   1.006  10.428 -0.0200 -0.1275  0.1125
 2091W        W 5610   8.575   8.117   0.159  0.0570  0.1583 -0.0640
 2092W        W 5611   7.654   3.122  11.995 -0.2213  0.1437 -0.0304
 2093W        W 5612   5.508   2.892   9.290  0.1665  0.1475 -0.0882
 2094W        W 5613   5.344   4.358   0.826 -0.1149  0.1397  0.0242
 2095W        W 5614   1.179   9.446   8.489 -0.1035  0.1951 -0.3248
 2096W        W 5615   5.865   9.550   3.856 -0.3856 -0.2207 -0.0911
 2097W        W 5616   9.429   6.367   2.289  0.2499 -0.2725 -0.1264
 2098W        W 5617   6.319   5.419   8.052  0.1946  0.0964  0.3916
 2099W        W 5618   3.476   9.146   2.734 -0.0272 -0.0680  0.2093
 2100W        W 5619   0.617   4.276   3.493  0.1187  0.0843 -0.0908
 2101W        W 5620   0.436   5.041   1.705 -0.2714 -0.0385 -0.0137
 2102W        W 5621   2.010   4.450   1.021  0.1382  0.1223  0.0514
 2103W        W 5622   4.666   7.001   7.835 -0.0006 -0.5047  0.0916
 2104W        W 5623   5.152   8.525   2.687  0.0260  0.3749  0.0890
 2105W        W 5624   4.074   9.512   9.620 -0.1577  0.0239 -0.0257
 2106W        W 5625   9.474   7.848   2.655 -0.2767 -0.1333 -0.5729
 2107W        W 5626   1.751   3.853  10.664 -0.1565 -0.2615 -0.1611
 2108W        W 5627   5.424   7.629  11.727  0.3132  0.1236 -0.2299
 2109W        W 5628   1.180   7.992   0.362 -0.0630  0.0970 -0.1272
 2110W        W 5629   9.136   3.411   0.108  0.1212 -0.3293  0.1420
 2111W        W 5630   2.969   6.719  11.197  0.2181 -0.0920  0.2233
 2112W        W 5631   2.177   8.917   8.837  0.0586  0.0895 -0.2499
 2113W        W 5632   5.934   5.481   2.910 -0.1249  0.0746  0.2376
 2114W        W 5633   8.790   6.350   0.997  0.2539  0.4268  0.1891
 2115W        W 5634   4.670   8.634   0.098  0.1073  0.2213  0.0725
 2116W        W 5635   1.560   5.885   0.672  0.4310  0.1970 -0.2375
 2117W        W 5636   2.752   1.183   2.668  0.1568 -0.2434  0.1995
 2118W        W 5637   0.763   9.129   0.986 -0.0243  0.0069  0.0039
 2119W        W 5638   4.988   7.499   9.551 -0.0465  0.1832 -0.0686
 2120W        W 5639   8.161   1.671   3.844  0.1999  0.2282 -0.0705
 2121W        W 5640   3.857   4.500  11.622  0.2470  0.2504  0.4021
 2122W        W 5641   0.603   0.087   0.151  0.1741  0.0667  0.0704
 2123W        W 5642   3.039   2.364  10.114  0.1261  0.1941  0.4062
 2124W        W 5643   3.355   2.088   0.056 -0.1236  0.0962  0.0677
 2125W        W 5644   2.634   4.004  10.815 -0.0883 -0.0688  0.0056
 2126W        W 5645   6.586   5.708   8.734 -0.2017  0.4031 -0.2483
 2127W        W 5646   9.053   4.332   0.373 -0.2896  0.0973  0.1561
 2128W        W 5647   0.709   8.593   0.811 -0.4120  0.1211  0.1671
 2129W        W 5648   7.475   1.233   2.174 -0.1032 -0.2098  0.0693
 2130W        W 5649   0.947   4.624   9.510 -0.1177 -0.1761 -0.0915
 2131W        W 5650   7.889   2.539  11.140 -0.0458 -0.3322  0.3693
 2132W        W 5651   7.087   8.127   1.058  0.0725 -0.0042 -0.0152
 2133W        W 5652   8.218   3.877   2.756  0.1584 -0.2768 -0.0645
 2134W        W 5653   4.894   9.593   2.864  0.0531  0.0732  0.2363
 2135W        W 5654   0.205   1.122  11.664  0.0971 -0.3176  0.1564
 2136W        W 5655   1.303   9.206   1.106 -0.0135 -0.2667  0.2123
 2137W        W 5656   8.274   1.728   1.366  0.1888  0.1770  0.0322
 2138W        W 5657   5.506   5.875   8.071  0.1065  0.2450 -0.0756
 2139W        W 5658   2.500   1.102   9.064  0.2076  0.2563 -0.1786
 2140W        W 5659   9.199   9.221   3.566 -0.1316  0.1688 -0.2639
 2141W        W 5660   6.703   0.794  10.873  0.2077 -0.1448 -0.1608
 2142W        W 5661   1.572   8.674  11.501  0.2061  0.1634  0.0727
 2143W        W 5662   4.336   0.830   1.980  0.1523  0.2567  0.1002
 2144W        W 5663   9.165   0.048   8.458 -0.1291  0.0179 -0.2327
 2145W        W 5664   9.747   3.109   0.841  0.2669 -0.1038  0.1573
 2146W        W 5665   3.561   9.099   0.541 -0.0848 -0.0032 -0.1028
 2147W        W 5666   1.886   4.613   2.437 -0.1381 -0.0798  0.4908
 2148W        W 5667   6.315   4.553   3.421 -0.2750  0.0445 -0.2518
 2149W        W 5668   4.573   1.764   8.771 -0.1025  0.1733  0.0470
 2150W        W 5669   5.897   7.525   0.555 -0.0641 -0.1357 -0.1299
 2151W        W 5670   8.318   7.375   3.467  0.3304  0.2341 -0.1466
 2152W        W 5671   5.028   3.679   0.394 -0.0133 -0.0354 -0.0916
 2153W        W 5672   2.720   2.562   2.649  0.1198  0.5162 -0.0913
 2154W        W 5673   4.733   3.044  10.713 -0.0064  0.2579 -0.0918
 2155W        W 5674   4.277   6.965  11.498  0.0760  0.2386  0.0620
 2156W        W 5675   4.404   4.912   0.146  0.0540  0.0487 -0.1516
 2157W        W 5676   9.507   0.145  10.466  0.1648  0.2157  0.1383
 2158W        W 5677   3.732   2.960   8.288  0.0680 -0.5083 -0.2262
 2159W        W 5678   3.404   9.399  10.725 -0.0921  0.2153 -0.2251
 2160W        W 5679   6.835   3.272  10.300  0.1433  0.3674 -0.0557
 2161W        W 5680   9.669   1.189   1.786 -0.4720  0.0033 -0.1854
 2162W        W 5681   7.026   6.587   1.724  0.2557  0.0716  0.3725
 2163W        W 5682   7.233   8.142   1.955  0.0076  0.3592  0.1821
 2164W        W 5683   2.855   0.945   3.420 -0.2328  0.0440  0.0833
 2165W        W 5684   6.545   0.148   2.302 -0.2308  0.2505 -0.0911
 2166W        W 5685   3.161   2.954   2.745  0.1452 -0.4325 -0.1974
 2167W        W 5686   6.857   3.369   1.448  0.0306 -0.0038  0.0943
 2168W        W 5687   9.660   8.332  10.682  0.0140 -0.2228  0.0335
 2169W        W 5688   7.854   4.156  11.859  0.1746  0.0323  0.2869
 2170W        W 5689   1.240   7.636   0.045  0.1784 -0.0619 -0.0915
 2171W        W 5690   4.105   0.725   1.509 -0.1124  0.1245 -0.0673
 2172W        W 5691   3.821   2.164   9.584  0.0898 -0.0836 -0.0369
 2173W        W 5692   4.535   0.683   3.880  0.0148 -0.1882  0.0043
 2174W        W 5693   1.414   2.314   0.584 -0.0874  0.2222  0.3259
 2175W        W 5694   1.323   8.273  10.332  0.1810  0.0012 -0.2240
 2176W        W 5695   7.931   1.468  12.155  0.1655 -0.1356 -0.1478
 2177W        W 5696   5.509   7.060   8.404 -0.0083  0.0165  0.1953
 2178W        W 5697   1.558   2.017   9.128  0.3377 -0.5169 -0.2000
 2179W        W 5698   0.854   6.501  12.188  0.2360 -0.0822  0.2468
 2180W        W 5699   3.022   7.707   3.874 -0.1859  0.3344 -0.2174
 2181W        W 5700   4.418   4.168  11.728  0.2812 -0.1031 -0.0243
 2182W        W 5701   0.526   5.022  11.452 -0.0942 -0.2009  0.0808
 2183W        W 5702   9.367   2.157   3.142 -0.0596  0.0308 -0.0677
 2184W        W 5703   3.732   6.983  11.446 -0.2153  0.0370 -0.1931
 2185W        W 5704   8.190   7.785  11.800 -0.0284 -0.1776 -0.1597
 2186W        W 5705   4.893   5.414  11.972  0.0093 -0.1221 -0.1250
 2187W        W 5706   8.018   8.426   3.125 -0.1040  0.0107 -0.0847
 2188W        W 5707   2.228   8.293   2.434 -0.0313  0.1118 -0.2954
 2189W        W 5708   9.335   6.899  11.685 -0.1001 -0.0980 -0.0860
 2190W        W 5709   8.231   8.664   9.583  0.0114  0.2081 -0.0430
 2191W        W 5710   0.517   6.089  11.159  0.2684  0.0432 -0.2072
 2192W        W 5711   4.846   3.030   9.245 -0.0261 -0.2287  0.1084
 2193W        W 5712   7.630   0.920   0.057 -0.1883 -0.2248 -0.0704
 2194W        W 5713   3.372   9.052  12.175  0.0057  0.0047 -0.3014
 2195W        W 5714   6.258   3.693  11.393  0.5469 -0.2741  0.0649
 2196W        W 5715   1.641   7.876  10.171  0.0830 -0.2265  0.0798
 2197W        W 5716   1.007   7.983  10.857 -0.0413 -0.0062  0.0152
 2198W        W 5717   0.418   3.143   8.761 -0.2328  0.0877  0.0557
 2199W        W 5718   5.103   3.938  11.297 -0.2426  0.1519  0.0241
 2200W        W 5719   4.691   0.983   2.992  0.0287 -0.1942  0.2286
 2201W        W 5720   9.143   8.539   2.470 -0.2670  0.2741 -0.0494
 2202W        W 5721   6.269   2.839  10.760  0.2959 -0.2473  0.3256
 2203W        W 5722   2.775   4.072   2.070 -0.2693  0.2348 -0.0862
 2204W        W 5723   3.466   3.204  10.407  0.0299 -0.1921 -0.0660
 2205W        W 5724   7.623   0.359   3.807  0.0512  0.2245  0.3087
 2206W        W 5725   6.410   7.723  10.372 -0.0759  0.0494 -0.3364
 2207W        W 5726   0.926   2.917   4.534 -0.1270  0.0692 -0.0263
 2208W        W 5727   9.028   7.409   0.672 -0.0565 -0.1647 -0.2358
 2209W        W 5728   9.634   1.101  11.236 -0.1040  0.3335 -0.1229
 2210W        W 5729   7.812   4.187   0.813  0.1306  0.0732 -0.1172
 2211W        W 5730   6.359   0.137  12.001  0.0417 -0.1152  0.2454
 2212W        W 5731   1.722   1.717   2.042  0.0683  0.1069 -0.1081
 2213W        W 5732   3.588   6.776   1.573 -0.2847 -0.1974  0.0847
 2214W        W 5733   4.115   5.638   3.109  0.0046 -0.3799 -0.0823
 2215W        W 5734   0.785   1.806  10.984 -0.2596 -0.0364  0.4341
 2216W        W 5735   8.209   6.999  12.151  0.0199  0.0970  0.0068
 2217W        W 5736   3.783   3.322   8.635 -0.0916  0.2572 -0.1496
 2218W        W 5737   4.854   9.245  10.048  0.0863  0.2011 -0.0222
 2219W        W 5738   8.828   1.281  10.558 -0.3380  0.1006  0.3479
 2220W        W 5739   3.912   3.729   3.828  0.1325  0.1461 -0.3613
 2221W        W 5740   2.503   3.452  11.688  0.0734  0.1372  0.1588
 2222W        W 5741   8.292   5.823  10.586  0.0740 -0.0844 -0.0444
 2223W        W 5742   4.292   3.109   0.630 -0.1246 -0.0882  0.1319
 2224W        W 5743   2.715   7.580  12.238 -0.3017  0.0290 -0.1270
 2225W        W 5744   1.775   7.118   0.539  0.1422  0.0805  0.0217
 2226W        W 5745   7.768   8.716  11.837 -0.0609 -0.2169  0.1404
 2227W        W 5746   2.666   9.716   2.367  0.0469 -0.2056 -0.0189
 2228W        W 5747   2.433   8.356  11.514  0.0794 -0.2299  0.0015
 2229W        W 5748   1.772   5.637  11.112 -0.0447  0.2023  0.1724
 2230W        W 5749   5.692   5.451  10.279 -0.0140 -0.0840  0.1041
 2231W        W 5750   3.633   6.574   2.913  0.2685 -0.1505 -0.0514
 2232W        W 5751   7.443   6.950   0.926 -0.0741  0.2499  0.1016
 2233W        W 5752   5.817   8.491   1.418 -0.3924 -0.1293  0.0661
 2234W        W 5753   3.865   9.534  11.445 -0.0514  0.2765  0.3267
 2235W        W 5754   0.239   7.362  11.202  0.1343 -0.2500 -0.1089
 2236W        W 5755   9.751   6.314   7.894 -0.1908 -0.1306  0.0476
 2237W        W 5756   9.605   9.048  10.138  0.3327  0.2353 -0.2281
 2238W        W 5757   1.428   8.154   3.645  0.1889 -0.2167  0.1391
 2239W        W 5758   6.746   5.030   1.062  0.0245  0.0207 -0.1601
 2240W        W 5759   0.927   4.649   0.139  0.2032  0.5839  0.0867
 2241W        W 5760   8.115   3.474   3.598 -0.0526  0.0686 -0.0515
 2242W        W 5761   7.900   9.219   0.021 -0.0297  0.1666  0.1869
 2243W        W 5762   1.982   1.021   9.165  0.0275 -0.0128  0.0506
 2244W        W 5763   6.283   1.314  11.122  0.2441 -0.0081 -0.2620
 2245W        W 5764   9.409   2.745   1.302 -0.3792  0.1379 -0.2032
 2246W        W 5765   5.463   8.660   0.491 -0.0609  0.1239  0.2753
 2247W        W 5766   0.328   7.009  11.565 -0.0098  0.0549  0.1461
 2248W        W 5767   1.675   5.847  10.171  0.1784 -0.4216  0.3947
 2249W        W 5768   5.300   5.946  11.108  0.1010  0.1856 -0.0287
 2250W        W 5769   1.764   0.958   4.103  0.2796 -0.2835 -0.0117
 2251W        W 5770   7.678   3.843  10.983  0.3128 -0.0605  0.0332
 2252W        W 5771   9.087   5.965   2.840 -0.0067 -0.0876  0.2430
 2253W        W 5772   4.484   6.757   0.050 -0.2802 -0.2428  0.0178
 2254W        W 5773   1.629   5.008   0.210 -0.4089  0.3849 -0.0561
 2255W        W 5774   2.130   0.276   1.004 -0.0182 -0.0695 -0.0693
 2256W        W 5775   9.713   9.145   3.557 -0.1292  0.1654  0.3102
 2257W        W 5776   2.133   4.958   0.965 -0.0587  0.0721 -0.0308
 2258W        W 5777   9.702   9.251   0.488 -0.0681 -0.1329 -0.5916
 2259W        W 5778   5.504   5.544   0.403  0.2330 -0.2198  0.2280
 2260W        W 5779   9.767   3.077   4.426 -0.2081  0.0024 -0.1805
 2261W        W 5780   8.463   8.238   2.910  0.4147 -0.3590 -0.0112
 2262W        W 5781   6.505   6.965  10.166  0.0645  0.0529 -0.3694
 2263W        W 5782   6.614   1.658  11.895 -0.0772  0.1674  0.1407
 2264W        W 5783   4.576   8.133  11.870 -0.0276 -0.0829  0.2367
 2265W        W 5784   7.928   4.844  11.377 -0.0810 -0.1796 -0.0785
 2266W        W 5785   1.199   3.758   4.085  0.1789  0.4254 -0.2728
 2267W        W 5786   3.745   1.584   1.175  0.0201  0.2149  0.1034
 2268W        W 5787   1.121   5.038  11.741 -0.0353 -0.4493 -0.0919
 2269W        W 5788   3.852   0.188  11.778 -0.0333 -0.1530 -0.0758
 2270W        W 5789   8.764   4.377   8.782  0.0745 -0.1830 -0.2327
 2271W        W 5790   1.115   7.376  10.566 -0.1453  0.1621  0.0900
 2272W        W 5791   6.610   4.213   1.329 -0.0416  0.1422  0.1192
 2273W        W 5792   6.700   9.716  11.102  0.3554 -0.0828  0.1081
 2274W        W 5793   1.637   5.421   2.058 -0.0525  0.0437  0.3687
 2275W        W 5794   0.283   7.495   8.646  0.0070  0.1078 -0.1338
 2276W        W 5795   5.734   9.737  10.569 -0.3633 -0.2798  0.3364
 2277W        W 5796   4.443   2.809   2.399  0.0408  0.0905  0.0993
 2278W        W 5797   8.904   3.028   9.845  0.1426  0.0974 -0.2751
 2279W        W 5798   3.681   3.740   3.064  0.0852  0.2021 -0.1692
 2280W        W 5799   3.228   3.501   9.493  0.0329  0.0138  0.0063
 2281W        W 5800   9.048   4.707  11.951  0.1139 -0.3444  0.0192
 2282W        W 5801   4.659   0.098   0.844 -0.2979  0.0280 -0.4655
 2283W        W 5802   3.928   3.204   9.153 -0.0974  0.2584  0.2871
 2284W        W 5803   7.268   1.609  10.075  0.1470  0.0401 -0.4496
 2285W        W 5804   5.697   1.274  12.261  0.1871  0.2469 -0.0689
 2286W        W 5805   9.376   4.951  10.942 -0.1543 -0.3785  0.0470
 2287W        W 5806   9.246   2.553  10.187  0.0551 -0.0253  0.0801
 2288W        W 5807   5.674   0.789  10.909 -0.2959 -0.0738 -0.0552
 2289W        W 5808   1.198   0.740   2.668 -0.0249  0.0680 -0.2465
 2290W        W 5809   9.241   6.261  10.214  0.3518  0.1465  0.0374
 2291W        W 5810   3.807   0.626  11.623 -0.0741 -0.5285  0.0778
 2292W        W 5811   9.068   4.227  10.013  0.1130  0.0334  0.1830
 2293W        W 5812   0.013   6.940   4.668 -0.1089 -0.1040 -0.1526
 2294W        W 5813   7.051   8.886   8.993 -0.1856 -0.1905 -0.1532
 2295W        W 5814   2.605   4.839  11.495  0.2820  0.0132  0.1704
 2296W        W 5815   0.489   1.377   3.316  0.0234 -0.1464 -0.1826
 2297W        W 5816   5.908   4.062   9.892 -0.0017  0.0194 -0.2627
 2298W        W 5817   8.180   6.533   1.453  0.3105  0.0848  0.2076
 2299W        W 5818   3.129   5.659   1.552  0.2623 -0.1372  0.0127
 2300W        W 5819   2.123   5.032   9.874 -0.0766  0.1136 -0.2109
 2301W        W 5820   9.560   5.600   4.246 -0.0161 -0.0307 -0.1469
 2302W        W 5821   5.678   7.199   2.543  0.0727 -0.2525 -0.1847
 2303W        W 5822   2.626   2.175   3.519 -0.0965  0.1797 -0.0685
 2304W        W 5823   1.143   1.958   1.005 -0.0122 -0.1092  0.0712
 2305W        W 5824   3.746   9.430  12.230 -0.1094 -0.0220 -0.1151
 2306W        W 5825   3.172   4.162  11.568  0.2998 -0.2119 -0.1144
 2307W        W 5826   6.597   1.144  12.068 -0.0599 -0.0554 -0.1163
 2308W        W 5827   7.929   9.725   0.441 -0.4059  0.0644  0.0190
 2309W        W 5828   4.296   0.321   1.235 -0.0335  0.2871  0.0139
 2310W        W 5829   7.476   0.449  11.442  0.0562  0.0732 -0.0532
 2311W        W 5830   3.220   3.056   3.381 -0.0485 -0.1046  0.1238
 2312W        W 5831   0.753   8.030  11.383 -0.0668 -0.2290 -0.2994
 2313W        W 5832   4.661   3.720  11.564 -0.3286 -0.0237  0.0134
 2314W        W 5833   3.547   9.632   2.669 -0.0181  0.0413  0.0415
 2315W        W 5834   6.064   8.178   1.889  0.2305  0.0023  0.1992
 2316W        W 5835   2.423   6.754  10.818  0.0744  0.1734  0.0246
 2317W        W 5836   5.179   0.214   1.017  0.0377  0.0192 -0.3945
 2318W        W 5837   0.800   3.794   8.599 -0.2920 -0.3682  0.2281
 2319W        W 5838   9.756   3.162   2.083  0.4672 -0.1160  0.2069
 2320W        W 5839   1.737   6.980   1.532 -0.0399  0.0869 -0.0407
 2321W        W 5840   2.290   9.214  11.751 -0.0800 -0.1508  0.0106
 2322W        W 5841   0.367   9.378   0.132 -0.0473  0.0077  0.2070
 2323W        W 5842   8.685   9.257  10.673 -0.0280 -0.0430 -0.1805
 2324W        W 5843   6.823   7.144   0.919  0.0461  0.0119  0.1334
 2325W        W 5844   2.303   7.119  11.149 -0.0215  0.0748  0.3584
 2326W        W 5845   1.548   1.779   0.158  0.2362 -0.0872 -0.1399
 2327W        W 5846   4.061   5.136   1.306  0.0055 -0.1077  0.1288
 2328W        W 5847   9.270   8.877   8.887 -0.2019 -0.2262  0.0513
 2329W        W 5848   4.365   0.751   1.023  0.1886  0.1201 -0.1902
 2330W        W 5849   0.822   6.174   9.016  0.1258  0.1150  0.1030
 2331W        W 5850   3.418   6.061   0.693  0.3192  0.2834  0.2302
 2332W        W 5851   9.014   8.069   1.759  0.1620 -0.1016  0.0674
 2333W        W 5852   4.381   3.844   8.536 -0.0726  0.0309  0.0337
 2334W        W 5853   4.930   4.101  11.883 -0.1513  0.0250  0.2659
 2335W        W 5854   3.139   4.270   1.820  0.1136  0.1314 -0.5835
 2336W        W 5855   7.762   2.867   1.033 -0.3596  0.0996 -0.1427
 2337W        W 5856   3.191   5.625  10.325  0.1008 -0.1756  0.2697
 2338W        W 5857   5.890   7.284   9.100 -0.1869  0.0755  0.1800
 2339W        W 5858   1.004   6.896   3.961 -0.2343  0.3674 -0.1753
 2340W        W 5859   8.233   0.030   3.236 -0.1788  0.1112  0.0937
 2341W        W 5860   6.634   6.297   1.891 -0.1043 -0.2211  0.3328
 2342W        W 5861   0.361   1.271   1.531 -0.0368 -0.1600 -0.0496
 2343W        W 5862   7.509   2.932  11.084 -0.0664 -0.0072  0.1872
 2344W        W 5863   2.451   9.144   9.968  0.1480 -0.1897  0.0626
 2345W        W 5864   5.244   3.487  12.275  0.0308 -0.3919  0.0169
 2346W        W 5865   7.936   5.488   8.178  0.1017  0.1224  0.0591
 2347W        W 5866   8.436   7.102   8.682  0.1139  0.0176  0.3012
 2348W        W 5867   1.987   4.506   9.501 -0.1448  0.2089 -0.0021
 2349W        W 5868   0.369   5.117   3.999 -0.1814 -0.3620  0.1246
 2350W        W 5869   2.492   3.200   1.726  0.2374 -0.2625  0.1656
 2351W        W 5870   7.103   6.097   1.856 -0.1284  0.2277 -0.1247
 2352W        W 5871   8.452   7.834   9.331 -0.0389  0.0770  0.1097
 2353W        W 5872   8.050   2.496   3.411 -0.2450 -0.2298  0.2236
 2354W        W 5873   8.129   0.366  12.088  0.0705 -0.0411  0.2868
 2355W        W 5874   8.110   0.890   0.229  0.2327 -0.0940 -0.0359
 2356W        W 5875   1.640   6.160   8.750  0.0836 -0.1304 -0.3449
 2357W        W 5876   5.088   5.090   2.172  0.1441  0.0274  0.0746
 2358W        W 5877   8.253   1.840  12.362 -0.1474  0.0131  0.1607
 2359W        W 5878   8.534   1.099  10.186  0.0024 -0.2182 -0.0515
 2360W        W 5879   5.824   3.813   3.755  0.0368  0.3086  0.0152
 2361W        W 5880   3.423   3.191  11.320  0.1227  0.1572 -0.0519
 2362W        W 5881   9.620   9.757   2.602 -0.2968  0.3327  0.3772
 2363W        W 5882   9.151   4.327  10.851 -0.4945  0.3444 -0.3641
 2364W        W 5883   9.117   5.020   4.692  0.0203 -0.1849 -0.0160
 2365W        W 5884   1.016   0.003   4.943 -0.1198  0.0673  0.0310
 2366W        W 5885   0.250   1.891  11.121  0.0519  0.0336 -0.0160
 2367W        W 5886   8.930   8.374  10.053  0.2884 -0.0361  0.3159
 2368W        W 5887   1.677   1.605   9.473 -0.2091 -0.0351 -0.0727
 2369W        W 5888   9.162   5.609   0.423  0.2409 -0.4578  0.0121
 2370W        W 5889   4.735   4.106   3.517  0.0412  0.2246 -0.1006
 2371W        W 5890   0.690   6.337  11.572 -0.0096 -0.0826 -0.1625
 2372W        W 5891   1.946   3.480   3.175  0.0854 -0.0571  0.4025
 2373W        W 5892   9.215   1.065   9.548  0.0583 -0.4544  0.1066
 2374W        W 5893   1.512   1.010   0.559  0.0964  0.1902 -0.2082
 2375W        W 5894   3.896   0.147   0.029  0.0633  0.2745  0.1963
 2376W        W 5895   3.651   6.382   9.023 -0.2513 -0.0479 -0.0225
 2377W        W 5896   4.298   1.040   0.329 -0.2404 -0.0669 -0.0299
 2378W        W 5897   9.347   8.691   4.435  0.4156  0.3497 -0.1156
 2379W        W 5898   2.254   6.162  11.451  0.1138  0.0807  0.2665
 2380W        W 5899   0.076   4.589   2.732  0.0850  0.1927  0.2327
 2381W        W 5900   0.997   3.297   2.861 -0.2306  0.0209 -0.0122
 2382W        W 5901   8.966   3.372   0.560 -0.2729  0.0884 -0.1017
 2383W        W 5902   9.257   1.546  10.357 -0.2913 -0.3211  0.2656
 2384W        W 5903   4.788   2.868   0.809 -0.1360 -0.4228  0.1253
 2385W        W 5904   3.105   4.693  11.892 -0.2300  0.1899  0.0238
 2386W        W 5905   6.412   0.622   1.911 -0.0160 -0.0654  0.1141
 2387W        W 5906   7.083   8.646  11.236 -0.2233  0.0411 -0.0867
 2388W        W 5907   1.769   7.528   9.867  0.2671  0.4126 -0.0143
 2389W        W 5908   5.166   3.967   0.033  0.1641 -0.1754 -0.2185
 2390W        W 5909   2.937   1.252   0.060  0.0844  0.0318 -0.1110
 2391W        W 5910   9.122   6.946   8.328 -0.0957 -0.0093 -0.1095
 2392W        W 5911   0.963   9.616   2.025  0.3586  0.3106 -0.1015
 2393W        W 5912   2.416   7.668   8.774  0.0034  0.1835 -0.1107
 2394W        W 5913   1.630   3.046  11.730 -0.2076  0.0534 -0.3175
 2395W        W 5914   1.423   9.043   3.649  0.1900  0.0295  0.2206
 2396W        W 5915   5.062   2.141  10.571 -0.1046 -0.2703 -0.1801
 2397W        W 5916   6.830   8.063   3.356  0.2242 -0.1017 -0.1631
 2398W        W 5917   1.747   5.297   2.885  0.0039  0.0558 -0.0121
 2399W        W 5918   7.466   6.398  10.214 -0.1687  0.2574 -0.1676
 2400W        W 5919   9.226   1.286   4.230  0.0081  0.0336 -0.0531
 2401W        W 5920   9.096   0.365  10.203 -0.2004 -0.0593  0.0017
 2402W        W 5921   7.827   2.979   3.949  0.0538  0.2325 -0.2386
 2403W        W 5922   3.115   0.061   8.860 -0.1809 -0.3004 -0.0812
 2404W        W 5923   1.606   9.105   0.599  0.1099 -0.2455 -0.0949
 2405W        W 5924   8.521   0.260   3.642  0.2838 -0.0562 -0.0242
 2406W        W 5925   7.211   8.773   1.571 -0.3818  0.1499 -0.2261
 2407W        W 5926   4.491   6.963  11.022 -0.1815  0.1304  0.3795
 2408W        W 5927   3.077   8.201   1.176 -0.0728  0.5251 -0.0229
 2409W        W 5928   6.683   7.297  11.061 -0.0535  0.3756 -0.0808
 2410W        W 5929   3.724   5.888   8.756 -0.2353 -0.2679  0.0918
 2411W        W 5930   5.720   8.624   9.623 -0.2426 -0.0567 -0.1137
 2412W        W 5931   4.725   1.926   2.547  0.0085 -0.0647  0.2147
 2413W        W 5932   4.389   7.272   9.222  0.2233 -0.2212 -0.2104
 2414W        W 5933   9.639   0.040   0.835  0.1321 -0.0423  0.1060
 2415W        W 5934   8.409   4.280   1.279  0.2310  0.1620 -0.0605
 2416W        W 5935   7.247   6.237   9.824  0.4419 -0.2012 -0.5031
 2417W        W 5936   4.808   2.523   1.581  0.2438 -0.2154  0.4985
 2418W        W 5937   5.884   9.332  11.330  0.0291 -0.1416 -0.2812
 2419W        W 5938   8.627   5.753   3.173 -0.0020 -0.0780  0.0809
 2420W        W 5939   6.244   5.099  11.600  0.1561 -0.1916  0.2000
 2421W        W 5940   8.958   2.606   4.288 -0.1148 -0.2346  0.1493
 2422W        W 5941   0.153   3.597   9.694  0.0647 -0.0532  0.0578
 2423W        W 5942   4.855   5.406   1.766  0.4977 -0.2712 -0.0542
 2424W        W 5943   3.276   9.262   9.648  0.1517 -0.4874 -0.0465
 2425W        W 5944   5.627   5.075   0.112  0.1532  0.0485  0.0578
 2426W        W 5945   9.606   5.636   3.355 -0.3106  0.1383 -0.1392
 2427W        W 5946   3.437   0.436   1.859  0.0076  0.1933 -0.0158
 2428W        W 5947   3.157   9.018   8.874  0.1825  0.0006  0.2666
 2429W        W 5948   6.747   5.355  11.504 -0.1801 -0.1918 -0.1112
 2430W        W 5949   0.071   5.769   1.719 -0.1305  0.1368  0.2487
 2431W        W 5950   5.947   0.055  12.311  0.2020  0.1425 -0.0858
 2432W        W 5951   8.068   7.429   3.050  0.0739 -0.2621  0.0495
 2433W        W 5952   5.788   7.453  10.891 -0.3937 -0.1459  0.2142
 2434W        W 5953   3.237   6.052   1.137 -0.3662 -0.1625 -0.0693
 2435W        W 5954   9.428   0.271  11.547 -0.0381  0.0672 -0.0946
 2436W        W 5955   4.773   2.402  11.248 -0.3200 -0.2029 -0.3072
 2437W        W 5956   8.127   7.542   0.741 -0.0795  0.2787 -0.0071
 2438W        W 5957   0.840   7.713   3.081 -0.0218  0.1255  0.0426
 2439W        W 5958   1.836   0.828   3.585  0.1525 -0.0376  0.0255
 2440W        W 5959   4.960   6.812   1.986 -0.0212  0.0785 -0.1845
 2441W        W 5960   0.947   4.892  10.563 -0.2920  0.1508 -0.2605
 2442W        W 5961   9.295   4.251   8.755 -0.1666  0.2150 -0.1490
 2443W        W 5962   1.531   8.349   0.216  0.0075  0.1755  0.2023
 2444W        W 5963   7.466   7.551   2.239 -0.4051  0.3636 -0.0091
 2445W        W 5964   4.802   0.455   1.930 -0.1832  0.1137 -0.3147
 2446W        W 5965   6.751   9.388  10.154  0.1028  0.0676 -0.4630
 2447W        W 5966   5.395   7.396   9.241 -0.0880  0.0987 -0.0823
 2448W        W 5967   4.214   7.903  11.801  0.3463 -0.0412  0.1142
 2449W        W 5968   8.003   4.673   2.013  0.2240 -0.0881  0.0588
 2450W        W 5969   7.108   8.166   9.912  0.1788  0.3276  0.1422
 2451W        W 5970   1.452   6.707   2.713 -0.0797  0.0385  0.1938
 2452W        W 5971   2.371   1.095  10.931  0.2732 -0.0236 -0.0255
 2453W        W 5972   3.707   7.188   0.821 -0.2999 -0.0710 -0.0825
 2454W        W 5973   8.542   0.135  12.021 -0.0588 -0.1908  0.0164
 2455W        W 5974   9.396   8.397   7.846  0.1265  0.1411  0.1925
 2456W        W 5975   6.320   9.477   0.178  0.0593  0.1054 -0.3745
 2457W        W 5976   8.419   1.945  10.327 -0.2412  0.1764  0.1618
 2458W        W 5977   0.170   3.131   2.496 -0.0763 -0.2226 -0.2209
 2459W        W 5978   4.492   3.971  10.530 -0.0536 -0.1726 -0.0025
 2460W        W 5979   8.034   5.838   9.223  0.2578  0.2760  0.1211
 2461W        W 5980   6.591   4.123  10.614 -0.0167  0.0904  0.0345
 2462W        W 5981   8.560   1.030   1.704  0.2186  0.0289  0.0371
 2463W        W 5982   8.060   1.190  11.704 -0.3491  0.0485  0.0158
 2464W        W 5983   3.159   4.923   4.005 -0.0296 -0.0490 -0.1531
 2465W        W 5984   7.752   8.484   9.488  0.0871  0.1526 -0.0435
 2466W        W 5985   6.279   4.249   2.430 -0.2906  0.0018  0.0758
 2467W        W 5986   8.686   3.327   3.810 -0.0556 -0.4482  0.0513
 2468W        W 5987   8.903   7.800  10.179  0.1226  0.0090  0.0790
 2469W        W 5988   4.661   1.590   1.027 -0.1163 -0.1453 -0.0833
 2470W        W 5989   6.573   2.007  10.014  0.1773 -0.2472  0.0411
 2471W        W 5990   0.473   8.960   2.698 -0.0314  0.1480 -0.1631
 2472W        W 5991   1.183   5.180   3.498 -0.1792 -0.1327 -0.0951
 2473W        W 5992   8.224   0.374   0.323  0.2990 -0.2316 -0.2095
 2474W        W 5993   8.050   0.428   2.945 -0.1683  0.1894 -0.3296
 2475W        W 5994   2.884   7.902   3.402  0.1477  0.0403 -0.0400
 2476W        W 5995   5.755   9.595   2.776 -0.1421 -0.2829 -0.0695
 2477W        W 5996   8.929   3.505  10.344  0.0161 -0.1185  0.2274
 2478W        W 5997   6.620   7.379   2.639  0.0493 -0.1349  0.2801
 2479W        W 5998   7.546   5.832   9.383 -0.1337 -0.2610 -0.0356
 2480W        W 5999   5.695   3.403  11.643  0.2517  0.0095 -0.2226
 2481W        W 6000   1.255   3.779   1.533 -0.0719 -0.2040  0.0753
 2482W        W 6001   2.817   5.932   8.597 -0.2874  0.4505  0.2804
 2483W        W 6002   5.618   2.368   0.871  0.0765  0.3195  0.0644
 2484W        W 6003   9.329   8.377   2.935 -0.1360 -0.0342  0.0027
 2485W        W 6004   9.042   4.862   3.326  0.0804  0.1033 -0.1664
 2486W        W 6005   4.382   7.673   8.829  0.0330 -0.1428 -0.0761
 2487W        W 6006   5.532   0.067  11.973  0.0012 -0.3276 -0.4701
 2488W        W 6007   3.290   4.050   8.908  0.0386 -0.2653  0.0957
 2489W        W 6008   2.673   4.504  10.850 -0.2281  0.0044  0.5172
 2490W        W 6009   0.841   2.883  10.762 -0.0574 -0.1532  0.1733
 2491W        W 6010   2.384   4.374   2.239 -0.0353 -0.1004  0.2498
 2492W        W 6011   0.167   2.349   0.972 -0.0928  0.0879 -0.1158
 2493W        W 6012   2.159   7.548   2.353  0.0266 -0.0442  0.1891
 2494W        W 6013   0.447   5.347   2.879  0.4013  0.0763  0.0168
 2495W        W 6014   7.862   5.365   9.121  0.2361  0.0321 -0.0733
 2496W        W 6015   8.694   1.270   3.490 -0.3581  0.2369  0.2063
 2497W        W 6016   3.321   8.570   7.663  0.2114  0.1682 -0.0168
 2498W        W 6017   1.312   2.604  12.273  0.1268 -0.0167  0.2360
 2499W        W 6018   3.425   2.673  10.207 -0.2081 -0.1919 -0.1288
 2500W        W 6019   0.106   5.942   3.784 -0.1911 -0.2314 -0.0186
 2501W        W 6020   4.851   8.672  11.037  0.0766 -0.0273 -0.0631
 2502W        W 6021   0.941   1.742   9.960 -0.1122  0.2366 -0.2827
 2503W        W 6022   2.367   8.397   3.831  0.2585 -0.1080 -0.0546
 2504W        W 6023   5.194   0.692   1.109 -0.3671  0.0699 -0.0270
 2505W        W 6024   4.906   3.181   0.118  0.4299  0.1519 -0.0727
 2506W        W 6025   5.249   0.687   2.195  0.0431  0.1824 -0.1820
 2507W        W 6026   4.453   8.439   1.068  0.2727 -0.1855 -0.0991
 2508W        W 6027   8.143   7.974   1.017 -0.0478  0.0530 -0.0354
 2509W        W 6028   1.379   4.736  10.771  0.1745 -0.2086  0.0596
 2510W        W 6029   7.722   3.273   9.844 -0.0063 -0.2772 -0.0203
 2511W        W 6030   2.603   4.722   8.651  0.2151 -0.1845  0.0421
 2512W        W 6031   4.632   0.211   9.805 -0.1293  0.0308 -0.0416
 2513W        W 6032   4.154   7.069   8.074 -0.0864  0.3197  0.0875
 2514W        W 6033   9.759   2.506   8.409 -0.0209  0.0904 -0.0655
 2515W        W 6034   9.115   7.680   2.229  0.0717  0.0631 -0.2446
 2516W        W 6035   3.412   7.543   1.003 -0.0990 -0.0722  0.2143
 2517W        W 6036   0.853   7.308  10.157 -0.0456 -0.0583  0.0078
 2518W        W 6037   9.719   8.711  11.437 -0.2718  0.2116 -0.4736
 2519W        W 6038   2.626   9.443   3.067 -0.0876  0.0428 -0.1306
 2520W        W 6039   6.370   7.126  12.022  0.0099 -0.3572 -0.1555
 2521W        W 6040   3.995   1.090   8.885 -0.0247 -0.0722 -0.2065
 2522W        W 6041   2.700   0.390   4.382 -0.1822 -0.2525  0.1492
 2523W        W 6042   8.910   4.084   9.457 -0.1328  0.0354  0.2236
 2524W        W 6043   9.003   9.689  10.465  0.1825 -0.1872 -0.0636
 2525W        W 6044   6.400   7.664   1.605  0.0957  0.1071 -0.0716
 2526W        W 6045   4.596   1.127  11.289  0.1183 -0.1488  0.1796
 2527W        W 6046   1.755   9.453   2.722 -0.3336  0.0654  0.0124
 2528W        W 6047   5.357   9.328   9.719  0.2150  0.2861 -0.3715
 2529W        W 6048   3.565   2.355   0.488  0.2025 -0.0164  0.2504
 2530W        W 6049   8.111   2.312  12.024  0.0613 -0.2112 -0.0794
 2531W        W 6050   4.443   4.400   1.937  0.2769 -0.0550  0.3446
 2532W        W 6051   5.095   1.507  12.316 -0.0095  0.1281  0.2423
 2533W        W 6052   6.797   5.916   3.857  0.0045 -0.1446  0.0765
 2534W        W 6053   4.123   8.266   1.936  0.1943  0.1300  0.1682
 2535W        W 6054   6.936   0.494   2.859 -0.0463 -0.2223  0.2795
 2536W        W 6055   8.766   9.694   8.715 -0.0641 -0.0305 -0.0511
 2537W        W 6056   3.082   6.772   1.591  0.0634 -0.0180 -0.3936
 2538W        W 6057   6.912   6.836  11.417  0.0873  0.1258 -0.3108
 2539W        W 6058   3.903   0.740  11.078  0.2363 -0.3032  0.4027
 2540W        W 6059   3.894   3.697   9.461 -0.2844 -0.1403 -0.1515
 2541W        W 6060   3.419   6.930   9.089 -0.0419  0.1757  0.0144
 2542W        W 6061   2.365   5.793   3.623 -0.2313 -0.2145 -0.1994
 2543W        W 6062   4.331   1.367   9.217 -0.0130  0.2276  0.1563
 2544W        W 6063   1.092   5.565   3.792 -0.2214 -0.0776  0.1110
 2545W        W 6064   2.084   2.885   4.426 -0.0604  0.2028 -0.0108
 2546W        W 6065   8.066   7.481   2.141 -0.1294  0.0617  0.1230
 2547W        W 6066   0.551   4.276   2.067 -0.1544 -0.0417  0.0959
 2548W        W 6067   9.734   5.766   8.698 -0.2532 -0.1950  0.3725
 2549W        W 6068   5.014   4.855   1.620  0.2612 -0.2154  0.1569
 2550W        W 6069   5.490   2.225  11.808 -0.0357 -0.0695 -0.1962
 2551W        W 6070   4.223   6.423   3.964  0.0452  0.1231  0.0889
 2552W        W 6071   0.654   0.006  11.421  0.1086  0.2328 -0.3027
 2553W        W 6072   2.065   1.965   9.334  0.0295 -0.1283 -0.0126
 2554W        W 6073   8.775   2.871   9.387  0.1788 -0.0970 -0.1921
 2555W        W 6074   4.690   9.262   2.046  0.0800 -0.1784 -0.1983
 2556W        W 6075   9.359   2.533  11.510  0.2547 -0.2051 -0.0149
 2557W        W 6076   1.113   3.711  11.226 -0.0275 -0.2604 -0.0595
 2558W        W 6077   7.049   3.392   3.067  0.0846  0.2103  0.3495
 2559W        W 6078   0.734   7.998   0.157 -0.2209 -0.2347  0.0037
 2560W        W 6079   5.790   5.472  10.779  0.0199 -0.2587 -0.0362
 2561W        W 6080   2.361   5.003   9.474 -0.1289  0.1652 -0.0195
 2562W        W 6081   3.123   7.810   9.808  0.1295  0.1047 -0.2906
 2563W        W 6082   9.011   9.013  12.346  0.2621  0.1307  0.0643
 2564W        W 6083   1.901   8.172   3.952  0.1373  0.1848  0.2301
 2565W        W 6084   6.443   2.543  11.130  0.3021  0.2779  0.3107
 2566W        W 6085   6.555   6.499  11.642  0.0058  0.4292  0.1306
 2567W        W 6086   0.951   1.363   4.696 -0.0834 -0.0514 -0.1151
 2568W        W 6087   5.690   1.046   3.943 -0.4042  0.2250 -0.3291
 2569W        W 6088   2.801   0.982  12.019 -0.0729 -0.1090 -0.2651
 2570W        W 6089   0.271   3.172   9.364 -0.0110  0.0420  0.1154
 2571W        W 6090   0.640   7.540  11.424  0.1400  0.1140  0.0239
 2572W        W 6091   4.235   5.692   1.048  0.1884 -0.0772  0.5043
 2573W        W 6092   0.938   5.268   2.076  0.2475  0.1053  0.0986
 2574W        W 6093   3.355   3.992   1.180 -0.2564 -0.0209  0.0090
 2575W        W 6094   0.989   4.227   2.301 -0.0452  0.3928  0.0318
 2576W        W 6095   4.378   9.044   9.654  0.1183  0.1892 -0.2189
 2577W        W 6096   3.968   7.625   4.359 -0.0531  0.0572  0.5217
 2578W        W 6097   1.980   3.090   2.792  0.0531 -0.0017  0.1210
 2579W        W 6098   3.270   9.476   3.873 -0.2336 -0.1028  0.2110
 2580W        W 6099   0.987   2.327  12.046 -0.0735  0.0131  0.0451
 2581W        W 6100   0.316   4.429   3.140  0.2752  0.1046  0.1018
 2582W        W 6101   3.984   5.412   2.598 -0.0559 -0.2785  0.0410
 2583W        W 6102   8.079   9.410   3.864 -0.0202 -0.0711  0.1241
 2584W        W 6103   0.748   7.095   0.666 -0.0481  0.1338 -0.2262
 2585W        W 6104   9.311   3.502  11.543  0.2994  0.0267 -0.0668
 2586W        W 6105   7.436   9.256   2.848  0.1250 -0.0160 -0.1286
 2587W        W 6106   2.142   6.523  12.335  0.0916  0.1721  0.1942
 2588W        W 6107   5.832   3.325   2.440  0.3210 -0.1803  0.2848
 2589W        W 6108   2.406   8.950   2.742  0.0613  0.0767  0.1483
 2590W        W 6109   2.921   5.451  11.132  0.1786 -0.1857  0.1202
 2591W        W 6110   3.769   8.316   9.305 -0.4852  0.1430 -0.2290
 2592W        W 6111   6.115   3.347   3.642 -0.1543 -0.0616  0.0039
 2593W        W 6112   0.506   0.619  10.771 -0.1158 -0.1004  0.1449
 2594W        W 6113   8.935   3.162  11.494  0.2601  0.0474  0.2796
 2595W        W 6114   5.824   5.596   2.015 -0.1638 -0.3347 -0.0946
 2596W        W 6115   1.417   2.202  10.722  0.1085 -0.0294 -0.1601
 2597W        W 6116   1.138   3.883   0.094  0.3038  0.0225 -0.1290
 2598W        W 6117   7.304   3.139   1.127 -0.0767 -0.0062  0.1178
 2599W        W 6118   3.211   5.374   3.747  0.2354 -0.3349  0.0585
 2600W        W 6119   1.386   3.329   1.415  0.0230 -0.0953 -0.0393
 2601W        W 6120   6.389   3.849   2.036 -0.0152 -0.0975  0.2219
 2602W        W 6121   0.936   9.392  11.726 -0.0753 -0.0276 -0.1835
 2603W        W 6122   7.323   4.433   0.774  0.3702  0.0713 -0.1697
 2604W        W 6123   0.566   5.474  11.656 -0.5028 -0.0142 -0.4389
 2605W        W 6124   5.492   6.472   4.431 -0.2082  0.0673 -0.1955
 2606W        W 6125   4.335   0.645  11.446  0.0568  0.0293  0.1539
 2607W        W 6126   6.464   1.365  10.694 -0.0725 -0.3552  0.2689
 2608W        W 6127   2.314   0.216  10.262 -0.2994 -0.2605 -0.1191
 2609W        W 6128   0.309   7.267   9.559 -0.1924  0.1752  0.1443
 2610W        W 6129   8.826   1.673   2.489 -0.1885  0.1306 -0.0098
 2611W        W 6130   9.774   6.981   1.694 -0.1824 -0.0880  0.1389
 2612W        W 6131   7.157   3.208   9.922  0.1671  0.2595 -0.2652
 2613W        W 6132   8.121   4.132   2.360  0.0051 -0.3628  0.5547
 2614W        W 6133   4.333   7.653   0.437  0.2446  0.1176  0.2249
 2615W        W 6134   0.935   3.740   2.403  0.2110 -0.1370  0.1620
 2616W        W 6135   4.175   4.172   3.547 -0.0741  0.2192 -0.2514
 2617W        W 6136   7.097   5.634   1.019  0.1334 -0.0253 -0.1065
 2618W        W 6137   1.153   7.342   2.871 -0.1215 -0.0942 -0.3643
 2619W        W 6138   7.727   7.134   9.540 -0.2883  0.0314  0.1792
 2620W        W 6139   4.881   5.424   2.555  0.0909  0.2995 -0.0398
 2621W        W 6140   7.008   4.735  11.288 -0.1843 -0.2543 -0.0661
 2622W        W 6141   5.841   4.382   2.918 -0.5091  0.1283 -0.0811
 2623W        W 6142   6.149   6.578   3.732  0.1283  0.3158 -0.2940
 2624W        W 6143   4.113   4.676   3.242  0.0799  0.0592 -0.0054
 2625W        W 6144   5.733   4.443   3.503  0.0954 -0.1201  0.1837
 2626W        W 6145   9.235   5.082   1.692  0.0944  0.0438  0.0555
 2627W        W 6146   4.088   9.541   1.075  0.3220 -0.3283 -0.2293
 2628W        W 6147   7.271   5.121   4.231 -0.1982 -0.2092  0.0258
 2629W        W 6148   0.073   4.248   9.500  0.1220  0.0300  0.1914
 2630W        W 6149   3.844   7.740   8.746 -0.3144  0.2522 -0.2558
 2631W        W 6150   3.267   7.419   9.387  0.0900  0.0845 -0.1786
 2632W        W 6151   3.402   8.245  10.082  0.2298  0.1435 -0.2750
 2633W        W 6152   9.246   7.032  12.221  0.3189 -0.1358 -0.3360
 2634W        W 6153   4.622   5.907   9.839 -0.0651  0.0517  0.2171
 2635W        W 6154   9.524   5.458   2.491  0.0112  0.0770  0.1106
 2636W        W 6155   1.478   6.724   4.056 -0.0266 -0.0029 -0.1502
 2637W        W 6156   4.003   9.729   2.899  0.3572  0.1996 -0.0260
 2638W        W 6157   6.819   3.071  10.975 -0.0846  0.1053 -0.3151
 2639W        W 6158   9.268   4.954   8.299 -0.0565  0.0848 -0.0931
 2640W        W 6159   0.197   7.864   2.403  0.2360 -0.1414  0.0370
 2641W        W 6160   0.502   2.690   8.565 -0.2614 -0.0440  0.0689
 2642W        W 6161   8.798   8.946   2.628  0.3659  0.1339 -0.0609
 2643W        W 6162   4.152   9.621  12.016 -0.2398 -0.3788 -0.1301
 2644W        W 6163   9.638   1.303   1.322 -0.3438 -0.0441  0.2849
 2645W        W 6164   6.334   5.375   9.186  0.3102  0.2008  0.3124
 2646W        W 6165   5.262   8.410  11.356  0.0853 -0.1540 -0.2204
 2647W        W 6166   6.975   7.915   8.593  0.0104 -0.3686 -0.3153
 2648W        W 6167   2.779   5.288   2.535  0.0748  0.0321  0.4026
 2649W        W 6168   4.618   4.877   2.016 -0.0345 -0.2811 -0.0506
 2650W        W 6169   5.419   5.322   3.659 -0.0611 -0.1412 -0.0860
 2651W        W 6170   5.395   4.311  11.859 -0.0417  0.0389 -0.1354
 2652W        W 6171   0.820   6.478   9.932  0.0701  0.1781  0.2122
 2653W        W 6172   8.719   8.548   9.639  0.0614  0.1291  0.3329
 2654W        W 6173   2.879   1.476   9.228  0.3768 -0.4373  0.1351
 2655W        W 6174   8.828   2.266  10.294 -0.0063  0.0193 -0.2306
 2656W        W 6175   1.702   0.524   8.235 -0.0380 -0.0972 -0.0336
 2657W        W 6176   9.367   7.846   3.696 -0.4112  0.2423  0.3998
 2658W        W 6177   8.970   6.215   2.442 -0.3105 -0.1448  0.1425
 2659W        W 6178   5.383   6.361  10.076  0.0801 -0.1500  0.3420
 2660W        W 6179   0.106   2.116   4.172 -0.1727 -0.2363 -0.5750
 2661W        W 6180   6.075   8.683   9.033 -0.0273  0.1468 -0.2617
 2662W        W 6181   1.752   9.213  10.170 -0.3237  0.2706  0.0606
 2663W        W 6182   4.402   6.029   2.366  0.1027  0.0449  0.1112
 2664W        W 6183   4.681   8.374   1.920  0.3010 -0.2424  0.0086
 2665W        W 6184   4.590   7.479   0.012 -0.0623  0.3697 -0.1138
 2666W        W 6185   6.995   8.161  11.239  0.1581 -0.0107  0.0183
 2667W        W 6186   8.249   4.572   0.235  0.2279  0.2414  0.0942
 2668W        W 6187   0.761   2.237  10.024  0.1296  0.0560  0.0175
 2669W        W 6188   3.481   9.387  11.813  0.1400  0.2479  0.1202
 2670W        W 6189   6.471   0.088   8.552  0.0681  0.1100 -0.1368
 2671W        W 6190   2.066   0.097   2.836  0.2213  0.0693 -0.0509
 2672W        W 6191   4.467   7.431  11.669 -0.1068 -0.0393 -0.1718
 2673W        W 6192   9.097   5.697   2.219  0.1614  0.0057 -0.1762
 2674W        W 6193   9.371   3.886   1.924 -0.1904 -0.2964 -0.2165
 2675W        W 6194   7.951   1.976   9.947  0.0100 -0.2681 -0.0849
 2676W        W 6195   2.569   6.788  12.222  0.2190 -0.0930  0.1759
 2677W        W 6196   0.586   0.156   9.401 -0.1561 -0.0038  0.1605
 2678W        W 6197   2.658   8.568   2.245 -0.0282 -0.1406  0.1862
 2679W        W 6198   4.770   7.028  11.501 -0.0061  0.3375  0.1108
 2680W        W 6199   7.088   6.672   1.144 -0.0971 -0.1973  0.4017
 2681W        W 6200   0.619   2.241   0.091  0.2355  0.0327  0.0278
 2682W        W 6201   3.707   5.752   1.114  0.1094  0.1638  0.2173
 2683W        W 6202   6.644   9.400   8.795 -0.1263  0.2545 -0.1580
 2684W        W 6203   8.307   7.584  10.773  0.1590  0.1838  0.2227
 2685W        W 6204   4.982   2.880   2.828  0.0534 -0.0860 -0.0476
 2686W        W 6205   8.438   5.483  11.957 -0.1692 -0.3230 -0.2698
 2687W        W 6206   2.215   0.115  11.159  0.0401  0.0601 -0.2328
 2688W        W 6207   0.633   5.955   1.144 -0.2190 -0.1759 -0.1022
 2689W        W 6208   8.995   2.153   3.460 -0.1146 -0.0915  0.0336
 2690W        W 6209   0.270   0.014   3.833 -0.1495 -0.0424  0.3130
 2691W        W 6210   1.589   2.414   8.171  0.1867 -0.0809 -0.3727
 2692W        W 6211   5.948   6.894  11.732  0.0208 -0.0132 -0.2908
 2693W        W 6212   7.392   6.750   9.400  0.0302 -0.3884 -0.3637
 2694W        W 6213   7.918   0.920   1.079  0.0461 -0.0810  0.0338
 2695W        W 6214   6.149   3.085  11.206  0.1711  0.2060 -0.1765
 2696W        W 6215   5.405   4.898  11.410 -0.2480 -0.1408  0.2741
 2697W        W 6216   8.905   7.402   8.663 -0.3468  0.0018  0.3181
 2698W        W 6217   2.262   7.052   0.656 -0.2020 -0.5190 -0.2771
 2699W        W 6218   1.879   1.496   9.002 -0.1475 -0.2106 -0.3098
 2700W        W 6219   1.826   7.525  10.506 -0.2491  0.0647 -0.3784
 2701W        W 6220   5.282   7.005   2.290  0.1515  0.1895  0.4667
 2702W        W 6221   0.384   3.145  10.069  0.2167 -0.2506  0.1535
 2703W        W 6222   0.985   9.761   3.106  0.1490  0.1836  0.4375
 2704W        W 6223   4.751   7.653   1.086 -0.0651  0.4445 -0.0060
 2705W        W 6224   1.627   7.120   3.020 -0.2262  0.0169  0.1046
 2706W        W 6225   4.868   4.407   2.846 -0.1304  0.1509  0.1873
 2707W        W 6226   8.486   6.205   8.462 -0.4538  0.0021 -0.0010
 2708W        W 6227   7.473   3.789   8.603 -0.1736  0.1236  0.0121
 2709W        W 6228   5.880   4.689  11.554 -0.3246 -0.1125  0.1141
 2710W        W 6229   5.178   0.890  10.157 -0.3614  0.1509 -0.2609
 2711W        W 6230   4.043   7.725   1.785  0.1099 -0.2510 -0.1673
 2712W        W 6231   4.984   9.197   3.946  0.0884 -0.3616 -0.0174
 2713W        W 6232   7.302   0.343   0.001 -0.0801  0.0821  0.1041
 2714W        W 6233   8.098   4.288   4.283 -0.2211 -0.1078  0.2881
 2715W        W 6234   5.762   4.061  11.023  0.0470  0.2436 -0.0481
 2716W        W 6235   2.551   5.219   0.012 -0.1019  0.0372  0.0783
 2717W        W 6236   8.116   9.559  11.522 -0.2379 -0.2226 -0.0762
 2718W        W 6237   0.068   1.826   1.170 -0.0969  0.2725  0.2122
 2719W        W 6238   3.814   4.569   3.632 -0.2516 -0.2109  0.0339
 2720W        W 6239   2.690   1.351   3.152 -0.2448  0.0513  0.1162
 2721W        W 6240   6.820   3.598   9.510  0.3259  0.1820 -0.3401
 2722W        W 6241   2.217   5.083  10.794 -0.1974  0.0306  0.4410
 2723W        W 6242   2.729   0.143   3.950 -0.2318 -0.0619  0.1558
 2724W        W 6243   2.063   8.916   1.845 -0.2209 -0.0888 -0.0232
 2725W        W 6244   0.342   2.333   4.647 -0.0225 -0.2907  0.0130
 2726W        W 6245   7.022   1.655  10.946 -0.1197  0.0667 -0.1556
 2727W        W 6246   2.821   9.355  10.722  0.1407 -0.2077  0.1074
 2728W        W 6247   6.866   7.729   1.983  0.2397  0.0904  0.0546
 2729W        W 6248   5.029   7.229   8.609  0.0377 -0.1021  0.1948
 2730W        W 6249   2.124   6.806   9.468  0.2174 -0.0797  0.0008
 2731W        W 6250   7.660   3.433   3.803 -0.1368  0.0150  0.0128
 2732W        W 6251   5.853   7.581   9.943 -0.2198  0.0789  0.0331
 2733W        W 6252   2.905   6.655  10.641  0.1019 -0.2483  0.0498
 2734W        W 6253   9.290   1.644   1.244 -0.0073  0.0182  0.0277
 2735W        W 6254   6.158   8.053   1.401  0.3373  0.2830 -0.2828
 2736W        W 6255   9.328   2.046   0.302  0.0025 -0.2573  0.1855
 2737W        W 6256   4.281   9.415   0.622  0.0774  0.1199 -0.2124
 2738W        W 6257   4.552   6.302  12.284  0.2207  0.1326 -0.3961
 2739W        W 6258   9.274   7.746   4.721 -0.0102  0.0404 -0.1057
 2740W        W 6259   3.509   8.552   1.833  0.1074 -0.0673 -0.0149
 2741W        W 6260   5.693   3.481   1.089  0.4200 -0.1000 -0.0895
 2742W        W 6261   8.610   4.095   9.858 -0.2560  0.0060 -0.0026
 2743W        W 6262   7.010   5.440  10.581 -0.2629  0.1179 -0.1475
 2744W        W 6263   7.583   4.679  11.036  0.2438 -0.1355  0.0279
 2745W        W 6264   8.462   8.520   2.338  0.2178  0.0157  0.1142
 2746W        W 6265   4.758   8.388  11.469  0.3432 -0.0527  0.2174
 2747W        W 6266   7.090   7.887   1.500  0.0754 -0.0906  0.3288
 2748W        W 6267   7.413   1.309   1.669 -0.2514  0.1933 -0.0655
 2749W        W 6268   8.150   2.509   9.317 -0.0016 -0.2663 -0.0269
 2750W        W 6269   2.434   8.687   8.510  0.0380  0.4275  0.0206
 2751W        W 6270   7.816   4.692  11.872 -0.3222  0.1698  0.1706
 2752W        W 6271   0.886   5.862  11.505 -0.1672 -0.2560  0.1123
 2753W        W 6272   5.752   4.579   8.288 -0.1664 -0.2590  0.2405
 2754W        W 6273   8.212   5.944   2.984 -0.0362 -0.1740  0.1874
 2755W        W 6274   4.712   1.844  12.115  0.0767 -0.1265  0.3233
 2756W        W 6275   9.049   4.081   3.138  0.1791  0.1078 -0.0837
 2757W        W 6276   2.661   3.783   0.662  0.0223 -0.1196  0.1831
 2758W        W 6277   5.127   8.181   1.627  0.2976 -0.1042  0.1103
 2759W        W 6278   9.267   8.558  12.149 -0.2489 -0.3261 -0.2477
 2760W        W 6279   4.406   2.190   2.115  0.0578 -0.1313  0.0005
 2761W        W 6280   6.138   1.394   2.379 -0.0323 -0.0375 -0.3028
 2762W        W 6281   4.854   9.649   1.247 -0.3133  0.1817 -0.2521
 2763W        W 6282   0.604   7.038   1.988 -0.1048  0.0145  0.1165
 2764W        W 6283   3.640   1.325   3.053 -0.0383 -0.0348  0.2304
 2765W        W 6284   2.073   3.515   1.835  0.0917  0.0978  0.3870
 2766W        W 6285   7.417   9.103   0.976 -0.6094  0.0509 -0.4063
 2767W        W 6286   6.468   9.055   0.014 -0.0071  0.0401 -0.0697
 2768W        W 6287   1.240   8.795  11.071  0.0002  0.1510  0.2571
 2769W        W 6288   1.837   2.634   3.036 -0.1570  0.0664 -0.0416
 2770W        W 6289   3.574   4.359  11.182 -0.1529  0.3301  0.4519
 2771W        W 6290   8.147   3.546   0.242  0.2618 -0.3413  0.0989
 2772W        W 6291   5.550   5.553   3.265 -0.0588  0.2306 -0.0946
 2773W        W 6292   6.241   3.882  10.252  0.2093  0.0082  0.0364
 2774W        W 6293   2.575   7.285   4.013  0.2040 -0.3350  0.0320
 2775W        W 6294   3.948   2.341   9.163  0.1134 -0.1036 -0.2218
 2776W        W 6295   3.762   0.367   0.521 -0.0728 -0.2299 -0.0955
 2777W        W 6296   9.363   9.768   3.014 -0.1672 -0.0855 -0.0592
 2778W        W 6297   0.768   3.888   1.460 -0.1237  0.4482  0.1471
 2779W        W 6298   9.544   4.824  11.676  0.1266  0.0541 -0.3974
 2780W        W 6299   1.580   0.060  12.189  0.1233  0.1233 -0.2106
 2781W        W 6300   9.450   0.840   8.632 -0.1347 -0.0437  0.0926
 2782W        W 6301   1.194   8.596   4.165 -0.1514  0.0513  0.0665
 2783W        W 6302   8.263   0.173   1.517 -0.1638  0.2298 -0.0192
 2784W        W 6303   3.706   1.852   2.921 -0.1269 -0.1234 -0.3434
 2785W        W 6304   7.894   0.088   4.142  0.1439  0.1126  0.0849
 2786W        W 6305   6.487   3.776   2.491 -0.2196  0.1253  0.1205
 2787W        W 6306   2.770   4.616   4.072  0.1263  0.1903  0.0164
 2788W        W 6307   3.257   8.203   0.290  0.0604 -0.1383 -0.0065
 2789W        W 6308   7.645   9.140   1.462 -0.0225  0.2285 -0.1045
 2790W        W 6309   2.162   9.438  11.339 -0.0713  0.1854  0.1511
 2791W        W 6310   6.259   6.608   0.553 -0.0454 -0.2158 -0.1238
 2792W        W 6311   1.322   9.663  11.506  0.0623  0.2981  0.0046
 2793W        W 6312   4.903   9.675   1.774  0.1407 -0.1644 -0.0927
 2794W        W 6313   6.166   3.468   2.819  0.2693  0.1471 -0.2530
 2795W        W 6314   8.269   0.099  11.064 -0.1596  0.1032  0.0034
 2796W        W 6315   1.357   0.078   2.237  0.2515 -0.1250 -0.2674
 2797W        W 6316   1.291   6.112  11.380 -0.0411  0.2376  0.1922
 2798W        W 6317   8.114   5.302   1.823  0.0762  0.1248 -0.2709
 2799W        W 6318   4.479   8.697   8.572  0.2167  0.0189  0.1171
 2800W        W 6319   0.459   8.316   2.808  0.0350 -0.1821 -0.0762
 2801W        W 6320   6.916   8.963   0.906  0.1868 -0.2435 -0.2414
 2802W        W 6321   5.471   5.063  10.897 -0.2826  0.0234  0.2369
 2803W        W 6322   6.066   5.010   4.633  0.2350  0.0640 -0.0435
 2804W        W 6323   5.121   2.823  10.500 -0.1538  0.0298 -0.1947
 2805W        W 6324   6.062   0.341   4.240 -0.0377  0.3562 -0.0519
 2806W        W 6325   0.172   0.726  11.122 -0.2146 -0.2055  0.1702
 2807W        W 6326   6.613   1.596   2.355 -0.0669  0.0051  0.0250
 2808W        W 6327   1.052   8.232   9.495  0.0665 -0.2229  0.0439
 2809W        W 6328   0.645   4.461  12.004 -0.0243  0.2899  0.1854
 2810W        W 6329   8.851   3.748  12.071  0.0865 -0.0974  0.1041
 2811W        W 6330   9.480   7.065   7.992  0.2062  0.1459 -0.1312
 2812W        W 6331   0.124   9.606  11.004  0.0063 -0.4370 -0.0698
 2813W        W 6332   9.621   0.086   8.790  0.3261  0.1846 -0.0167
 2814W        W 6333   4.356   5.197  11.375  0.4230 -0.4988  0.0925
 2815W        W 6334   8.572   2.107   8.368 -0.2280 -0.1805  0.1817
 2816W        W 6335   6.821   4.410   1.835  0.1033 -0.0525  0.1985
 2817W        W 6336   6.921   1.590   4.125 -0.0812  0.1984  0.4089
 2818W        W 6337   2.816   6.810   8.569  0.0948 -0.2769 -0.2268
 2819W        W 6338   3.003   9.224   1.379  0.1095  0.2216 -0.1667
 2820W        W 6339   6.671   3.664  10.530 -0.3915 -0.1053 -0.0215
 2821W        W 6340   3.790   6.115  11.533 -0.1917  0.0092 -0.0495
 2822W        W 6341   7.961   6.362   2.887  0.0615  0.2453  0.0733
 2823W        W 6342   3.605   5.945   0.204  0.3197 -0.0775  0.2208
 2824W        W 6343   1.413   1.352  12.250  0.0784  0.1698 -0.0711
 2825W        W 6344   3.376   3.864  11.201  0.0466 -0.0397 -0.0038
 2826W        W 6345   4.356   2.254   9.461 -0.2410  0.2996  0.0943
 2827W        W 6346   4.965   6.235   3.285 -0.1518 -0.1448  0.1241
 2828W        W 6347   5.001   5.434   3.898 -0.4620 -0.2524  0.1238
 2829W        W 6348   3.182   6.301   8.717 -0.2503  0.0835 -0.1765
 2830W        W 6349   6.959   6.129  10.753  0.2392  0.0356 -0.0327
 2831W        W 6350   6.588   6.681   4.497  0.3144 -0.3145 -0.2349
 2832W        W 6351   0.562   2.249   9.170  0.0629  0.0217 -0.3751
 2833W        W 6352   2.563   0.826  11.358  0.0176 -0.0948 -0.0177
 2834W        W 6353   2.492   0.673   2.167  0.1320 -0.0462  0.0934
 2835W        W 6354   3.329   8.028  10.997 -0.1352 -0.2266  0.0370
 2836W        W 6355   7.573   8.468   8.993  0.0131  0.0574 -0.2925
 2837W        W 6356   7.852   4.496   9.431  0.0605 -0.0460  0.1363
 2838W        W 6357   7.797   2.650   2.783 -0.1337  0.3055  0.2421
 2839W        W 6358   6.053   1.268   1.940 -0.1846  0.0729  0.0730
 2840W        W 6359   6.577   8.265   9.969 -0.2686  0.1567 -0.2874
 2841W        W 6360   2.192   9.577   3.900 -0.0548 -0.1684 -0.0306
 2842W        W 6361   8.616   8.987   2.113 -0.1706  0.1488  0.1629
 2843W        W 6362   7.917   2.868   8.406 -0.3687 -0.0168 -0.5996
 2844W        W 6363   1.283   5.498   4.297 -0.1275 -0.2806 -0.0964
 2845W        W 6364   2.054   5.765   0.584  0.3750 -0.1413  0.2395
 2846W        W 6365   7.697   7.386  11.207  0.1247 -0.2903 -0.1279
 2847W        W 6366   1.041   7.521   0.613  0.1139  0.1738  0.1940
 2848W        W 6367   4.307   2.946   1.100  0.2812 -0.1082  0.3630
 2849W        W 6368   2.411   9.638   9.827 -0.0264 -0.0001  0.0392
 2850W        W 6369   1.503   6.571   2.224 -0.0927 -0.2824  0.0757
 2851W        W 6370   5.747   6.621   4.007  0.0809 -0.1757  0.3955
 2852W        W 6371   4.274   8.716   3.624  0.0604  0.2137  0.1746
 2853W        W 6372   3.056   7.976  10.371  0.4587 -0.0998  0.0919
 2854W        W 6373   8.411   0.111   9.456  0.0233 -0.3942 -0.0670
 2855W        W 6374   8.325   4.433  10.574  0.0698  0.0567  0.1239
 2856W        W 6375   8.824   5.685   9.658  0.0308  0.3685  0.0893
 2857W        W 6376   0.590   8.910  11.285 -0.1487  0.0023  0.0956
 2858W        W 6377   6.236   8.851   9.534  0.1539 -0.2549  0.3555
 2859W        W 6378   5.392   2.131   3.339 -0.0932  0.1818  0.1837
 2860W        W 6379   9.496   1.084  11.791  0.0413  0.1499  0.1411
 2861W        W 6380   1.879   6.161   1.792  0.0826 -0.2499 -0.3202
 2862W        W 6381   2.428   1.610   2.730  0.2997 -0.3239 -0.1545
 2863W        W 6382   1.949   5.577  12.062 -0.1702  0.0112 -0.1831
 2864W        W 6383   7.538   7.283   3.736  0.0247  0.0418 -0.0855
 2865W        W 6384   0.507   0.429   4.228 -0.3036 -0.0293  0.0889
 2866W        W 6385   3.724   1.349   0.704 -0.0655  0.4099 -0.0493
 2867W        W 6386   5.490   5.341   2.445  0.0251 -0.1450  0.1361
 2868W        W 6387   1.364   9.286  10.472 -0.2309 -0.2095  0.3393
 2869W        W 6388   3.552   7.821  11.559 -0.1374 -0.2211 -0.3175
 2870W        W 6389   9.026   8.774   7.974  0.0700 -0.0248  0.0327
 2871W        W 6390   6.952   2.928   2.289  0.0237  0.1701  0.1165
 2872W        W 6391   6.530   3.753   1.222 -0.0482  0.0570 -0.2569
 2873W        W 6392   2.568   0.230   2.869 -0.1744 -0.2450 -0.1985
 2874W        W 6393   3.899   7.497  11.731  0.0166 -0.4967 -0.0404
 2875W        W 6394   9.531   7.630  10.027  0.1023  0.1348 -0.2355
 2876W        W 6395   0.326   3.769  12.227 -0.1814  0.1228 -0.0881
 2877W        W 6396   2.521   7.590   0.572 -0.0055 -0.1722  0.0755
 2878W        W 6397   4.055   3.286   9.720 -0.0182 -0.2138  0.0208
 2879W        W 6398   3.611   4.636   4.148 -0.2517  0.0787  0.0018
 2880W        W 6399   4.309   4.652  11.461 -0.5044 -0.1331  0.0137
 2881W        W 6400   5.882   8.825  11.189  0.0328 -0.1354  0.2750
 2882W        W 6401   2.340   3.787  11.252 -0.1784 -0.2270  0.2650
 2883W        W 6402   3.044   0.311   1.652 -0.0714  0.1037  0.2699
 2884W        W 6403   2.328   8.438  10.567  0.1361  0.2495 -0.3114
 2885W        W 6404   8.568   6.214   2.694  0.0411  0.1943 -0.0621
 2886W        W 6405   5.363   9.234   8.374  0.0214  0.1242  0.2046
 2887W        W 6406   4.134   6.454   2.473 -0.0073 -0.0574 -0.0617
 2888W        W 6407   6.514   0.826  11.354 -0.3688 -0.0826  0.0330
 2889W        W 6408   2.795   9.447   8.600 -0.0174 -0.1057  0.0413
 2890W        W 6409   7.202   8.503   8.647  0.2567  0.2152 -0.0227
 2891W        W 6410   7.961   7.209   8.906  0.0834  0.3381  0.1102
 2892W        W 6411   1.008   2.907   2.495  0.1628 -0.0051 -0.2556
 2893W        W 6412   6.274   9.246  11.572  0.1686 -0.3308 -0.2217
 2894W        W 6413   6.283   9.676  11.279  0.4740  0.0530  0.2870
 2895W        W 6414   0.756   1.466  12.173 -0.1287 -0.0190 -0.3278
 2896W        W 6415   2.432   7.720   8.283 -0.2160  0.1403  0.2028
 2897W        W 6416   6.623   1.835   2.789  0.3653 -0.1881  0.1231
 2898W        W 6417   4.222   2.223  11.343 -0.2257  0.1351 -0.2839
 2899W        W 6418   2.124   8.789  10.283  0.0748  0.1700 -0.2069
 2900W        W 6419   9.331   2.295   7.539 -0.0339  0.0039  0.0625
 2901W        W 6420   7.686   7.654  10.280  0.0617  0.0983  0.1046
 2902W        W 6421   4.069   6.051   3.594  0.3494 -0.2692 -0.0887
 2903W        W 6422   0.932   9.483   0.020  0.1039  0.1364  0.2665
 2904W        W 6423   1.591   7.641   2.288 -0.1849  0.0209  0.1111
 2905W        W 6424   6.615   4.385  11.017 -0.2033  0.0559  0.0480
 2906W        W 6425   6.916   7.025  11.846 -0.0797 -0.1717 -0.0518
 2907W        W 6426   0.585   2.531   1.246  0.2604  0.1932  0.0426
 2908W        W 6427   2.148   7.785  10.193 -0.2110 -0.1750  0.0034
 2909W        W 6428   5.254   4.172   3.595 -0.0109  0.0738  0.0914
 2910W        W 6429   9.296   9.427   0.851 -0.2123  0.2185  0.1720
 2911W        W 6430   3.390   0.554   2.798  0.0525 -0.2641 -0.1049
 2912W        W 6431   7.415   7.127   2.583  0.1168 -0.0936  0.0037
 2913W        W 6432   7.397   8.699   4.051 -0.0799 -0.1129 -0.0426
 2914W        W 6433   2.444   6.222   7.760  0.1341 -0.0754  0.3075
 2915W        W 6434   8.744   9.300  11.192 -0.2655  0.2766 -0.0120
 2916W        W 6435   4.442   9.478  10.512 -0.0076  0.0522 -0.1484
 2917W        W 6436   4.524   4.085  12.228 -0.0453 -0.0671  0.1847
 2918W        W 6437   7.263   9.614  10.133  0.1530  0.2566 -0.1595
 2919W        W 6438   0.511   6.730   3.674  0.4649 -0.0275 -0.3301
 2920W        W 6439   5.492   3.454   0.426  0.3482 -0.0205  0.2583
 2921W        W 6440   8.147   5.913   9.724 -0.3536  0.0960 -0.0369
 2922W        W 6441   4.282   2.935  10.637 -0.1610  0.0217 -0.0918
 2923W        W 6442   6.927   1.892   9.688 -0.2388  0.0642 -0.0891
 2924W        W 6443   5.496   3.720   2.298  0.1610 -0.1118  0.0683
 2925W        W 6444   9.078   3.218   9.124  0.0281 -0.2327  0.0049
 2926W        W 6445   7.593   5.491   8.705 -0.1124 -0.2327  0.0949
 2927W        W 6446   9.354   7.779   3.162  0.1403 -0.1562 -0.1360
 2928W        W 6447   9.558   6.885  10.822 -0.2171  0.1411 -0.1011
 2929W        W 6448   7.230   0.951   3.066 -0.1600  0.3244  0.2293
 2930W        W 6449   5.707   8.380  10.946 -0.1171  0.1968 -0.0190
 2931W        W 6450   3.416   0.656   0.238 -0.0218  0.2244 -0.0000
 2932W        W 6451   3.046   3.107  10.860 -0.4830 -0.0899  0.1447
 2933W        W 6452   3.610   3.734  10.370  0.0351  0.0848  0.2811
 2934W        W 6453   5.574   7.261   2.024  0.1259  0.2159 -0.3104
 2935W        W 6454   7.129   9.480  11.986 -0.3258  0.0550  0.2760
 2936W        W 6455   3.199   7.496   2.163  0.1950 -0.0590 -0.0342
 2937W        W 6456   0.615   8.194   7.774  0.1611  0.2360 -0.0304
 2938W        W 6457   3.194   1.342   3.301  0.1472  0.0179 -0.0955
 2939W        W 6458   3.268   1.388  11.114  0.1362  0.1775 -0.0003
 2940W        W 6459   5.188   0.216   2.086 -0.5379  0.3181  0.1313
 2941W        W 6460   0.857   8.804   1.308 -0.0972 -0.0244  0.0130
 2942W        W 6461   2.325   3.611   9.909 -0.2879 -0.0508  0.2487
 2943W        W 6462   2.114   1.477  10.751  0.2004  0.1053 -0.2150
 2944W        W 6463   2.025   5.532  10.630  0.1523  0.0409 -0.3894
 2945W        W 6464   9.473   8.853   0.215  0.1314 -0.0601  0.0755
 2946W        W 6465   3.756   1.950  11.401 -0.1061 -0.0040  0.0526
 2947W        W 6466   1.577   7.028   8.048  0.0104  0.1527 -0.0763
 2948W        W 6467   0.123   0.375   9.325  0.1574 -0.0747  0.0889
 2949W        W 6468   4.169   8.577   0.260 -0.1876 -0.1772  0.3398
 2950W        W 6469   4.030   0.804  10.612  0.4066  0.1014  0.2346
 2951W        W 6470   7.246   6.577   0.644  0.1616  0.0365  0.0102
 2952W        W 6471   7.211   4.491   2.115  0.0592  0.1162  0.1568
 2953W        W 6472   5.660   9.410  12.271  0.1996 -0.1469 -0.0825
 2954W        W 6473   4.507   5.547  10.220 -0.2271 -0.1035  0.0725
 2955W        W 6474   2.506   0.664   0.999  0.0231 -0.1848 -0.0347
 2956W        W 6475   7.259   6.001   4.128 -0.0256 -0.0735  0.1688
 2957W        W 6476   9.137   1.857   1.694  0.0825  0.0934  0.1355
 2958W        W 6477   6.318   4.377   1.817  0.0757 -0.2057 -0.3402
 2959W        W 6478   2.135   2.325   1.299 -0.0339 -0.2473 -0.1040
 2960W        W 6479   6.632   2.259   8.620 -0.2053 -0.4724 -0.0317
 2961W        W 6480   8.862   9.481   9.603  0.5325  0.2290 -0.4103
 2962W        W 6481   7.134   8.355   3.704 -0.1404 -0.0825  0.0529
 2963W        W 6482   4.521   5.026  10.226 -0.3280 -0.1094 -0.0504
 2964W        W 6483   0.557   2.733   2.372 -0.0705  0.0879  0.4680
 2965W        W 6484   7.641   4.904   0.883 -0.0952  0.0599  0.3450
 2966W        W 6485   3.331   4.950   9.277 -0.1006  0.0404  0.0879
 2967W        W 6486   9.135   4.056   0.797  0.2150  0.2209 -0.2388
 2968W        W 6487   5.062   1.588  11.784  0.1178 -0.3223  0.0794
 2969W        W 6488   8.440   8.752  10.850 -0.0288  0.2260  0.1044
 2970W        W 6489   5.474   1.778   0.163  0.0407 -0.1818 -0.1303
 2971W        W 6490   0.998   1.479   2.621 -0.1007  0.2115  0.1974
 2972W        W 6491   7.713   1.112  11.306  0.0805  0.2263 -0.2770
 2973W        W 6492   1.632   3.893   0.073 -0.1171  0.2785 -0.0305
 2974W        W 6493   0.158   1.766   3.712 -0.2124  0.0599  0.0654
 2975W        W 6494   5.966   4.552   9.753  0.0004  0.2192 -0.0656
 2976W        W 6495   6.789   0.255   1.842  0.0788  0.1370 -0.0704
 2977W        W 6496   4.803   2.726  11.663  0.0306  0.0405  0.3266
 2978W        W 6497   9.366   3.462   9.927  0.1256 -0.0405  0.1179
 2979W        W 6498   1.835   4.928  12.119  0.1908  0.2570 -0.0172
 2980W        W 6499   5.972   3.764   8.793 -0.0091  0.1797 -0.0771
 2981W        W 6500   5.174   1.964  12.160 -0.3187  0.2474  0.0972
 2982W        W 6501   4.756   7.306   0.663  0.1836  0.0380 -0.0202
 2983W        W 6502   9.212   0.788  11.467 -0.1197 -0.3427 -0.0672
 2984W        W 6503   3.383   5.692   3.372 -0.3083 -0.1301 -0.2924
 2985W        W 6504   7.312   7.947   0.051  0.0856  0.1262 -0.2197
 2986W        W 6505   5.322   7.924   3.244  0.1943  0.3446 -0.2681
 2987W        W 6506   2.389   1.209   2.283 -0.0310 -0.1482  0.2258
 2988W        W 6507   9.319   6.276  11.510  0.0730  0.1520 -0.1350
 2989W        W 6508   2.210   7.714   9.729 -0.3699  0.2833 -0.0106
 2990W        W 6509   4.404   8.836   1.926 -0.1215  0.1047 -0.2387
 2991W        W 6510   8.120   9.054  10.045  0.0592 -0.1998 -0.1767
 2992W        W 6511   8.856   0.946   3.143  0.3148  0.0194 -0.0907
 2993W        W 6512   9.568   2.272   2.363 -0.1953 -0.0308 -0.0924
 2994W        W 6513   2.275   6.396   1.601 -0.0494 -0.0484  0.0822
 2995W        W 6514   3.878   0.528   1.044  0.2587 -0.2160  0.0032
 2996W        W 6515   6.921   4.512   9.245  0.2525  0.1318  0.1657
 2997W        W 6516   2.864   8.902   3.100 -0.2170 -0.1555 -0.0225
 2998W        W 6517   4.840   5.820  10.819 -0.0702  0.2596  0.3008
 2999W        W 6518   8.557   6.204   3.960 -0.1829 -0.2037  0.2179
 3000W        W 6519   7.175   5.231   1.909 -0.4190  0.0023 -0.1451
 3001W        W 6520   9.340   4.836   2.914  0.2185  0.2151 -0.2568
 3002W        W 6521   4.543   7.462  10.190  0.0638  0.0955 -0.1299
 3003W        W 6522   2.013   0.578   2.814  0.2142 -0.1890 -0.1045
 3004W        W 6523   7.565   6.622   3.107 -0.0901  0.2658 -0.1133
 3005W        W 6524   6.208   3.340  10.289  0.0241 -0.0691 -0.1342
 3006W        W 6525   2.682   0.162   8.464  0.0035 -0.2363 -0.2395
 3007W        W 6526   0.127   2.260  10.188  0.0058  0.1027 -0.0350
 3008W        W 6527   7.789   6.157  11.899 -0.1807  0.1083 -0.1186
 3009W        W 6528   2.997   0.357  10.807 -0.2859 -0.1788 -0.1447
 3010W        W 6529   1.616   9.136   3.157 -0.0574 -0.0837 -0.3683
 3011W        W 6530   1.252   0.090   1.660  0.2245 -0.0817  0.2143
 3012W        W 6531   2.795   3.432   9.259 -0.3218  0.1121  0.0735
 3013W        W 6532   2.472   3.940   2.828  0.0540  0.1486 -0.1174
 3014W        W 6533   9.481   0.612   1.750  0.0486 -0.1600  0.0994
 3015W        W 6534   7.989   8.255   1.536  0.4847 -0.1528  0.0865
 3016W        W 6535   9.335   2.749   8.410  0.0688 -0.0093  0.3349
 3017W        W 6536   9.338   4.620   2.427  0.0632 -0.3205 -0.1595
 3018W        W 6537   3.772   5.682   3.757  0.0614 -0.0521 -0.1775
 3019W        W 6538   5.795   5.632   0.805 -0.0125  0.3638  0.0178
 3020W        W 6539   7.728   9.165   2.422  0.2836 -0.1061  0.2668
 3021W        W 6540   5.567   0.718   0.275  0.2571  0.0333  0.0596
 3022W        W 6541   2.217   5.162  11.801 -0.3389  0.1320 -0.3357
 3023W        W 6542   0.132   4.375   3.641  0.0616 -0.3785 -0.3633
 3024W        W 6543   5.390   8.736  11.019 -0.0208 -0.0697 -0.3312
 3025W        W 6544   6.468   8.712   4.120  0.0874 -0.0572  0.0574
 3026W        W 6545   5.295   9.433  11.281 -0.0959 -0.0443  0.1323
 3027W        W 6546   5.880   8.055   0.609 -0.2722 -0.0314 -0.0314
 3028W        W 6547   3.389   6.300   9.841  0.2613  0.0118 -0.1925
 3029W        W 6548   4.751   4.376   1.517 -0.0935 -0.0315 -0.2020
 3030W        W 6549   3.344   0.728  10.676  0.1161  0.1372  0.0270
 3031W        W 6550   0.304   4.533   9.138  0.1342  0.0200  0.0174
 3032W        W 6551   5.532   6.535  10.690  0.2348  0.0555  0.1481
 3033W        W 6552   7.206   6.676   8.962 -0.3185  0.0180  0.1851
 3034W        W 6553   4.270   3.008  11.963 -0.1693  0.3338 -0.1113
 3035W        W 6554   1.871   4.342   9.933 -0.1207 -0.1531 -0.0581
 3036W        W 6555   7.521   6.452  11.519 -0.1666  0.1986  0.0113
 3037W        W 6556   3.081   6.637   2.982  0.3140 -0.0936  0.0199
 3038W        W 6557   5.610   9.427   9.184 -0.4051  0.2064 -0.0855
 3039W        W 6558   3.788   6.170   9.612 -0.3744  0.0028  0.0981
 3040W        W 6559   4.224   7.475   0.903  0.1607  0.0789  0.1927
 3041W        W 6560   4.652   6.868   8.304  0.0180  0.0690  0.1849
 3042W        W 6561   0.039   1.383  10.524 -0.0017 -0.2948 -0.0508
 3043W        W 6562   5.203   2.078  10.058 -0.0371  0.2864  0.0254
 3044W        W 6563   0.143   1.112   0.479 -0.1886 -0.0262  0.0492
 3045W        W 6564   3.145   9.222   0.866  0.0595  0.0584 -0.1464
 3046W        W 6565   1.656   7.753   4.236 -0.0473  0.0455  0.1458
 3047W        W 6566   5.922   5.429   3.750 -0.1939  0.2772 -0.1975
 3048W        W 6567   7.867   7.101   2.467  0.1351 -0.0078 -0.0798
 3049W        W 6568   5.529   8.553  11.779  0.4925 -0.1171  0.1899
 3050W        W 6569   4.086   7.213   3.580  0.1033  0.1933 -0.1858
 3051W        W 6570   3.432   6.994   2.011  0.1049 -0.0309  0.2913
 3052W        W 6571   1.677   1.734  12.041  0.0647 -0.3474 -0.1687
 3053W        W 6572   0.043   4.699   9.666  0.0532  0.0370 -0.0897
 3054W        W 6573   1.472   9.430   1.921 -0.1239  0.2006  0.2315
 3055W        W 6574   9.065   7.606   9.746 -0.1044 -0.2043 -0.4740
 3056W        W 6575   7.277   5.244   0.634 -0.0898 -0.2927  0.2543
 3057W        W 6576   3.937   8.848   2.120 -0.1450  0.2498 -0.5437
 3058W        W 6577   5.970   5.149   2.509 -0.0296 -0.3537 -0.0125
 3059W        W 6578   2.179   1.681   0.854 -0.0146  0.1890 -0.2394
 3060W        W 6579   9.342   1.131   9.026 -0.1871  0.0789 -0.2609
 3061W        W 6580   3.542   5.744  11.737  0.1788 -0.1945  0.2040
 3062W        W 6581   6.371   4.507   2.922 -0.1628  0.0150 -0.0516
 3063W        W 6582   1.567   1.365   1.635 -0.1357 -0.0113  0.0231
 3064W        W 6583   4.832   2.496   9.394 -0.1275 -0.1851 -0.1939
 3065W        W 6584   0.998   1.977   9.114  0.0971 -0.3460 -0.0908
 3066W        W 6585   9.391   7.444   9.410 -0.4098 -0.1840 -0.3876
 3067W        W 6586   4.832   7.914   3.775  0.0296  0.2716 -0.2228
 3068W        W 6587   7.202   4.400   2.644 -0.0787 -0.0227  0.0830
 3069W        W 6588   9.674   1.405   3.968 -0.0313  0.1533 -0.0974
 3070W        W 6589   1.455   5.360   1.571  0.1590 -0.1360  0.1595
 3071W        W 6590   2.487   3.836   9.329  0.0412  0.1216 -0.0112
 3072W        W 6591   9.082   1.207  12.135  0.1884 -0.0828 -0.0753
 3073W        W 6592   4.582   0.700  10.415  0.1019 -0.0217  0.0396
 3074W        W 6593   8.179   9.383  11.032  0.0962 -0.1025  0.0743
 3075W        W 6594   8.640   3.932  10.375 -0.0222  0.3943 -0.1950
 3076W        W 6595   5.272   6.473   2.240 -0.1202  0.1086  0.0446
 3077W        W 6596   5.928   1.222  10.778  0.1228 -0.0132  0.1799
 3078W        W 6597   5.161   3.053  12.015  0.0115 -0.4386  0.0749
 3079W        W 6598   6.597   1.385   9.175  0.1727  0.0886  0.1001
 3080W        W 6599   7.213   2.913  10.620 -0.0934  0.3919  0.1585
 3081W        W 6600   2.398   8.248   9.516  0.1486  0.1102  0.1738
 3082W        W 6601   3.794   8.080   9.796 -0.3528  0.3412 -0.1488
 3083W        W 6602   8.391   3.025  10.581 -0.0422  0.2881 -0.0669
 3084W        W 6603   2.137   8.843  11.358 -0.0031  0.3995  0.2193
 3085W        W 6604   7.366   2.366   1.791 -0.3172  0.0529 -0.0349
 3086W        W 6605   1.384   4.642  10.262  0.3091 -0.0977  0.2312
 3087W        W 6606   6.850   4.522   3.123 -0.1646  0.1905 -0.1375
 3088W        W 6607   4.379   8.657  11.226  0.3223  0.0618 -0.0726
 3089W        W 6608   5.954   8.234  11.900 -0.2757 -0.0578  0.1580
 3090W        W 6609   5.399   5.783   2.711  0.2071  0.0617  0.0785
 3091W        W 6610   8.896   9.534   1.261 -0.0664 -0.0663 -0.1661
 3092W        W 6611   7.021   0.006   4.388 -0.0396  0.1039 -0.0134
 3093W        W 6612   1.963   1.036   0.409 -0.2029 -0.0237 -0.0268
 3094W        W 6613   6.364   2.994   1.445  0.3202  0.1709 -0.3044
 3095W        W 6614   4.961   9.598   2.291  0.1919  0.0365  0.2075
 3096W        W 6615   6.361   1.392   0.041 -0.2133 -0.1349  0.1919
 3097W        W 6616   2.176   9.122   8.278  0.0919 -0.2406 -0.2279
 3098W        W 6617   4.184   4.761  12.021 -0.3874  0.2126  0.1433
 3099W        W 6618   0.207   7.854  11.353 -0.0566 -0.0107 -0.2309
 3100W        W 6619   9.135   2.877   3.675 -0.0364  0.0952  0.2596
 3101W        W 6620   7.191   6.872  10.235 -0.1781 -0.4340  0.3970
 3102W        W 6621   2.348   6.214   2.547  0.0198 -0.0545 -0.1110
 3103W        W 6622   3.218   4.463   0.436 -0.2375  0.4333  0.3854
 3104W        W 6623   3.778   8.898   3.152 -0.0189  0.0757 -0.2738
 3105W        W 6624   8.476   4.402   2.115 -0.0243 -0.1045  0.1232
 3106W        W 6625   5.484   8.970   9.312 -0.0361  0.4077  0.1897
 3107W        W 6626   9.427   4.094   9.213  0.0213 -0.1287 -0.0205
 3108W        W 6627   4.465   4.557   3.624 -0.1015  0.2358  0.0786
 3109W        W 6628   1.323   2.477   3.293 -0.0271  0.0884 -0.0514
 3110W        W 6629   8.504   4.339   9.246  0.0904 -0.1501 -0.1007
 3111W        W 6630   3.304   3.365   1.734  0.2782  0.1076 -0.0755
 3112W        W 6631   0.519   5.203   8.425  0.0989  0.2685 -0.0725
 3113W        W 6632   1.229   4.316   0.301  0.0904 -0.1469 -0.2070
 3114W        W 6633   2.165   0.547  10.602  0.1309 -0.0186 -0.0458
 3115W        W 6634   9.184   1.991  10.038 -0.2876 -0.1503 -0.2111
 3116W        W 6635   8.381   3.808   1.983 -0.0585  0.2270 -0.1102
 3117W        W 6636   5.080   5.058  11.695 -0.3007  0.1215  0.0317
 3118W        W 6637   1.124   2.875   9.333  0.2761 -0.1740 -0.0704
 3119W        W 6638   3.616   0.569   9.756 -0.0749 -0.0199  0.2103
 3120W        W 6639   4.663   6.526  10.582  0.3555  0.0916 -0.1662
 3121W        W 6640   5.093   7.974  11.683 -0.2796 -0.3857 -0.2343
 3122W        W 6641   6.499   6.926   7.794  0.1148  0.2976 -0.0395
 3123W        W 6642   2.242   4.056   3.231 -0.3270 -0.0342 -0.0255
 3124W        W 6643   5.755   5.782  11.332 -0.0326  0.1301  0.1319
 3125W        W 6644   0.740   5.442   7.722 -0.1690 -0.2246  0.1641
 3126W        W 6645   5.130   9.531   9.354 -0.0738  0.0593  0.3092
 3127W        W 6646   2.048   8.815   2.364 -0.1585  0.2419 -0.0880
 3128W        W 6647   2.754   3.314   0.821  0.1501  0.0707  0.1836
 3129W        W 6648   4.446   7.437  11.186 -0.2005 -0.3454  0.1011
 3130W        W 6649   4.234   8.364  12.134 -0.1292 -0.3045  0.0634
 3131W        W 6650   0.801   3.236  10.295 -0.1366  0.2256 -0.3310
 3132W        W 6651   9.507   7.014   2.356 -0.1034 -0.0559 -0.0034
 3133W        W 6652   1.641   8.616   3.949 -0.6429  0.1095  0.0287
 3134W        W 6653   9.575   7.001   3.299  0.0783 -0.2761  0.1762
 3135W        W 6654   7.226   8.995   2.418 -0.0205 -0.0290  0.2120
 3136W        W 6655   9.598   7.880   0.522  0.4521 -0.2135 -0.3120
 3137W        W 6656   6.892   8.024  10.334  0.2042 -0.1161  0.0158
 3138W        W 6657   8.929   6.045   1.896 -0.0482 -0.0300  0.1959
 3139W        W 6658   0.876   2.205   1.524 -0.2122  0.0336  0.0394
 3140W        W 6659   5.050   1.260  10.470 -0.1402 -0.0969 -0.1013
 3141W        W 6660   9.672   7.338  12.186  0.0439 -0.2981 -0.0202
 3142W        W 6661   8.079   3.041  11.088  0.0857 -0.2071 -0.1552
 3143W        W 6662   7.907   1.572   9.612  0.1247  0.0570 -0.0207
 3144W        W 6663   9.729   8.627   1.151  0.1229  0.2855  0.1849
 3145W        W 6664   8.443   1.408  11.431 -0.3395  0.0471  0.1023
 3146W        W 6665   3.056   5.872  10.825  0.3609  0.0590 -0.0052
 3147W        W 6666   8.183   5.128  11.715  0.0940 -0.2153 -0.1574
 3148W        W 6667   9.040   3.149   2.359 -0.2347  0.0935 -0.1561
 3149W        W 6668   8.408   1.739   4.299  0.1437  0.0877 -0.0326
 3150W        W 6669   2.341   8.261   1.297 -0.0003 -0.3407 -0.1627
 3151W        W 6670   7.548   4.735   9.927 -0.1115 -0.1521 -0.2297
 3152W        W 6671   9.022   3.262  11.983  0.0219  0.0022 -0.2473
 3153W        W 6672   6.204   2.115   1.751 -0.0070  0.0852  0.0784
 3154W        W 6673   1.072   9.103   3.207 -0.1540 -0.6268 -0.3269
 3155W        W 6674   6.083   3.105   1.060  0.0322  0.2948  0.2458
 3156W        W 6675   8.866   1.263   2.060 -0.0814  0.1174 -0.1103
 3157W        W 6676   9.693   8.721   3.282  0.2049  0.1645  0.0438
 3158W        W 6677   4.042   7.375   9.601 -0.1380  0.3001  0.0760
 3159W        W 6678   5.285   5.606  10.754  0.0071  0.1318  0.1985
 3160W        W 6679   0.012   3.061   2.988 -0.3177 -0.0424  0.0768
 3161W        W 6680   0.225   7.284  10.719  0.2576 -0.2779  0.1690
 3162W        W 6681   3.545   1.054  11.690  0.1958 -0.2131  0.1058
 3163W        W 6682   7.119   0.907   2.033  0.1614  0.1040  0.1950
 3164W        W 6683   1.853   0.333  10.102 -0.2399 -0.1282 -0.3477
 3165W        W 6684   0.630   8.747  12.297 -0.1277  0.3065 -0.1434
 3166W        W 6685   5.298   3.853   0.778  0.0905  0.2240 -0.0374
 3167W        W 6686   0.051   0.562   4.073 -0.1412 -0.2455 -0.1757
 3168W        W 6687   2.727   1.393  10.729  0.1951  0.1570  0.3092
 3169W        W 6688   5.573   2.475   2.370 -0.1420 -0.1636  0.0731
 3170W        W 6689   8.029   8.386   2.571 -0.0654 -0.3166 -0.2279
 3171W        W 6690   6.704   9.118   9.743  0.2007 -0.0170 -0.2420
 3172W        W 6691   0.303   8.878   0.374 -0.0917  0.0650 -0.4090
 3173W        W 6692   9.694   3.959   8.774 -0.1912 -0.1042  0.2852
 3174W        W 6693   0.317   8.623   2.308  0.1153 -0.1601  0.1700
 3175W        W 6694   2.170   9.496  10.228 -0.1501  0.1645  0.1721
 3176W        W 6695   3.229   0.179   3.610 -0.0472 -0.1041 -0.1942
 3177W        W 6696   5.234   2.365   0.583  0.3420 -0.1513 -0.2839
 3178W        W 6697   7.934   9.311   2.853 -0.3096  0.1945 -0.1057
 3179W        W 6698   2.988   6.234  11.338  0.2863  0.1962 -0.0190
 3180W        W 6699   7.708   6.297   9.542 -0.1226 -0.0317  0.0692
 3181W        W 6700   6.443   4.552   0.954 -0.0795 -0.2786 -0.1533
 3182W        W 6701   2.828   6.140   9.137  0.0449 -0.1045 -0.2055
 3183W        W 6702   5.997   3.622   9.326  0.0838 -0.0501  0.1369
 3184W        W 6703   8.563   5.943   2.231  0.1195 -0.1129  0.0056
 3185W        W 6704   7.029   4.805   8.864  0.3335  0.0333  0.0074
 3186W        W 6705   1.575   3.770   3.125 -0.2216  0.0329  0.0577
 3187W        W 6706   6.093   0.179   2.568  0.2474 -0.2239  0.4142
 3188W        W 6707   5.954   2.589   3.180 -0.0780  0.1417 -0.2945
 3189W        W 6708   6.107   4.834   0.662 -0.0441 -0.0983  0.0009
 3190W        W 6709   0.283   6.532  11.376  0.0043 -0.0526 -0.0202
 3191W        W 6710   1.545   3.667   9.135  0.1954  0.0827 -0.2034
 3192W        W 6711   6.529   8.966   2.665 -0.0215  0.3067 -0.2223
 3193W        W 6712   2.079   0.312   0.487 -0.0002  0.0140  0.2264
 3194W        W 6713   6.362   7.963   0.297  0.2042  0.2912  0.3810
 3195W        W 6714   5.716   3.745   2.771  0.0134  0.1171  0.0071
 3196W        W 6715   2.320   4.424   3.577  0.1009 -0.0448  0.0562
 3197W        W 6716   3.659   8.712   0.238 -0.0896 -0.0061  0.2362
 3198W        W 6717   1.920   6.394   2.820  0.0229  0.1138 -0.1975
 3199W        W 6718   0.115   6.598   1.293  0.1193 -0.0291 -0.2947
 3200W        W 6719   2.759   9.356   9.638 -0.0870 -0.0679 -0.2224
 3201W        W 6720   8.750   7.370  10.388 -0.0332  0.2093 -0.0212
 3202W        W 6721   1.382   4.490   9.142 -0.0735  0.0736  0.2099
 3203W        W 6722   6.349   6.698   9.115  0.1180 -0.0897 -0.1005
 3204W        W 6723   4.835   9.092   0.007 -0.2283  0.0950 -0.0133
 3205W        W 6724   4.851   3.443   9.528  0.0757  0.0194  0.0621
 3206W        W 6725   6.880   2.782   3.371  0.1613 -0.0919 -0.1008
 3207W        W 6726   0.236   4.121   4.170  0.0279  0.2095  0.1580
 3208W        W 6727   3.721   4.037  11.561  0.1234 -0.1628  0.2681
 3209W        W 6728   5.630   7.228   3.813  0.0236  0.0525  0.0965
 3210W        W 6729   3.919   0.452   8.539 -0.1856  0.0983 -0.0663
 3211W        W 6730   3.934   3.355  12.151  0.0943  0.3773 -0.0118
 3212W        W 6731   0.730   4.253   1.126  0.0114 -0.1447  0.0211
 3213W        W 6732   9.154   9.621  11.318 -0.4613 -0.1389  0.0570
 3214W        W 6733   8.334   5.517   3.570 -0.2748  0.2135 -0.0110
 3215W        W 6734   8.804   5.302   3.165 -0.3413 -0.2458 -0.4763
 3216W        W 6735   1.237   7.788   9.814 -0.0568 -0.0585  0.1695
 3217W        W 6736   1.252   6.369  11.847 -0.2537  0.0554 -0.0082
 3218W        W 6737   8.341   4.169  11.553 -0.1161 -0.2394  0.0746
 3219W        W 6738   2.952   2.952  11.438  0.1166 -0.1252  0.0632
 3220W        W 6739   2.551   4.268  12.312 -0.0159  0.0531  0.1325
 3221W        W 6740   6.162   1.940   2.197  0.1370  0.0480 -0.2243
 3222W        W 6741   1.103   0.657   3.501 -0.1187  0.1330  0.0884
 3223W        W 6742   0.758   4.074   8.143  0.0159  0.1250 -0.1458
 3224W        W 6743   8.081   7.903   1.856 -0.1564 -0.1965  0.2655
 3225W        W 6744   7.854   0.240   1.798  0.1671 -0.0543  0.0907
 3226W        W 6745   8.191   7.302  10.336  0.3957  0.1729 -0.0037
 3227W        W 6746   4.441   0.175   3.194  0.0170 -0.1525  0.0512
 3228W        W 6747   9.263   8.651  10.512 -0.0635 -0.2955  0.3787
 3229W        W 6748   8.224   8.962   3.183 -0.1584  0.0504 -0.3007
 3230W        W 6749   9.620   9.555   8.391 -0.0674 -0.0332  0.0976
 3231W        W 6750   0.752   1.019   0.623 -0.0940 -0.1320  0.0732
 3232W        W 6751   1.303   4.412   1.866  0.0901  0.0333  0.1967
 3233W        W 6752   2.462   6.933   3.568 -0.0853  0.0015  0.1742
 3234W        W 6753   3.304   4.323   3.857 -0.1118 -0.2771 -0.3989
 3235W        W 6754   4.713   1.970   9.821 -0.4885  0.0255 -0.2597
 3236W        W 6755   9.174   1.588   9.757  0.1918  0.0194  0.3080
 3237W        W 6756   5.553   4.915   1.523 -0.2046 -0.0177 -0.1136
 3238W        W 6757   2.994   4.722   3.163 -0.5314 -0.0597 -0.2264
 3239W        W 6758   8.398   6.104   1.266  0.1533 -0.0907 -0.0837
 3240W        W 6759   7.091   2.310   8.467  0.3050 -0.2256  0.0579
 3241W        W 6760   7.043   0.210   3.821 -0.0436  0.1219  0.0735
 3242W        W 6761   1.223   2.430   7.818 -0.3843 -0.0100 -0.0228
 3243W        W 6762   9.647   5.454   9.094  0.3480  0.0576 -0.0672
 3244W        W 6763   0.649   3.072  11.738 -0.1295 -0.0741  0.0387
 3245W        W 6764   6.991   6.518   8.327 -0.2648  0.1354  0.0369
 3246W        W 6765   0.486   4.923  10.432 -0.0551  0.3732 -0.3362
 3247W        W 6766   1.667   6.716  11.037  0.1079  0.1686  0.1676
 3248W        W 6767   5.490   9.403   1.492  0.0466  0.1809  0.4244
 3249W        W 6768   5.039   5.699   3.441 -0.0157 -0.2290  0.4291
 3250W        W 6769   5.648   8.474   2.527 -0.2106 -0.1865  0.4887
 3251W        W 6770   2.754   6.715   2.535 -0.3677  0.0471  0.0752
 3252W        W 6771   6.301   7.792   0.784 -0.0982  0.0345  0.1751
 3253W        W 6772   7.829   3.704   9.501  0.1167 -0.1724  0.1239
 3254W        W 6773   0.107   3.603  11.358 -0.1526 -0.1304 -0.0270
 3255W        W 6774   3.558   4.767  10.159  0.1116 -0.0723 -0.1628
 3256W        W 6775   6.673   9.541   1.192  0.0641  0.0988  0.0894
 3257W        W 6776   4.038   5.358   4.683 -0.0295  0.2739 -0.0500
 3258W        W 6777   4.232   3.245   2.490 -0.2207  0.0497 -0.0790
 3259W        W 6778   7.034   4.203   3.523 -0.2201  0.0730 -0.0940
 3260W        W 6779   2.673   7.743  10.095 -0.1280 -0.3345 -0.0458
 3261W        W 6780   4.510   6.770   1.290  0.0259  0.1216  0.1425
 3262W        W 6781   0.237   6.344   0.431 -0.3190  0.1475 -0.0091
 3263W        W 6782   7.606   0.831   1.898  0.1759 -0.0965 -0.0478
 3264W        W 6783   3.240   9.489   0.104 -0.2451  0.2842  0.0934
 3265W        W 6784   7.537   2.035  11.887 -0.0249 -0.1565  0.0335
 3266W        W 6785   2.826   2.649  10.677  0.0171 -0.0006 -0.0731
 3267W        W 6786   7.938   0.670  11.622 -0.2105 -0.1731  0.2444
 3268W        W 6787   1.596   0.703   2.982  0.1988 -0.1712 -0.2064
 3269W        W 6788   6.969   6.396   0.295 -0.3126 -0.0128 -0.1977
 3270W        W 6789   6.698   3.751   0.654 -0.1632 -0.4713  0.1446
 3271W        W 6790   8.995   7.643   7.903  0.3030  0.3676  0.0159
 3272W        W 6791   5.047   4.515  11.532  0.1164 -0.2137  0.3060
 3273W        W 6792   3.787   1.246  10.219 -0.1248 -0.0067  0.2467
 3274W        W 6793   5.509   7.534   1.297 -0.1173 -0.0844 -0.2018
 3275W        W 6794   1.705   9.307   4.040  0.0785 -0.2964  0.0030
 3276W        W 6795   2.361   3.045   3.227 -0.0028 -0.1700  0.2313
 3277W        W 6796   9.316   8.092  10.990  0.3842  0.3448 -0.1654
 3278W        W 6797   2.395   4.584   9.162 -0.0046 -0.1275 -0.2503
 3279W        W 6798   3.349   1.865   2.587  0.0860 -0.1205  0.0764
 3280W        W 6799   7.723   1.841   0.005 -0.1231  0.1191  0.2570
 3281W        W 6800   1.872   2.074   1.667  0.1078 -0.2417 -0.0117
 3282W        W 6801   1.863   9.372   9.285  0.1679 -0.0839 -0.1100
 3283W        W 6802   3.692   7.366   9.180 -0.1245 -0.2116 -0.1192
 3284W        W 6803   3.418   0.431   1.327 -0.6021 -0.3419  0.0445
 3285W        W 6804   6.276   2.313   1.308  0.3023 -0.0955  0.1584
 3286W        W 6805   6.960   2.633   9.467 -0.1004 -0.3094 -0.0247
 3287W        W 6806   7.910   4.129   9.754 -0.1025 -0.0067  0.3670
 3288W        W 6807   7.080   7.389   2.837  0.2043  0.1897  0.0268
 3289W        W 6808   5.622   6.034   8.907  0.0347  0.3336 -0.0722
 3290W        W 6809   8.914   5.210   9.931 -0.1919  0.0265 -0.0322
 3291W        W 6810   7.873   5.382   1.070 -0.0136 -0.3085  0.0016
 3292W        W 6811   1.008   5.528   0.059  0.2293  0.2586 -0.0713
 3293W        W 6812   0.710   6.804  10.661 -0.0876  0.1649 -0.2554
 3294W        W 6813   3.734   2.810  12.085 -0.0393 -0.1375  0.1381
 3295W        W 6814   2.063   4.829   8.590 -0.0227  0.0669  0.2359
 3296W        W 6815   7.035   7.745   9.190 -0.1861  0.0053 -0.2139
 3297W        W 6816   7.659   5.132  11.742  0.0528 -0.3344  0.0163
 3298W        W 6817   6.435   0.954   2.356  0.2264 -0.0135 -0.1066
 3299W        W 6818   4.986   7.717  10.343 -0.0586 -0.1939 -0.3574
 3300W        W 6819   5.954   0.400  10.079  0.2038 -0.0409 -0.0963
 3301W        W 6820   0.106   0.811   1.524  0.1037  0.0772 -0.2196
 3302W        W 6821   2.910   9.149  10.113  0.1737  0.0907 -0.1314
 3303W        W 6822   9.247   3.101   0.941 -0.0868  0.0428 -0.0483
 3304W        W 6823   5.433   6.805   1.807 -0.0154  0.1938  0.0060
 3305W        W 6824   7.775   0.762   2.330 -0.1183 -0.0356 -0.0915
 3306W        W 6825   7.281   9.037  11.498 -0.0415 -0.0005  0.2113
 3307W        W 6826   8.140   7.321  11.591  0.0200 -0.1407  0.2108
 3308W        W 6827   6.150   5.880   8.879 -0.0777 -0.2710  0.0727
 3309W        W 6828   2.959   3.466  12.150  0.0442  0.1961 -0.0009
 3310W        W 6829   6.789   6.945   1.477  0.0027 -0.1484 -0.1015
 3311W        W 6830   0.377   9.503   9.146  0.2179  0.1503 -0.0391
 3312W        W 6831   1.937   0.471   3.946 -0.0083 -0.4154 -0.2238
 3313W        W 6832   7.915   5.135   0.543 -0.3887  0.2011  0.2087
 3314W        W 6833   0.941   8.709   9.622  0.2696  0.1716  0.1183
 3315W        W 6834   0.336   4.127   1.467  0.0236 -0.0825 -0.3359
 3316W        W 6835   1.341   6.587  10.726 -0.1148 -0.1836 -0.0822
 3317W        W 6836   8.466   0.008  10.573  0.0725  0.3024  0.0831
 3318W        W 6837   0.083   7.479   0.287 -0.3236  0.1638  0.1408
 3319W        W 6838   6.434   7.087   8.807  0.3113  0.2497 -0.1771
 3320W        W 6839   4.616   1.516   9.667  0.0798 -0.0683 -0.0711
 3321W        W 6840   7.643   2.723   9.211 -0.1201  0.0014  0.2950
 3322W        W 6841   5.966   9.757   9.186  0.1776 -0.2904 -0.0850
 3323W        W 6842   3.048   9.093  11.039 -0.0806  0.3554 -0.2812
 3324W        W 6843   0.849   4.163   9.316 -0.0736  0.1031  0.0269
 3325W        W 6844   2.045   7.825   1.202  0.2266  0.0159  0.0291
 3326W        W 6845   8.487   0.445   3.137 -0.3242  0.0680 -0.1617
 3327W        W 6846   2.633   1.909   9.361  0.0457  0.3886  0.4765
 3328W        W 6847   6.359   8.193   3.206 -0.4519  0.1548  0.0231
 3329W        W 6848   2.040   1.665   2.485  0.3630 -0.0578 -0.0303
 3330W        W 6849   0.896   8.954   3.927  0.1200  0.0009  0.1118
 3331W        W 6850   8.617   1.300   4.185 -0.0036 -0.0181  0.0270
 3332W        W 6851   9.054   1.221  10.069 -0.2024  0.2508 -0.1258
 3333W        W 6852   6.758   7.423   1.404 -0.0085  0.1435 -0.2081
 3334W        W 6853   0.862   6.193   9.512 -0.1568 -0.1022  0.0832
 3335W        W 6854   0.049   2.151   8.763  0.0050 -0.0730 -0.0816
 3336W        W 6855   2.186   4.640  10.229 -0.1185  0.2225  0.2047
 3337W        W 6856   8.481   8.004   1.544 -0.0823  0.0390 -0.0384
 3338W        W 6857   2.677   0.371  11.223 -0.0558  0.0963  0.3100
 3339W        W 6858   8.499   3.248  11.824 -0.2068 -0.1853 -0.0215
 3340W        W 6859   3.356   1.737   2.120  0.3762  0.2823  0.2479
 3341W        W 6860   5.913   6.882  12.260 -0.1953  0.0097  0.1185
 3342W        W 6861   6.310   2.176   0.284  0.0658  0.0104 -0.0813
 3343W        W 6862   5.174   8.180  10.961  0.0293  0.5848 -0.2164
 3344W        W 6863   3.620   0.359  11.163  0.0688 -0.1930  0.0955
 3345W        W 6864   0.230   0.272  12.277  0.1835 -0.1997 -0.0607
 3346W        W 6865   2.269   3.580   0.859  0.2141  0.2275 -0.2432
 3347W        W 6866   6.617   1.136   1.021  0.2656 -0.0885  0.1279
 3348W        W 6867   9.281   4.912   3.767 -0.0575 -0.1724  0.0386
 3349W        W 6868   0.567   5.910   2.784  0.2065  0.1858 -0.2619
 3350W        W 6869   8.248   1.559  10.030  0.1376  0.1617 -0.0853
 3351W        W 6870   7.543   6.566   2.639  0.1612 -0.2986  0.0282
 3352W        W 6871   1.296   7.900   1.935  0.0892 -0.2263 -0.0433
 3353W        W 6872   5.317   8.182   0.781 -0.0069 -0.2586  0.1355
 3354W        W 6873   9.495   5.926   2.508 -0.1071 -0.1984  0.3214
 3355W        W 6874   6.917   4.577   1.243 -0.1562  0.1364  0.0934
 3356W        W 6875   6.148   8.487  10.461 -0.1602  0.2237  0.1839
 3357W        W 6876   6.252   6.033   2.083  0.0115 -0.0652 -0.2520
 3358W        W 6877   8.068   0.733  10.261  0.1418 -0.0374  0.0576
 3359W        W 6878   5.448   5.031  10.397  0.1726 -0.2328  0.0887
 3360W        W 6879   1.147   0.978   8.780  0.2795 -0.1609 -0.0910
 3361W        W 6880   8.766   8.794  10.456  0.0289 -0.2133 -0.1853
 3362W        W 6881   8.653   1.439   9.706 -0.2448 -0.0999  0.0415
 3363W        W 6882   5.397   9.498   2.418 -0.2948  0.1313  0.0725
 3364W        W 6883   8.449   8.616  10.036 -0.0962  0.2794  0.0043
 3365W        W 6884   3.853   9.103  10.384  0.1798  0.1425 -0.0484
 3366W        W 6885   4.209   4.170   9.493  0.2278 -0.1088 -0.0509
 3367W        W 6886   2.329   1.935   0.409  0.1800  0.0692  0.0069
 3368W        W 6887   1.340   0.901   9.688 -0.1261 -0.0286  0.2253
 3369W        W 6888   1.937   8.683   2.862  0.1412  0.1910  0.1271
 3370W        W 6889   1.245   9.346  11.052 -0.0587 -0.0660 -0.1477
 3371W        W 6890   0.522   7.812  10.064 -0.2467  0.0664  0.2838
 3372W        W 6891   2.651   5.064   3.005  0.0304  0.0295 -0.1362
 3373W        W 6892   7.325   4.462  12.309  0.0902 -0.0561 -0.3691
 3374W        W 6893   5.077   3.320  10.457 -0.0325  0.1028 -0.4472
 3375W        W 6894   0.453   3.397   1.619  0.4570 -0.0290  0.0796
 3376W        W 6895   1.699   3.484  11.992 -0.2700  0.0067 -0.1949
 3377W        W 6896   0.899   2.932  12.277 -0.0656  0.1251 -0.1232
 3378W        W 6897   0.356   1.397   1.033  0.1500 -0.1944 -0.0350
 3379W        W 6898   0.997   6.171   8.068 -0.1199 -0.2252  0.0085
 3380W        W 6899   8.466   2.625   0.503  0.1403 -0.2215 -0.2065
 3381W        W 6900   0.707   7.221   8.551 -0.1022 -0.0242 -0.0161
 3382W        W 6901   6.580   5.611  11.918 -0.3560 -0.1693 -0.0153
 3383W        W 6902   6.414   3.682   3.482 -0.1564 -0.1111  0.3187
 3384W        W 6903   5.331   0.487   2.993 -0.1190  0.3276 -0.2133
 3385W        W 6904   0.916   3.845   3.660  0.0891 -0.2501 -0.0449
 3386W        W 6905   1.186   1.139  10.139 -0.0248  0.1390 -0.1341
 3387W        W 6906   3.526   5.392  10.043  0.1369  0.3815 -0.2871
 3388W        W 6907   8.522   9.024   9.672 -0.5047  0.0717 -0.4643
 3389W        W 6908   3.824   5.683   9.706  0.0194 -0.1539 -0.0675
 3390W        W 6909   0.633   0.875  11.479 -0.1190 -0.2274 -0.1323
 3391W        W 6910   5.332   1.482   0.860  0.4126 -0.0004 -0.3197
 3392W        W 6911   7.997   6.788   0.204 -0.1982  0.0929  0.0737
 3393W        W 6912   0.532   6.052   1.743  0.0859  0.0362  0.0410
 3394W        W 6913   4.290   5.545   9.763  0.3829 -0.0727  0.1263
 3395W        W 6914   8.567   7.535   9.933 -0.0291  0.0079  0.0582
 3396W        W 6915   2.656   1.960   0.920 -0.1640 -0.0403  0.1161
 3397W        W 6916   9.567   0.204   2.089 -0.0418  0.0113  0.0671
 3398W        W 6917   0.029   2.966   9.829 -0.0749 -0.1283  0.6123
 3399W        W 6918   0.470   6.450   9.223  0.1334  0.0547 -0.1710
 3400W        W 6919   9.659   7.730   8.398  0.0104 -0.2017 -0.1981
 3401W        W 6920   6.776   2.411   1.409  0.3521  0.0185  0.1274
 3402W        W 6921   1.830   1.998   3.952 -0.0534  0.0367  0.0354
 3403W        W 6922   7.860   5.387   2.680  0.0399 -0.0397 -0.0566
 3404W        W 6923   1.871   2.490   2.567 -0.1690 -0.0881 -0.1825
 3405W        W 6924   4.417   8.332  10.529  0.0423  0.0997  0.0775
 3406W        W 6925   1.662   3.223  10.587 -0.1633 -0.2045  0.0034
 3407W        W 6926   0.078   9.118   2.068 -0.3677  0.0898  0.0884
 3408W        W 6927   2.193   2.641   3.480 -0.0394 -0.1209  0.0781
 3409W        W 6928   3.172   1.278  10.617 -0.3585  0.2169  0.1519
 3410W        W 6929   7.232   1.181   0.512 -0.0513  0.1103 -0.0685
 3411W        W 6930   8.910   5.320  11.396 -0.6424 -0.4309  0.4112
 3412W        W 6931   7.018   9.124  10.880  0.0808 -0.0401  0.1206
 3413W        W 6932   1.513   9.101   9.626 -0.0978  0.2993  0.3489
 3414W        W 6933   0.946   1.101   3.032  0.0698  0.1736  0.2995
 3415W        W 6934   7.246   6.252   8.743  0.1177 -0.3251 -0.1240
 3416W        W 6935   2.651   7.220   1.571  0.2554 -0.0218 -0.0919
 3417W        W 6936   0.632   0.860   3.394 -0.1052  0.5738 -0.0704
 3418W        W 6937   8.050   1.170   9.093  0.2102  0.2497 -0.1239
 3419W        W 6938   3.103   1.463   1.779  0.1277  0.3637  0.0590
 3420W        W 6939   2.085   6.374   8.552  0.1385  0.2139 -0.3307
 3421W        W 6940   0.451   1.402   9.155 -0.0003 -0.0312 -0.3566
 3422W        W 6941   5.257   7.522   2.450 -0.3393  0.3311  0.1495
 3423W        W 6942   8.673   8.959   0.361  0.2688 -0.0812  0.1873
 3424W        W 6943   7.929   9.429   0.963  0.0292 -0.1051 -0.1706
 3425W        W 6944   1.190   5.137   1.129 -0.1099 -0.0451 -0.0868
 3426W        W 6945   7.122   9.403   8.790  0.0071 -0.2223  0.2393
 3427W        W 6946   5.615   2.487   3.635 -0.3279 -0.2511 -0.1314
 3428W        W 6947   9.549   6.535   1.851  0.2125  0.2015  0.1445
 3429W        W 6948   1.082   0.439  10.732  0.3270  0.0863  0.0430
 3430W        W 6949   3.099   5.066  10.768 -0.1185 -0.0099  0.3109
 3431W        W 6950   3.122   3.958   0.431  0.3174 -0.3399  0.2091
 3432W        W 6951   7.722   5.672  10.500 -0.3913 -0.0498 -0.0906
 3433W        W 6952   5.764   3.191   9.953 -0.2171 -0.0894 -0.1083
 3434W        W 6953   6.517   5.295  10.635  0.1723  0.1685  0.2243
 3435W        W 6954   6.179   2.207  10.877  0.1796 -0.4241  0.0860
 3436W        W 6955   3.137   8.209   8.537  0.2493 -0.1323 -0.0768
 3437W        W 6956   7.367   1.357   9.671  0.0840 -0.4090  0.0282
 3438W        W 6957   4.685   1.091  10.046  0.0519 -0.0869  0.1608
 3439W        W 6958   7.450   2.524  11.378 -0.2801  0.1019  0.1507
 3440W        W 6959   5.689   6.363  12.290 -0.2322  0.0585  0.1746
 3441W        W 6960   8.744   6.049  12.074  0.3576  0.0579  0.2572
 3442W        W 6961   5.747   8.703   2.915 -0.2674 -0.1897  0.1408
 3443W        W 6962   3.321   2.876   0.487 -0.1733 -0.1945 -0.2437
 3444W        W 6963   3.679   2.347   2.795 -0.0386  0.0930  0.0798
 3445W        W 6964   6.922   8.632   2.819 -0.1190 -0.2575 -0.0502
 3446W        W 6965   3.068   5.069  11.446 -0.1082  0.2329  0.1382
 3447W        W 6966   2.636   2.400   0.586 -0.1167 -0.0267  0.1016
 3448W        W 6967   8.006   5.534  10.051  0.0170 -0.3161 -0.0428
 3449W        W 6968   2.173   6.014  11.926  0.1355 -0.2887 -0.2951
 3450W        W 6969   3.358   8.153   8.032 -0.1079  0.1022 -0.1340
 3451W        W 6970   7.699   2.606   2.288 -0.0223 -0.2513 -0.3449
 3452W        W 6971   1.851   7.943   0.747  0.0338 -0.1655  0.1166
 3453W        W 6972   6.983   6.906   4.191  0.2674  0.1219 -0.1336
 3454W        W 6973   7.147   2.325   9.828 -0.0750 -0.4760  0.0230
 3455W        W 6974   3.935   3.203   3.165  0.1638  0.1192 -0.5173
 3456W        W 6975   1.262   3.534   7.665  0.2477  0.1149  0.0372
 3457W        W 6976   7.920   3.816   8.824 -0.3397 -0.0720  0.2365
 3458W        W 6977   3.064   9.178   3.498  0.1310 -0.0021 -0.0263
 3459W        W 6978   3.211   5.198   3.245  0.2349  0.2497  0.0125
 3460W        W 6979   4.704   6.623   3.134 -0.1396 -0.0823 -0.0422
 3461W        W 6980   5.807   4.135   1.875  0.0319  0.1406 -0.0691
 3462W        W 6981   5.065   1.091  11.506  0.1143 -0.1518 -0.2174
 3463W        W 6982   0.171   9.397   0.949 -0.1088 -0.0470 -0.0638
 3464W        W 6983   4.354   6.429   3.422  0.0743 -0.0722  0.0349
 3465W        W 6984   7.351   0.723   9.356 -0.2655  0.1872 -0.1528
 3466W        W 6985   6.850   0.111  12.129 -0.1260 -0.1163  0.1239
 3467W        W 6986   3.258   3.423   0.452  0.4270 -0.1156  0.1307
 3468W        W 6987   2.624   2.887   2.055  0.1273  0.0481  0.0049
 3469W        W 6988   7.991   2.722   0.517 -0.0530 -0.2441  0.4158
 3470W        W 6989   1.582   0.493  10.549 -0.0047  0.0010 -0.0214
 3471W        W 6990   1.914   3.930   3.580 -0.1756 -0.0758  0.2346
 3472W        W 6991   9.421   6.059   9.761 -0.3612 -0.0727 -0.2118
 3473W        W 6992   8.657   0.460  10.617 -0.2164  0.0601 -0.0205
 3474W        W 6993   7.118   0.682  10.623 -0.0386 -0.2992  0.2133
 3475W        W 6994   7.308   8.459   0.169 -0.2979  0.3327 -0.1253
 3476W        W 6995   1.202   1.979   2.424  0.0990 -0.1602 -0.0452
 3477W        W 6996   4.184   4.184   2.342 -0.2370  0.2566 -0.4952
 3478W        W 6997   5.321   4.178  10.820  0.1400  0.1741 -0.3693
 3479W        W 6998   3.824   2.292  12.169  0.0522 -0.1679  0.0173
 3480W        W 6999   9.252   6.705  11.190 -0.1609  0.3905 -0.3066
 3481W        W 7000   4.007   0.815   9.903  0.0208  0.2796 -0.1431
 3482W        W 7001   2.200   5.568   0.165  0.1715 -0.0863 -0.0365
 3483W        W 7002   4.544   4.533   9.335  0.0049 -0.1654 -0.0497
 3484W        W 7003   2.253   8.429   1.954 -0.2315 -0.1924  0.2637
 3485W        W 7004   4.232   2.497  12.079 -0.2320 -0.3432  0.0602
 3486W        W 7005   6.588   9.267   3.632 -0.3075 -0.0496 -0.2295
 3487W        W 7006   9.164   3.619   9.418 -0.2951  0.1131  0.2136
 3488W        W 7007   7.600   1.631  11.104 -0.1511 -0.3485 -0.1585
 3489W        W 7008   0.887   1.578   3.099 -0.0216 -0.0693  0.3969
 3490W        W 7009   4.953   8.154   8.512  0.0225 -0.0282  0.0148
 3491W        W 7010   9.682   9.452   3.921  0.1974  0.3289 -0.0420
 3492W        W 7011   8.938   2.755  11.247 -0.0673  0.1413 -0.1094
 3493W        W 7012   0.944   2.858   2.001 -0.0498  0.0878 -0.0350
 3494W        W 7013   1.284   0.315   1.233 -0.0207 -0.1781  0.0403
 3495W        W 7014   0.852   6.031   3.841 -0.2949 -0.5104  0.2563
 3496W        W 7015   1.590   1.596   9.984  0.1024  0.0940 -0.0038
 3497W        W 7016   2.627   1.203   9.577 -0.1323  0.1092  0.2598
 3498W        W 7017   3.042   7.635   1.390  0.0245  0.0045  0.0970
 3499W        W 7018   1.851   7.068  10.267 -0.1956 -0.0912  0.1711
 3500W        W 7019   6.444   1.699   3.733  0.1688 -0.3286  0.1164
 3501W        W 7020   9.035   8.114  12.321  0.1624  0.0799  0.3573
 3502W        W 7021   6.514   6.627  10.615 -0.0545  0.2012  0.1641
 3503W        W 7022   9.063   9.355   3.085 -0.1515  0.1772  0.4402
 3504W        W 7023   9.297   3.995   3.566 -0.0906 -0.1827  0.0961
 3505W        W 7024   8.363   7.206   2.628 -0.1385 -0.2616 -0.1037
 3506W        W 7025   6.349   5.346   9.735 -0.0544  0.3047 -0.1758
 3507W        W 7026   4.511   3.322   9.918 -0.0239  0.0904 -0.2693
 3508W        W 7027   5.166   3.972   9.284  0.3151 -0.1798  0.0597
 3509W        W 7028   8.292   3.157  10.011  0.1449 -0.1179 -0.0613
 3510W        W 7029   7.488   2.889   0.613  0.5433  0.0635  0.3315
 3511W        W 7030   7.968   1.439   0.889  0.2247 -0.1053  0.2154
 3512W        W 7031   6.532   8.132   8.501  0.1005  0.1212 -0.2985
 3513W        W 7032   6.607   4.848   0.087 -0.0094 -0.0362  0.0119
 3514W        W 7033   5.873   1.781  11.187  0.0600  0.3675  0.1730
 3515W        W 7034   0.191   8.771  10.340  0.1895  0.1233  0.1608
 3516W        W 7035   0.770   5.080   3.119 -0.0620  0.0444  0.1066
 3517W        W 7036   4.297   4.184  10.050 -0.1925 -0.0471 -0.2114
 3518W        W 7037   4.074   0.761   2.427  0.0174 -0.0880 -0.3180
 3519W        W 7038   1.798   5.912  12.348  0.0448  0.0022  0.2099
 3520W        W 7039   8.854   1.820  10.599  0.1475  0.0866 -0.0930
 3521W        W 7040   2.603   0.645  10.854 -0.0078 -0.0366 -0.2677
 3522W        W 7041   6.730   9.583   3.209 -0.0319 -0.0469  0.2503
 3523W        W 7042   5.648   3.227  12.070  0.0575  0.0644 -0.3096
 3524W        W 7043   7.628   2.163   3.151 -0.0403  0.3071 -0.2536
 3525W        W 7044   9.410   2.188  11.056  0.1347 -0.1299  0.2977
 3526W        W 7045   0.942   5.196  10.155 -0.1790 -0.0696  0.1895
 3527W        W 7046   5.861   5.773   8.444  0.1233  0.0741  0.0095
 3528W        W 7047   8.102   6.754   3.409 -0.2142 -0.0328 -0.0993
 3529W        W 7048   1.445   4.146  11.462 -0.0593 -0.1096  0.1198
 3530W        W 7049   8.007   2.772  10.198  0.2528  0.0038  0.0284
 3531W        W 7050   0.949   5.794   1.995  0.1778  0.0136 -0.0844
 3532W        W 7051   5.837   2.044   1.406 -0.3028  0.0396 -0.0668
 3533W        W 7052   5.531   2.410   2.915  0.0707  0.2453 -0.0188
 3534W        W 7053   8.292   9.770   8.937 -0.2197 -0.0655 -0.0810
 3535W        W 7054   9.267   4.333   1.156  0.3363  0.0889 -0.1137
 3536W        W 7055   2.134   9.224   3.039 -0.2184  0.1293 -0.0733
 3537W        W 7056   2.986   4.641   2.169 -0.1116  0.0688  0.2931
 3538W        W 7057   6.032   3.788   2.401 -0.0419 -0.2452 -0.0169
 3539W        W 7058   5.787   6.571   0.347 -0.2270  0.0707 -0.1244
 3540W        W 7059   7.488   5.929  12.232  0.0467 -0.0378 -0.4129
 3541W        W 7060   0.005   6.742   0.838 -0.2312 -0.0458 -0.1388
 3542W        W 7061   2.504   6.522   9.288 -0.1225 -0.1945  0.2926
 3543W        W 7062   2.750   3.892  11.457  0.2005  0.2562 -0.2885
 3544W        W 7063   9.061   0.347  11.189  0.0888 -0.2400 -0.0030
 3545W        W 7064   3.102   7.291   1.709 -0.4853 -0.4163  0.0345
 3546W        W 7065   4.239   1.675   1.336  0.0728 -0.1285 -0.0635
 3547W        W 7066   4.818   2.447   2.226 -0.2299  0.0399 -0.4179
 3548W        W 7067   6.554   8.032   9.004  0.2397 -0.0284  0.0766
 3549W        W 7068   5.777   0.456  11.285 -0.2388  0.4443 -0.1802
 3550W        W 7069   2.908   4.026   9.873  0.3225  0.3342  0.3948
 3551W        W 7070   5.292   6.413   3.551 -0.0911  0.3674  0.2010
 3552W        W 7071   3.722   7.775  10.769 -0.2176 -0.4489  0.1244
 3553W        W 7072   0.436   0.185   9.925  0.0736  0.1867  0.0442
 3554W        W 7073   0.558   3.846   1.870 -0.1200  0.0897  0.0093
 3555W        W 7074   9.614   9.133  11.734  0.1525 -0.1745 -0.3276
 3556W        W 7075   4.938   7.599  11.986  0.0145  0.0155 -0.1484
 3557W        W 7076   6.815   5.327   3.330 -0.2293 -0.0416 -0.1794
 3558W        W 7077   4.289   6.038   9.410  0.1394 -0.0357  0.0323
 3559W        W 7078   5.771   7.707   2.176 -0.0116  0.0285 -0.0211
 3560W        W 7079   2.810   3.396   0.262  0.2861 -0.0551 -0.0621
 3561W        W 7080   1.059   6.327   1.975  0.0599  0.2272  0.0026
 3562W        W 7081   5.184   8.330   4.569  0.3598 -0.2372  0.2438
 3563W        W 7082   3.801   3.151  11.634  0.2892  0.2493  0.0944
 3564W        W 7083   7.497   5.457  12.058  0.1491 -0.0094  0.1369
 3565W        W 7084   6.427   5.176  12.133  0.0236 -0.1521  0.0440
 3566W        W 7085   2.550   6.273   0.824  0.2659 -0.1077  0.1339
 3567W        W 7086   8.914   6.092   9.891 -0.1568  0.2271 -0.0913
 3568W        W 7087   7.267   5.993   0.348  0.1038  0.1773 -0.2392
 3569W        W 7088   0.392   8.823  11.755  0.0632 -0.0600  0.0286
 3570W        W 7089   8.910   5.158   2.095 -0.4371  0.0530  0.0248
 3571W        W 7090   3.840   7.289   2.256 -0.2355  0.1901  0.1136
 3572W        W 7091   9.753   0.711  11.571 -0.0222 -0.0819  0.0850
 3573W        W 7092   2.991   0.606   3.859 -0.0251 -0.1405  0.2467
 3574W        W 7093   7.194   9.494  11.144 -0.0329 -0.1173  0.0707
 3575W        W 7094   1.292   8.488  11.876  0.2732  0.1912 -0.0240
 3576W        W 7095   4.793   0.266   2.447  0.1290  0.2375 -0.0891
 3577W        W 7096   0.975   4.045  11.582  0.0678 -0.0593  0.2122
 3578W        W 7097   0.530   4.652   0.898 -0.2065 -0.1176  0.1925
 3579W        W 7098   2.463   7.176   1.071 -0.1585 -0.2182  0.0347
 3580W        W 7099   9.113   8.707   3.450  0.0023 -0.2340 -0.2060
 3581W        W 7100   4.998   5.679   0.570  0.1176 -0.0139 -0.0138
 3582W        W 7101   1.867   3.868   8.342  0.2840 -0.3033 -0.0399
 3583W        W 7102   7.124   8.766  10.567 -0.2774 -0.1623  0.2234
 3584W        W 7103   1.199   6.333   4.170  0.1626 -0.0256  0.1062
 3585W        W 7104   4.587   8.345   3.806  0.1744 -0.2361 -0.1584
 3586W        W 7105   5.077   2.057  11.124  0.2970 -0.1917 -0.1506
 3587W        W 7106   0.450   4.810   3.516  0.1133  0.1085  0.0807
 3588W        W 7107   7.169   5.126  11.681 -0.0761 -0.1124  0.2739
 3589W        W 7108   9.246   9.721   3.624  0.0533 -0.0245  0.3908
 3590W        W 7109   7.906   6.328   0.016 -0.3354  0.0679  0.3046
 3591W        W 7110   4.182   4.278   1.408  0.2619  0.3430  0.1643
 3592W        W 7111   1.515   3.496  11.001 -0.2672  0.1239 -0.3435
 3593W        W 7112   5.239   4.646   1.257  0.0758  0.1451 -0.1856
 3594W        W 7113   6.577   0.854   3.475 -0.0803 -0.0467 -0.0110
 3595W        W 7114   4.242   5.837   8.964  0.0993  0.0054 -0.2863
 3596W        W 7115   0.603   1.922  12.026 -0.0701  0.1448 -0.0928
 3597W        W 7116   9.211   5.233   4.130  0.2019 -0.0064  0.0593
 3598W        W 7117   6.971   7.337   2.286 -0.0230 -0.1423 -0.1829
 3599W        W 7118   7.782   1.563   1.398 -0.0883  0.2327  0.0325
 3600W        W 7119   7.489   1.247   2.768  0.0113  0.1671 -0.3104
 3601W        W 7120   3.822   9.556   1.506 -0.1399  0.1665 -0.0361
 3602W        W 7121   0.785   3.432   0.797 -0.2688 -0.1781 -0.2910
 3603W        W 7122   8.549   2.950   2.675  0.2427 -0.4545 -0.1274
 3604W        W 7123   4.646   2.148  10.306 -0.0807 -0.2096  0.0931
 3605W        W 7124   8.275   4.087   8.576  0.0941  0.1573  0.1632
 3606W        W 7125   0.449   3.276   3.066 -0.1391 -0.2177  0.1959
 3607W        W 7126   9.719   9.710   3.444 -0.0722  0.2664  0.1989
 3608W        W 7127   6.450   0.494   9.935  0.2068  0.1925  0.1843
 3609W        W 7128   1.443   6.842  12.258  0.0358  0.1163 -0.3187
 3610W        W 7129   4.470   4.486  10.967  0.1712 -0.0572  0.1731
 3611W        W 7130   7.203   2.378  11.773 -0.0910  0.1241  0.0214
 3612W        W 7131   5.762   6.766   2.247 -0.1956 -0.3327  0.4294
 3613W        W 7132   8.881   0.932   7.681  0.1732  0.2268 -0.1929
 3614W        W 7133   5.616   3.290   2.914 -0.0709  0.0179 -0.0164
 3615W        W 7134   9.458   2.508   3.470 -0.1854  0.0727  0.4403
 3616W        W 7135   1.969   7.848   8.092  0.2291 -0.1693  0.2124
 3617W        W 7136   3.341   1.611   4.283  0.3718  0.0674  0.2549
 3618W        W 7137   6.876   4.732   0.588  0.1128  0.1119 -0.2531
 3619W        W 7138   4.338   3.300  10.946 -0.1225  0.2008  0.1667
 3620W        W 7139   7.318   2.753  12.244 -0.0646  0.2741  0.0402
 3621W        W 7140   3.074   0.863   2.475  0.0493 -0.2637 -0.2007
 3622W        W 7141   2.157   4.784   2.018  0.3332  0.2154 -0.1124
 3623W        W 7142   4.853   3.335  11.234 -0.2161 -0.1561 -0.0159
 3624W        W 7143   0.430   3.155   0.650  0.1075 -0.0251 -0.1534
 3625W        W 7144   3.040   3.417  11.633 -0.0226 -0.0259 -0.2866
 3626W        W 7145   7.231   5.159   9.788 -0.4072 -0.2264 -0.3514
 3627W        W 7146   7.068   1.939   2.121  0.0954  0.2420 -0.2249
 3628W        W 7147   8.266   3.322   9.558  0.1854 -0.2531 -0.0143
 3629W        W 7148   7.139   3.210   9.459 -0.3143  0.1718  0.0970
 3630W        W 7149   1.081   6.805  11.861 -0.1910 -0.1151 -0.3460
 3631W        W 7150   6.179   3.306  11.723  0.3340  0.0720 -0.0323
 3632W        W 7151   1.176   4.920   9.236 -0.1975 -0.3035  0.2862
 3633W        W 7152   9.268   5.815   3.820 -0.5248 -0.3213  0.1557
 3634W        W 7153   2.078   8.884  10.795 -0.2161 -0.0319 -0.1131
 3635W        W 7154   5.332   7.779   4.664 -0.2787 -0.0094  0.0926
 3636W        W 7155   9.134   4.540   9.147  0.2524  0.2842 -0.1892
 3637W        W 7156   2.546   0.750   2.649  0.1432 -0.1599  0.0099
 3638W        W 7157   5.347   3.671   3.590  0.0906  0.3869  0.4437
 3639W        W 7158   3.234   7.096  11.344  0.0000  0.1195  0.0780
 3640W        W 7159   9.036   2.889   2.771 -0.0222 -0.1243 -0.2468
 3641W        W 7160   6.728   6.457   0.791 -0.1524 -0.2303 -0.0546
 3642W        W 7161   0.261   3.222  10.592  0.0354 -0.1822 -0.1249
 3643W        W 7162   0.383   8.731   1.341  0.0281  0.0869  0.0672
 3644W        W 7163   7.248   2.540  10.925  0.2305  0.1019  0.2397
 3645W        W 7164   1.487   9.602   1.330  0.0487 -0.0244  0.2619
 3646W        W 7165   2.068   4.480  12.120  0.1140  0.0843 -0.3273
 3647W        W 7166   9.468   0.110  11.039  0.1177  0.3821  0.0847
 3648W        W 7167   5.474   4.094   0.371  0.0763 -0.1125  0.0448
 3649W        W 7168   8.286   7.896   3.293  0.0157 -0.1185 -0.1831
 3650W        W 7169   6.930   1.103   9.422 -0.1002 -0.1585 -0.1446
 3651W        W 7170   7.450   6.068   7.695 -0.0259 -0.0039  0.0985
 3652W        W 7171   4.606   5.588   2.154 -0.0991 -0.4183 -0.0263
 3653W        W 7172   1.136   0.198   0.769 -0.0076 -0.0606 -0.1981
 3654W        W 7173   9.560   9.221   3.074  0.0295  0.1513  0.0983
 3655W        W 7174   3.155   6.307   2.567 -0.1916  0.1724  0.0739
 3656W        W 7175   4.486   5.041   3.422  0.1858  0.1198  0.1136
 3657W        W 7176   1.124   6.949  10.994  0.2415  0.2255 -0.0712
 3658W        W 7177   1.163   8.837   8.732 -0.0349 -0.0564  0.1900
 3659W        W 7178   6.785   8.187   2.864  0.4385 -0.1597 -0.2358
 3660W        W 7179   3.141   4.122   8.427  0.0209 -0.0997  0.0101
 3661W        W 7180   5.357   4.410   1.663 -0.0659  0.0711 -0.1625
 3662W        W 7181   6.697   4.912  11.740  0.0935 -0.0505 -0.1492
 3663W        W 7182   1.051   6.503   1.004  0.2340 -0.1472  0.0611
 3664W        W 7183   6.213   0.825  10.904  0.2334 -0.0711 -0.0187
 3665W        W 7184   1.947   5.917   3.860  0.0333 -0.0093  0.0228
 3666W        W 7185   0.803   9.563  10.136 -0.1841  0.1076  0.1161
 3667W        W 7186   5.019   6.753   1.468  0.0443 -0.3495 -0.0488
 3668W        W 7187   0.720   7.249   4.239 -0.0983 -0.3308  0.2196
 3669W        W 7188   5.590   2.960   2.102  0.0505  0.0605  0.0061
 3670W        W 7189   0.375   5.776   3.231 -0.0779 -0.0731  0.0848
 3671W        W 7190   6.144   0.490   1.399 -0.0927  0.0005  0.1663
 3672W        W 7191   9.684   2.657  11.164 -0.2558  0.0294  0.0622
 3673W        W 7192   1.388   1.610  10.447  0.0421 -0.0680  0.1293
 3674W        W 7193   8.752   0.381  11.612 -0.3192 -0.1747 -0.0028
 3675W        W 7194   5.795   9.703   1.088  0.0697 -0.2340  0.0975
 3676W        W 7195   3.169   4.458  10.817  0.2554 -0.0699 -0.0689
 3677W        W 7196   7.825   4.844   0.078 -0.0950 -0.0004  0.6353
 3678W        W 7197   8.977   3.443   2.761 -0.1400 -0.0443 -0.0443
 3679W        W 7198   0.854   1.062   2.390 -0.1577 -0.1478  0.1259
 3680W        W 7199   5.124   8.707  10.563  0.4091 -0.1017 -0.0160
 3681W        W 7200   3.377   2.941   1.399  0.1203  0.0139 -0.2372
 3682W        W 7201   8.242   4.476   3.693 -0.1156  0.0890 -0.0199
 3683W        W 7202   3.691   2.754   9.200  0.0885 -0.1314 -0.0850
 3684W        W 7203   1.297   8.789   0.243 -0.2112  0.0774 -0.0670
 3685W        W 7204   8.473   2.198   8.828  0.2979 -0.0698  0.0064
 3686W        W 7205   4.505   8.895   0.876 -0.2961 -0.1862  0.1617
 3687W        W 7206   2.819   2.831   0.724 -0.0784 -0.0826 -0.3048
 3688W        W 7207   8.435   5.197   0.800  0.0793 -0.0167 -0.1920
 3689W        W 7208   6.606   3.030   0.085  0.1375  0.0606  0.1627
 3690W        W 7209   6.797   0.576   2.248 -0.0430 -0.0637  0.0419
 3691W        W 7210   9.485   2.782   2.415  0.1008 -0.3600 -0.0904
 3692W        W 7211   8.670   4.596  12.319 -0.2032 -0.3072  0.1124
 3693W        W 7212   1.332   2.426   9.181  0.2884  0.2067 -0.3039
 3694W        W 7213   2.698   0.101  12.147  0.1632  0.2435  0.0163
 3695W        W 7214   9.017   5.678   4.202 -0.1731  0.2884 -0.1908
 3696W        W 7215   0.217   4.548   4.379  0.0880  0.2411  0.0860
 3697W        W 7216   7.619   9.070  10.091 -0.1619 -0.0067  0.0862
 3698W        W 7217   8.175   0.812   2.613  0.0303 -0.1363 -0.1982
 3699W        W 7218   4.871   9.016   9.545 -0.1943  0.2272 -0.1435
 3700W        W 7219   4.521   8.056   0.226  0.1556 -0.1474 -0.2740
 3701W        W 7220   8.788   6.239   3.189 -0.2900  0.2593  0.0794
 3702W        W 7221   6.834   6.068   7.991 -0.0511 -0.1199 -0.4485
 3703W        W 7222   4.213   1.783   2.971 -0.0260 -0.1645  0.0379
 3704W        W 7223   3.102   2.498   1.750  0.0505  0.1655 -0.0184
 3705W        W 7224   7.618   7.669   8.561 -0.0316 -0.0843  0.2138
 3706W        W 7225   0.848   2.421   9.500 -0.0882 -0.0234  0.1381
 3707W        W 7226   8.479   5.461   2.147 -0.1306  0.0689 -0.1056
 3708W        W 7227   3.094   1.511   2.858 -0.1261 -0.1003 -0.2848
 3709W        W 7228   6.772   9.434   9.248 -0.2685 -0.2162 -0.2146
 3710W        W 7229   5.128   2.131   9.512 -0.1448  0.0222 -0.2686
 3711W        W 7230   7.353   5.492   2.579 -0.0638 -0.0459  0.0010
 3712W        W 7231   2.438   7.911   4.690 -0.0561 -0.1145  0.2017
 3713W        W 7232   9.570   8.246   3.405  0.0821 -0.2362  0.1973
 3714W        W 7233   7.813   5.948  11.448  0.0260 -0.1579 -0.0778
 3715W        W 7234   4.333   6.341   0.376  0.0703 -0.2114  0.1258
 3716W        W 7235   6.012   1.921   0.967 -0.3137  0.1568 -0.2035
 3717W        W 7236   8.066   9.368   8.797 -0.0883 -0.0027 -0.3451
 3718W        W 7237   9.593   7.501   2.315  0.0801 -0.2619  0.0045
 3719W        W 7238   3.799   2.464  10.026 -0.2699 -0.0878  0.2125
 3720W        W 7239   5.067   7.492   3.857 -0.0868 -0.1442 -0.2767
 3721W        W 7240   3.723   6.076   3.174  0.2099 -0.2046  0.0750
 3722W        W 7241   6.032   4.121  11.463  0.2224 -0.2686 -0.1310
 3723W        W 7242   4.166   7.729   9.964  0.1060 -0.0576  0.0635
 3724W        W 7243   2.628   0.242   1.253 -0.1750  0.0553  0.1880
 3725W        W 7244   6.015   4.906   3.042  0.2261 -0.1902  0.3694
 3726W        W 7245   4.783   6.028   1.873  0.0390  0.0803 -0.1139
 3727W        W 7246   8.289   0.255  11.556  0.1889 -0.2913  0.2530
 3728W        W 7247   3.857   1.257   9.378 -0.2588 -0.0574 -0.0075
 3729W        W 7248   7.227   1.719   0.271  0.0919 -0.0677 -0.1360
 3730W        W 7249   9.134   0.271   8.921 -0.0547  0.2463  0.1393
 3731W        W 7250   4.207   6.310   9.905  0.1256  0.0194 -0.3328
 3732W        W 7251   8.008   1.928  11.046 -0.2280  0.0946  0.2071
 3733W        W 7252   3.305   7.926   0.755 -0.1429 -0.1009 -0.1639
 3734W        W 7253   5.682   4.315   4.071  0.2900 -0.1349  0.3404
 3735W        W 7254   8.314   3.717  11.836  0.0817  0.2992  0.2540
 3736W        W 7255   8.791   0.567   1.439 -0.0604  0.2773 -0.1653
 3737W        W 7256   6.866   8.832   3.775  0.1965  0.0643  0.0931
 3738W        W 7257   8.248   6.849  10.171 -0.3744 -0.0230  0.2692
 3739W        W 7258   6.021   0.869  11.522  0.3510  0.1867  0.3411
 3740W        W 7259   5.709   7.798   8.927  0.1098 -0.0914  0.1603
 3741W        W 7260   9.208   1.704   3.370  0.0072 -0.2174  0.1187
 3742W        W 7261   8.703   0.903  11.494  0.0067 -0.0423 -0.0383
 3743W        W 7262   6.125   4.418  11.035  0.2506  0.4072 -0.3691
 3744W        W 7263   5.895   8.121   3.764 -0.1394 -0.2661 -0.1142
 3745W        W 7264   2.044   6.817   3.336 -0.0776  0.0528  0.0047
 3746W        W 7265   8.494   5.193   2.616 -0.1319 -0.3592  0.0249
 3747W        W 7266   8.237   5.020  10.229 -0.3944 -0.0146 -0.0454
 3748W        W 7267   5.325   6.916   9.410 -0.0223  0.0550  0.0121
 3749W        W 7268   1.608   0.080   9.079  0.2163 -0.2114  0.0593
 3750W        W 7269   8.357   4.054   3.266 -0.0573  0.1053  0.2091
 3751W        W 7270   2.842   7.586  10.593  0.1668  0.0140  0.1935
 3752W        W 7271   7.510   9.567   1.286 -0.4747 -0.1321 -0.0694
 3753W        W 7272   8.101   9.288   1.947 -0.0565 -0.1281  0.0344
 3754W        W 7273   9.582   4.309   4.377  0.1560  0.2377  0.2353
 3755W        W 7274   7.669   4.973   9.395 -0.1802  0.1174  0.1019
 3756W        W 7275   3.954   6.536  11.245  0.0871 -0.1058  0.2955
 3757W        W 7276   0.386   0.644   9.695 -0.0568 -0.1286  0.1307
 3758W        W 7277   3.684   8.963  11.558  0.1412  0.0988  0.0283
 3759W        W 7278   1.024   4.740   2.358 -0.1854  0.0048 -0.1990
 3760W        W 7279   0.082   3.468   3.520  0.1794 -0.0635 -0.2051
 3761W        W 7280   3.867   7.656   3.584 -0.1051  0.1076  0.0909
 3762W        W 7281   4.943   5.959   2.379  0.0174 -0.0558 -0.0419
 3763W        W 7282   5.369   1.579   3.573 -0.2683 -0.0308  0.1743
 3764W        W 7283   5.080   3.017   1.201  0.3248  0.1430  0.0066
 3765W        W 7284   6.345   2.663   8.899  0.0412  0.1279  0.2099
 3766W        W 7285   0.310   8.262  10.243 -0.0470  0.0237  0.0535
 3767W        W 7286   2.398   4.818   3.862  0.2343 -0.0409 -0.0968
 3768W        W 7287   6.093   6.310   9.612  0.4460 -0.2305 -0.0798
 3769W        W 7288   4.704   6.481   8.618  0.0193  0.3724  0.1650
 3770W        W 7289   5.253   4.567  10.348  0.3129  0.4392 -0.0083
 3771W        W 7290   2.030   2.563  12.112  0.3250 -0.1692 -0.3686
 3772W        W 7291   2.968   5.127   1.549  0.0962  0.3013  0.1420
 3773W        W 7292   7.328   2.761   9.735 -0.0942 -0.1258  0.1006
 3774W        W 7293   3.976   5.400   4.091 -0.5467 -0.2528  0.0050
 3775W        W 7294   4.091   7.118   1.283  0.0466  0.0694 -0.1753
 3776W        W 7295   4.059   4.188   4.360  0.0590  0.1496 -0.2275
 3777W        W 7296   4.805   8.287  10.080 -0.2228  0.1030  0.0165
 3778W        W 7297   1.697   2.163  11.340  0.2946 -0.0757 -0.2518
 3779W        W 7298   0.173   3.051  11.074 -0.1340 -0.0734  0.2338
 3780W        W 7299   3.256   1.029  10.199  0.0137  0.1615  0.1934
 3781W        W 7300   5.108   3.953   1.695  0.1924  0.0782 -0.1174
 3782W        W 7301   1.482   9.591   9.515 -0.2471 -0.2562 -0.1464
 3783W        W 7302   8.379   6.933   3.836  0.1921  0.1246  0.1551
 3784W        W 7303   1.661   2.219  12.279 -0.2275  0.1482  0.0225
 3785W        W 7304   5.911   6.406   2.508  0.3616 -0.2128  0.3628
 3786W        W 7305   8.366   2.478   0.071 -0.0099 -0.0140 -0.3004
 3787W        W 7306   5.163   5.814  12.035  0.0230  0.4858  0.0409
 3788W        W 7307   5.807   6.242  11.058  0.1197  0.0182  0.3388
 3789W        W 7308   6.961   2.911   2.894 -0.1065  0.1021 -0.1756
 3790W        W 7309   4.927   1.983   0.212 -0.2602 -0.0874 -0.0313
 3791W        W 7310   9.283   1.131  10.813 -0.1035 -0.1127 -0.0349
 3792W        W 7311   5.979   1.681   0.076 -0.0265 -0.1513 -0.1145
 3793W        W 7312   3.734   1.132   0.233  0.0834  0.2217 -0.0731
 3794W        W 7313   3.024   5.387   9.854  0.1995  0.1789 -0.2934
 3795W        W 7314   3.127   8.477   2.098 -0.0253 -0.3151 -0.0276
 3796W        W 7315   7.192   1.990   0.793 -0.0091  0.1765  0.1977
 3797W        W 7316   0.805   6.894   1.148  0.1289 -0.0717  0.1165
 3798W        W 7317   0.687   3.204   9.113 -0.0703 -0.1082 -0.0641
 3799W        W 7318   9.622   1.756   1.645  0.3170  0.2100 -0.2004
 3800W        W 7319   9.111   6.138  11.024 -0.0901  0.3637 -0.0968
 3801W        W 7320   1.947   8.395   0.917  0.2649 -0.0251 -0.1392
 3802W        W 7321   7.705   2.274  10.739  0.0482  0.3135 -0.2471
 3803W        W 7322   3.832   5.976   4.139 -0.1297 -0.0463  0.3668
 3804W        W 7323   8.182   5.891   3.881  0.2618 -0.1578  0.0275
 3805W        W 7324   1.459   4.277   2.330  0.0993  0.2122 -0.1606
 3806W        W 7325   2.875   8.948   9.294 -0.2089 -0.0191 -0.3917
 3807W        W 7326   5.939   8.069   0.011  0.2085  0.0311 -0.1418
 3808W        W 7327   1.339   7.132   2.457 -0.0780 -0.0010 -0.2961
 3809W        W 7328   9.094   0.774   9.169  0.0236 -0.0798  0.2470
 3810W        W 7329   6.878   2.520  12.329  0.2246 -0.0139 -0.0274
 3811W        W 7330   5.620   9.395  11.788 -0.0601 -0.0653  0.3035
 3812W        W 7331   2.272   1.196   9.930 -0.0944  0.0227 -0.2244
 3813W        W 7332   6.215   0.396  11.485 -0.1844  0.1109  0.0271
 3814W        W 7333   4.758   4.250   2.370 -0.1840  0.1096  0.4470
 3815W        W 7334   4.532   9.362   2.541  0.1958  0.2452  0.0475
 3816W        W 7335   9.630   4.808   9.213 -0.3106 -0.0634  0.1057
 3817W        W 7336   6.923   4.194   9.616 -0.2993 -0.0042  0.0462
 3818W        W 7337   4.891   7.088   3.223 -0.0467 -0.1122 -0.0319
 3819W        W 7338   1.279   6.830   1.363  0.0065  0.1131  0.1156
 3820W        W 7339   4.501   1.421   3.298 -0.2713 -0.1319 -0.4430
 3821W        W 7340   7.822   7.140   3.318  0.0149 -0.0303 -0.1252
 3822W        W 7341   4.957   5.237  10.668 -0.4998 -0.0800 -0.4168
 3823W        W 7342   4.189   1.225  12.199  0.0631 -0.2180  0.1039
 3824W        W 7343   0.126   8.911   8.977 -0.0619 -0.2610  0.1090
 3825W        W 7344   8.352   5.444   9.691  0.0151  0.0020  0.3856
 3826W        W 7345   9.028   8.911  10.848  0.4069 -0.0168 -0.4539
 3827W        W 7346   8.729   1.536   1.577 -0.2580  0.0610  0.2464
 3828W        W 7347   4.927   5.745  11.454  0.2557 -0.0179 -0.0795
 3829W        W 7348   5.337   6.451   0.846 -0.0198 -0.0607 -0.0478
 3830W        W 7349   1.490   2.969   9.897  0.0923 -0.0308 -0.1181
 3831W        W 7350   4.355   4.186   8.904  0.3169  0.0892 -0.0795
 3832W        W 7351   1.808   9.253   1.076 -0.2525 -0.1332 -0.0748
 3833W        W 7352   8.768   1.246  11.060  0.4419 -0.0307 -0.0564
 3834W        W 7353   7.535   0.411   3.006 -0.0696  0.1692  0.0002
 3835W        W 7354   3.101   7.205   0.266  0.1165  0.0069 -0.1169
 3836W        W 7355   0.612   7.246   2.930  0.1004 -0.2997 -0.3004
 3837W        W 7356   2.663   0.185   9.439 -0.0860 -0.0091  0.0798
 3838W        W 7357   0.200   0.693  12.055  0.2698 -0.1412  0.1427
 3839W        W 7358   5.621   0.162   2.341 -0.1052 -0.0505  0.3457
 3840W        W 7359   5.168   3.878  10.318  0.0096 -0.2064 -0.0650
 3841W        W 7360   5.054   6.010  10.304 -0.0378 -0.1105  0.1418
 3842W        W 7361   9.290   3.812   2.788 -0.0875  0.1528  0.0470
 3843W        W 7362   2.517   4.602   3.172  0.1718  0.1498 -0.0405
 3844W        W 7363   2.302   4.096  11.694  0.0496  0.1743 -0.2392
 3845W        W 7364   7.121   7.058   1.887  0.0546  0.0346 -0.1060
 3846W        W 7365   2.946   8.504   8.997  0.0923 -0.1045  0.2523
 3847W        W 7366   1.523   6.596   0.917  0.1518 -0.1567  0.1358
 3848W        W 7367   1.755   2.568   1.609 -0.1727  0.2812 -0.2661
 3849W        W 7368   7.617   5.878   9.917 -0.0890 -0.1640 -0.1944
 3850W        W 7369   2.775   2.863   3.082  0.0566  0.2102 -0.1033
 3851W        W 7370   3.084   1.778  11.530  0.0351 -0.1124 -0.2783
 3852W        W 7371   8.242   0.451   4.359 -0.1818 -0.1123 -0.0992
 3853W        W 7372   3.272   6.316   9.298  0.3971 -0.0810 -0.1556
 3854W        W 7373   8.609   3.471   1.560 -0.3103 -0.2031 -0.1344
 3855W        W 7374   2.925   5.791   0.652 -0.1142 -0.1340 -0.2218
 3856W        W 7375   6.414   1.518  10.188  0.1901  0.0678  0.0579
 3857W        W 7376   5.351   4.104   2.776  0.3014  0.1366 -0.2007
 3858W        W 7377   4.467   0.671   9.896 -0.0819 -0.0798  0.1628
 3859W        W 7378   7.064   2.989   0.226 -0.3038  0.3735  0.1754
 3860W        W 7379   3.939   2.147   1.875 -0.2099  0.0715 -0.0742
 3861W        W 7380   3.400   4.850  11.056  0.1522 -0.0956 -0.2124
 3862W        W 7381   1.125   8.838   0.773 -0.2353  0.1810  0.5434
 3863W        W 7382   2.741   2.303   3.071  0.1242 -0.0609  0.1592
 3864W        W 7383   2.286   4.126   9.014 -0.0451  0.3256 -0.1585
 3865W        W 7384   1.894   4.739   3.696  0.0308  0.2605  0.0090
 3866W        W 7385   1.290   1.771   2.931  0.1159  0.0779  0.0141
 3867W        W 7386   7.503   4.256   0.355 -0.3099 -0.1862 -0.0747
 3868W        W 7387   3.427   2.649   9.649  0.1693  0.2019  0.0557
 3869W        W 7388   1.486   7.793  10.754 -0.0772  0.1505  0.0264
 3870W        W 7389   3.840   0.294   1.543 -0.1360  0.0200 -0.1963
 3871W        W 7390   0.261   3.627  10.868  0.1660 -0.0713  0.0818
 3872W        W 7391   1.812   6.072  10.604  0.1199 -0.1170 -0.1222
 3873W        W 7392   0.579   5.945   2.279  0.2461  0.0467  0.0066
 3874W        W 7393   3.787   6.821   8.756 -0.0052  0.1346 -0.1268
 3875W        W 7394   2.636   5.298  11.473  0.0849  0.0637  0.0879
 3876W        W 7395   3.948   5.788   7.921  0.3393  0.4423  0.0006
 3877W        W 7396   9.743   3.203   8.970 -0.0338  0.0634 -0.1604
 3878W        W 7397   1.895   2.321  10.460  0.0338 -0.0096 -0.2393
 3879W        W 7398   8.032   2.178   0.687  0.1760 -0.0783 -0.1713
 3880W        W 7399   2.849   6.692  11.769  0.0006  0.1486  0.5183
 3881W        W 7400   5.383   1.218   0.303  0.1884  0.2311  0.1408
 3882W        W 7401   8.550   8.321   9.125 -0.0175  0.3838 -0.2508
 3883W        W 7402   4.512   7.289   9.724 -0.0666  0.0547  0.1615
 3884W        W 7403   8.368   6.461   3.107  0.0636  0.3859 -0.1530
 3885W        W 7404   9.101   1.521   0.108  0.0371  0.0812 -0.0612
 3886W        W 7405   4.729   6.630   0.486 -0.0048 -0.0479  0.0365
 3887W        W 7406   7.627   4.333   4.472 -0.2039 -0.3401 -0.1043
 3888W        W 7407   4.425   5.915   0.660  0.0430 -0.2629  0.1303
 3889W        W 7408   1.394   7.337  10.133 -0.0112  0.2037 -0.2509
 3890W        W 7409   7.755   4.336   3.960  0.2543  0.0087  0.0303
 3891W        W 7410   3.039   6.406  12.188 -0.1652  0.2760 -0.0124
 3892W        W 7411   1.642   8.625   3.297 -0.1308  0.3275  0.0514
 3893W        W 7412   0.351   7.469  11.842 -0.2291  0.0307  0.1695
 3894W        W 7413   5.923   2.847  10.227  0.1286 -0.4720 -0.1924
 3895W        W 7414   3.429   8.982   1.457 -0.0335 -0.0770  0.1361
 3896W        W 7415   4.560   2.047  10.986 -0.1036 -0.0048  0.0871
 3897W        W 7416   4.958   3.645  10.875  0.1818  0.0027 -0.1363
 3898W        W 7417   2.387   2.017  12.062  0.0495 -0.0525  0.1516
 3899W        W 7418   5.496   5.863  10.095 -0.2707  0.2421  0.0860
 3900W        W 7419   8.828   7.365  12.327  0.1446 -0.3235  0.3064
 3901W        W 7420   4.033   8.192   8.810 -0.2635  0.2840  0.2078
 3902W        W 7421   9.547   1.340   8.497  0.3390  0.1765 -0.0893
 3903W        W 7422   2.780   8.986  12.147 -0.0404 -0.0943  0.0800
 3904W        W 7423   5.581   0.558  10.355  0.1982  0.2279 -0.2039
 3905W        W 7424   4.993   4.912   3.020 -0.0648 -0.0506  0.1191
 3906W        W 7425   2.598   8.292   3.354 -0.2218  0.4139 -0.1025
 3907W        W 7426   6.459   6.042   9.297 -0.0417  0.0224  0.1569
 3908W        W 7427   6.582   1.139   1.888  0.1804 -0.0807 -0.0973
 3909W        W 7428   3.709   7.056  11.950  0.2516  0.1327  0.1721
 3910W        W 7429   0.404   3.131   0.052  0.0543 -0.0118 -0.0324
 3911W        W 7430   0.787   4.147   2.970  0.0148 -0.1433 -0.2191
 3912W        W 7431   5.603   1.972   9.392  0.0052  0.1550  0.1015
 3913W        W 7432   5.852   0.116   1.556  0.2782  0.1835 -0.2690
 3914W        W 7433   0.094   5.089  11.215 -0.0720  0.1952  0.0923
 3915W        W 7434   1.244   4.732   1.524 -0.1258  0.2425 -0.3664
 3916W        W 7435   2.892   7.763   8.616  0.0209  0.3089 -0.1010
 3917W        W 7436   8.317   5.295   1.292 -0.1461 -0.0921 -0.0566
 3918W        W 7437   1.800   1.981  10.905 -0.1297 -0.0009 -0.2177
 3919W        W 7438   4.975   2.509  10.111 -0.0898 -0.1928  0.2034
 3920W        W 7439   2.501   6.645  11.428  0.3495  0.2006  0.4634
 3921W        W 7440   7.151   6.800  12.271  0.0731 -0.1076  0.3028
 3922W        W 7441   3.646   4.618  10.626  0.1939 -0.1268 -0.0242
 3923W        W 7442   8.288   4.530   8.800 -0.3563  0.1162 -0.0443
 3924W        W 7443   9.105   1.535   8.828  0.0537  0.0981  0.0543
 3925W        W 7444   2.932   7.387   0.710 -0.0785  0.1849  0.2420
 3926W        W 7445   2.813   8.752   3.600 -0.0126 -0.0489  0.0948
 3927W        W 7446   4.481   7.931  10.306 -0.1152 -0.0929  0.1562
 3928W        W 7447   6.869   6.275  11.280 -0.2686  0.3035 -0.3918
 3929W        W 7448   5.579   8.159   2.091 -0.1737 -0.0045 -0.0010
 3930W        W 7449   8.869   2.084   2.959  0.3354 -0.0474 -0.0015
 3931W        W 7450   7.296   5.195   1.157 -0.1116  0.0036 -0.0431
 3932W        W 7451   5.741   2.212   1.915  0.5279 -0.3625 -0.1092
 3933W        W 7452   7.684   6.176   3.932 -0.0516  0.2166  0.0363
 3934W        W 7453   9.634   8.325   2.525 -0.0834 -0.1385  0.3399
 3935W        W 7454   1.879   9.311  12.141  0.1551  0.0766 -0.0819
 3936W        W 7455   7.680   3.379   1.800 -0.0772 -0.2041  0.0473
 3937W        W 7456   6.015   0.821   0.615  0.3202 -0.2717  0.1516
 3938W        W 7457   1.653   5.099   0.750  0.0084  0.0767 -0.1761
 3939W        W 7458   3.333   5.865   4.045  0.2485 -0.0949  0.1256
 3940W        W 7459   7.116   0.097  11.496  0.1595  0.0277 -0.1854
 3941W        W 7460   0.715   2.729   9.063 -0.0447 -0.3395 -0.2949
 3942W        W 7461   0.642   0.975  12.047  0.2288  0.4409  0.0687
 3943W        W 7462   0.429   0.421   1.320 -0.0024 -0.3971 -0.0391
 3944W        W 7463   2.393   3.320   2.217  0.0716  0.4621  0.1133
 3945W        W 7464   8.293   0.485   0.827  0.2254  0.2593 -0.0507
 3946W        W 7465   4.535   5.501   8.674 -0.1636  0.1176 -0.0002
 3947W        W 7466   3.170   9.753  11.118 -0.0880  0.1583  0.4289
 3948W        W 7467   4.539   7.698   9.457 -0.0112 -0.2816  0.4132
 3949W        W 7468   3.879   5.497   0.193 -0.1194 -0.2778 -0.1616
 3950W        W 7469   1.565   8.487   8.948 -0.2792  0.1127  0.0063
 3951W        W 7470   3.791   0.962   8.460 -0.2074  0.4081  0.0551
 3952W        W 7471   2.143   9.027   0.751 -0.3504  0.1234  0.0904
 3953W        W 7472   8.793   5.103  12.198 -0.2181 -0.0086 -0.0755
 3954W        W 7473   6.075   6.776   9.837  0.0853 -0.2344 -0.1038
 3955W        W 7474   6.282   4.310   8.377  0.0241  0.0223  0.1324
 3956W        W 7475   9.468   9.230  12.270 -0.1529 -0.0670 -0.1831
 3957W        W 7476   8.060   8.182  10.281  0.1438  0.1379 -0.0846
 3958W        W 7477   5.316   4.167   2.104  0.3303  0.4639 -0.0416
 3959W        W 7478   0.972   8.030  12.059 -0.1763 -0.0376  0.1332
 3960W        W 7479   5.261   8.073   2.538 -0.0276 -0.2802 -0.2067
 3961W        W 7480   6.214   7.517   8.691 -0.0880  0.0267 -0.3266
 3962W        W 7481   9.115   6.697   2.502  0.0225 -0.0602  0.0276
 3963W        W 7482   1.500   6.650   8.818 -0.4352 -0.2951  0.0873
 3964W        W 7483   9.242   3.955  11.719  0.0697  0.3322  0.1061
 3965W        W 7484   0.672   0.942   8.772 -0.1922  0.2045 -0.0997
 3966W        W 7485   7.612   5.943   8.908  0.1609  0.0794  0.3950
 3967W        W 7486   6.529   6.787  11.113 -0.1444  0.1122 -0.0070
 3968W        W 7487   8.914   6.953   3.228 -0.1678  0.2904 -0.1114
 3969W        W 7488   7.346   3.640   9.575  0.0076  0.0081  0.0365
 3970W        W 7489   0.725   0.436   0.524  0.2274 -0.1706  0.1410
 3971W        W 7490   9.099   2.090  12.115 -0.1385  0.2521  0.0025
 3972W        W 7491   8.247   4.627   2.493 -0.1486  0.0115 -0.2018
 3973W        W 7492   8.813   6.732   4.957 -0.1574 -0.1479 -0.2995
 3974W        W 7493   5.539   0.104  10.103 -0.0172 -0.0902  0.0265
 3975W        W 7494   1.692   5.303  11.704  0.4131 -0.0875 -0.1749
 3976W        W 7495   0.977   1.224   8.391  0.3094  0.0755  0.1057
 3977W        W 7496   3.204   9.336   2.314 -0.0760  0.1726 -0.3660
 3978W        W 7497   1.477   3.568  10.205 -0.2522 -0.0922  0.0462
 3979W        W 7498   7.326   8.055   9.455 -0.1453 -0.2548  0.0714
 3980W        W 7499   8.973   9.266   1.752 -0.0540  0.0552  0.1555
 3981W        W 7500   1.754   2.117  10.004  0.1981  0.3225  0.0126
 3982W        W 7501   4.444   8.103   8.521  0.2237 -0.1858 -0.0172
 3983W        W 7502   3.457   8.563   8.795  0.4488 -0.0656 -0.0342
 3984W        W 7503   7.023   0.586  11.264  0.3496  0.3596  0.2103
 3985W        W 7504   8.479   7.350  11.902 -0.0297  0.0529  0.0205
 3986W        W 7505   1.485   6.736   0.431  0.3330  0.0307  0.0200
 3987W        W 7506   7.268   4.280   8.706  0.3683  0.3182 -0.2145
 3988W        W 7507   7.684   2.494   1.336  0.0692  0.1572  0.4651
 3989W        W 7508   0.062   1.671  11.987  0.3202  0.0816 -0.0418
 3990W        W 7509   9.255   5.624   9.970  0.1378  0.0903  0.1553
 3991W        W 7510   2.555   8.532  12.155  0.0929 -0.1817 -0.2392
 3992W        W 7511   0.069   2.765   0.476 -0.0139 -0.1305  0.1464
 3993W        W 7512   1.084   0.947  12.300  0.0442  0.2696  0.3885
 3994W        W 7513   3.619   7.265  10.674  0.0981 -0.0446 -0.1045
 3995W        W 7514   6.782   7.998   3.912  0.1005  0.1218 -0.1862
 3996W        W 7515   2.122   4.045   9.580  0.1150  0.0430 -0.0366
 3997W        W 7516   6.895   7.265  10.044 -0.1429  0.1366  0.3423
 3998W        W 7517   0.149   7.225   0.718  0.0135  0.3729  0.0389
 3999W        W 7518   2.778   8.485   2.738 -0.3870  0.4453 -0.0615
 4000W        W 7519   3.404   0.298   2.380 -0.1668  0.0909 -0.0124
 4001W        W 7520   5.231   1.833   9.123 -0.1171 -0.2844  0.0585
 4002W        W 7521   2.250   5.878   8.581 -0.0340  0.0267 -0.2048
 4003W        W 7522   9.162   2.637   9.591  0.0645 -0.0977 -0.4348
 4004W        W 7523   6.835   2.127   0.414 -0.0945 -0.1509  0.0129
 4005W        W 7524   9.311   8.426   9.606 -0.1436 -0.1248  0.1609
 4006W        W 7525   0.370   4.969   0.427 -0.1606  0.1525  0.1296
 4007W        W 7526   8.765   1.637   3.806  0.0297  0.3292 -0.0394
 4008W        W 7527   0.062   6.646   9.521 -0.1579 -0.0940 -0.2143
 4009W        W 7528   4.273   3.524   2.875  0.1772 -0.0205 -0.0137
 4010W        W 7529   4.197   1.408   0.907 -0.2177 -0.2996 -0.2251
 4011W        W 7530   7.877   6.485  10.462 -0.3873  0.0139 -0.0790
 4012W        W 7531   8.485   8.797   0.856 -0.1388  0.3489 -0.0958
 4013W        W 7532   2.912   3.321  10.435  0.4088  0.0374  0.1999
 4014W        W 7533   4.302   3.847   1.637 -0.0900 -0.2087 -0.0351
 4015W        W 7534   2.180   7.435   2.877  0.2664  0.2073 -0.1396
 4016W        W 7535   7.445   0.338   1.197  0.0786 -0.3864 -0.1319
 4017W        W 7536   0.856   1.196   1.065 -0.1377  0.0260  0.0523
 4018W        W 7537   8.602   0.244   2.323  0.1129  0.0519 -0.2289
 4019W        W 7538   6.009   8.383  11.449  0.0724 -0.1458  0.1214
 4020W        W 7539   2.164   2.038   3.588 -0.0967 -0.1222 -0.1375
 4021W        W 7540   0.043   6.005  10.920 -0.1416  0.1564  0.1834
 4022W        W 7541   9.553   3.436  10.924  0.2038 -0.0591 -0.4193
 4023W        W 7542   1.848   1.140   2.637  0.0417 -0.0096  0.0457
 4024W        W 7543   6.540   3.699   9.060 -0.0886  0.0958  0.5458
 4025W        W 7544   3.288   1.016   2.948 -0.0307  0.2680  0.2222
 4026W        W 7545   5.523   0.828  11.592 -0.0384  0.1235 -0.4508
 4027W        W 7546   2.871   7.614   2.475  0.1112 -0.1388 -0.0355
 4028W        W 7547   8.753   4.742   0.475 -0.1670  0.1809  0.1057
 4029W        W 7548   1.613   2.772   9.479 -0.2870  0.1495  0.0182
 4030W        W 7549   4.353   1.961   0.058 -0.0495  0.4638 -0.2305
 4031W        W 7550   2.311   2.567  10.733  0.0881  0.0821 -0.5237
 4032W        W 7551   7.336   7.473   1.709  0.4446 -0.2571 -0.3928
 4033W        W 7552   2.289   2.043  10.689  0.2624  0.0187  0.0816
 4034W        W 7553   9.297   5.463   2.938 -0.0467 -0.1382  0.2674
 4035W        W 7554   4.213   9.301   2.155  0.0496 -0.2141  0.0047
 4036W        W 7555   0.346   1.864  11.583  0.1665  0.0656  0.1552
 4037W        W 7556   9.225   0.294   1.447 -0.1440 -0.1465  0.1261
 4038W        W 7557   3.872   2.400  11.667  0.0230  0.3208  0.2924
 4039W        W 7558   8.193   3.346   2.059  0.0323 -0.2681 -0.2812
 4040W        W 7559   8.596   0.124   1.139  0.2677  0.2862  0.2093
 4041W        W 7560   6.579   8.954   4.594 -0.0700 -0.2178 -0.0492
 4042W        W 7561   1.872   9.276   3.565  0.0784 -0.0288  0.0503
 4043W        W 7562   6.404   1.596   1.928  0.1218  0.1530  0.0336
 4044W        W 7563   2.786   6.243   1.300  0.0819  0.1551  0.0701
 4045W        W 7564   4.029   5.641  11.466  0.0535  0.0346  0.0096
 4046W        W 7565   1.833   0.450  12.019  0.0935 -0.1170  0.3030
 4047W        W 7566   7.333   3.229   4.102 -0.2501 -0.0258  0.0045
 4048W        W 7567   1.671   6.709   9.970 -0.2739  0.1671 -0.1019
 4049W        W 7568   2.445   3.207  10.298 -0.0880  0.0099  0.0665
 4050W        W 7569   3.361   9.358  11.322  0.2753  0.2190  0.1402
 4051W        W 7570   4.407   1.015  11.758 -0.1825 -0.2981  0.2881
 4052W        W 7571   8.328   1.484   1.845 -0.0331  0.0068 -0.2330
 4053W        W 7572   2.997   4.354  12.300  0.3493  0.0352 -0.0911
 4054W        W 7573   3.701   5.333   8.960 -0.0760 -0.2644 -0.0305
 4055W        W 7574   7.405   7.681   3.443 -0.0895  0.0398  0.1105
 4056W        W 7575   4.011   6.663   1.068  0.0070  0.2194 -0.2232
 4057W        W 7576   2.391   7.340  10.326  0.0177 -0.0217 -0.2270
 4058W        W 7577   0.058   8.484   3.737 -0.2602 -0.0795 -0.2360
 4059W        W 7578   0.558   6.443   2.751  0.1380  0.0513 -0.0527
 4060W        W 7579   8.430   3.337   0.527 -0.2235  0.2515  0.0731
 4061W        W 7580   8.858   0.049   9.254 -0.0536  0.1611 -0.2744
 4062W        W 7581   6.436   2.715   3.177  0.1009 -0.1962  0.0073
 4063W        W 7582   7.829   1.723   2.928 -0.1751 -0.1161  0.1420
 4064W        W 7583   9.692   8.551   0.571 -0.1112  0.1047  0.0345
 4065W        W 7584   8.552   8.132   4.334  0.2116  0.0019  0.2096
 4066W        W 7585   9.006   9.299   7.753 -0.4176  0.2771  0.2449
 4067W        W 7586   1.505   1.058   2.360  0.1521 -0.0330  0.3256
 4068W        W 7587   4.628   5.263   1.298 -0.1907  0.1485  0.3158
 4069W        W 7588   5.052   7.711   2.876 -0.1973 -0.0438 -0.0988
 4070W        W 7589   1.382   1.722  10.996 -0.2781  0.2421  0.0433
 4071W        W 7590   3.550   5.141  12.334  0.0935  0.0251 -0.3317
 4072W        W 7591   1.223   7.901   1.368  0.0909  0.2322 -0.0795
 4073W        W 7592   0.466   6.236   3.598  0.0443 -0.1462 -0.1225
 4074W        W 7593   4.595   2.360   0.080  0.1083 -0.2436 -0.4237
 4075W        W 7594   4.053   2.414   0.202 -0.2209  0.2934 -0.1593
 4076W        W 7595   7.915   6.049  10.887  0.1468  0.1439 -0.2031
 4077W        W 7596   5.283   1.895   0.582  0.2117 -0.2495  0.1697
 4078W        W 7597   3.402   2.428  10.684 -0.0986 -0.3655 -0.1580
 4079W        W 7598   8.060   4.961   2.844 -0.1583  0.1295 -0.1039
 4080W        W 7599   1.523   4.509   1.042  0.0011  0.0431  0.1521
 4081W        W 7600   5.794   6.108  11.833 -0.0196  0.1996  0.3729
 4082W        W 7601   5.555   7.550   2.980  0.1311 -0.1857  0.0107
 4083W        W 7602   2.660   8.982   8.830  0.2465 -0.0730 -0.0531
 4084W        W 7603   1.746   4.299   3.312 -0.0190 -0.1122 -0.1492
 4085W        W 7604   7.141   6.182   0.874  0.0076 -0.0856  0.0326
 4086W        W 7605   0.405   2.613   9.901  0.0662 -0.0902 -0.1669
 4087W        W 7606   9.705   1.522   2.856  0.1057 -0.1411  0.1851
 4088W        W 7607   2.593   3.250  11.247 -0.1101  0.2516  0.3484
 4089W        W 7608   2.152   8.379   8.754  0.2111  0.0020  0.0524
 4090W        W 7609   0.063   1.759   8.456 -0.1497 -0.0385 -0.1625
 4091W        W 7610   3.949   6.818   0.559 -0.0900  0.0096  0.0685
 4092W        W 7611   5.042   2.190  11.636  0.0015  0.0619  0.2246
 4093W        W 7612   8.921   1.660   4.334 -0.1156 -0.1258 -0.1697
 4094W        W 7613   7.013   8.203  12.087  0.1157  0.0898  0.1287
 4095W        W 7614   0.064   2.100   1.952 -0.2374  0.0475  0.1847
 4096W        W 7615   2.370   3.428   2.809  0.3846 -0.3619 -0.1555
 4097W        W 7616   2.006   6.818  11.420 -0.0849 -0.0676  0.2721
 4098W        W 7617   2.307   1.122   0.033 -0.1566  0.0060  0.1708
 4099W        W 7618   4.414   8.010   0.810 -0.0079 -0.0766  0.0969
 4100W        W 7619   9.472   8.870   3.909  0.1511  0.0865  0.0143
 4101W        W 7620   5.896   1.865  11.667 -0.2391  0.0445 -0.0331
 4102W        W 7621   7.711   5.684   3.668  0.3009  0.0019  0.0609
 4103W        W 7622   0.228   4.627  11.807 -0.0085 -0.1451  0.3677
 4104W        W 7623   1.994   2.673  10.130 -0.0777 -0.1460 -0.1618
 4105W        W 7624   8.421   5.526   9.185  0.0868  0.0792  0.0831
 4106W        W 7625   5.852   3.588  11.142 -0.3369  0.2122 -0.1500
 4107W        W 7626   1.430   0.940  11.909 -0.0309  0.3379 -0.2186
 4108W        W 7627   8.922   8.379  10.890 -0.2135 -0.1557 -0.2134
 4109W        W 7628   1.263   1.623   9.208 -0.1346  0.1399  0.0486
 4110W        W 7629   6.112   7.289   9.588  0.3748 -0.2032  0.1142
 4111W        W 7630   2.390   8.584   0.456  0.1088 -0.0101  0.3201
 4112W        W 7631   6.354   0.767   4.049  0.0329  0.0406 -0.1284
 4113W        W 7632   3.763   9.051   9.669 -0.2953  0.3775 -0.2086
 4114W        W 7633   7.794   3.417   1.157 -0.0769 -0.2283  0.1403
 4115W        W 7634   5.750   7.693   9.436  0.0482 -0.2459 -0.2462
 4116W        W 7635   1.389   5.106  10.365  0.0095  0.3143  0.2072
 4117W        W 7636   2.170   7.617   1.787  0.1250  0.1246 -0.0753
 4118W        W 7637   6.441   6.548   2.322  0.0841  0.0792  0.1442
 4119W        W 7638   5.467   6.052   3.217  0.1433  0.1231  0.2109
 4120W        W 7639   7.223   2.192   1.231 -0.1870 -0.1748  0.2466
 4121W        W 7640   4.624   1.596  10.499  0.0236  0.3095  0.0111
 4122W        W 7641   0.589   8.957   3.527 -0.0365 -0.0957  0.0475
 4123W        W 7642   4.956   9.045   1.081 -0.0724 -0.3230  0.3964
 4124W        W 7643   0.843   5.408   0.920  0.4552  0.0554 -0.0716
 4125W        W 7644   8.742   5.298   8.795  0.1488 -0.1389 -0.0926
 4126W        W 7645   6.112   7.144  11.168  0.0046  0.1941 -0.2557
 4127W        W 7646   2.762   9.295   2.583  0.1748  0.0717 -0.3030
 4128W        W 7647   6.451   2.885   2.190  0.2577  0.1822 -0.2695
 4129W        W 7648   7.342   0.946   8.715 -0.0174 -0.1071  0.4160
 4130W        W 7649   1.321   2.132  10.203 -0.1817 -0.2745  0.2473
 4131W        W 7650   8.049   5.835   0.902  0.1783  0.0484  0.0412
 4132W        W 7651   8.802   4.024   3.622  0.0901 -0.0771 -0.0827
 4133W        W 7652   4.677   3.425   1.135  0.0073  0.3614 -0.2043
 4134W        W 7653   5.627   4.773   8.758  0.1324 -0.0729 -0.0588
 4135W        W 7654   6.116   4.622   7.831 -0.3549  0.0174 -0.3252
 4136W        W 7655   7.538   3.514   9.012  0.0301  0.3423  0.0113
 4137W        W 7656   2.276   3.792   0.268 -0.1361 -0.2299  0.0391
 4138W        W 7657   1.779   2.331   3.463 -0.0804  0.0486 -0.5941
 4139W        W 7658   4.498   3.328  12.288  0.2351  0.3432 -0.0482
 4140W        W 7659   1.768   4.245   4.430 -0.4496 -0.0406  0.1894
 4141W        W 7660   3.656   3.106   0.186  0.0220  0.1174  0.2960
 4142W        W 7661   9.441   6.805   1.238 -0.1933 -0.1385  0.2014
 4143W        W 7662   3.976   4.138   3.135  0.3912  0.0977  0.0897
 4144W        W 7663   8.595   7.362   2.203 -0.0798 -0.2304  0.0031
 4145W        W 7664   0.038   4.924  10.714 -0.0673 -0.3158  0.2101
 4146W        W 7665   0.849   8.666   3.042 -0.0899  0.0681  0.3409
 4147W        W 7666   5.962   8.005  11.172  0.0934  0.0509  0.2093
 4148W        W 7667   9.156   0.376  10.666 -0.2802 -0.0612  0.0845
 4149W        W 7668   4.119   0.476   3.633 -0.2697  0.0450 -0.1775
 4150W        W 7669   2.801   8.904   0.669 -0.0797  0.1148  0.5006
 4151W        W 7670   7.514   8.187  10.333 -0.3092  0.0028 -0.0460
 4152W        W 7671   5.767   1.550   1.157  0.0355  0.0452  0.1793
 4153W        W 7672   9.426   0.367   9.344  0.0890  0.0149  0.1721
 4154W        W 7673   7.956   6.463   9.914  0.1671  0.1526 -0.3667
 4155W        W 7674   8.381   1.643  10.739  0.2469  0.1120 -0.2199
 4156W        W 7675   4.101   3.657   8.919  0.0181 -0.1397 -0.0742
 4157W        W 7676   8.831   5.808  11.301 -0.1341  0.4443  0.2273
 4158W        W 7677   2.150   5.442   3.159  0.0586 -0.3365  0.1984
 4159W        W 7678   7.550   7.854   1.344  0.1790 -0.2376 -0.0120
 4160W        W 7679   0.756   3.440  12.186 -0.3668 -0.0782  0.0234
 4161W        W 7680   7.524   3.799   0.965  0.4716  0.1276 -0.0591
 4162W        W 7681   8.531   5.591   1.655 -0.0275 -0.0248 -0.3086
 4163W        W 7682   7.321   1.843   3.815  0.1075  0.0562  0.2820
 4164W        W 7683   1.508   7.540   9.065 -0.1126 -0.1700  0.1309
 4165W        W 7684   0.878   4.072   9.834 -0.0285 -0.0235 -0.1194
 4166W        W 7685   2.738   3.064   2.506 -0.0428  0.0741 -0.0048
 4167W        W 7686   5.747   5.262  11.466 -0.1811 -0.0027 -0.2675
 4168W        W 7687   5.434   4.902   9.231 -0.1587  0.1912 -0.1523
 4169W        W 7688   1.935   2.118  11.888 -0.0614 -0.2021  0.3813
 4170W        W 7689   9.000   3.793   9.863  0.1005  0.1816  0.2890
 4171W        W 7690   1.580   2.893   9.002  0.2932 -0.0368  0.2143
 4172W        W 7691   8.583   2.450   3.406  0.2919  0.2074  0.1853
 4173W        W 7692   2.054   1.908   0.016  0.0711 -0.1525 -0.0182
 4174W        W 7693   5.231   3.130  10.894  0.2619  0.0722 -0.0380
 4175W        W 7694   0.724   6.469   4.025  0.1042  0.0913  0.0496
 4176W        W 7695   1.841   3.017   3.388  0.0676  0.1795 -0.0169
 4177W        W 7696   5.815   4.722  12.179 -0.2181  0.0468 -0.1179
 4178W        W 7697   9.208   5.065   9.068  0.0490 -0.4319 -0.2796
 4179W        W 7698   6.362   4.740  10.668  0.1023  0.0672 -0.1003
 4180W        W 7699   8.223   7.954   2.320 -0.0351  0.1690 -0.1996
 4181W        W 7700   8.603   8.054  11.672  0.0542  0.1971  0.0928
 4182W        W 7701   5.941   6.007   2.939 -0.1104 -0.0734  0.0472
 4183W        W 7702   1.740   8.388   2.491 -0.2111  0.1442  0.1957
 4184W        W 7703   9.644   6.438  11.073  0.0983  0.0381  0.2098
 4185W        W 7704   8.735   9.485   2.126 -0.1774 -0.1636 -0.3460
 4186W        W 7705   8.897   9.142   0.866  0.0835  0.1334 -0.1882
 4187W        W 7706   5.017   4.442   9.889 -0.0310  0.0120 -0.1896
 4188W        W 7707   9.357   0.902   1.378 -0.1977  0.4051  0.2370
 4189W        W 7708   7.155   9.059  10.009  0.1122 -0.2611  0.2034
 4190W        W 7709   4.126   1.732   9.655 -0.0340  0.0647  0.3171
 4191W        W 7710   4.355   2.579   0.711  0.0296  0.0629  0.0234
 4192W        W 7711   2.244   2.794   2.430 -0.0931 -0.3184 -0.1115
 4193W        W 7712   4.822   4.819   1.108  0.2782 -0.0944  0.2295
 4194W        W 7713   0.977   9.626   1.080 -0.3807  0.2326  0.1182
 4195W        W 7714   8.781   9.440  12.132 -0.0326 -0.2302 -0.0407
 4196W        W 7715   1.225   1.986   9.581 -0.1587 -0.0691  0.0642
 4197W        W 7716   7.733   7.357   1.170 -0.0018  0.1863 -0.0304
 4198W        W 7717   8.212   1.929   3.342  0.2839  0.0769 -0.0620
 4199W        W 7718   2.447   5.998   9.444 -0.2890 -0.1109 -0.1780
 4200W        W 7719   3.053   0.799   1.613  0.0586 -0.1497  0.1382
 4201W        W 7720   4.478   4.813   2.940 -0.2875  0.2781  0.3726
 4202W        W 7721   5.306   3.985   8.700 -0.0326 -0.1529  0.2058
 4203W        W 7722   9.637   4.777  12.186  0.2557 -0.0630  0.1148
 4204W        W 7723   0.037   2.847  10.305 -0.1190  0.1976  0.0280
 4205W        W 7724   6.475   2.930  10.226  0.0139 -0.3057 -0.0520
 4206W        W 7725   0.682   4.927  11.908 -0.0078 -0.0610 -0.0764
 4207W        W 7726   6.989   8.269   9.055  0.2848  0.0110  0.0047
 4208W        W 7727   1.747   9.671   9.925  0.5088  0.0855 -0.1436
 4209W        W 7728   1.285   6.425   0.051  0.1418 -0.0760  0.0505
 4210W        W 7729   7.729   1.882   1.008 -0.4407 -0.0905 -0.0863
 4211W        W 7730   5.202   6.489   0.275  0.1544 -0.0085  0.0975
 4212W        W 7731   4.500   9.759   2.110 -0.3109 -0.5693  0.1284
 4213W        W 7732   6.889   3.478   0.250  0.2214 -0.3311 -0.3415
 4214W        W 7733   9.670   9.616   0.142 -0.0154  0.2291 -0.0988
 4215W        W 7734   3.779   9.229   2.369 -0.0429 -0.1938 -0.1522
 4216W        W 7735   8.907   4.776  10.893 -0.3390 -0.0475 -0.0197
 4217W        W 7736   3.296   7.735  12.282 -0.0889  0.0179 -0.0579
 4218W        W 7737   5.479   4.236  10.031  0.2032  0.1517 -0.0698
 4219W        W 7738   4.531   5.339   3.824  0.0573  0.0910  0.3519
 4220W        W 7739   5.280   1.603   1.434  0.4095  0.0587 -0.0619
 4221W        W 7740   3.622   5.899  10.079 -0.3024  0.3003  0.1503
 4222W        W 7741   1.014   3.728   3.123  0.3783  0.0112 -0.3389
 4223W        W 7742   0.572   0.052   3.395  0.0157  0.1176 -0.0857
 4224W        W 7743   1.090   7.705   2.569 -0.0563 -0.0139 -0.3269
 4225W        W 7744   3.188   2.418   0.842  0.0348  0.0175 -0.0417
 4226W        W 7745   8.841   9.530   2.656  0.3935  0.1750 -0.1289
 4227W        W 7746   4.859   9.721   8.440  0.0577  0.0579 -0.1153
 4228W        W 7747   8.127   3.353  11.461 -0.2160 -0.2533 -0.0316
 4229W        W 7748   1.938   8.778  11.849  0.2236  0.2873 -0.1705
 4230W        W 7749   6.904   3.886  10.916 -0.2502 -0.1633 -0.0047
 4231W        W 7750   9.227   5.808   8.612  0.0814 -0.2934 -0.1306
 4232W        W 7751   7.273   2.645   1.063  0.2591 -0.2711 -0.0906
 4233W        W 7752   0.388   4.464   0.310 -0.0946  0.0831 -0.4098
 4234W        W 7753   4.060   5.231   8.141 -0.3693 -0.4613 -0.0405
 4235W        W 7754   5.636   7.609   0.080 -0.0370 -0.2958 -0.1444
 4236W        W 7755   1.815   4.873  10.463  0.0363 -0.0854  0.2798
 4237W        W 7756   3.287   3.300   2.356  0.0815 -0.0618  0.1923
 4238W        W 7757   8.299   6.590   0.585 -0.0896  0.1268 -0.0588
 4239W        W 7758   0.679   0.171   2.250  0.1006  0.2814 -0.2731
 4240W        W 7759   8.568   7.396   0.458  0.0440  0.3485 -0.1248
 4241W        W 7760   3.656   0.087   1.034 -0.0967 -0.0532  0.2839
 4242W        W 7761   8.680   0.757   0.998 -0.1075 -0.0421  0.2076
 4243W        W 7762   3.649   0.491  12.183  0.0404  0.0751 -0.1217
 4244W        W 7763   5.627   8.427  12.300 -0.1605 -0.1008  0.2278
 4245W        W 7764   6.513   2.618   1.770 -0.2078 -0.1661  0.3214
 4246W        W 7765   8.783   4.606   9.550 -0.2196  0.2290 -0.1675
 4247W        W 7766   1.677   5.637   2.488 -0.0080 -0.1553  0.0331
 4248W        W 7767   6.320   4.861  10.087  0.2445  0.0176  0.0891
 4249W        W 7768   6.232   9.538   3.022 -0.1931 -0.2562 -0.0271
 4250W        W 7769   8.350   4.263  12.077 -0.0654 -0.0139 -0.1779
 4251W        W 7770   1.350   4.833   8.330 -0.1485 -0.0501 -0.1847
 4252W        W 7771   0.854   9.130   8.959 -0.3338  0.0543  0.1479
 4253W        W 7772   3.516   5.964   2.635  0.0537 -0.0806  0.2214
 4254W        W 7773   5.669   6.493   3.111  0.0358  0.1389  0.2093
 4255W        W 7774   6.397   4.008   9.718 -0.1986  0.0230 -0.2966
 4256W        W 7775   7.435   0.852   1.363  0.3640 -0.0819  0.0447
 4257W        W 7776   2.145   0.628  11.162  0.1635  0.3096 -0.1215
 4258W        W 7777   0.708   0.347  10.345 -0.0353  0.0388  0.1447
 4259W        W 7778   4.402   4.990   0.922  0.0130  0.1163  0.1750
 4260W        W 7779   1.029   8.435   0.478 -0.1344  0.3259  0.0358
 4261W        W 7780   5.569   7.017   0.181  0.1163 -0.0647 -0.2234
 4262W        W 7781   3.404   8.700  11.212  0.0712 -0.2366 -0.2705
 4263W        W 7782   9.146   9.439  10.865 -0.1118 -0.3709 -0.1623
 4264W        W 7783   7.489   3.886  11.627 -0.1134 -0.1575  0.3020
 4265W        W 7784   3.139   6.699   1.122 -0.1507  0.0228  0.2006
 4266W        W 7785   0.060   7.268   4.238  0.1135  0.2156 -0.1084
 4267W        W 7786   7.673   9.353  11.111 -0.0673  0.1286  0.3097
 4268W        W 7787   8.591   0.839   2.187  0.0386 -0.1825 -0.2217
 4269W        W 7788   5.390   3.909   4.007  0.1687  0.0442  0.1260
 4270W        W 7789   4.816   4.320   0.887  0.1801 -0.0439 -0.0637
 4271W        W 7790   6.920   7.774   2.559  0.3015 -0.4408 -0.1377
 4272W        W 7791   3.944   2.805   8.777 -0.0312  0.1251  0.0519
 4273W        W 7792   9.040   6.315   8.444  0.2033  0.0850  0.1525
 4274W        W 7793   7.468   6.968   0.338 -0.3749  0.0653 -0.0486
 4275W        W 7794   5.968   9.355   1.808 -0.5152  0.0086 -0.0146
 4276W        W 7795   2.019   6.319  10.122 -0.2726 -0.4345 -0.1060
 4277W        W 7796   0.217   6.197   0.977 -0.0989  0.0306  0.2470
 4278W        W 7797   2.649   1.443   0.921 -0.1257 -0.0759 -0.0840
 4279W        W 7798   2.109   6.417  10.965  0.1786  0.2134  0.0137
 4280W        W 7799   0.983   1.880  10.490 -0.0785 -0.4560 -0.1476
 4281W        W 7800   4.472   1.561  11.032  0.1638 -0.0122 -0.1310
 4282W        W 7801   3.542   8.604   9.777  0.0410 -0.1094  0.0784
 4283W        W 7802   5.353   0.435  12.273 -0.0225  0.1009 -0.0431
 4284W        W 7803   2.377   8.712   3.184  0.3364  0.2591 -0.1692
 4285W        W 7804   7.374   0.026   0.400  0.0954  0.2491  0.2572
 4286W        W 7805   6.413   2.472  12.206  0.0533  0.1390 -0.3567
 4287W        W 7806   8.778   4.207  11.807  0.0345 -0.0640 -0.3416
 4288W        W 7807   1.690   4.336   3.919  0.2049  0.0098  0.2712
 4289W        W 7808   1.510   8.003  11.189 -0.1074 -0.1297 -0.1888
 4290W        W 7809   1.702   1.322   3.565 -0.0963  0.0408 -0.5144
 4291W        W 7810   5.903   6.287  10.063 -0.0136 -0.0220  0.3101
 4292W        W 7811   2.085   1.178   7.731  0.2393 -0.2149 -0.1495
 4293W        W 7812   3.341   0.158   0.227 -0.0336 -0.1515  0.1377
 4294W        W 7813   3.671   2.397   8.550 -0.4991  0.0751 -0.1389
 4295W        W 7814   4.900   7.207  11.027  0.0457 -0.0156  0.2396
 4296W        W 7815   4.679   3.855   1.946  0.4489 -0.2512  0.2102
 4297W        W 7816   5.028   5.981   3.856 -0.1374 -0.0434 -0.0151
 4298W        W 7817   3.373   5.990   2.110  0.2333 -0.2543 -0.2284
 4299W        W 7818   2.473   3.191   8.527  0.2288  0.0551 -0.0083
 4300W        W 7819   9.372   5.846  10.723  0.2770  0.2018  0.2630
 4301W        W 7820   8.246   0.035   2.686 -0.1039 -0.0238 -0.1524
 4302W        W 7821   4.272   1.203  10.350 -0.0179  0.0200  0.3197
 4303W        W 7822   8.139   7.049   0.666  0.1775 -0.0968  0.3872
 4304W        W 7823   7.072   1.205  10.737  0.0191  0.1590 -0.1632
 4305W        W 7824   0.760   1.413  10.241 -0.3625  0.0485 -0.2634
 4306W        W 7825   0.167   6.321   8.429  0.2092 -0.5094 -0.1268
 4307W        W 7826   9.058   5.564   1.660  0.0184 -0.1212  0.0412
 4308W        W 7827   4.870   4.904   3.772  0.1046 -0.1433  0.1253
 4309W        W 7828   9.467   1.404   7.913 -0.0231  0.0741  0.0288
 4310W        W 7829   0.110   2.238  11.938  0.3212 -0.1765 -0.2591
 4311W        W 7830   1.233   3.975   2.715  0.2232  0.2542 -0.2420
 4312W        W 7831   5.273   2.603  11.410 -0.0670  0.2922 -0.1423
 4313W        W 7832   1.383   0.627   9.183 -0.1171  0.2509 -0.0041
 4314W        W 7833   9.402   7.117   0.768 -0.1267  0.0282 -0.4180
 4315W        W 7834   2.740   0.364   3.433 -0.1222 -0.2806  0.1907
 4316W        W 7835   6.304   0.445   3.588 -0.2300 -0.1769 -0.1273
 4317W        W 7836   6.301   9.290   9.925  0.3422 -0.2862 -0.1643
 4318W        W 7837   3.626   4.950   7.937 -0.1540 -0.1635 -0.0499
 4319W        W 7838   9.413   9.037   4.792 -0.3763  0.0898  0.0129
 4320W        W 7839   3.295   0.968  12.134  0.1272  0.0738 -0.1021
 4321W        W 7840   8.405   3.781  11.257 -0.0229 -0.2075  0.1293
 4322W        W 7841   5.053   0.807   3.311 -0.1677 -0.2644  0.1194
 4323W        W 7842   0.575   9.086   2.236  0.2002  0.0452 -0.0363
 4324W        W 7843   0.297   7.462   1.645  0.0860  0.1509 -0.3023
 4325W        W 7844   1.243   9.396   2.361  0.0952  0.0795  0.0412
 4326W        W 7845   1.031   9.676  10.574  0.1713 -0.0216 -0.0543
 4327W        W 7846   8.302   6.805  11.619 -0.0506 -0.0606 -0.0555
 4328W        W 7847   5.673   8.020   1.580 -0.2175  0.3300  0.0755
 4329W        W 7848   1.878   0.550   8.974 -0.3391 -0.0573 -0.1157
 4330W        W 7849   4.154   3.740   2.168  0.1892 -0.1518  0.2329
 4331W        W 7850   0.662   3.696   2.780  0.0133 -0.0289 -0.1198
 4332W        W 7851   9.680   6.365  10.539  0.3306  0.0999 -0.0094
 4333W        W 7852   2.389   6.973  11.785  0.1195 -0.1245  0.1136
 4334W        W 7853   2.083   4.103   1.721 -0.0404  0.4920 -0.2648
 4335W        W 7854   6.455   5.582   3.788  0.5754  0.2322 -0.3686
 4336W        W 7855   2.845   6.232   3.842  0.1179  0.3512 -0.1772
 4337W        W 7856   9.319   7.738   8.735 -0.0282  0.0410 -0.2284
 4338W        W 7857   6.174   3.931   1.567 -0.2178  0.0972  0.0816
 4339W        W 7858   0.442   1.684  10.534  0.1698  0.0880 -0.2338
 4340W        W 7859   9.713   7.310   2.880  0.0025  0.0450 -0.1997
 4341W        W 7860   8.473   2.952  11.435  0.3548  0.1258  0.0425
 4342W        W 7861   8.412   2.126   0.437  0.0152  0.1194  0.1515
 4343W        W 7862   4.372   2.101   1.564 -0.0490 -0.1744 -0.1912
 4344W        W 7863   0.610   6.620   8.755  0.0901  0.2565  0.3974
 4345W        W 7864   4.573   9.091   3.525 -0.2961 -0.1058 -0.0360
 4346W        W 7865   8.695   4.800   9.096  0.4222 -0.0819  0.1872
 4347W        W 7866   4.631   8.845  10.460 -0.1849  0.1895  0.0989
 4348W        W 7867   1.511   8.499   9.427 -0.1033  0.1458  0.0133
 4349W        W 7868   4.074   1.512  10.644  0.1033  0.0447  0.4558
 4350W        W 7869   8.270   2.977   0.184 -0.1210 -0.1561 -0.1765
 4351W        W 7870   9.521   8.851   9.335 -0.1279 -0.2500 -0.1832
 4352W        W 7871   4.943   7.182  10.477  0.0648 -0.1213 -0.0139
 4353W        W 7872   4.064   8.075   0.398 -0.2848 -0.3261 -0.2389
 4354W        W 7873   0.991   2.351   1.988  0.3404 -0.1821  0.1739
 4355W        W 7874   4.672   7.260   3.625  0.1225  0.1881  0.0998
 4356W        W 7875   2.308   6.136   9.030  0.2840  0.0725  0.1985
 4357W        W 7876   0.681   3.436   9.581 -0.0916 -0.0231 -0.0157
 4358W        W 7877   9.695   3.887  10.611  0.1035 -0.0312  0.0008
 4359W        W 7878   0.870   5.640   9.125  0.0466  0.0711  0.1010
 4360W        W 7879   1.899   6.695   1.900 -0.5172 -0.0680  0.0641
 4361W        W 7880   4.112   0.321   9.738  0.1548 -0.1488 -0.2742
 4362W        W 7881   0.711   5.192   3.647  0.1866  0.0264 -0.2105
 4363W        W 7882   0.289   7.428   2.545  0.1756  0.1827 -0.1577
 4364W        W 7883   3.305   8.687   9.316 -0.2596  0.1799  0.2531
 4365W        W 7884   0.621   2.494   3.283  0.1620  0.1487 -0.2551
 4366W        W 7885   5.509   5.609   9.275  0.0856  0.1395 -0.1537
 4367W        W 7886   0.091   4.559  11.362 -0.1027  0.0067  0.0067
 4368W        W 7887   7.942   1.845  10.584 -0.0937 -0.1749 -0.0256
 4369W        W 7888   4.203   8.245  11.425  0.1232 -0.0475  0.0296
 4370W        W 7889   3.515   9.564   4.266 -0.2967  0.1450  0.1028
 4371W        W 7890   6.817   1.449   9.872 -0.4531 -0.1204 -0.2101
 4372W        W 7891   8.830   4.713   2.386 -0.0968 -0.1184  0.0697
 4373W        W 7892   0.025   3.797   9.248 -0.0180  0.0907  0.2668
 4374W        W 7893   3.579   6.155   7.995  0.0967  0.2472 -0.1483
 4375W        W 7894   5.075   0.317   3.416  0.0217  0.0556 -0.2348
 4376W        W 7895   1.538   3.366   2.742  0.0480  0.0934 -0.2092
 4377W        W 7896   8.753   9.005   3.194  0.2532 -0.1239  0.0019
 4378W        W 7897   3.686   4.897  11.903 -0.0403 -0.0398  0.2398
 4379W        W 7898   1.308   8.942   9.196  0.0374 -0.1871 -0.3292
 4380W        W 7899   1.163   8.204   8.997  0.1214 -0.1998  0.0702
 4381W        W 7900   0.624   1.063  11.015  0.0768  0.0742  0.1025
 4382W        W 7901   4.893   9.157   8.537  0.0540 -0.0453  0.1240
 4383W        W 7902   8.343   8.627   1.331 -0.0998 -0.1821 -0.2525
 4384W        W 7903   5.743   0.872   9.972  0.4811 -0.0941 -0.2137
 4385W        W 7904   6.384   6.286  11.072 -0.4035  0.5410  0.1007
 4386W        W 7905   0.067   4.875   0.772  0.1293 -0.1111  0.0320
 4387W        W 7906   8.423   9.316   1.000  0.1255  0.1135  0.1763
 4388W        W 7907   7.439   6.010  11.170 -0.0445  0.0793  0.0908
 4389W        W 7908   1.705   0.860   7.854  0.2218 -0.3043  0.2806
 4390W        W 7909   1.378   4.695   3.226  0.0896 -0.1473  0.0098
 4391W        W 7910   4.488   8.103   3.251 -0.0390  0.1555 -0.1261
 4392W        W 7911   4.956   4.913   0.009  0.1301 -0.2367  0.1222
 4393W        W 7912   1.504   2.821   2.037  0.0271  0.1796 -0.2728
 4394W        W 7913   0.219   0.509  10.307 -0.1232  0.2954 -0.0188
 4395W        W 7914   8.288   4.990   9.329  0.0040  0.1560 -0.0619
 4396W        W 7915   4.138   7.540  10.445  0.1955  0.0699  0.2441
 4397W        W 7916   6.225   5.467  10.220  0.2047  0.0462  0.0113
 4398W        W 7917   9.776   6.067  11.416 -0.0253 -0.1643  0.0365
 4399W        W 7918   2.581   1.426  12.040  0.0328  0.2112  0.1269
 4400W        W 7919   1.278   9.083  11.512  0.0794  0.2106  0.1201
 4401W        W 7920   9.196   0.116   0.986  0.1482 -0.0928 -0.0788
 4402W        W 7921   5.286   5.023   0.900  0.4049 -0.0941  0.1228
 4403W        W 7922   6.871   7.666   0.805  0.3077 -0.0555  0.1096
 4404W        W 7923   3.849   6.779   2.057  0.0301 -0.0160  0.2840
 4405W        W 7924   4.344   6.104   3.080  0.1499  0.1184  0.0223
 4406W        W 7925   8.137   0.389   2.215  0.4238 -0.0587 -0.0481
 4407W        W 7926   9.183   3.725   1.189 -0.1920  0.1047  0.3412
 4408W        W 7927   6.098   7.391  11.743 -0.0001  0.0815 -0.2866
 4409W        W 7928   7.573   6.170   4.504 -0.3736  0.2705  0.2430
 4410W        W 7929   9.265   0.749   9.926 -0.0305 -0.0554  0.0745
 4411W        W 7930   6.808   1.161   8.766 -0.7509  0.0946  0.1536
 4412W        W 7931   4.702   6.920  10.031 -0.0065  0.0067 -0.2127
 4413W        W 7932   0.694   8.985   7.847  0.1315  0.3729  0.2503
 4414W        W 7933   1.290   6.056  10.631 -0.0220 -0.2180 -0.0971
 4415W        W 7934   7.821   7.887   0.148  0.0067  0.2444  0.1398
 4416W        W 7935   7.097   7.274   0.506 -0.1212 -0.1881  0.0512
 4417W        W 7936   9.358   5.345   1.228  0.2458 -0.5017 -0.0872
 4418W        W 7937   3.471   7.096   3.199 -0.2392 -0.1391  0.0619
 4419W        W 7938   2.980   3.206   5.179  0.3323 -0.2046  0.0546
 4420W        W 7939   3.578   3.474   3.498 -0.1021 -0.2912  0.0246
 4421W        W 7940   1.557   5.615  10.589  0.0449 -0.1353 -0.1032
 4422W        W 7941   3.520   5.598  12.179  0.1987 -0.0340 -0.0396
 4423W        W 7942   5.170   6.674  11.683  0.1056 -0.0691  0.1054
 4424W        W 7943   4.626   0.659  11.980 -0.1207 -0.2011 -0.2294
 4425W        W 7944   7.717   8.744   1.806 -0.0614  0.0142  0.0499
 4426W        W 7945   6.904   9.631   8.275  0.0483 -0.1063 -0.2901
 4427W        W 7946   0.633   1.938   3.285  0.4019 -0.0392  0.1376
 4428W        W 7947   5.307   2.153   1.746  0.4842  0.1944  0.0571
 4429W        W 7948   0.414   5.405   9.654 -0.1679  0.0144 -0.1402
 4430W        W 7949   2.584   3.621   3.242 -0.0994 -0.3836  0.0789
 4431W        W 7950   4.043   7.895   8.289  0.0409  0.0598  0.0352
 4432W        W 7951   7.403   7.268   9.905 -0.1600 -0.2570 -0.0509
 4433W        W 7952   6.013   8.265   2.849  0.2115 -0.2271 -0.0575
 4434W        W 7953   3.629   2.826   3.104 -0.1438  0.2183  0.2514
 4435W        W 7954   3.654   3.199   2.697 -0.0054 -0.3937  0.1413
 4436W        W 7955   6.767   4.867   9.929  0.0901  0.0119 -0.2879
 4437W        W 7956   8.614   3.615   3.422  0.0935 -0.0758 -0.1653
 4438W        W 7957   0.242   7.942   9.003 -0.1166 -0.3229 -0.1469
 4439W        W 7958   9.043   4.750   1.329 -0.0859  0.0666  0.1007
 4440W        W 7959   9.578   7.621   0.895 -0.3269  0.1838 -0.0007
 4441W        W 7960   0.914   4.664   3.769 -0.0580  0.2129  0.0368
 4442W        W 7961   1.469   8.260   1.683  0.1587 -0.0411 -0.0865
 4443W        W 7962   2.502   7.977   2.701 -0.4390  0.0597  0.1011
 4444W        W 7963   1.433   3.994   9.849 -0.1185  0.1170 -0.0330
 4445W        W 7964   9.382   5.125   9.934  0.0449  0.1827  0.2396
 4446W        W 7965   5.762   0.199   3.079  0.1457  0.0256 -0.2637
 4447W        W 7966   7.496   9.656  10.673  0.1424 -0.2633  0.1905
 4448W        W 7967   6.884   0.607   9.589  0.0614 -0.1013 -0.3699
 4449W        W 7968   9.686   3.891   8.095  0.0576  0.0917 -0.4268
 4450W        W 7969   8.431   9.399  10.262  0.2694  0.0015 -0.2400
 4451W        W 7970   4.595   2.963   1.461  0.0545 -0.0614 -0.0611
 4452W        W 7971   0.232   2.283   3.611  0.4275  0.1578 -0.2170
 4453W        W 7972   3.305   3.264   3.835 -0.0618 -0.2899 -0.3584
 4454W        W 7973   1.662   6.369  12.125 -0.2392  0.2291  0.1743
 4455W        W 7974   3.554   0.770   2.384  0.1632  0.0677  0.0180
 4456W        W 7975   8.515   5.424  10.354  0.0038  0.3101  0.4561
 4457W        W 7976   4.598   0.253  11.257 -0.0388  0.1036  0.1114
 4458W        W 7977   0.062   9.759   9.565  0.0612  0.1566 -0.2574
 4459W        W 7978   4.916   7.391   1.983  0.3218  0.2416 -0.0402
 4460W        W 7979   9.443   3.525   0.726 -0.3418  0.2051 -0.0784
 4461W        W 7980   4.026   1.465   3.259 -0.0901  0.2576 -0.4704
 4462W        W 7981   2.369   0.744   0.550 -0.0540  0.0448 -0.0503
 4463W        W 7982   6.070   3.549   9.825 -0.1596  0.0243  0.1290
 4464W        W 7983   2.037   3.613   2.464 -0.3372 -0.0551  0.1091
 4465W        W 7984   6.783   8.840   0.339 -0.0399 -0.1183  0.1723
 4466W        W 7985   8.994   4.010  11.281 -0.0032 -0.1652  0.0662
 4467W        W 7986   1.683   1.856   3.466  0.3709 -0.1542 -0.0795
 4468W        W 7987   5.791   5.518   8.870  0.0632 -0.3264  0.0886
 4469W        W 7988   5.123   1.612   9.607 -0.1247 -0.0047  0.2403
 4470W        W 7989   1.414   7.402  11.005 -0.0506 -0.0734 -0.0312
 4471W        W 7990   0.888   1.675   1.385 -0.2765 -0.0228 -0.0716
 4472W        W 7991   7.715   8.812   3.252 -0.1686 -0.1477 -0.0707
 4473W        W 7992   8.254   1.434   7.846  0.1826  0.1542 -0.1042
 4474W        W 7993   4.513   0.148  10.666 -0.1517  0.1490 -0.0132
 4475W        W 7994   3.611   3.281   4.511 -0.1776 -0.1895  0.2350
 4476W        W 7995   7.283   3.422  11.745  0.0824  0.3275 -0.2025
 4477W        W 7996   1.795   9.422  10.707 -0.0462 -0.0038  0.0564
 4478W        W 7997   9.687   7.483   3.365  0.0904 -0.1162  0.0391
 4479W        W 7998   2.884   8.018   8.137  0.1122  0.2121 -0.1607
 4480W        W 7999   3.735   5.065   9.742 -0.0730 -0.1511 -0.2284
 4481W        W 8000   1.946   8.137   9.764  0.2751 -0.0283 -0.5214
 4482W        W 8001   0.044   3.060   1.621  0.1127  0.0179 -0.0678
 4483W        W 8002   6.921   8.998  11.843 -0.2556 -0.0084  0.2296
 4484W        W 8003   4.539   7.198   8.758 -0.0412  0.2773  0.1957
 4485W        W 8004   8.012   4.582  10.169  0.1034  0.2735 -0.2448
 4486W        W 8005   9.280   7.769   1.385  0.3460  0.0472 -0.0359
 4487W        W 8006   6.681   7.089   3.125  0.1021 -0.0259  0.2819
 4488W        W 8007   7.126   3.381   2.441  0.2545  0.2650  0.2825
 4489W        W 8008   4.694   6.479   1.720  0.3178 -0.0336 -0.0528
 4490W        W 8009   3.385   5.072   1.874 -0.1851  0.0484 -0.1688
 4491W        W 8010   9.596   0.534   0.613 -0.0355  0.3140 -0.1201
 4492W        W 8011   5.978   4.938  10.998  0.2010 -0.1173 -0.0920
 4493W        W 8012   1.444   6.394   3.606 -0.1321  0.0288  0.0965
 4494W        W 8013   2.949   0.506   7.618  0.4208  0.0562  0.0485
 4495W        W 8014   0.096   6.291  11.849  0.0168  0.1838  0.0753
 4496W        W 8015   0.512   2.569   0.730 -0.3774 -0.1072  0.3080
 4497W        W 8016   4.375   2.566   1.829 -0.0377  0.2387  0.2538
 4498W        W 8017   7.997   3.936   1.252 -0.1557 -0.3012 -0.1841
 4499W        W 8018   1.390   2.252   3.808  0.0821  0.0387  0.0286
 4500W        W 8019   1.459   8.393   0.716  0.0390 -0.1963  0.2222
 4501W        W 8020   5.712   7.907   2.630  0.0645 -0.0446  0.4358
 4502W        W 8021   5.015   3.024   4.270 -0.2136 -0.1549  0.1507
 4503W        W 8022   1.438   6.367   1.640 -0.2425 -0.0195 -0.1683
 4504W        W 8023   4.838   9.614   3.439 -0.0023  0.0351 -0.0344
 4505W        W 8024   1.779   9.683   3.151  0.3009 -0.1478 -0.1092
 4506W        W 8025   8.360   8.967  11.412 -0.0878 -0.1658  0.1158
 4507W        W 8026   0.028   0.682   2.121  0.1221  0.1780  0.1821
 4508W        W 8027   5.512   2.523   1.347 -0.1169 -0.3031 -0.0963
 4509W        W 8028   0.957   1.778   8.545 -0.1909  0.0449 -0.0607
 4510W        W 8029   2.016   3.663   9.207  0.0651 -0.1770 -0.1438
 4511W        W 8030   0.791   6.140   0.174  0.0013 -0.0062  0.0219
 4512W        W 8031   2.679   3.720   1.144  0.1375  0.1297  0.0696
 4513W        W 8032   2.223   2.287  11.156  0.0475  0.0194  0.0136
 4514W        W 8033   2.196   5.044   2.855 -0.4693  0.0902  0.1919
 4515W        W 8034   8.047   2.592   8.815  0.0135  0.0091  0.0928
 4516W        W 8035   8.539   8.407  11.261  0.1917  0.2193  0.2117
 4517W        W 8036   9.038   7.521   3.897 -0.1514  0.1626 -0.0182
 4518W        W 8037   8.116   5.602   8.675 -0.0563  0.1389  0.1266
 4519W        W 8038   3.376   4.732   1.544  0.1184 -0.1091  0.0708
 4520W        W 8039   9.740   2.086   2.765  0.2988 -0.4616  0.0779
 4521W        W 8040   5.503   6.835  10.160  0.2194 -0.0080 -0.2772
 4522W        W 8041   3.339   7.991   3.248 -0.1905  0.0692 -0.0664
 4523W        W 8042   4.225   7.996   1.265  0.0914 -0.0866  0.2677
 4524W        W 8043   0.289   4.101  11.076  0.0551  0.0180 -0.2089
 4525W        W 8044   9.463   0.026  12.018  0.2123 -0.1841  0.1039
 4526W        W 8045   3.278   6.345   0.238  0.0391 -0.0177  0.1412
 4527W        W 8046   5.261   2.642   9.608 -0.2428 -0.2886 -0.3666
 4528W        W 8047   8.555   4.556  10.083  0.1499 -0.2419  0.1851
 4529W        W 8048   3.487   5.328  11.345  0.2113 -0.0114  0.0316
 4530W        W 8049   1.930   3.884  10.090  0.1885 -0.1248  0.0516
 4531W        W 8050   0.138   4.465  10.548  0.0860 -0.2575  0.2513
 4532W        W 8051   8.688   0.550   7.977  0.2799  0.1542 -0.1474
 4533W        W 8052   5.230   2.621   1.879  0.2198  0.0477  0.3645
 4534W        W 8053   5.226   8.335   4.011  0.3827  0.4818  0.1695
 4535W        W 8054   4.088   9.151   3.496 -0.3870  0.0494 -0.0943
 4536W        W 8055   7.215   4.148  11.250 -0.2835 -0.1800 -0.1031
 4537W        W 8056   5.657   4.039   3.221  0.0224  0.5834 -0.2464
 4538W        W 8057   3.614   4.563   9.590 -0.1641 -0.5772  0.2271
 4539W        W 8058   2.893   4.792   2.653 -0.1456  0.1857  0.1222
 4540W        W 8059   6.239   9.397   1.402 -0.1094  0.1826 -0.2864
 4541W        W 8060   7.007   5.768  11.214  0.2340  0.1953  0.1777
 4542W        W 8061   9.376   2.848   1.839  0.1364  0.3201  0.1666
 4543W        W 8062   6.939   1.549   3.617  0.0175 -0.3867  0.2051
 4544W        W 8063   8.966   4.494   3.737 -0.1021  0.3312 -0.0761
 4545W        W 8064   9.202   2.921  12.271 -0.0920 -0.0209 -0.0715
 4546W        W 8065   1.581   2.904   1.268  0.1553 -0.1682 -0.0653
 4547W        W 8066   9.459   3.937   0.430 -0.2152 -0.2068 -0.1253
 4548W        W 8067   2.330   5.457  11.113 -0.2365 -0.1466  0.1106
 4549W        W 8068   0.786   4.577   8.960  0.2127  0.0099 -0.1441
 4550W        W 8069   7.196   5.652   9.702 -0.0082 -0.1221 -0.1647
 4551W        W 8070   5.048   9.134   3.406  0.2002 -0.5341 -0.0578
 4552W        W 8071   8.673   7.408   3.103 -0.0329 -0.5022 -0.0186
 4553W        W 8072   5.326   8.625   1.749  0.0864  0.1090  0.0993
 4554W        W 8073   0.574   2.830   2.871 -0.0967  0.2500  0.2633
 4555W        W 8074   6.480   9.276  11.004 -0.0855  0.2175  0.0800
 4556W        W 8075   6.058   3.273   0.092  0.0786 -0.0982  0.3548
 4557W        W 8076   3.460   3.401  12.071 -0.1153 -0.1693 -0.1853
 4558W        W 8077   0.599   4.532   2.647  0.0377 -0.0745  0.2803
 4559W        W 8078   5.532   2.856   3.167  0.2266 -0.0260 -0.1226
 4560W        W 8079   9.296   8.599   8.381  0.1311 -0.0892 -0.2145
 4561W        W 8080   2.256   4.531   2.768 -0.3178 -0.2580  0.3931
 4562W        W 8081   7.573   4.746   2.811 -0.1238 -0.4592 -0.2636
 4563W        W 8082   2.031   8.273  12.303 -0.1118 -0.0486  0.0962
 4564W        W 8083   3.862   5.543  10.490 -0.0806  0.2186 -0.3020
 4565W        W 8084   4.205   9.558  11.040 -0.3300 -0.1192 -0.3005
 4566W        W 8085   8.371   7.641   0.119  0.0518 -0.0897 -0.0940
 4567W        W 8086   1.430   0.329  11.745 -0.1930 -0.3183 -0.1256
 4568W        W 8087   1.731   0.226  11.257 -0.0573 -0.0802 -0.0888
 4569W        W 8088   2.552   1.774  11.626  0.2700  0.0135  0.2467
 4570W        W 8089   4.852   6.716   0.977 -0.1900 -0.3283  0.0458
 4571W        W 8090   0.214   4.921   1.225 -0.0539 -0.3164 -0.2463
 4572W        W 8091   1.153   3.161  10.991  0.0164 -0.1490 -0.3126
 4573W        W 8092   4.946   1.573  10.093  0.0572 -0.0366 -0.1098
 4574W        W 8093   0.077   1.642   4.379 -0.1321  0.0512 -0.0558
 4575W        W 8094   6.670   2.518   9.858 -0.0954  0.0435 -0.0216
 4576W        W 8095   6.197   4.980   1.159  0.1653 -0.0654 -0.0445
 4577W        W 8096   8.181   0.917   3.323 -0.0975  0.3311 -0.0731
 4578W        W 8097   0.562   3.812   1.016  0.1906 -0.1199 -0.1015
 4579W        W 8098   7.124   3.707  11.392 -0.1025 -0.0421  0.0753
 4580W        W 8099   2.608   2.139   9.794  0.3702  0.0684  0.0724
 4581W        W 8100   2.144   8.936   1.283  0.0641  0.0968  0.0975
 4582W        W 8101   3.596   7.379   4.605  0.1112 -0.2432  0.1018
 4583W        W 8102   8.172   4.798   1.528  0.0243 -0.0760  0.2331
 4584W        W 8103   7.232   7.528   8.793  0.1458 -0.1303 -0.0344
 4585W        W 8104   8.326   0.872   9.397 -0.2970 -0.2649  0.0369
 4586W        W 8105   8.634   2.149  12.208 -0.0041 -0.0717  0.2096
 4587W        W 8106   3.558   4.282   1.475 -0.0599  0.0062 -0.1790
 4588W        W 8107   7.593   1.105  11.860 -0.0573 -0.0939  0.3615
 4589W        W 8108   6.653   2.056  11.413  0.0062 -0.2960  0.0512
 4590W        W 8109   2.375   1.617  10.292 -0.1885 -0.0521 -0.2441
 4591W        W 8110   9.009   0.872   1.804  0.2946  0.1919  0.3999
 4592W        W 8111   0.252   9.143  10.703  0.3138  0.1631 -0.1733
 4593W        W 8112   5.377   5.882   7.545 -0.1310 -0.2459 -0.0294
 4594W        W 8113   0.301   7.799   1.318  0.0718 -0.1535 -0.0323
 4595W        W 8114   1.109   8.706  10.553 -0.0038 -0.1013  0.3167
 4596W        W 8115   4.207   5.183   2.995  0.0304 -0.4710  0.0512
 4597W        W 8116   1.214   7.004   0.757  0.1871 -0.0262 -0.1612
 4598W        W 8117   0.061   0.968   3.688 -0.0383  0.1634  0.0521
 4599W        W 8118   8.753   0.232   0.243 -0.3701  0.1510 -0.0292
 4600W        W 8119   4.783   4.134   8.492 -0.0387  0.0271 -0.0589
 4601W        W 8120   0.563   2.673  10.392 -0.0627  0.4311  0.0667
 4602W        W 8121   6.872   6.968  10.585  0.0326  0.2238  0.1028
 4603W        W 8122   5.630   1.972   2.616  0.0290  0.0052  0.1582
 4604W        W 8123   8.516   2.479  11.840 -0.1996  0.3625  0.2546
 4605W        W 8124   7.152   7.303  11.479 -0.1395 -0.0779  0.0966
 4606W        W 8125   6.458   1.327   3.309  0.0755 -0.1919  0.4495
 4607W        W 8126   1.215   3.147  11.489 -0.2128  0.1792  0.0821
 4608W        W 8127   0.040   3.589  10.209  0.1143 -0.0181 -0.1040
 4609W        W 8128   4.676   8.833   3.968  0.4694  0.1318 -0.0385
 4610W        W 8129   7.232   9.748   3.023  0.0952  0.0695  0.0622
 4611W        W 8130   1.119   5.082   4.067 -0.0748 -0.0803  0.1419
 4612W        W 8131   6.047   8.528   3.374  0.0820  0.0625 -0.0830
 4613W        W 8132   0.512   7.914  11.802  0.1555  0.1867 -0.0732
 4614W        W 8133   3.215   3.765   2.125  0.1432 -0.0249 -0.0362
 4615W        W 8134   6.385   7.338   0.989 -0.0131 -0.0081  0.1878
 4616W        W 8135   8.770   5.794   3.679 -0.5583 -0.2047 -0.0052
 4617W        W 8136   8.262   5.678   2.587 -0.1540  0.1232 -0.3057
 4618W        W 8137   7.958   1.342   8.295  0.5130 -0.0068 -0.2351
 4619W        W 8138   1.908   2.371   2.089  0.1168 -0.0107 -0.1243
 4620W        W 8139   5.474   1.929   1.036  0.1565 -0.0672  0.0377
 4621W        W 8140   8.302   6.646  11.094  0.5916  0.1441 -0.0989
 4622W        W 8141   0.441   2.205  10.603  0.3498  0.2093 -0.0849
 4623W        W 8142   6.081   6.731  10.845  0.2547 -0.2572 -0.0884
 4624W        W 8143   0.026   6.822  11.927  0.4218  0.0644 -0.2463
 4625W        W 8144   3.492   8.463   1.319 -0.0145 -0.0111  0.1838
 4626W        W 8145   3.622   3.556   9.861 -0.1463 -0.1114 -0.0473
 4627W        W 8146   0.725   9.708   0.614 -0.2471  0.1576  0.0316
 4628W        W 8147   0.057   0.888  10.565 -0.1437 -0.2024  0.3283
 4629W        W 8148   7.755   5.430   9.640  0.2066 -0.0514 -0.3491
 4630W        W 8149   8.046   6.073   8.740 -0.4159  0.0868  0.0981
 4631W        W 8150   2.963   4.565  11.303  0.0259  0.0503  0.1995
 4632W        W 8151   7.947   7.605   2.632 -0.1438  0.2071  0.3152
 4633W        W 8152   7.729   2.961  11.518  0.3329 -0.0234 -0.2556
 4634W        W 8153   6.363   5.891   9.809  0.3937 -0.0067 -0.0037
 4635W        W 8154   9.281   3.299   1.922 -0.1662 -0.1050  0.1854
 4636W        W 8155   3.475   2.892   4.104  0.1255  0.0711  0.1144
 4637W        W 8156   0.855   8.542   2.436 -0.1647 -0.0624  0.0776
 4638W        W 8157   3.330   4.768   3.573  0.1358 -0.2892 -0.3816
 4639W        W 8158   7.409   1.474  12.248  0.0804 -0.2843  0.2073
 4640W        W 8159   2.787   7.109  10.855  0.2321  0.0216 -0.2420
 4641W        W 8160   2.901   0.634   2.983  0.1680 -0.1011  0.1079
 4642W        W 8161   8.600   4.002   0.036 -0.0622  0.2739  0.2471
 4643W        W 8162   6.558   3.188   3.051 -0.1193  0.0869  0.2659
 4644W        W 8163   3.855   1.068   1.100  0.0374 -0.1503 -0.2915
 4645W        W 8164   7.937   5.280   3.488  0.2459 -0.2731  0.0736
 4646W        W 8165   7.087   1.289  11.785  0.1586 -0.1625  0.1492
 4647W        W 8166   8.375   8.486  11.715  0.1306 -0.0980  0.1246
 4648W        W 8167   5.394   7.867  11.254 -0.2180  0.1487 -0.2973
 4649W        W 8168   7.936   4.793   4.201  0.1058  0.0131 -0.0194
 4650W        W 8169   7.881   2.422   1.842  0.2132 -0.0959  0.1135
 4651W        W 8170   3.793   6.396  10.172 -0.4404 -0.1721 -0.0154
 4652W        W 8171   8.668   3.810   2.927 -0.1204 -0.0182  0.1212
 4653W        W 8172   5.398   7.311  11.183  0.0547 -0.0923 -0.0914
 4654W        W 8173   9.757   5.911   0.543 -0.1874 -0.1966 -0.0269
 4655W        W 8174   6.919   6.297   4.282  0.2677  0.0592 -0.2479
 4656W        W 8175   0.042   5.700   2.855  0.1563  0.0995  0.0065
 4657W        W 8176   7.976   0.039  10.568  0.1221 -0.1651  0.2828
 4658W        W 8177   5.469   2.451  10.274 -0.0619  0.2054  0.0708
 4659W        W 8178   7.871   6.805   1.705  0.0022 -0.0566  0.1041
 4660W        W 8179   0.344   4.142  11.738 -0.1301 -0.3079  0.0452
 4661W        W 8180   2.308   1.151   2.853  0.0318  0.1836  0.0205
 4662W        W 8181   1.093   2.826   8.804 -0.1184 -0.1923  0.1149
 4663W        W 8182   7.359   3.406   0.100 -0.0653  0.1487 -0.1988
 4664W        W 8183   8.558   0.410   9.032 -0.2816 -0.1599 -0.4736
 4665W        W 8184   6.086   7.504   2.609  0.0396  0.0865 -0.1925
 4666W        W 8185   6.359   5.490   2.329  0.2298  0.0410  0.0504
 4667W        W 8186   4.010   4.268  12.035 -0.0830  0.1907  0.0775
 4668W        W 8187   5.323   9.555  10.826  0.2252 -0.0420  0.0593
 4669W        W 8188   3.745   1.729   1.642  0.0173  0.0050 -0.0389
 4670W        W 8189   3.341   3.531  10.747  0.2583 -0.0325 -0.0695
 4671W        W 8190   6.791   3.020   9.133  0.3499 -0.1850  0.1510
 4672W        W 8191   1.837   5.313  10.199 -0.1379 -0.0847  0.0160
 4673W        W 8192   5.379   1.653  10.377 -0.2437  0.2933 -0.0523
 4674W        W 8193   1.480   3.036   8.417  0.0350  0.3606  0.0826
 4675W        W 8194   9.094   5.793   0.958 -0.0832  0.2528 -0.0558
 4676W        W 8195   3.518   8.761   2.404  0.0841 -0.1205  0.0416
 4677W        W 8196   2.050   7.350   1.371  0.0669  0.0688 -0.0824
 4678W        W 8197   7.734   9.763   0.027  0.1913 -0.2643 -0.0268
 4679W        W 8198   2.895   6.682   0.256  0.2710  0.1990 -0.0978
 4680W        W 8199   0.960   3.512  11.703 -0.1282  0.0080  0.0273
 4681W        W 8200   8.421   1.817   2.849  0.0326 -0.0805 -0.0048
 4682W        W 8201   6.685   4.184   2.704 -0.2100 -0.2347 -0.0408
 4683W        W 8202   8.182   8.088  12.199  0.1576 -0.1414 -0.1222
 4684W        W 8203   7.967   2.574   4.285  0.2515 -0.3880  0.2341
 4685W        W 8204   9.544   7.469  10.844 -0.0057  0.1020  0.2354
 4686W        W 8205   9.645   3.596   1.667 -0.0319  0.0279 -0.3564
 4687W        W 8206   2.571   5.775   2.274 -0.1456 -0.1762 -0.0615
 4688W        W 8207   0.166   2.652   2.680  0.2096  0.4354 -0.0849
 4689W        W 8208   9.607   7.236  10.391  0.0867  0.1057 -0.2717
 4690W        W 8209   8.348   8.330   1.881 -0.1835 -0.0795 -0.1100
 4691W        W 8210   4.642   3.270  11.782  0.0200 -0.1027 -0.2270
 4692W        W 8211   0.175   4.414   8.630  0.2313  0.1119 -0.0922
 4693W        W 8212   5.901   8.940   8.626 -0.0361 -0.3160 -0.0698
 4694W        W 8213   5.200   7.378   0.416 -0.2063 -0.0479  0.0619
 4695W        W 8214   4.111   3.710  10.099 -0.1781  0.3789  0.3410
 4696W        W 8215   4.370   0.378   1.725  0.1030  0.2164 -0.2401
 4697W        W 8216   8.509   6.947   0.230  0.0639  0.0041 -0.0319
 4698W        W 8217   7.135   4.038   1.192  0.0318  0.2084 -0.0019
 4699W        W 8218   4.385   7.734   3.650 -0.0754  0.1736 -0.1701
 4700W        W 8219   8.925   1.748   8.335  0.1471  0.0751 -0.0962
 4701W        W 8220   0.486   4.385   9.677 -0.0925 -0.2003  0.0484
 4702W        W 8221   7.339   1.781   1.734  0.0404  0.1092 -0.0327
 4703W        W 8222   8.612   3.158  11.046 -0.0816  0.1174 -0.0441
 4704W        W 8223   6.650   7.526   8.966 -0.1592  0.0730 -0.2039
 4705W        W 8224   7.964   5.049   2.345 -0.1232 -0.1027 -0.1800
 4706W        W 8225   6.343   7.405   4.377 -0.0614 -0.0629  0.1033
 4707W        W 8226   9.022   6.146   8.926  0.3742  0.1372 -0.1632
 4708W        W 8227   7.993   1.599  11.438 -0.1975 -0.3482  0.1025
 4709W        W 8228   2.457   9.112  10.533 -0.0753  0.1082  0.1792
 4710W        W 8229   6.165   7.124   2.289 -0.1052  0.1868  0.3732
 4711W        W 8230   2.581   8.003  10.536 -0.0852 -0.2026  0.2483
 4712W        W 8231   0.985   8.993   2.669 -0.0258  0.2378 -0.1929
 4713W        W 8232   6.277   0.388   9.383 -0.0478 -0.0424  0.2114
 4714W        W 8233   9.507   2.168   1.378  0.1617 -0.6286 -0.1419
 4715W        W 8234   0.470   4.849   9.901  0.0353  0.2168 -0.4802
 4716W        W 8235   7.891   2.977   3.452 -0.3320  0.0588  0.0904
 4717W        W 8236   4.803   9.339   0.700  0.1144 -0.0566 -0.0726
 4718W        W 8237   7.403   6.751   2.196  0.0531 -0.1761  0.1125
 4719W        W 8238   7.696   8.265  12.151  0.1203 -0.0639  0.0162
 4720W        W 8239   9.761   2.180  11.399  0.0815  0.0354 -0.0442
 4721W        W 8240   0.748   7.140   3.416  0.0272  0.0093 -0.0154
 4722W        W 8241   9.204   7.329   3.352  0.0857  0.1070 -0.2569
 4723W        W 8242   2.885   8.283   3.795  0.1765 -0.0350 -0.1766
 4724W        W 8243   0.570   4.230   4.477 -0.1765  0.2446  0.2369
 4725W        W 8244   0.729   7.255  10.982 -0.2382 -0.2035 -0.0342
 4726W        W 8245   7.115   0.455  11.885 -0.1176 -0.2493 -0.0629
 4727W        W 8246   6.542   8.112  10.702 -0.0047  0.0734 -0.1346
 4728W        W 8247   8.762   2.621   2.345 -0.2944  0.1405  0.3040
 4729W        W 8248   9.030   6.197   4.155  0.0876  0.2077 -0.0860
 4730W        W 8249   2.779   9.390   1.989  0.2303  0.0439 -0.1084
 4731W        W 8250   4.184   6.872   4.297  0.0252 -0.2251  0.2514
 4732W        W 8251   6.271   0.935  10.067  0.0946  0.1237 -0.1516
 4733W        W 8252   5.982   3.375   1.438 -0.2357  0.1717 -0.2269
 4734W        W 8253   5.021   2.133   1.274 -0.0626 -0.3120 -0.1014
 4735W        W 8254   8.529   8.263  10.458 -0.0542 -0.1180  0.2884
 4736W        W 8255   3.356   5.484  10.874 -0.2828  0.2144  0.0328
 4737W        W 8256   1.155   7.794   4.070  0.0318  0.4740  0.1421
 4738W        W 8257   2.620   7.420   2.052  0.1134 -0.0573  0.1392
 4739W        W 8258   2.522   3.038  10.792 -0.0017  0.0728  0.0752
 4740W        W 8259   6.628   1.903  12.305  0.0257 -0.3122  0.1703
 4741W        W 8260   1.597   6.674   3.206  0.0482  0.1163  0.1374
 4742W        W 8261   0.207   2.245   0.448  0.0579  0.2239  0.0241
 4743W        W 8262   6.459   7.070  11.556 -0.1733 -0.0679 -0.1131
 4744W        W 8263   2.480   5.628   0.596 -0.0499  0.1791  0.0123
 4745W        W 8264   5.184   7.290   0.988 -0.3541 -0.0712 -0.1767
 4746W        W 8265   8.887   1.118   1.318 -0.0249  0.2907  0.0155
 4747W        W 8266   6.732   2.683  10.708  0.0257 -0.0665  0.1203
 4748W        W 8267   0.852   9.392   3.601 -0.0032 -0.4541  0.1122
 4749W        W 8268   3.348   5.457   0.942  0.2666  0.3375 -0.0355
 4750W        W 8269   6.544   3.514   9.977 -0.3764 -0.0868  0.0733
 4751W        W 8270   3.191   3.076   0.001  0.2014 -0.1789 -0.1261
 4752W        W 8271   8.886   7.139   2.604  0.1905 -0.2352 -0.0751
 4753W        W 8272   1.880   9.678  11.693 -0.0923 -0.1239  0.3740
 4754W        W 8273   4.763   1.537   3.773  0.0037 -0.0558 -0.0967
 4755W        W 8274   0.518   8.408   1.808  0.3405 -0.1144 -0.1076
 4756W        W 8275   8.540   3.042   2.180 -0.1306 -0.2414  0.4010
 4757W        W 8276   9.537   4.336   8.300  0.0066  0.3953  0.0349
 4758W        W 8277   1.372   3.258   3.207  0.1802  0.1278 -0.0936
 4759W        W 8278   6.586   6.786   3.599 -0.0733  0.0286  0.1873
 4760W        W 8279   2.203   1.299   4.422  0.1772 -0.0468  0.2824
 4761W        W 8280   7.375   6.742  10.667  0.2384  0.0359  0.2002
 4762W        W 8281   7.579   0.242   9.344 -0.2121  0.2958  0.0693
 4763W        W 8282   0.731   8.103  10.451  0.1353  0.2981  0.0648
 4764W        W 8283   6.045   0.147   2.003  0.1009 -0.1580  0.3479
 4765W        W 8284   0.024   9.745  10.044  0.0247  0.0315 -0.2235
 4766W        W 8285   2.688   1.201   3.802 -0.0655 -0.1050 -0.0038
 4767W        W 8286   5.527   9.774   9.578  0.1117 -0.2320  0.2303
 4768W        W 8287   4.423   0.651  10.964 -0.4653 -0.1777 -0.1040
 4769W        W 8288   8.623   2.502   2.923 -0.0155 -0.0359 -0.1810
 4770W        W 8289   3.521   6.586   0.817  0.1933 -0.0649 -0.0278
 4771W        W 8290   9.450   1.113  10.341 -0.2143 -0.1173  0.0727
 4772W        W 8291   3.706   4.208   2.710 -0.0516 -0.0368 -0.0878
 4773W        W 8292   8.094   6.074  10.202  0.0194  0.0926  0.0694
 4774W        W 8293   4.006   5.597   1.557 -0.1112 -0.3107 -0.3816
 4775W        W 8294   5.163   2.784   2.317  0.0967  0.1154 -0.1430
 4776W        W 8295   5.099   6.699   9.842 -0.4711  0.0310  0.0475
 4777W        W 8296   8.062   5.111  11.028 -0.1471 -0.4457 -0.3385
 4778W        W 8297   6.194   5.363   8.587  0.0629 -0.2940  0.0559
 4779W        W 8298   0.054   5.368   8.514 -0.3112  0.1620  0.1142
 4780W        W 8299   5.569   1.130  10.447  0.0992  0.3019  0.0436
 4781W        W 8300   9.112   8.255   1.273  0.0891 -0.0740  0.2293
 4782W        W 8301   5.454   3.646  10.780  0.0171  0.0232 -0.3245
 4783W        W 8302   7.583   0.941   3.481  0.1569  0.1093  0.0074
 4784W        W 8303   6.780   4.242   0.825 -0.1614 -0.3178 -0.2715
 4785W        W 8304   9.347   3.120   0.429 -0.5161 -0.5593  0.0105
 4786W        W 8305   6.043   1.753  10.674  0.0484  0.0776 -0.3994
 4787W        W 8306   4.332   5.234   1.711  0.2159  0.0429  0.1460
 4788W        W 8307   6.718   7.756   9.940 -0.2345 -0.1843  0.1513
 4789W        W 8308   1.765   3.379   8.809  0.1208  0.0375 -0.1490
 4790W        W 8309   3.542   2.768   2.471 -0.4302 -0.1197  0.0847
 4791W        W 8310   4.016   1.892  11.001 -0.1165 -0.0256 -0.0009
 4792W        W 8311   3.296   9.562  10.133 -0.1237  0.1056  0.1137
 4793W        W 8312   5.090   6.659  10.393  0.1496  0.2333 -0.0326
 4794W        W 8313   5.118   7.153  11.850  0.1459  0.1511  0.2723
 4795W        W 8314   4.997   1.483   0.450 -0.0379  0.3737  0.3041
 4796W        W 8315   6.159   3.965  12.220 -0.1764  0.0357  0.0216
 4797W        W 8316   8.027   6.424  11.451 -0.0945  0.0700 -0.0929
 4798W        W 8317   0.222   8.066   3.473  0.0442  0.1414  0.1275
 4799W        W 8318   3.427   1.922  11.878 -0.0996  0.0716 -0.0869
 4800W        W 8319   1.553   6.115   2.638 -0.1422 -0.0984 -0.1924
 4801W        W 8320   0.503   6.617   0.873 -0.1165 -0.0689  0.2498
 4802W        W 8321   4.259   9.241   1.693 -0.2543  0.1039 -0.1993
 4803W        W 8322   3.523   4.561   3.126 -0.1504  0.0967 -0.4173
 4804W        W 8323   3.318   7.657   8.864 -0.2070  0.0764 -0.3814
 4805W        W 8324   5.790   8.888  10.034  0.3348 -0.5824 -0.1682
 4806W        W 8325   0.357   0.671   2.906 -0.1380  0.4470 -0.2979
 4807W        W 8326   4.107   9.166  11.912 -0.1264  0.1057 -0.1281
 4808W        W 8327   0.925   3.274   8.553 -0.0529 -0.4601  0.2870
 4809W        W 8328   5.216   0.133   2.623 -0.0167  0.0257 -0.0992
 4810W        W 8329   1.211   9.526   3.963  0.0628 -0.2492  0.0150
 4811W        W 8330   6.731   5.343  10.084 -0.0801  0.2065 -0.0544
 4812W        W 8331   9.348   8.625  11.144 -0.1350 -0.1333 -0.1048
 4813W        W 8332   1.870   9.688   0.166  0.1662  0.1417  0.1622
 4814W        W 8333   6.026   9.037   3.338 -0.1869  0.0946 -0.1388
 4815W        W 8334   9.005   2.980  10.320 -0.1916 -0.1731 -0.2197
 4816W        W 8335   0.050   0.072   7.965  0.1372  0.0445 -0.2226
 4817W        W 8336   6.883   4.894   3.597  0.0130  0.1308  0.1317
 4818W        W 8337   6.419   2.796   2.683 -0.1413  0.1385 -0.1465
 4819W        W 8338   6.950   3.507   0.963 -0.1217  0.0026 -0.0911
 4820W        W 8339   4.063   5.845  11.951  0.0312 -0.0594  0.0467
 4821W        W 8340   4.162   6.213   7.727  0.3020 -0.1764  0.3485
 4822W        W 8341   6.400   6.891   0.063  0.0392  0.2985  0.1178
 4823W        W 8342   0.474   5.615   8.665  0.3544  0.0155 -0.2550
 4824W        W 8343   7.492   5.024   8.939 -0.1057  0.0556  0.1536
 4825W        W 8344   0.904   8.097   9.945 -0.0594 -0.2549 -0.1084
 4826W        W 8345   0.537   3.627  10.141  0.2647  0.0493  0.1200
 4827W        W 8346   7.719   5.043   1.391  0.2344 -0.3161 -0.2400
 4828W        W 8347   2.482   2.810   3.864 -0.5365 -0.1714  0.1244
 4829W        W 8348   9.419   0.679  10.983  0.0592  0.0167  0.1370
 4830W        W 8349   4.462   3.462  10.411 -0.1478  0.1086 -0.3734
 4831W        W 8350   9.394   5.152   0.627 -0.3296 -0.1282 -0.4357
 4832W        W 8351   3.029   1.723   0.002  0.0590  0.0254  0.0280
 4833W        W 8352   1.211   0.963  11.478 -0.1206  0.2087  0.3447
 4834W        W 8353   6.479   3.272   0.535  0.2474  0.1243 -0.4082
 4835W        W 8354   8.854   2.444   8.626  0.1939  0.0711  0.0416
 4836W        W 8355   5.459   7.558   4.210 -0.0797 -0.1570 -0.0024
 4837W        W 8356   3.283   8.653   0.554 -0.2457 -0.3737  0.1071
 4838W        W 8357   5.979   9.603   4.326 -0.1199 -0.0771  0.0514
 4839W        W 8358   7.257   7.170   3.282 -0.2266 -0.0736  0.3107
 4840W        W 8359   5.983   5.050  10.518  0.1037  0.1075  0.2468
 4841W        W 8360   3.528   8.077   8.941 -0.2731  0.2577  0.3009
 4842W        W 8361   2.815   4.927   3.580 -0.1018 -0.2167 -0.0063
 4843W        W 8362   8.690   4.832   2.956  0.0325  0.0111 -0.0435
 4844W        W 8363   9.275   3.808   8.495 -0.0704  0.0837  0.1280
 4845W        W 8364   9.221   9.241   0.391 -0.0845  0.1624  0.2254
 4846W        W 8365   2.043   8.783   3.645  0.3102  0.0620 -0.3286
 4847W        W 8366   1.766   7.317   3.492  0.1378  0.0349  0.2347
 4848W        W 8367   9.134   3.107   7.721  0.2804 -0.0377 -0.0316
 4849W        W 8368   3.420   0.071  12.086  0.0139 -0.0393 -0.1423
 4850W        W 8369   3.593   6.624   9.470  0.1363  0.0144 -0.1540
 4851W        W 8370   3.966   6.068   8.343  0.1074  0.0503  0.0283
 4852W        W 8371   6.753   8.586   3.360  0.0512 -0.0220  0.1283
 4853W        W 8372   1.666   2.049   2.415 -0.0516 -0.1505  0.0589
 4854W        W 8373   5.158   0.110  11.183 -0.0477  0.2684 -0.1027
 4855W        W 8374   6.454   8.431   2.610  0.2448 -0.1204 -0.4416
 4856W        W 8375   5.995   5.840  10.311 -0.1048 -0.1751  0.0519
 4857W        W 8376   6.927   4.383  11.659  0.1285 -0.1875  0.0009
 4858W        W 8377   8.402   2.060  11.618 -0.0895 -0.2665 -0.1427
 4859W        W 8378   0.298   0.759   4.622 -0.1043 -0.0880  0.2713
 4860W        W 8379   1.902   7.003   1.031  0.3972  0.0166 -0.1570
 4861W        W 8380   0.831   4.950   0.629  0.0331 -0.4475 -0.1337
 4862W        W 8381   1.690   8.563   2.018  0.0282  0.1022 -0.4509
 4863W        W 8382   7.487   6.431   0.280 -0.2845  0.1423  0.1787
 4864W        W 8383   8.819   5.583   2.625 -0.0839 -0.2706 -0.0787
 4865W        W 8384   2.722   3.247   3.539 -0.0756  0.0600 -0.0299
 4866W        W 8385   3.591   3.568   9.035 -0.3027  0.0115  0.2184
 4867W        W 8386   7.024   0.120   2.557 -0.1387  0.0764 -0.0301
 4868W        W 8387   1.461   6.042   2.046  0.1125 -0.0302 -0.0235
 4869W        W 8388   1.586   2.556  11.848 -0.0829 -0.1599  0.3303
 4870W        W 8389   9.091   4.716   1.987  0.3042  0.3165 -0.1083
 4871W        W 8390   8.741   9.468   0.282  0.1733 -0.2863 -0.0136
 4872W        W 8391   5.096   9.776   9.807 -0.2399  0.2313 -0.1265
 4873W        W 8392   9.768   8.559   4.238 -0.1045  0.3531  0.2638
 4874W        W 8393   1.005   7.883   3.569 -0.0401  0.0942 -0.1541
 4875W        W 8394   6.836   5.105   1.515 -0.1656 -0.0378  0.1786
 4876W        W 8395   2.744   1.063   1.933  0.0743  0.2265 -0.1857
 4877W        W 8396   2.632   8.059   9.024 -0.1695 -0.0318  0.2028
 4878W        W 8397   4.233   6.328  11.847  0.0824 -0.4346 -0.2520
 4879W        W 8398   3.653   0.164   8.916 -0.3618  0.1882  0.3098
 4880W        W 8399   3.717   7.466   8.161 -0.0196 -0.0096 -0.0370
 4881W        W 8400   8.764   6.695  11.017  0.0261  0.0358  0.1808
 4882W        W 8401   3.819   4.726   1.251 -0.0139 -0.0116  0.3333
 4883W        W 8402   2.791   5.050  11.883 -0.0271 -0.2801 -0.1357
 4884W        W 8403   6.426   5.743   3.029 -0.2445  0.1010 -0.2787
 4885W        W 8404   3.003   7.761  11.804 -0.0555 -0.1135  0.1457
 4886W        W 8405   5.044   3.811   2.539 -0.1748 -0.1970 -0.2774
 4887W        W 8406   3.526   7.278   2.677  0.1431  0.0794  0.0176
 4888W        W 8407   4.142   9.058  11.390  0.1485  0.0741 -0.1373
 4889W        W 8408   6.565   8.168   1.802 -0.1719 -0.3632  0.2136
 4890W        W 8409   7.470   4.331   3.096 -0.1189 -0.2031  0.1149
 4891W        W 8410   1.228   8.057  11.608 -0.6287  0.1912 -0.0204
 4892W        W 8411   5.062   8.684   3.666  0.1241 -0.1486  0.0015
 4893W        W 8412   8.305   0.535   9.768  0.2562  0.2933 -0.2648
 4894W        W 8413   5.188   2.531  10.895 -0.0465 -0.1419 -0.2302
 4895W        W 8414   4.460   6.947   0.832  0.3645 -0.2545 -0.1052
 4896W        W 8415   6.956   3.738   3.385 -0.1075 -0.1677  0.0561
 4897W        W 8416   9.101   4.171  12.264 -0.1598  0.0518 -0.0486
 4898W        W 8417   4.808   8.486   9.105 -0.1576 -0.5387 -0.2196
 4899W        W 8418   0.296   3.901   8.472  0.1173  0.0634 -0.3839
 4900W        W 8419   7.942   6.868   1.207 -0.0803 -0.0754  0.0941
 4901W        W 8420   2.337   0.255   4.671 -0.0304  0.0144  0.1914
 4902W        W 8421   7.073   6.513  11.818  0.2630  0.0976  0.3242
 4903W        W 8422   8.286   4.971   3.351  0.0147 -0.3542 -0.2243
 4904W        W 8423   9.563   2.015  12.265 -0.1933 -0.0050  0.4533
 4905W        W 8424   5.132   8.331   2.166  0.1913  0.2411 -0.2444
 4906W        W 8425   4.062   4.517   9.159 -0.0291  0.0864 -0.0637
 4907W        W 8426   7.615   0.584  11.987 -0.0158 -0.0528  0.3357
 4908W        W 8427   2.409   4.607   9.781 -0.0180 -0.2741 -0.0656
 4909W        W 8428   5.919   7.508   1.743 -0.1659 -0.0340 -0.1578
 4910W        W 8429   4.608   3.630   2.387 -0.0950 -0.0644 -0.1629
 4911W        W 8430   7.114   7.559   8.224 -0.0957 -0.1156  0.1271
 4912W        W 8431   2.559   1.554   1.792 -0.1591 -0.1723  0.1697
 4913W        W 8432   8.467   4.904  11.264 -0.1428 -0.3188  0.2531
 4914W        W 8433   4.263   8.923   2.512  0.1714 -0.0231 -0.0539
 4915W        W 8434   6.614   2.241   2.023 -0.2573  0.2786 -0.2134
 4916W        W 8435   7.192   7.371  10.975 -0.1768 -0.0037 -0.0581
 4917W        W 8436   4.570   8.510   9.567 -0.0365 -0.0727  0.0091
 4918W        W 8437   1.498   2.255   2.849 -0.2373  0.0945 -0.1244
 4919W        W 8438   0.084   5.252   2.027 -0.0380 -0.0601 -0.1471
 4920W        W 8439   1.953   1.991   2.861 -0.0537 -0.0424  0.2899
 4921W        W 8440   8.972   2.769  11.817 -0.1591  0.3185 -0.2261
 4922W        W 8441   0.842   8.977  10.814  0.3611 -0.0717  0.0335
 4923W        W 8442   7.649   3.312  10.770 -0.0283 -0.1388  0.0913
 4924W        W 8443   1.185   2.164   0.134 -0.1644 -0.1703  0.1789
 4925W        W 8444   0.887   3.394   1.909  0.2902  0.2512 -0.2972
 4926W        W 8445   9.007   0.011  11.793 -0.4008  0.2250  0.0777
 4927W        W 8446   5.909   5.633   9.849  0.1094  0.1923  0.2295
 4928W        W 8447   0.125   5.124   2.514 -0.2542 -0.1217  0.0948
 4929W        W 8448   4.135   1.295   9.828 -0.0211  0.1546  0.0361
 4930W        W 8449   3.427   6.780   9.993  0.2408  0.1038 -0.2477
 4931W        W 8450   5.311   7.846   9.358 -0.0874 -0.0476 -0.0715
 4932W        W 8451   8.321   7.030   1.444  0.0778  0.1808  0.0845
 4933W        W 8452   0.644   7.526  10.503  0.2485  0.0552  0.0141
 4934W        W 8453   2.796   1.294  11.455 -0.1384 -0.0922  0.0701
 4935W        W 8454   5.959   9.522   2.304  0.0170  0.0125  0.0248
 4936W        W 8455   8.846   1.137   0.658  0.3621  0.0397  0.1474
 4937W        W 8456   8.640   1.730   3.289 -0.0711  0.0097 -0.0158
 4938W        W 8457   2.968   3.746   1.648 -0.0335 -0.1104  0.0467
 4939W        W 8458   5.534   4.322   9.488  0.0689  0.1064 -0.0622
 4940W        W 8459   5.908   5.890   3.971 -0.0838  0.4484 -0.1448
 4941W        W 8460   5.833   9.427  10.016 -0.0878 -0.0018  0.0460
 4942W        W 8461   0.455   3.889   9.407  0.2141 -0.3467 -0.0635
 4943W        W 8462   7.823   8.377   0.312 -0.0578 -0.0013  0.0980
 4944W        W 8463   4.006   3.264  10.290  0.0554 -0.0649 -0.2847
 4945W        W 8464   0.195   1.092   7.767 -0.0126  0.2165 -0.3461
 4946W        W 8465   4.818   4.760   0.613  0.1627 -0.0779  0.2443
 4947W        W 8466   0.793   7.808   8.675  0.0934 -0.0897  0.3422
 4948W        W 8467   4.935   0.154  11.832  0.0966 -0.0383 -0.0206
 4949W        W 8468   0.581   2.336  11.764 -0.1667  0.0182  0.0651
 4950W        W 8469   1.935   0.123   9.493 -0.0997 -0.2309  0.0508
 4951W        W 8470   6.379   0.068   1.621 -0.0391 -0.3042 -0.0112
 4952W        W 8471   7.506   6.506   1.685  0.3446 -0.0193  0.0069
 4953W        W 8472   8.825   6.545   9.443  0.1514  0.0087  0.0245
 4954W        W 8473   4.060   7.357  10.913 -0.0767  0.0449  0.1713
 4955W        W 8474   3.828   5.334   0.862  0.2198 -0.1133  0.0446
 4956W        W 8475   7.424   6.953  11.666  0.1828  0.4791 -0.0268
 4957W        W 8476   5.097   6.221   4.313 -0.1296 -0.4019  0.1412
 4958W        W 8477   1.170   0.180  10.129  0.2709  0.1113 -0.1213
 4959W        W 8478   7.867   6.655   4.186 -0.0312  0.0772  0.1762
 4960W        W 8479   4.373   7.129   0.368  0.1454 -0.0054 -0.1422
 4961W        W 8480   4.159   8.661  11.698  0.0732 -0.1117 -0.0443
 4962W        W 8481   4.803   8.757   9.938  0.2328 -0.2644  0.1025
 4963W        W 8482   6.486   0.408  11.079  0.3358 -0.0549  0.0576
 4964W        W 8483   7.285   6.023  11.722 -0.1943  0.0663  0.0054
 4965W        W 8484   6.006   7.621   1.238  0.3340  0.2720 -0.2028
 4966W        W 8485   6.852   6.595   9.271 -0.0224  0.2282 -0.0101
 4967W        W 8486   3.854   4.650   8.717 -0.0620 -0.1542 -0.0681
 4968W        W 8487   7.471   1.576   0.680  0.2804  0.1825  0.1819
 4969W        W 8488   2.293   2.394   0.151 -0.0714  0.1212 -0.1779
 4970W        W 8489   2.759   6.192   0.367 -0.0253  0.1690  0.1427
 4971W        W 8490   8.037   0.449   9.349  0.2350  0.0123  0.0431
 4972W        W 8491   9.219   8.862   2.930 -0.0100 -0.1808 -0.2671
 4973W        W 8492   7.508   9.433   9.641 -0.0401 -0.2418  0.4854
 4974W        W 8493   4.184   7.282  12.176  0.0219 -0.2859 -0.0915
 4975W        W 8494   8.144   9.107  11.879  0.0736  0.0465 -0.0515
 4976W        W 8495   3.310   6.783  11.751 -0.1307 -0.6881 -0.0152
 4977W        W 8496   5.554   7.658   0.831  0.1418 -0.2987 -0.1406
 4978W        W 8497   3.870   4.730   0.033 -0.1070 -0.3566  0.1657
 4979W        W 8498   2.239   7.351   3.383  0.0114 -0.0157 -0.0294
 4980W        W 8499   7.896   6.707  11.874 -0.0501 -0.0822 -0.1018
 4981W        W 8500   1.337   6.313   9.202 -0.1220 -0.0881 -0.4102
 4982W        W 8501   2.437   1.923   3.147  0.1253 -0.1156 -0.2270
 4983W        W 8502   2.085   8.220   0.410 -0.1855  0.3299  0.0377
 4984W        W 8503   3.740   8.890   9.042 -0.1466 -0.2427 -0.2206
 4985W        W 8504   1.265   9.459   2.850  0.1455 -0.1772 -0.0749
 4986W        W 8505   1.212   7.128   0.265 -0.0906  0.1216  0.2448
 4987W        W 8506   7.538   3.847   2.974  0.1731 -0.1095  0.0452
 4988W        W 8507   1.148   1.757   1.889  0.0735  0.1480  0.0711
 4989W        W 8508   8.338   5.871  11.700  0.6979  0.1212  0.4281
 4990W        W 8509   0.711   0.028   8.532  0.1817  0.3233  0.0905
 4991W        W 8510   0.336   8.986   8.246 -0.4439  0.1923  0.1994
 4992W        W 8511   0.058   0.373  10.810 -0.3253 -0.1839 -0.2049
 4993W        W 8512   2.737   4.306  10.353 -0.5069 -0.1974 -0.1679
 4994W        W 8513   1.635   1.416   7.751  0.1198  0.0641  0.0027
 4995W        W 8514   3.541   3.127   9.549  0.3414  0.1480  0.3343
 4996W        W 8515   7.655   7.821  11.979 -0.1434 -0.0014 -0.2226
 4997W        W 8516   7.934   8.951   0.880 -0.1119 -0.0867  0.1317
 4998W        W 8517   0.366   5.497   9.134 -0.1273 -0.0021 -0.0952
 4999W        W 8518   2.442   5.022   1.633  0.3359  0.0457 -0.0129
 5000W        W 8519   2.373   9.147   3.519 -0.1075  0.0251 -0.0718
 5001W        W 8520   2.504   2.614  12.094  0.2211  0.2619 -0.2846
 5002W        W 8521   7.244   8.557   9.382  0.0218  0.0167  0.2109
 5003W        W 8522   2.188   0.449  11.685 -0.2224 -0.1417  0.2390
 5004W        W 8523   8.831   6.811  11.538 -0.0385  0.2829  0.0876
 5005W        W 8524   3.564   7.792   9.337  0.1086  0.1625 -0.1153
 5006W        W 8525   3.785   1.389  11.120 -0.4237 -0.2571  0.0551
 5007W        W 8526   0.067   4.490   2.229 -0.0676 -0.1562 -0.1187
 5008W        W 8527   0.995   3.337   0.272 -0.3981 -0.0676 -0.0808
 5009W        W 8528   9.570   2.319   7.964  0.0008 -0.1917 -0.1287
 5010W        W 8529   7.672   2.257   9.023 -0.0401 -0.0129  0.1124
 5011W        W 8530   4.926   9.548   4.383 -0.2609 -0.0494  0.3891
 5012W        W 8531   8.898   8.775  11.358  0.0737 -0.0995 -0.2306
 5013W        W 8532   0.237   1.592   1.936  0.4064  0.0374  0.0003
 5014W        W 8533   4.323   1.238   2.255  0.0668  0.0677 -0.1106
 5015W        W 8534   2.195   0.697  10.131  0.1639 -0.0625 -0.1677
 5016W        W 8535   1.668   4.920   1.323 -0.0484 -0.1568 -0.0129
 5017W        W 8536   6.761   5.450   1.916  0.1346 -0.0250  0.2745
 5018W        W 8537   0.985   6.135   1.477 -0.2597  0.2910  0.1263
 5019W        W 8538   3.739   2.993   9.981 -0.1719 -0.0287 -0.1700
 5020W        W 8539   8.616   0.615  10.134 -0.0753 -0.2097 -0.3628
 5021W        W 8540   4.807   9.252   1.525  0.2054 -0.3130 -0.1535
 5022W        W 8541   4.893   8.095   9.481 -0.0455  0.1459 -0.2187
 5023W        W 8542   2.323   3.323   9.503 -0.0982  0.4356 -0.0578
 5024W        W 8543   6.527   6.977   9.587  0.0667 -0.0343  0.0308
 5025W        W 8544   8.283   3.045   0.875 -0.0788  0.1075  0.1961
 5026W        W 8545   2.619   7.556  11.161  0.1240  0.3021 -0.2150
 5027W        W 8546   5.514   5.507   4.101 -0.1138 -0.2898  0.1111
 5028W        W 8547   6.120   2.360   0.701 -0.1250 -0.0470  0.0946
 5029W        W 8548   4.612   3.824   9.168  0.0408  0.1230 -0.1695
 5030W        W 8549   8.479   4.843  10.732 -0.0096  0.0173 -0.0125
 5031W        W 8550   3.494   9.025   3.742 -0.1300 -0.0311  0.0564
 5032W        W 8551   7.187   0.952  12.125 -0.1420  0.2283 -0.3650
 5033W        W 8552   9.142   5.478  10.994  0.2283  0.0198  0.0826
 5034W        W 8553   1.675   6.245   0.348  0.1319 -0.0856 -0.1357
 5035W        W 8554   8.441   0.931  10.752  0.1177  0.0711 -0.2197
 5036W        W 8555   4.947   4.009   3.055 -0.1280 -0.2707  0.0968
 5037W        W 8556   9.287   8.427   0.824  0.1879  0.0438  0.0687
 5038W        W 8557   1.922   6.415   3.954  0.0508 -0.0534  0.5424
 5039W        W 8558   4.844   9.230  10.611 -0.2702  0.1527  0.0333
 5040W        W 8559   8.991   9.365   9.121  0.1512 -0.1434  0.1914
 5041W        W 8560   3.279   1.268   8.309 -0.2918 -0.1866  0.2006
 5042W        W 8561   8.656   6.201  10.375  0.0292  0.1531  0.1010
 5043W        W 8562   1.893   8.695   8.427 -0.2132 -0.1884  0.0892
 5044W        W 8563   4.491   3.363   3.335  0.0056  0.3671  0.1575
 5045W        W 8564   8.010   3.730   3.180  0.2974  0.2019  0.1156
 5046W        W 8565   0.670   2.942   9.632 -0.0734 -0.1634  0.1768
 5047W        W 8566   5.667   2.969   1.468  0.4253  0.0008  0.1086
 5048W        W 8567   8.047   6.387   0.962 -0.1293  0.0869 -0.2523
 5049W        W 8568   9.171   5.211  11.818  0.0175  0.2021  0.0099
 5050W        W 8569   8.594   1.641   8.792  0.3203 -0.4209 -0.1360
 5051W        W 8570   4.344   6.908   3.195  0.1718 -0.3365 -0.1584
 5052W        W 8571   5.343   8.750   2.241 -0.3788  0.2126 -0.0141
 5053W        W 8572   3.522   5.234   1.375 -0.0926 -0.0905  0.0093
 5054W        W 8573   8.209   9.176   4.754 -0.2222  0.0050  0.0693
 5055W        W 8574   7.983   1.862  11.860  0.1127 -0.2401 -0.1280
 5056W        W 8575   4.181   4.935   3.811 -0.1298 -0.2983  0.4149
 5057W        W 8576   9.396   5.843   9.121  0.1925 -0.2621 -0.1095
 5058W        W 8577   3.657   0.187  10.139  0.1548 -0.2301  0.2185
 5059W        W 8578   2.876   4.078   4.052 -0.3911 -0.0110  0.0220
 5060W        W 8579   0.669   4.099   0.120 -0.0304 -0.4218 -0.1088
 5061W        W 8580   3.381   5.126   2.779 -0.1671  0.0540  0.0600
 5062W        W 8581   0.765   1.393   1.844  0.0747  0.1102 -0.3688
 5063W        W 8582   4.367   0.519   2.851 -0.0590 -0.0408 -0.0334
 5064W        W 8583   8.074   3.604   1.612  0.0015 -0.2446 -0.1650
 5065W        W 8584   4.629   8.615  11.965 -0.2323 -0.1830 -0.0205
 5066W        W 8585   3.605   8.648  10.315  0.1265 -0.0000 -0.2175
 5067W        W 8586   1.843   2.505  11.010  0.0206 -0.3695  0.4283
 5068W        W 8587   6.405   7.621  12.190 -0.1284  0.4258 -0.0784
 5069W        W 8588   3.856   8.643   2.725 -0.1069 -0.0746  0.1893
 5070W        W 8589   5.685   9.439   3.304 -0.0044 -0.0166  0.0283
 5071W        W 8590   1.879   1.382  12.361  0.0134  0.1782  0.0141
 5072W        W 8591   2.914   1.495   0.468  0.0449 -0.1876 -0.1283
 5073W        W 8592   7.170   2.166   9.350  0.0101  0.0766 -0.1612
 5074W        W 8593   3.820   3.116   1.190 -0.1260  0.0013  0.3520
 5075W        W 8594   1.069   3.073   1.029 -0.1349 -0.0843 -0.0718
 5076W        W 8595   0.449   5.953   9.356  0.2416  0.1319 -0.1069
 5077W        W 8596   8.390   3.799   9.551 -0.1018  0.0257 -0.1050
 5078W        W 8597   0.215   8.001   0.330  0.0912 -0.0828 -0.2080
 5079W        W 8598   2.419   5.337   1.091 -0.1867  0.0539  0.1245
 5080W        W 8599   9.714   8.669  12.000  0.0989  0.0039  0.0589
 5081W        W 8600   8.405   7.487   1.763 -0.0269 -0.1128 -0.1822
 5082W        W 8601   8.261   2.803   3.031 -0.1807  0.0259 -0.0551
 5083W        W 8602   0.007   5.330   1.468  0.0382 -0.1378  0.0859
 5084W        W 8603   2.458   2.854  11.588 -0.2790  0.0275 -0.0155
 5085W        W 8604   7.042   6.995   9.641 -0.1063  0.1609 -0.1306
 5086W        W 8605   6.020   0.364  10.785  0.1054  0.1106 -0.0245
 5087W        W 8606   0.215   0.004   0.475  0.0949 -0.2015  0.2203
 5088W        W 8607   4.077   4.672   1.744  0.0035  0.2625 -0.0015
 5089W        W 8608   0.564   5.493   1.847  0.1670 -0.2812  0.2956
 5090W        W 8609   1.730   3.062  12.258 -0.1823 -0.0275  0.0929
 5091W        W 8610   0.358   6.566   1.798  0.0941  0.0504 -0.0207
 5092W        W 8611   8.418   9.749   0.589  0.0650 -0.1752 -0.3882
 5093W        W 8612   9.758   1.582   8.922  0.1165 -0.0843 -0.2075
 5094W        W 8613   3.375   8.034   2.094 -0.1754 -0.0995  0.1047
 5095W        W 8614   2.250   1.912   2.069 -0.0715 -0.1182  0.0881
 5096W        W 8615   4.965   8.842  11.474 -0.0302  0.2675 -0.0752
 5097W        W 8616   8.220   7.621   1.342  0.2550 -0.3122 -0.1161
 5098W        W 8617   2.097   2.957  10.568 -0.0130 -0.2219  0.0160
 5099W        W 8618   1.355   7.904   0.793  0.1879  0.3547  0.1888
 5100W        W 8619   2.457   8.590   9.116 -0.1358 -0.1621  0.1321
 5101W        W 8620   4.676   9.483  12.068  0.1060  0.2444  0.1767
 5102W        W 8621   2.642   3.743  10.277  0.0082  0.1837  0.0373
 5103W        W 8622   5.573   7.377   7.891  0.1491 -0.1043  0.2694
 5104W        W 8623   4.282   1.640  10.131 -0.0280  0.0156  0.1839
 5105W        W 8624   3.526   5.113  10.490  0.3639  0.1426 -0.0114
 5106W        W 8625   0.211   0.259  11.323 -0.0315  0.0575  0.0865
 5107W        W 8626   0.516   1.429   8.562  0.0597  0.1769 -0.0272
 5108W        W 8627   6.078   5.642  11.671  0.0006  0.2027  0.3220
 5109W        W 8628   3.912   9.583  10.577  0.0660 -0.0738  0.4185
 5110W        W 8629   4.334   3.330   1.990 -0.3297  0.3480 -0.1607
 5111W        W 8630   9.072   7.165   2.135 -0.3563 -0.3939 -0.0640
 5112W        W 8631   3.308   2.981  11.799  0.0702 -0.0474  0.3556
 5113W        W 8632   0.333   9.424   3.542  0.0741  0.1894 -0.1426
 5114W        W 8633   1.381   5.544   9.898 -0.0883  0.0052  0.1546
 5115W        W 8634   1.822   4.018  11.934 -0.2697 -0.1592 -0.0142
 5116W        W 8635   8.076   4.082   0.347 -0.1804 -0.1948  0.1828
 5117W        W 8636   2.321   6.805   8.713 -0.2444  0.0831  0.0033
 5118W        W 8637   0.149   5.785   1.227  0.1169 -0.1078 -0.1388
 5119W        W 8638   7.424   6.953  11.164 -0.0303  0.0282 -0.0246
 5120W        W 8639   6.510   4.694   1.500  0.1221 -0.1782  0.3781
 5121W        W 8640   6.140   1.581  12.001  0.1008 -0.1820 -0.1218
 5122W        W 8641   9.654   4.330   9.995 -0.0789 -0.2163  0.1469
 5123W        W 8642   2.730   2.282   1.344  0.2005 -0.2234 -0.1079
 5124W        W 8643   4.257   4.061   0.987 -0.0392  0.0168 -0.0403
 5125W        W 8644   9.710   6.871   3.866 -0.0824  0.1475 -0.0507
 5126W        W 8645   6.407   4.985   2.272 -0.2981 -0.4691  0.0562
 5127W        W 8646   3.159   9.390   3.032 -0.0260  0.1003  0.3016
 5128W        W 8647   4.129   7.823  12.346  0.0472 -0.2019  0.1632
 5129W        W 8648   8.621   3.771   0.712 -0.1429  0.0071 -0.3325
 5130W        W 8649   5.394   7.360  10.295 -0.1630 -0.0826  0.1177
 5131W        W 8650   6.713   8.535   8.735 -0.1981 -0.4950  0.0138
 5132W        W 8651   7.054   3.706   9.973  0.0785  0.1504 -0.1934
 5133W        W 8652   6.751   0.071   0.809  0.0843 -0.3919 -0.1707
 5134W        W 8653   6.146   6.943   1.827 -0.2994  0.0199  0.1373
 5135W        W 8654   9.092   7.171  10.807 -0.0177  0.0928 -0.0997
 5136W        W 8655   2.929   0.348   2.517 -0.3312  0.2399  0.2407
 5137W        W 8656   7.158   5.654   1.544  0.2436 -0.1814  0.0018
 5138W        W 8657   7.297   8.550   4.621 -0.0427  0.1978  0.1206
 5139W        W 8658   9.660   1.599  10.962  0.0860  0.0324 -0.4106
 5140W        W 8659   8.287   0.254  10.142  0.1501  0.1018  0.2110
 5141W        W 8660   5.989   0.851  10.456 -0.1973  0.1526  0.2906
 5142W        W 8661   7.373   8.311   1.498  0.1809  0.2244  0.2304
 5143W        W 8662   6.169   6.244  10.589 -0.2901 -0.0678  0.2793
 5144W        W 8663   7.766   5.888   2.591  0.0620 -0.0962 -0.0143
 5145W        W 8664   6.324   8.860  10.803 -0.2306 -0.0566  0.2848
 5146W        W 8665   0.927   5.157   1.611  0.0727  0.0020 -0.1323
 5147W        W 8666   5.838   1.334  11.604 -0.0995  0.2021  0.1863
 5148W        W 8667   3.649   3.684   0.156 -0.1023  0.0650  0.0738
 5149W        W 8668   3.345   9.001   1.989  0.0841  0.1516 -0.2047
 5150W        W 8669   1.307   5.859   8.953  0.1788  0.0888 -0.1190
 5151W        W 8670   9.689   7.252  11.669  0.0587 -0.0903  0.5366
 5152W        W 8671   5.138   3.176   3.248  0.0433 -0.2447  0.3215
 5153W        W 8672   3.612   2.324   3.322 -0.0154 -0.0685  0.2156
 5154W        W 8673   7.338   5.368   3.434  0.0898 -0.1681  0.1325
 5155W        W 8674   3.778   2.124  10.656  0.0329  0.2537 -0.1219
 5156W        W 8675   8.062   2.202   3.894  0.2938  0.1125 -0.1228
 5157W        W 8676   6.410   0.225   0.123  0.0221  0.1914  0.1106
 5158W        W 8677   5.358   5.973   1.093 -0.1262  0.2488  0.0208
 5159W        W 8678   0.478   9.281   0.582 -0.0565  0.1932 -0.3040
 5160W        W 8679   8.771   7.794   1.191 -0.0407  0.1159 -0.1326
 5161W        W 8680   8.341   2.921   8.057 -0.0123 -0.0916 -0.0975
 5162W        W 8681   3.488   5.376   9.401 -0.1134  0.2044 -0.2495
 5163W        W 8682   2.059   2.832   1.936  0.0133  0.1768 -0.4122
 5164W        W 8683   2.607   7.559   2.960  0.0712 -0.0310  0.2066
 5165W        W 8684   5.888   0.342   0.850 -0.0683 -0.1480 -0.0433
 5166W        W 8685   2.582   0.687   8.393  0.3723 -0.0097  0.0742
 5167W        W 8686   1.502   0.591   8.690 -0.0198 -0.0816 -0.0242
 5168W        W 8687   7.715   5.546  10.977  0.0167  0.2612 -0.3246
 5169W        W 8688   8.756   8.873   9.004 -0.0371 -0.1594 -0.1138
 5170W        W 8689   3.307   1.781   1.387  0.0277  0.0076 -0.2031
 5171W        W 8690   6.211   4.186   8.876 -0.0988 -0.2546 -0.0438
 5172W        W 8691   4.556   4.523   9.824 -0.2452  0.2524 -0.0110
 5173W        W 8692   1.983   6.249   0.849 -0.0471 -0.0515  0.0038
 5174W        W 8693   9.349   7.252   8.949 -0.4498  0.0086  0.0016
 5175W        W 8694   9.256   1.092   0.940  0.2659  0.0360 -0.0931
 5176W        W 8695   9.134   2.399   2.619  0.2931  0.0439 -0.1616
 5177W        W 8696   6.391   8.797   3.598  0.0990 -0.1093  0.0811
 5178W        W 8697   1.910   5.118   1.749  0.2884  0.2886  0.2132
 5179W        W 8698   6.091   8.760   2.566 -0.0312  0.4166  0.1828
 5180W        W 8699   0.507   5.436   2.366 -0.0044 -0.0557  0.3233
 5181W        W 8700   9.216   8.824  11.754  0.2479  0.0165 -0.2005
 5182W        W 8701   7.196   0.224  10.406 -0.2364 -0.0537 -0.0165
 5183W        W 8702   1.042   8.477  11.442  0.6228 -0.3357  0.1589
 5184W        W 8703   4.436   6.864   3.789  0.1230 -0.2885 -0.2034
 5185W        W 8704   5.879   4.311  11.907 -0.1353 -0.2103 -0.2483
 5186W        W 8705   7.606   7.901   1.880 -0.3585  0.0602  0.3429
 5187W        W 8706   4.547   2.451   3.469 -0.1581  0.1423 -0.1428
 5188W        W 8707   3.026   7.000   3.413  0.0462 -0.0371  0.1391
 5189W        W 8708   6.025   6.696   7.629 -0.0805 -0.0282 -0.1696
 5190W        W 8709   0.091   5.754   2.231  0.2996  0.3793  0.1809
 5191W        W 8710   1.623   0.515   2.403 -0.1293  0.0982  0.1845
 5192W        W 8711   0.067   6.560   3.406  0.0952  0.0514  0.0312
 5193W        W 8712   5.023   2.661   0.171 -0.3624 -0.0392 -0.0260
 5194W        W 8713   5.535   6.493   9.216  0.1869 -0.1747  0.0408
 5195W        W 8714   1.477   9.008   2.710  0.3351  0.0375 -0.2638
 5196W        W 8715   3.633   4.041   2.211 -0.0711 -0.1052  0.0461
 5197W        W 8716   8.092   5.741   1.428 -0.4407 -0.0812  0.1791
 5198W        W 8717   9.377   5.203  12.306  0.1953 -0.0760  0.0266
 5199W        W 8718   9.528   0.450   2.578  0.0091 -0.0396  0.2240
 5200W        W 8719   2.559   4.166   1.506 -0.1872  0.0236  0.2949
 5201W        W 8720   6.909   3.831   1.638  0.0352 -0.0396  0.1156
 5202W        W 8721   4.777   7.448   8.108  0.1236 -0.2298 -0.2365
 5203W        W 8722   2.611   1.660   3.637  0.1283  0.1873  0.0654
 5204W        W 8723   0.214   8.712  10.932 -0.0487 -0.3764  0.3142
 5205W        W 8724   8.247   1.363   0.199  0.1125 -0.1051 -0.0304
 5206W        W 8725   8.589   2.707  10.273 -0.1376 -0.1301 -0.2129
 5207W        W 8726   5.908   1.480  10.212 -0.0411  0.1543 -0.2059
 5208W        W 8727   0.279   4.216   0.758 -0.0614  0.2625 -0.2946
 5209W        W 8728   6.523   9.048   9.204 -0.0306  0.1379  0.2139
 5210W        W 8729   0.520   8.443   9.801 -0.0771 -0.0586 -0.2034
 5211W        W 8730   1.684   8.009   8.964 -0.1805  0.1502 -0.0980
 5212W        W 8731   8.144   1.979   9.134  0.3535  0.3045  0.2962
 5213W        W 8732   4.021   8.555   0.728  0.1689 -0.0578 -0.2361
 5214W        W 8733   8.811   2.946   4.707 -0.0726  0.1542 -0.1671
 5215W        W 8734   4.040   8.949   8.215 -0.1257  0.1871 -0.1273
 5216W        W 8735   6.271   9.055   2.171 -0.0357  0.3057 -0.1090
 5217W        W 8736   1.439   2.213   1.829  0.0132  0.2284 -0.1006
 5218W        W 8737   2.137   5.677   1.751  0.1007 -0.0248 -0.4032
 5219W        W 8738   4.325   6.854   9.634 -0.1430  0.0019 -0.1156
 5220W        W 8739   9.623   4.843   0.311 -0.3314  0.0497 -0.0991
 5221W        W 8740   2.329   1.045  10.426  0.1443  0.0156  0.4243
 5222W        W 8741   5.645   4.747   2.477 -0.1375  0.1627 -0.2407
 5223W        W 8742   2.850   2.645   3.524 -0.0274 -0.1711 -0.1352
 5224W        W 8743   4.540   0.618   3.329 -0.1993  0.1459  0.1482
 5225W        W 8744   2.370   2.170   8.920  0.0998 -0.0152  0.0403
 5226W        W 8745   7.936   0.493  11.143  0.2539  0.1339 -0.0014
 5227W        W 8746   4.018   0.317   9.264 -0.1345 -0.2014  0.2384
 5228W        W 8747   8.185   2.558   0.976 -0.2107  0.2288  0.1575
 5229W        W 8748   0.774   9.502   2.520  0.0337 -0.0162  0.0625
 5230W        W 8749   9.301   2.817   8.919 -0.1541  0.3081  0.0064
 5231W        W 8750   2.579   0.570   1.611 -0.0036 -0.0213 -0.0940
 5232W        W 8751   6.903   9.579   2.128  0.1559 -0.1542  0.3630
 5233W        W 8752   5.617   6.622   9.718  0.0192 -0.2431  0.0050
 5234W        W 8753   7.186   5.762   8.571 -0.0260  0.1002  0.2455
 5235W        W 8754   9.111   3.137  10.817 -0.3462  0.1998  0.0406
 5236W        W 8755   4.991   7.494  11.491 -0.1804  0.0368  0.1568
 5237W        W 8756   9.084   3.545   3.275 -0.0645 -0.0203  0.0080
 5238W        W 8757   0.004   8.109   2.991  0.0629 -0.1381  0.1044
 5239W        W 8758   6.800   7.429  10.516 -0.3587  0.0375  0.0980
 5240W        W 8759   2.254   6.642   1.033 -0.2417  0.0776 -0.0231
 5241W        W 8760   8.765   2.953   0.777 -0.5040  0.2119  0.1756
 5242W        W 8761   0.714   8.069   2.274  0.3063 -0.3371 -0.0253
 5243W        W 8762   5.801   4.588  10.249 -0.1326  0.1470  0.0663
 5244W        W 8763   3.145   3.670   0.904 -0.1039 -0.1314  0.4054
 5245W        W 8764   4.036   4.921   2.648 -0.0310 -0.3622  0.4137
 5246W        W 8765   3.143   0.397   9.678 -0.2194 -0.0273  0.0297
 5247W        W 8766   5.266   1.172   2.257 -0.0645  0.2872 -0.0674
 5248W        W 8767   4.878   7.656   3.360 -0.0809 -0.0106 -0.0935
 5249W        W 8768   0.304   1.118   9.596  0.0626  0.3031  0.0359
 5250W        W 8769   7.669   2.988   1.533 -0.0392  0.1239  0.2918
 5251W        W 8770   7.006   3.856  11.874  0.0079  0.1366 -0.0000
 5252W        W 8771   8.154   2.859  11.919 -0.0130  0.2360  0.1406
 5253W        W 8772   7.856   4.604   0.511 -0.1118  0.0757  0.0422
 5254W        W 8773   6.738   3.354   8.495  0.1695  0.0749  0.1924
 5255W        W 8774   1.022   2.518  10.496  0.0812 -0.3684  0.2052
 5256W        W 8775   8.790   1.639  10.126 -0.0674 -0.0526  0.2862
 5257W        W 8776   9.179   6.658   8.848 -0.2881  0.2525 -0.4538
 5258W        W 8777   8.105   4.211   1.760  0.1695 -0.1154  0.0191
 5259W        W 8778   2.835   5.684   1.171  0.1905  0.1775 -0.2022
 5260W        W 8779   6.881   7.460   3.450  0.0324 -0.0470 -0.0430
 5261W        W 8780   2.441   9.049   2.207 -0.0433 -0.0074 -0.0040
 5262W        W 8781   0.649   6.183   0.689 -0.0351  0.0145  0.0388
 5263W        W 8782   8.535   2.116   2.356  0.0745  0.0843 -0.2827
 5264W        W 8783   2.360   4.142  10.029 -0.1533  0.0426  0.0946
 5265W        W 8784   2.478   7.206   2.513 -0.0094  0.1668  0.4031
 5266W        W 8785   2.734   0.432  11.713  0.0696 -0.1809 -0.0963
 5267W        W 8786   0.317   0.149   8.886 -0.0678 -0.1873 -0.0153
 5268W        W 8787   9.017   6.961   0.277  0.2925 -0.2555 -0.2072
 5269W        W 8788   5.328   8.430   1.234 -0.0175  0.0368  0.1787
 5270W        W 8789   9.569   9.316   9.026 -0.2141 -0.1693  0.1162
 5271W        W 8790   8.744   3.910   1.177 -0.0027  0.0677  0.0313
 5272W        W 8791   6.896   1.568  10.414  0.1218  0.1236 -0.1708
 5273W        W 8792   0.835   3.958  10.408  0.0874 -0.3021  0.2944
 5274W        W 8793   4.953   8.565   0.875 -0.0301  0.0006 -0.4469
 5275W        W 8794   1.742   7.375  11.944  0.0583 -0.0954 -0.3580
 5276W        W 8795   9.490   9.273   9.671  0.0664 -0.0055 -0.1881
 5277W        W 8796   4.091   5.069   8.726 -0.0091 -0.0191 -0.1366
 5278W        W 8797   4.579   7.571  10.687 -0.3956  0.1036 -0.0617
 5279W        W 8798   7.635   7.650   9.590 -0.1189  0.1915  0.1922
 5280W        W 8799   0.525   5.689   3.715 -0.1286 -0.2872  0.1127
 5281W        W 8800   8.859   4.462  10.447 -0.4168  0.2840 -0.1479
 5282W        W 8801   4.587   8.964   8.175  0.2920 -0.2618 -0.1270
 5283W        W 8802   6.481   1.579   0.963 -0.0767 -0.0730 -0.1518
 5284W        W 8803   8.435   3.092   3.488  0.1305 -0.2615  0.1732
 5285W        W 8804   5.286   9.271   2.905 -0.1817 -0.1103  0.0897
 5286W        W 8805   1.699   5.227  10.816  0.0528 -0.0100  0.3089
 5287W        W 8806   6.453   9.759   9.118  0.0848 -0.0032  0.0381
 5288W        W 8807   3.682   9.659  11.023  0.0518 -0.1492 -0.3831
 5289W        W 8808   8.196   8.955   9.179 -0.0055 -0.0551  0.0483
 5290W        W 8809   6.182   4.926   8.231 -0.3368  0.1814 -0.1549
 5291W        W 8810   0.177   1.126   8.792 -0.0044  0.2878  0.2522
 5292W        W 8811   5.642   4.299   1.267  0.0913  0.0465 -0.2980
 5293W        W 8812   2.790   6.516   3.425  0.1595 -0.1158  0.3641
 5294W        W 8813   5.734   7.090   1.475  0.0461  0.2631 -0.0770
 5295W        W 8814   4.216   1.735   1.927 -0.0862  0.3545 -0.1453
 5296W        W 8815   8.804   2.552   9.894 -0.1986 -0.0053  0.3765
 5297W        W 8816   1.055   7.352   1.133 -0.2253 -0.2107  0.2603
 5298W        W 8817   0.356   3.864   3.755  0.0523 -0.3212  0.0271
 5299W        W 8818   0.763   5.399  10.599  0.0768  0.2667  0.0137
 5300W        W 8819   8.594   2.559   1.543  0.2034  0.0419  0.1044
 5301W        W 8820   5.954   7.144   4.196 -0.0862 -0.0724  0.0162
 5302W        W 8821   8.679   4.115   1.707  0.0749 -0.3118  0.1083
 5303W        W 8822   6.913   1.038   2.633  0.0316 -0.0296  0.1636
 5304W        W 8823   5.571   1.364   9.205  0.0854  0.2338  0.3216
 5305W        W 8824   7.962   0.099   9.744  0.0612 -0.0401 -0.4182
 5306W        W 8825   8.480   0.538  11.141  0.0315  0.2665  0.2247
 5307W        W 8826   3.200   4.129   2.914 -0.0733 -0.0605  0.2127
 5308W        W 8827   1.226   4.074   8.340  0.0406 -0.2355  0.1088
 5309W        W 8828   2.564   6.013  10.033 -0.1177 -0.2584  0.0242
 5310W        W 8829   0.144   1.818   2.381 -0.1125 -0.1089 -0.5178
 5311W        W 8830   5.918   5.715   2.461 -0.3511 -0.1760  0.0528
 5312W        W 8831   1.201   9.373   4.693  0.1067 -0.4206 -0.1133
 5313W        W 8832   2.501   3.529  10.765  0.0358  0.0406  0.4008
 5314W        W 8833   2.719   7.891   9.530 -0.0189  0.1939  0.2483
 5315W        W 8834   0.543   8.538   4.109  0.3719 -0.1733  0.0644
 5316W        W 8835   3.795   4.954   9.154 -0.1353 -0.1336  0.0910
 5317W        W 8836   4.041   1.069  11.444  0.1207  0.1142  0.1879
 5318W        W 8837   4.467   4.028   2.737 -0.2512 -0.0950  0.1879
 5319W        W 8838   6.680   8.149   0.720 -0.2416 -0.0419  0.0116
 5320W        W 8839   1.690   3.255   9.346 -0.0449 -0.0988 -0.0750
 5321W        W 8840   3.053   3.035   9.477  0.2388  0.1401  0.1495
 5322W        W 8841   6.857   2.394   0.927  0.4303 -0.0433 -0.1559
 5323W        W 8842   1.810   7.023   2.380 -0.0672  0.0020  0.3069
 5324W        W 8843   3.070   2.661   2.239  0.1220 -0.0792 -0.2652
 5325W        W 8844   3.698   6.938   8.255  0.0928 -0.0928  0.0670
 5326W        W 8845   7.221   8.373   3.144 -0.0952  0.1619 -0.3468
 5327W        W 8846   6.796   4.519  10.429  0.4292 -0.1984  0.4485
 5328W        W 8847   2.348   6.141   2.019 -0.3228 -0.1509  0.0222
 5329W        W 8848   8.505   5.825  10.071 -0.4769 -0.0646  0.0495
 5330W        W 8849   0.398   7.129  12.270 -0.1652 -0.0982 -0.3849
 5331W        W 8850   1.539   7.106  10.665 -0.1440 -0.0693 -0.3854
 5332W        W 8851   1.221   5.394   0.645 -0.1669  0.0272 -0.0537
 5333W        W 8852   7.445   2.961   3.066  0.2092  0.3142 -0.0190
 5334W        W 8853   4.108   8.386  10.886 -0.1182 -0.3769 -0.1148
 5335W        W 8854   6.419   3.315  10.813  0.2402 -0.0382  0.4455
 5336W        W 8855   2.791   1.762   1.356  0.3461 -0.0159  0.0088
 5337W        W 8856   5.169   9.492  12.179  0.2791  0.0370  0.0358
 5338W        W 8857   6.905   7.723  12.206  0.0487 -0.0860  0.1244
 5339W        W 8858   5.671   8.393  10.213 -0.1432  0.2441 -0.2426
 5340W        W 8859   0.371   3.980  10.521 -0.0085  0.3593  0.3153
 5341W        W 8860   3.754   8.270   0.035 -0.1443 -0.1537  0.0337
 5342W        W 8861   7.558   2.495   8.619  0.0922 -0.0659 -0.0814
 5343W        W 8862   1.487   5.670   3.027 -0.3391  0.3424 -0.1411
 5344W        W 8863   9.311   8.632   1.975 -0.5725 -0.3654 -0.4622
 5345W        W 8864   0.974   8.304   1.543  0.2652  0.1522 -0.0480
 5346W        W 8865   4.710   3.912   1.263  0.1467 -0.1102  0.0644
 5347W        W 8866   5.257   4.664   0.446  0.0510  0.1987 -0.0162
 5348W        W 8867   6.109   4.935   0.134  0.0956 -0.1460 -0.2023
 5349W        W 8868   2.478   9.424  12.215 -0.0761  0.1506  0.4044
 5350W        W 8869   1.440   0.276   3.292  0.0182 -0.0210 -0.3246
 5351W        W 8870   1.874   9.381   8.667  0.0528 -0.0832 -0.2875
 5352W        W 8871   5.071   5.356  11.167  0.1207  0.1504 -0.2342
 5353W        W 8872   5.120   5.496  10.155  0.3865  0.1152 -0.0420
 5354W        W 8873   2.870   8.582   0.139  0.2429 -0.1627 -0.3442
 5355W        W 8874   5.744   4.245   2.413  0.2162  0.1936 -0.2335
 5356W        W 8875   0.313   4.767  12.314  0.4702  0.2436  0.0851
 5357W        W 8876   3.569   5.569   1.876  0.1469  0.3088  0.0615
 5358W        W 8877   4.749   6.414  10.101 -0.0395  0.0474  0.1813
 5359W        W 8878   3.571   7.285   8.674 -0.2054  0.0996  0.1330
 5360W        W 8879   6.892   0.884   0.718 -0.3902  0.6236  0.1283
 5361W        W 8880   8.085   6.175   2.412 -0.1338 -0.0118  0.3376
 5362W        W 8881   3.022   0.019  10.479 -0.0150 -0.3233 -0.2563
 5363W        W 8882   4.137   2.510   1.221 -0.1332  0.3852  0.1099
 5364W        W 8883   8.739   0.059   1.601  0.0180  0.2656  0.1578
 5365W        W 8884   4.783   1.637   1.558 -0.2138 -0.1206 -0.4850
 5366W        W 8885   4.578   0.245   3.664 -0.4631  0.0385  0.2302
 5367W        W 8886   8.738   7.637   2.555  0.2292  0.2009 -0.1894
 5368W        W 8887   2.617   5.857  11.256  0.0091  0.0561  0.2736
 5369W        W 8888   3.048   1.001   9.079  0.1414 -0.3134 -0.0889
 5370W        W 8889   8.937   1.060   2.538  0.2702  0.1515  0.1631
 5371W        W 8890   6.599   3.680   3.012  0.1282 -0.1796 -0.2546
 5372W        W 8891   4.418   0.035   9.374 -0.0415  0.3741 -0.0965
 5373W        W 8892   0.394   3.308   1.129  0.0252  0.3401  0.0323
 5374W        W 8893   3.292   5.232  11.895  0.1062 -0.1777 -0.2953
 5375W        W 8894   3.231   5.954   8.346  0.2293 -0.2492  0.1171
 5376W        W 8895   8.762   8.361   0.626  0.1045  0.0799 -0.1159
 5377W        W 8896   5.068   7.829   2.101  0.2750 -0.0397  0.5078
 5378W        W 8897   7.325   9.179   3.899 -0.0450  0.1241 -0.2213
 5379W        W 8898   5.896   6.613   1.417 -0.0277  0.0169  0.1192
 5380W        W 8899   6.879   9.261   2.790  0.0096  0.2521  0.0244
 5381W        W 8900   0.725   6.843  11.405 -0.3603 -0.3047  0.0138
 5382W        W 8901   3.160   6.878  12.268  0.1569 -0.1468  0.1849
 5383W        W 8902   0.769   7.179  11.868  0.1012 -0.2713  0.0761
 5384W        W 8903   0.081   6.654   2.298 -0.1259 -0.2467  0.0963
 5385W        W 8904   6.462   3.401  12.135 -0.1690  0.1177 -0.0927
 5386W        W 8905   4.394   8.189   9.149 -0.1803  0.3032  0.2297
 5387W        W 8906   0.103   9.431  12.091  0.0945  0.1333 -0.1933
 5388W        W 8907   9.045   6.648   2.027 -0.0548 -0.1791  0.1174
 5389W        W 8908   3.306   6.759   8.663  0.4026  0.1482 -0.0264
 5390W        W 8909   5.571   8.205   8.556  0.1735 -0.0246 -0.1697
 5391W        W 8910   7.655   3.882   1.641 -0.2353  0.0505  0.4138
 5392W        W 8911   2.305   7.919  11.411 -0.1385  0.1419  0.0842
 5393W        W 8912   0.824   0.666   9.366 -0.0980 -0.1869 -0.2192
 5394W        W 8913   8.599   7.894   2.039 -0.1693  0.0644  0.1205
 5395W        W 8914   2.582   7.004   9.188 -0.3012 -0.2367  0.0395
 5396W        W 8915   2.003   0.063  10.712 -0.0858 -0.1918  0.2229
 5397W        W 8916   0.961   6.669   0.383 -0.1491 -0.1719 -0.0149
 5398W        W 8917   0.740   2.131   0.614 -0.0718  0.2360 -0.3856
 5399W        W 8918   6.649   6.556   4.013 -0.1186 -0.0855 -0.3137
 5400W        W 8919   0.981   6.578   3.528 -0.0187 -0.1182  0.1597
 5401W        W 8920   5.105   1.152   3.809  0.0542 -0.0619 -0.1855
 5402W        W 8921   8.347   1.240   8.658  0.0025 -0.0034  0.0950
 5403W        W 8922   2.693   6.405   4.264 -0.1099  0.0551  0.3169
 5404W        W 8923   4.263   5.778   3.950 -0.0858 -0.0770 -0.0716
 5405W        W 8924   3.769   9.511   9.993 -0.0961 -0.1108  0.0507
 5406W        W 8925   3.203   6.166   3.031 -0.2221  0.1187  0.4551
 5407W        W 8926   4.614   6.326   2.724 -0.0778 -0.0258 -0.0950
 5408W        W 8927   6.125   5.781   1.190 -0.0553 -0.0034 -0.0601
 5409W        W 8928   2.665   5.039   9.933 -0.0145 -0.3479 -0.0252
 5410W        W 8929   2.263   0.463   9.295 -0.1491 -0.2376 -0.0934
 5411W        W 8930   5.377   1.227  11.873  0.3458  0.1714  0.0355
 5412W        W 8931   9.339   3.841  10.279 -0.2972 -0.2401  0.1405
 5413W        W 8932   5.620   1.274  11.207  0.2023 -0.1167  0.1357
 5414W        W 8933   0.413   8.435  11.408 -0.1147  0.1864  0.1021
 5415W        W 8934   6.956   2.726  10.209  0.1407  0.4417  0.0734
 5416W        W 8935   3.677   8.112   2.744  0.2150  0.0798  0.2945
 5417W        W 8936   7.134   6.658   3.363 -0.0173 -0.1588 -0.0794
 5418W        W 8937   4.009   9.241   2.831 -0.0572  0.1193  0.0445
 5419W        W 8938   9.573   6.598  12.351 -0.3385  0.0413  0.5369
 5420W        W 8939   1.832   7.034   9.058  0.0715 -0.3152 -0.0932
 5421W        W 8940   5.741   8.107   9.776 -0.0519  0.1921 -0.1008
 5422W        W 8941   2.308   3.774  12.085 -0.1615  0.0998 -0.0755
 5423W        W 8942   3.978   9.076   0.827  0.0578  0.0853  0.1722
 5424W        W 8943   0.707   5.038   1.199  0.1629  0.4140  0.2356
 5425W        W 8944   1.166   0.189   9.297 -0.1933 -0.1339  0.3317
 5426W        W 8945   7.019   1.399   0.913 -0.2731  0.0417 -0.3449
 5427W        W 8946   5.449   5.343   4.609  0.1002  0.1760  0.0819
 5428W        W 8947   2.555   8.663   1.519  0.1272 -0.1289  0.2977
 5429W        W 8948   2.782   4.139   3.215 -0.1970 -0.1731 -0.0060
 5430W        W 8949   3.011   8.133   7.655 -0.0918 -0.3059 -0.0128
 5431W        W 8950   8.536   5.546   0.092 -0.0070  0.2276  0.1610
 5432W        W 8951   9.024   4.852  11.429 -0.1250 -0.0490 -0.0765
 5433W        W 8952   2.150   7.393  11.591 -0.1237  0.2375  0.4301
 5434W        W 8953   6.169   6.161  11.487  0.2274  0.1784 -0.3451
 5435W        W 8954   6.951   5.304   8.892 -0.1379 -0.3483 -0.1655
 5436W        W 8955   7.559   1.091  10.496 -0.0279  0.3033 -0.1299
 5437W        W 8956   0.897   2.363   8.704 -0.0682  0.3149 -0.0420
 5438W        W 8957   6.145   6.722   3.257  0.1558  0.1829  0.2619
 5439W        W 8958   9.389   3.355   3.627  0.1910  0.0043  0.1468
 5440W        W 8959   3.840   5.118   1.769 -0.1389  0.1150  0.5059
 5441W        W 8960   2.503   1.267   8.195 -0.0880 -0.1640  0.0533
 5442W        W 8961   4.638   5.758  12.241  0.1171  0.2108  0.0371
 5443W        W 8962   1.293   0.662  10.148  0.1305  0.2828  0.1205
 5444W        W 8963   2.301   0.298   3.642 -0.1414 -0.0441  0.3570
 5445W        W 8964   5.739   4.622   0.369 -0.1365  0.0491  0.0484
 5446W        W 8965   3.841   3.326   1.704 -0.0941 -0.2348 -0.3124
 5447W        W 8966   2.278   9.474   1.239  0.0035  0.0793 -0.1893
 5448W        W 8967   5.624   0.937   9.476 -0.1072 -0.1406 -0.0436
 5449W        W 8968   0.732   3.365  10.774 -0.0379  0.1010  0.2178
 5450W        W 8969   6.425   7.305   3.516  0.2294 -0.1625  0.1215
 5451W        W 8970   9.043   2.584   0.589  0.0126  0.2734  0.1050
 5452W        W 8971   3.510   7.585   1.802 -0.2432 -0.1887 -0.1122
 5453W        W 8972   0.069   8.283   9.404  0.3148  0.1329 -0.1855
 5454W        W 8973   8.474   1.905   7.896  0.1355 -0.3029 -0.0934
 5455W        W 8974   2.861   9.647   3.451  0.0544 -0.2208  0.1445
 5456W        W 8975   9.277   6.597   9.688  0.0506 -0.0017  0.0723
 5457W        W 8976   3.537   4.502   9.124 -0.3882  0.2303  0.0425
 5458W        W 8977   7.710   2.463   9.942  0.0670  0.0393  0.1064
 5459W        W 8978   5.220   3.100  11.512 -0.1943  0.2129  0.1780
 5460W        W 8979   7.402   6.781   8.361 -0.2612 -0.2958  0.0371
 5461W        W 8980   2.119   8.211   3.459 -0.0912  0.3448 -0.0855
 5462W        W 8981   4.440   0.130   0.367 -0.1565 -0.1759 -0.2450
 5463W        W 8982   5.497   2.997   0.151 -0.0945 -0.0454 -0.2047
 5464W        W 8983   1.237   6.551   9.685  0.0224  0.1687 -0.3057
 5465W        W 8984   7.592   2.027   2.105 -0.0625 -0.4918 -0.0196
 5466W        W 8985   0.593   1.998   1.100  0.0345 -0.3972  0.1864
 5467W        W 8986   9.717   2.438  10.614 -0.1624 -0.3736 -0.1304
 5468W        W 8987   3.873   5.378  11.910 -0.0240  0.2000  0.3112
 5469W        W 8988   0.464   8.970   9.859  0.1410  0.1014  0.1596
 5470W        W 8989   0.546   4.357  10.196 -0.2188  0.0058  0.0712
 5471W        W 8990   4.509   6.544  11.321  0.0659 -0.1918  0.1695
 5472W        W 8991   1.257   6.650  11.388 -0.3207 -0.0754 -0.1817
 5473W        W 8992   1.701   4.202   0.491 -0.2139  0.0499  0.2532
 5474W        W 8993   8.772   5.200   9.376  0.1935 -0.6202  0.2012
 5475W        W 8994   6.389   0.702  11.832  0.0905 -0.0779 -0.2106
 5476W        W 8995   5.198   6.262   2.837 -0.0977  0.2276  0.1142
 5477W        W 8996   9.336   1.195   3.086  0.0989  0.0989  0.2428
 5478W        W 8997   6.728   8.572  10.919  0.0080  0.2101 -0.1031
 5479W        W 8998   6.767   4.876   2.740 -0.0496  0.0455  0.2749
 5480W        W 8999   6.208   1.288   1.464  0.2573 -0.2437 -0.1535
 5481W        W 9000   9.263   6.930   1.707 -0.1733 -0.0387  0.1463
 5482W        W 9001   4.563   9.123  11.197 -0.1066  0.0737 -0.1766
 5483W        W 9002   5.990   7.132  10.188  0.1414 -0.0882  0.1916
 5484W        W 9003   5.432   0.534   9.785  0.4485 -0.2361  0.0923
 5485W        W 9004   2.132   6.983   0.132 -0.3969 -0.0554 -0.1397
 5486W        W 9005   5.144   0.730  11.906  0.0587  0.5580 -0.0652
 5487W        W 9006   3.805   4.263   1.003 -0.0301  0.1100 -0.0909
 5488W        W 9007   5.255   9.499  10.228  0.0713  0.1481  0.1017
 5489W        W 9008   1.053   8.188   1.019 -0.1136 -0.2133 -0.0890
 5490W        W 9009   6.748   0.596  12.234 -0.2578 -0.1106  0.1667
 5491W        W 9010   4.516   8.570   2.796 -0.0782 -0.2981  0.4198
 5492W        W 9011   3.617   7.850   0.267  0.1109  0.1207 -0.0775
 5493W        W 9012   9.329   1.840   9.126  0.1696 -0.1854  0.0159
 5494W        W 9013   3.823   7.818   2.232  0.0437 -0.1634  0.2807
 5495W        W 9014   2.382   6.190   3.216 -0.1126 -0.1268 -0.1200
 5496W        W 9015   6.561   4.173   9.240  0.0495  0.0789  0.0278
 5497W        W 9016   8.759   1.115   0.132  0.1775  0.2741  0.0803
 5498W        W 9017   6.379   1.637   9.664  0.0714  0.2722  0.0624
 5499W        W 9018   2.797   8.714  10.714 -0.0311 -0.2954 -0.5511
 5500W        W 9019   7.880   8.569   9.997 -0.2482  0.0333  0.1958
 5501W        W 9020   5.633   3.704  10.135 -0.1901 -0.0798  0.0827
 5502W        W 9021   1.284   4.829  12.173 -0.3120 -0.0542 -0.0899
 5503W        W 9022   7.582   3.353   2.269 -0.0446 -0.1825  0.3498
 5504W        W 9023   9.401   2.274   1.877 -0.0044 -0.0178 -0.0919
 5505W        W 9024   5.552   3.243  10.402 -0.0149 -0.1338  0.0837
 5506W        W 9025   5.493   2.905   2.657 -0.0300  0.1655 -0.1745
 5507W        W 9026   5.685   4.106  10.474  0.0983 -0.2362 -0.0574
 5508W        W 9027   1.472   5.886   3.939  0.1383 -0.0852  0.0102
 5509W        W 9028   1.699   4.224   1.436 -0.1658  0.0868  0.1070
 5510W        W 9029   4.691   5.310   2.990  0.1234 -0.1912 -0.3180
 5511W        W 9030   0.328   0.009  10.460  0.1709 -0.0341 -0.2179
 5512W        W 9031   0.455   4.864   2.251 -0.1020  0.1919 -0.1396
 5513W        W 9032   6.615   7.478  11.764 -0.1403  0.1583 -0.1291
 5514W        W 9033   6.956   3.298  12.137 -0.0218  0.1381 -0.1654
 5515W        W 9034   5.176   4.631  10.976 -0.1043  0.0783  0.0884
 5516W        W 9035   0.364   3.498   2.181 -0.1906  0.2598  0.1620
 5517W        W 9036   1.752   5.703   8.700 -0.0463 -0.0062 -0.0320
 5518W        W 9037   5.138   0.992   0.715  0.4058  0.0102  0.0229
 5519W        W 9038   3.134   3.673  10.130 -0.1285 -0.0485  0.1850
 5520W        W 9039   2.443   6.654   0.418  0.3020  0.2644  0.0498
 5521W        W 9040   9.499   7.394   1.788  0.0531  0.3131 -0.0696
 5522W        W 9041   4.266   2.668  11.558  0.1808 -0.4172 -0.1426
 5523W        W 9042   7.113   9.143   9.475 -0.0731  0.0385  0.2419
 5524W        W 9043   5.597   1.761   9.876  0.0402 -0.2428 -0.0861
 5525W        W 9044   3.259   4.905   9.762 -0.3922 -0.3614  0.2940
 5526W        W 9045   4.107   6.692   1.574  0.1943  0.0976 -0.0639
 5527W        W 9046   0.390   2.720  11.468 -0.0907 -0.0266  0.0151
 5528W        W 9047   0.939   2.402   2.584 -0.0613  0.1174  0.1743
 5529W        W 9048   7.224   0.219   9.789 -0.0528 -0.0727 -0.0667
 5530W        W 9049   3.063   5.938  11.951  0.0062 -0.0708 -0.0627
 5531W        W 9050   5.550   3.409   1.747 -0.2300  0.2863  0.2481
 5532W        W 9051   2.373   0.767   3.125  0.1722 -0.0666  0.2945
 5533W        W 9052   3.979   7.993   3.126  0.3066  0.1050 -0.0841
 5534W        W 9053   5.970   6.986   8.124 -0.0701 -0.0376 -0.2568
 5535W        W 9054   7.388   0.359   4.233  0.3170 -0.0608  0.1842
 5536W        W 9055   4.487   6.748   9.080  0.1182  0.0908 -0.2241
 5537W        W 9056   2.568   7.044   3.085  0.0834  0.1074 -0.2516
 5538W        W 9057   0.845   2.956   1.508  0.1008  0.3169  0.3242
 5539W        W 9058   8.818   6.812  10.399 -0.4026 -0.0696 -0.1523
 5540W        W 9059   0.162   3.598   0.709  0.1811  0.1047  0.1220
 5541W        W 9060   2.186   6.507  11.850 -0.1373  0.1016 -0.0252
 5542W        W 9061   4.014   8.126  10.346 -0.2512 -0.3409  0.0119
 5543W        W 9062   9.240   8.111  10.435 -0.0225 -0.1413  0.0048
 5544W        W 9063   5.452   3.809  11.912 -0.1414 -0.2726  0.2072
 5545W        W 9064   7.602   9.139   9.184  0.0486  0.1393  0.1572
 5546W        W 9065   4.411   9.396   3.125 -0.1525 -0.1299  0.0044
 5547W        W 9066   5.940   3.873   1.168  0.1549  0.1019 -0.0416
 5548W        W 9067   7.298   0.910  11.541 -0.1495 -0.0260 -0.2103
 5549W        W 9068   7.596   1.988  10.269  0.1219  0.0554  0.1447
 5550W        W 9069   1.822   5.577   4.243 -0.1519  0.0461  0.0891
 5551W        W 9070   0.132   9.145   9.554 -0.4352 -0.0996 -0.1502
 5552W        W 9071   5.398   4.767   9.735 -0.2341 -0.0232 -0.0375
 5553W        W 9072   8.678   6.257   7.953 -0.0718  0.1395 -0.1766
 5554W        W 9073   7.889   7.487   1.652  0.2547 -0.3349 -0.2045
 5555W        W 9074   1.577   5.209   3.900  0.0617  0.0410 -0.0713
 5556W        W 9075   2.726   5.280   3.895 -0.0830 -0.1386 -0.1292
 5557W        W 9076   1.480   8.264   9.844 -0.1925  0.2609  0.1561
 5558W        W 9077   3.890   3.004   2.159  0.2755  0.0872  0.3799
 5559W        W 9078   4.519   7.002   1.750  0.0009 -0.3295  0.0462
 5560W        W 9079   6.560   0.077   2.797 -0.1588  0.0874 -0.1421
 5561W        W 9080   0.798   8.178   3.220  0.2585 -0.0236  0.2160
 5562W        W 9081   3.141   0.028   2.040  0.2098 -0.2708  0.0124
 5563W        W 9082   3.603   0.020   9.557  0.0756 -0.0651 -0.1453
 5564W        W 9083   7.417   0.506   8.458 -0.4708  0.1108 -0.0995
 5565W        W 9084   6.343   4.373  10.145 -0.0110 -0.0268 -0.1164
 5566W        W 9085   4.738   5.319   0.780 -0.1324  0.0427 -0.2465
 5567W        W 9086   8.668   2.950  12.196 -0.0140  0.1110 -0.1074
 5568W        W 9087   5.101   6.885   0.616  0.0413 -0.0288 -0.4019
 5569W        W 9088   9.598   0.824   0.068  0.4975  0.1031  0.1696
 5570W        W 9089   3.050   2.020   0.504  0.1733 -0.1616  0.1071
 5571W        W 9090   2.938   5.474  12.163  0.1404  0.0385  0.1721
 5572W        W 9091   6.744   9.345   0.526  0.2749  0.0388  0.0217
 5573W        W 9092   4.310   2.111   0.491 -0.1143 -0.2066 -0.0575
 5574W        W 9093   9.213   2.171   9.504  0.1404 -0.1074  0.1409
 5575W        W 9094   1.726   8.971  11.177 -0.0572  0.1660  0.0904
 5576W        W 9095   8.553   7.592  11.459 -0.1864 -0.1135 -0.1060
 5577W        W 9096   5.965   5.867   9.354 -0.3505 -0.0510 -0.3222
 5578W        W 9097   7.031   5.271  11.135 -0.0314  0.4307  0.2792
 5579W        W 9098   7.521   6.682   9.849  0.0875  0.0654 -0.1491
 5580W        W 9099   7.774   1.950   3.606  0.1520 -0.3318  0.0323
 5581W        W 9100   3.794   3.275   4.056  0.2396  0.1707  0.1944
 5582W        W 9101   7.527   5.281   0.174 -0.0527 -0.0218 -0.0446
 5583W        W 9102   6.758   5.834   3.343 -0.0796  0.1032 -0.0610
 5584W        W 9103   2.824   9.680   0.275  0.2395 -0.0410  0.0233
 5585W        W 9104   5.195   5.164   0.446  0.1074 -0.4614  0.1482
 5586W        W 9105   1.626   0.356   0.205 -0.1650 -0.0379  0.1821
 5587W        W 9106   9.481   2.071  11.773  0.0310  0.1121 -0.2938
 5588W        W 9107   5.531   7.896  10.781 -0.1835 -0.0174  0.0570
 5589W        W 9108   6.357   7.553  11.351  0.3437  0.3240  0.1720
 5590W        W 9109   2.109   2.272   9.688  0.0885 -0.0268 -0.3062
 5591W        W 9110   2.894   0.537   0.496  0.0057 -0.1229 -0.1116
 5592W        W 9111   9.271   5.483   9.471 -0.1724  0.2344 -0.2152
 5593W        W 9112   5.188   1.173  10.972  0.2598 -0.0400  0.1338
 5594W        W 9113   4.991   7.752   0.155  0.1751 -0.1884  0.2838
 5595W        W 9114   2.915   6.300   4.713 -0.2660 -0.0725  0.1490
 5596W        W 9115   6.910   7.795  10.863  0.0131 -0.0600  0.3022
 5597W        W 9116   9.007   7.484   9.159  0.3992 -0.0796 -0.0290
 5598W        W 9117   7.309   0.425   1.732 -0.0598 -0.0687 -0.0154
 5599W        W 9118   7.663   7.310   0.648 -0.0607 -0.1574  0.1544
 5600W        W 9119   8.727   1.757   2.022 -0.2475  0.3586  0.1920
 5601W        W 9120   1.184   7.145  11.452  0.0036 -0.1837  0.0158
 5602W        W 9121   0.918   5.622   9.615  0.1197 -0.0563  0.1178
 5603W        W 9122   1.032   4.838  11.162  0.5569 -0.0978 -0.1380
 5604W        W 9123   8.949   5.101   0.848 -0.0113 -0.2029 -0.1305
 5605W        W 9124   5.239   6.248   1.768 -0.0581  0.1852  0.0987
 5606W        W 9125   5.526   0.032   0.670 -0.0249 -0.0226 -0.0913
 5607W        W 9126   8.303   6.761   9.589  0.3355 -0.1747 -0.0593
 5608W        W 9127   7.293   6.247   9.222  0.0503 -0.1621  0.0214
 5609W        W 9128   9.246   8.159   2.207 -0.1500  0.0490  0.1062
 5610W        W 9129   0.986   1.824  11.646 -0.0970 -0.1442 -0.1108
 5611W        W 9130   1.998   7.896   2.656  0.1840 -0.1539 -0.1725
 5612W        W 9131   6.818   5.745   2.728  0.0151 -0.4806 -0.0040
 5613W        W 9132   3.947   7.614   2.679  0.0088  0.1357  0.0916
 5614W        W 9133   6.259   3.374   2.204 -0.0867  0.0007  0.0584
 5615W        W 9134   7.913   8.078   9.150 -0.3292 -0.2578  0.0248
 5616W        W 9135   6.848   2.012   3.886  0.0444 -0.0977  0.2187
 5617W        W 9136   7.443   4.635  10.512 -0.0309  0.1744  0.0506
 5618W        W 9137   5.678   1.493   2.553 -0.1312 -0.2795  0.2244
 5619W        W 9138   0.913   0.501   3.058  0.1913  0.2208  0.2485
 5620W        W 9139   6.364   1.210  11.620 -0.1549 -0.1946  0.1301
 5621W        W 9140   8.386   7.795  10.307  0.1741 -0.2316  0.0571
 5622W        W 9141   0.533   7.565   9.078 -0.1962  0.0114  0.2715
 5623W        W 9142   6.709   3.473  11.718  0.0778  0.0036  0.1335
 5624W        W 9143   4.521   3.046   2.888  0.2361 -0.1837 -0.0692
 5625W        W 9144   3.360   6.580   3.392 -0.0911  0.0854 -0.1310
 5626W        W 9145   4.343   5.421  10.703 -0.2800  0.1084  0.1254
 5627W        W 9146   2.257   8.988  12.210  0.3311 -0.1952  0.1539
 5628W        W 9147   2.350   3.806   2.098 -0.0615 -0.2152  0.0579
 5629W        W 9148   1.750   1.074   4.642  0.2368 -0.2603  0.1904
 5630W        W 9149   3.893   3.857  11.073  0.2496 -0.1370 -0.1036
 5631W        W 9150   1.622   0.366   0.734  0.2478 -0.0006  0.0339
 5632W        W 9151   2.673   5.469   3.412  0.1969  0.0740 -0.1129
 5633W        W 9152   8.533   2.076   3.722  0.1231  0.0412  0.0929
 5634W        W 9153   2.827   8.024  11.373 -0.0876  0.1584 -0.2142
 5635W        W 9154   6.463   9.312   8.352 -0.1866  0.2259 -0.0603
 5636W        W 9155   9.120   5.148   7.858 -0.2153 -0.4292 -0.1504
 5637W        W 9156   6.190   6.445   4.725  0.2451  0.7752  0.0595
 5638W        W 9157   4.808   6.938   9.438  0.1044  0.3218 -0.2283
 5639W        W 9158   4.396   3.807  11.008  0.1849 -0.0006  0.0425
 5640W        W 9159   2.342   1.819   8.578 -0.1053 -0.2338  0.2705
 5641W        W 9160   6.449   0.889   1.392  0.0003 -0.3684 -0.1142
 5642W        W 9161   0.589   6.436   1.324  0.2104  0.3154  0.0937
 5643W        W 9162   5.515   8.249   2.956  0.0019 -0.0738 -0.1992
 5644W        W 9163   0.234   1.270  12.131 -0.2653  0.1074  0.0221
 5645W        W 9164   4.954   4.586   3.429 -0.0505 -0.0820 -0.0279
 5646W        W 9165   7.614   4.498   2.422  0.2583  0.0798 -0.1219
 5647W        W 9166   8.768   3.415   2.006  0.0027  0.1503  0.3636
 5648W        W 9167   3.046   0.453  12.264  0.3235 -0.0678  0.1288
 5649W        W 9168   6.446   2.434  11.694  0.3348  0.0934 -0.0495
 5650W        W 9169   5.905   9.632   0.463 -0.0404 -0.1115 -0.0615
 5651W        W 9170   2.191   9.108   4.011 -0.0854 -0.1550  0.2159
 5652W        W 9171   8.429   7.300   1.019  0.1791 -0.1849 -0.0424
 5653W        W 9172   1.441   6.387  10.267  0.1687  0.0602 -0.1667
 5654W        W 9173   5.648   4.008   9.128 -0.0441  0.1470 -0.4679
 5655W        W 9174   5.151   5.246   1.346 -0.1319  0.1680  0.0961
 5656W        W 9175   9.699   2.325   9.308 -0.1389  0.0548  0.1374
 5657W        W 9176   5.852   6.605   0.858  0.0890  0.2336 -0.0248
 5658W        W 9177   3.681   5.079   2.381  0.0200  0.2507  0.1787
 5659W        W 9178   8.151   6.029   0.419  0.2036  0.0226  0.1192
 5660W        W 9179   4.242   1.989  10.547 -0.3328  0.1136 -0.1520
 5661W        W 9180   7.799   6.904   8.148  0.0904  0.1335 -0.1169
 5662W        W 9181   1.319   5.169   2.416 -0.2290  0.1381 -0.1741
 5663W        W 9182   8.190   5.546   0.477  0.2154  0.0571  0.0825
 5664W        W 9183   4.060   1.489   0.302  0.1845  0.0674  0.1394
 5665W        W 9184   2.846   6.175  10.420  0.3456  0.1397 -0.1146
 5666W        W 9185   4.901   3.731   3.935 -0.0583  0.2699 -0.2252
 5667W        W 9186   8.197   8.493   8.863 -0.0807  0.0974  0.1405
 5668W        W 9187   5.918   5.229  12.016 -0.1286  0.1871 -0.0379
 5669W        W 9188   1.472   4.796   2.709  0.2459 -0.2208 -0.1171
 5670W        W 9189   7.817   6.175   1.406 -0.0614 -0.2597 -0.0360
 5671W        W 9190   1.244   3.057  10.463  0.1676 -0.1693 -0.0987
 5672W        W 9191   5.541   3.947  11.459  0.1595 -0.0335 -0.4009
 5673W        W 9192   2.198   7.203   9.872 -0.2869 -0.1559 -0.2870
 5674W        W 9193   2.234   1.123   3.995  0.0304 -0.2184 -0.3085
 5675W        W 9194   4.452   0.016   2.722 -0.3105  0.0666  0.3680
 5676W        W 9195   8.809   0.343   0.759  0.1393 -0.2787 -0.1468
 5677W        W 9196   5.499   8.102   0.300 -0.1175 -0.0863 -0.1621
 5678W        W 9197   5.707   5.105   0.610  0.2023  0.4424  0.1969
 5679W        W 9198   3.518   1.518  11.537  0.0693 -0.0573  0.2029
 5680W        W 9199   5.490   9.126   8.852 -0.1384  0.0969  0.0861
 5681W        W 9200   2.458   4.923   2.432  0.1935  0.0761 -0.2827
 5682W        W 9201   6.736   3.027   9.684 -0.4023  0.0464 -0.1650
 5683W        W 9202   0.262   6.224   3.055 -0.0376 -0.0069  0.0770
 5684W        W 9203   3.858   8.617  11.290 -0.3358 -0.0475  0.2366
 5685W        W 9204   3.582   7.976   1.193  0.2464 -0.0981 -0.0441
 5686W        W 9205   5.500   4.440  11.306  0.3392  0.3093  0.3923
 5687W        W 9206   6.383   0.611   0.966  0.0628 -0.0046  0.1481
 5688W        W 9207   5.626   9.029   2.574  0.1526 -0.3367  0.3128
 5689W        W 9208   9.205   7.904   0.888 -0.0013  0.2874 -0.2606
 5690W        W 9209   1.938   7.801  11.731  0.1469 -0.2431  0.0201
 5691W        W 9210   5.829   7.755  11.980 -0.1820 -0.0818  0.1486
 5692W        W 9211   8.094   2.501  11.576 -0.1470 -0.1167  0.2046
 5693W        W 9212   5.490   6.942   8.952 -0.2875 -0.2990  0.2401
 5694W        W 9213   1.384   3.815   0.600  0.0645  0.0363 -0.1761
 5695W        W 9214   8.874   3.508   8.673 -0.0374  0.3982 -0.0873
 5696W        W 9215   5.245   8.990   1.459 -0.0625 -0.3136 -0.0137
 5697W        W 9216   2.690   1.019   4.381  0.1996  0.0595 -0.1299
 5698W        W 9217   3.959   6.313   0.012 -0.1359  0.1390  0.1984
 5699W        W 9218   4.098   6.514   3.015  0.0075  0.3096  0.2436
 5700W        W 9219   3.575   5.953  10.603  0.0350 -0.1821  0.0875
 5701W        W 9220   9.404   4.126   2.393  0.1356 -0.1966  0.1624
 5702W        W 9221   7.695   9.315   0.507  0.2637 -0.0629 -0.5324
 5703W        W 9222   1.824   6.494   1.274 -0.1780 -0.0173 -0.1448
 5704W        W 9223   9.034   7.309  11.837  0.1678  0.1498  0.2914
 5705W        W 9224   1.533   2.269   1.094 -0.1446  0.1136  0.3740
 5706W        W 9225   7.786   8.664   1.268 -0.1527 -0.0568 -0.0863
 5707W        W 9226   6.053   0.603   2.280 -0.3277  0.2067 -0.2877
 5708W        W 9227   5.517   6.891   1.069 -0.0769 -0.2711 -0.3447
 5709W        W 9228   3.309   2.119   3.013 -0.2141 -0.1967 -0.0913
 5710W        W 9229   6.322   7.832   3.553  0.0700 -0.3242 -0.3244
 5711W        W 9230   4.426   2.771  11.134 -0.0196  0.2905  0.1384
 5712W        W 9231   0.314   6.328  10.209  0.2311 -0.3082 -0.0353
 5713W        W 9232   3.057   8.807   9.761 -0.0877 -0.0618 -0.0229
 5714W        W 9233   2.700   5.071   2.052  0.2627  0.0533 -0.3273
 5715W        W 9234   2.248   5.318   2.141  0.0893  0.1043 -0.1353
 5716W        W 9235   6.115   2.777  11.547 -0.2086  0.0224  0.2705
 5717W        W 9236   2.549   9.060  11.103  0.2840 -0.2708 -0.2022
 5718W        W 9237   3.403   3.756   2.579  0.0476 -0.0097 -0.0662
 5719W        W 9238   0.702   7.249   8.083  0.0725  0.2647 -0.0003
 5720W        W 9239   1.367   4.034  10.396  0.1275  0.1752  0.1245
 5721W        W 9240   8.134   1.087   9.843  0.0564  0.1333  0.3267
 5722W        W 9241   6.224   3.673   0.392  0.1198  0.2269  0.2917
 5723W        W 9242   9.147   2.188   1.007 -0.2354 -0.1511  0.3231
 5724W        W 9243   0.016   0.268   2.994  0.0744  0.0522  0.4169
 5725W        W 9244   1.933   1.032   3.133 -0.2334 -0.1891 -0.1099
 5726W        W 9245   6.122   2.047  10.254 -0.1565 -0.0574  0.0621
 5727W        W 9246   0.749   4.995   2.651 -0.1215  0.0478 -0.0713
 5728W        W 9247   3.861   4.455   0.470  0.0708 -0.4704  0.1070
 5729W        W 9248   4.945   7.852   0.703  0.1357  0.1709 -0.0877
 5730W        W 9249   4.830   1.440   9.132  0.1022 -0.1988  0.1111
 5731W        W 9250   9.330   4.547   7.856  0.2876 -0.0538  0.1450
 5732W        W 9251   4.722   4.126   9.507  0.2434 -0.1663 -0.1284
 5733W        W 9252   0.562   7.894   9.557  0.1221  0.3102  0.1914
 5734W        W 9253   5.879   9.291  10.851 -0.0193  0.2531 -0.0243
 5735W        W 9254   7.436   3.833   2.455 -0.0643 -0.3221 -0.0862
 5736W        W 9255   9.091   8.806   0.554  0.0348 -0.0283  0.1588
 5737W        W 9256   7.295   3.472   0.649 -0.2388 -0.2624  0.1603
 5738W        W 9257   7.047   4.060   3.060 -0.2201 -0.0464  0.0157
 5739W        W 9258   4.911   0.734   9.715 -0.0490 -0.0304  0.1469
 5740W        W 9259   8.166   6.472   3.817  0.1869  0.1072 -0.2475
 5741W        W 9260   7.908   7.651   3.484  0.3928  0.0612 -0.0129
 5742W        W 9261   0.733   9.200   8.476 -0.0390  0.1663 -0.0697
 5743W        W 9262   4.247   6.811   8.518  0.2466 -0.4869 -0.0323
 5744W        W 9263   6.601   4.146   3.328 -0.0648 -0.0997  0.3538
 5745W        W 9264   6.993   4.717  12.052  0.0867 -0.1774 -0.1312
 5746W        W 9265   1.578   8.145   1.171 -0.2781  0.2681  0.0152
 5747W        W 9266   1.527   1.134   9.281 -0.0692  0.1046 -0.1717
 5748W        W 9267   3.945   7.369   0.326  0.0327 -0.0308  0.0617
 5749W        W 9268   6.190   8.837   1.086  0.1751 -0.4196  0.1255
 5750W        W 9269   1.346   6.984   9.278  0.0019  0.0898  0.2240
 5751W        W 9270   8.804   5.764  10.801  0.3812  0.0389  0.3171
 5752W        W 9271   9.138   1.589   0.664 -0.0429 -0.1835 -0.1957
 5753W        W 9272   6.136   2.211  11.367  0.4283 -0.0307 -0.1320
 5754W        W 9273   5.830   4.282   0.844  0.3022  0.0487  0.0697
 5755W        W 9274   1.412   9.414  11.943 -0.1164  0.3533  0.1087
 5756W        W 9275   9.631   9.481  10.576  0.1671  0.1154 -0.0087
 5757W        W 9276   6.242   3.054   9.808  0.1063  0.1398 -0.0909
 5758W        W 9277   2.250   3.496   3.590  0.2116  0.2646  0.1063
 5759W        W 9278   0.315   7.731  12.241  0.0005 -0.0258 -0.1258
 5760W        W 9279   0.910   8.835  11.736 -0.2209 -0.0727 -0.1596
 5761W        W 9280   5.743   6.083   1.787  0.4088 -0.0537  0.2520
 5762W        W 9281   2.509   2.322   8.391  0.1323  0.2002 -0.4278
 5763W        W 9282   5.933   2.999   8.523 -0.0127  0.1215  0.3281
 5764W        W 9283   3.849   5.616  11.010 -0.2902  0.1521 -0.0550
 5765W        W 9284   1.239   8.360   3.156 -0.3911  0.0098 -0.0635
 5766W        W 9285   4.928   8.167   2.966  0.1222 -0.2792  0.2310
 5767W        W 9286   7.397   8.767   2.836 -0.3181 -0.3914  0.1913
 5768W        W 9287   3.958   3.810   2.602 -0.2106  0.3730 -0.2124
 5769W        W 9288   9.742   6.193   1.489  0.1033  0.1605 -0.1144
 5770W        W 9289   5.202   2.092   2.345  0.0428  0.1758 -0.1740
 5771W        W 9290   9.610   9.599  11.546  0.0517  0.3277 -0.0722
 5772W        W 9291   0.881   3.253   3.361  0.0040  0.1229  0.0319
 5773W        W 9292   6.782   1.187  11.188 -0.1304  0.0356  0.0257
 5774W        W 9293   0.157   8.989  12.282  0.1423 -0.0660  0.1407
 5775W        W 9294   1.692   3.866   4.091 -0.0713 -0.4573  0.1328
 5776W        W 9295   5.790   5.114   8.445  0.1054  0.0482 -0.0143
 5777W        W 9296   1.244   1.404   9.704 -0.0630 -0.5962 -0.0021
 5778W        W 9297   2.837   8.227  10.904 -0.2717 -0.2306  0.0399
 5779W        W 9298   2.691   6.202  11.749  0.0681  0.0221 -0.0487
 5780W        W 9299   4.497   6.821   2.732  0.3912  0.0275 -0.1135
 5781W        W 9300   8.261   3.107   8.666  0.1249  0.2450  0.0770
 5782W        W 9301   4.791   7.162   1.341 -0.2478  0.1465  0.0327
 5783W        W 9302   4.634   2.540   2.969  0.2809 -0.0679  0.0802
 5784W        W 9303   1.420   8.314  10.842 -0.0833 -0.0540 -0.0815
 5785W        W 9304   9.101   9.290   4.500 -0.2758 -0.2823 -0.0596
 5786W        W 9305   8.904   2.333  11.532 -0.1289  0.1650 -0.1434
 5787W        W 9306   8.945   2.189  10.948 -0.0700  0.2131  0.0615
 5788W        W 9307   3.465   7.158   1.331  0.1625  0.1654  0.0400
 5789W        W 9308   4.060   3.956   0.088  0.0409 -0.0670 -0.2205
 5790W        W 9309   0.152   6.419   3.966 -0.1853 -0.0325  0.3136
 5791W        W 9310   8.475   5.654   1.016 -0.1308  0.4311  0.0920
 5792W        W 9311   3.193   8.811  11.653  0.2724  0.0554 -0.1431
 5793W        W 9312   8.897   6.053   1.395 -0.2153  0.1818 -0.0568
 5794W        W 9313   1.575   0.172   2.793 -0.0038 -0.1625 -0.0920
 5795W        W 9314   3.242   9.703   1.241  0.1057 -0.0160  0.1883
 5796W        W 9315   0.316   8.930   0.885 -0.0164  0.4746 -0.0850
 5797W        W 9316   8.864   7.784   3.459 -0.1633  0.0716  0.2803
 5798W        W 9317   7.760   7.316  10.750  0.2121 -0.0545  0.0793
 5799W        W 9318   5.261   3.326   2.581 -0.3300  0.3391 -0.4223
 5800W        W 9319   2.979   8.721   8.496  0.1156 -0.2102  0.3892
 5801W        W 9320   0.525   7.384   1.149  0.2048  0.1092 -0.1050
 5802W        W 9321   3.621   5.546   2.953  0.1274  0.0487 -0.0088
 5803W        W 9322   7.817   3.801  10.516 -0.3937 -0.4129  0.0807
 5804W        W 9323   7.801   5.276   4.025 -0.3090 -0.2079  0.0567
 5805W        W 9324   9.666   0.414   9.803  0.2477  0.1483 -0.0149
 5806W        W 9325   7.879   6.183   3.440 -0.2330 -0.2311 -0.2477
 5807W        W 9326   4.812   9.610  11.342  0.1755 -0.0412  0.0933
 5808W        W 9327   9.626   4.258  11.853  0.2681  0.1575 -0.0580
 5809W        W 9328   0.425   5.729   0.765  0.0778 -0.3033 -0.2271
 5810W        W 9329   3.000   5.007  12.359 -0.1665  0.0321  0.2522
 5811W        W 9330   9.630   0.680   9.052 -0.1215  0.2406  0.1132
 5812W        W 9331   5.502   6.210   3.968  0.2616  0.3792 -0.3360
 5813W        W 9332   1.827   4.745   3.053  0.1213 -0.1494 -0.1144
 5814W        W 9333   1.654   6.632   9.500 -0.1076 -0.2641  0.2774
 5815W        W 9334   1.494   0.465   1.933 -0.2296  0.0558 -0.0852
 5816W        W 9335   9.489   7.899   1.832 -0.0868  0.5625  0.1015
 5817W        W 9336   2.912   3.601   3.913 -0.1633  0.1513 -0.0331
 5818W        W 9337   1.852   9.308   2.212 -0.2054  0.1582  0.1279
 5819W        W 9338   6.857   6.640   9.943 -0.0379  0.3117 -0.3252
 5820W        W 9339   4.821   1.064   0.216  0.1144  0.0840 -0.1055
 5821W        W 9340   3.817   7.557   1.204 -0.0773 -0.0519  0.2188
 5822W        W 9341   6.154   0.940   3.658  0.3692 -0.0033  0.1884
 5823W        W 9342   0.856   6.739   4.463  0.4798 -0.0687  0.2483
 5824W        W 9343   9.647   7.980  12.313  0.1755  0.0176  0.1963
 5825W        W 9344   2.012   7.037  10.731  0.0596 -0.2193 -0.1796
 5826W        W 9345   5.330   8.713  10.104  0.3012 -0.2381 -0.0522
 5827W        W 9346   6.636   7.693   3.087 -0.0859  0.2899  0.0226
 5828W        W 9347   4.586   5.350   9.227 -0.0351 -0.2910  0.0202
 5829W        W 9348   8.740   4.383   0.935 -0.2326  0.0341  0.0373
 5830W        W 9349   4.716   4.489   0.150  0.0807  0.3328  0.1642
 5831W        W 9350   7.108   4.514  10.034  0.0608  0.2876 -0.1639
 5832W        W 9351   6.838   6.098   8.543  0.0982 -0.1482 -0.3125
 5833W        W 9352   7.451   3.384   2.793 -0.3585 -0.0965  0.0654
 5834W        W 9353   1.152   1.101   1.518  0.0470 -0.2586 -0.1152
 5835W        W 9354   8.382   7.597   8.521  0.0350  0.1075  0.2871
 5836W        W 9355   6.115   4.629   8.676  0.0768  0.0101 -0.0279
 5837W        W 9356   5.933   8.564   0.387 -0.1171  0.2446  0.0854
 5838W        W 9357   5.195   7.512  10.780 -0.0414 -0.0007 -0.2772
 5839W        W 9358   0.520   0.116  10.938 -0.1565 -0.1793  0.3769
 5840W        W 9359   2.281   0.063   1.576  0.0263  0.1645  0.2539
 5841W        W 9360   2.218   0.819   8.707  0.0735  0.1010  0.2366
 5842W        W 9361   4.706   4.224  11.349  0.0957 -0.1959 -0.0981
 5843W        W 9362   6.817   5.310   2.403 -0.1838  0.0462  0.0722
 5844W        W 9363   4.232   2.133   9.967  0.4806 -0.1110 -0.1088
 5845W        W 9364   5.928   3.762  11.835  0.1086  0.1151  0.2275
 5846W        W 9365   9.052   0.449   3.732  0.0151 -0.4257 -0.0028
 5847W        W 9366   5.590   9.639   1.942  0.0153 -0.2405 -0.0940
 5848W        W 9367   7.231   9.673   9.184  0.3368 -0.1256 -0.1392
 5849W        W 9368   3.626   6.427   2.414 -0.1745 -0.2381 -0.0094
 5850W        W 9369   2.518   4.759  12.123  0.0457  0.0819 -0.2938
 5851W        W 9370   6.504   1.340   2.808  0.3335 -0.1579  0.0240
 5852W        W 9371   8.284   4.165   0.826 -0.4285 -0.0753  0.3593
 5853W        W 9372   0.296   0.530   0.799  0.2769 -0.2916 -0.2441
 5854W        W 9373   8.162   4.175   8.072  0.2479 -0.1608  0.0971
 5855W        W 9374   0.109   7.734  10.432  0.0160 -0.1579 -0.2402
 5856W        W 9375   3.019   7.194   3.821 -0.0548 -0.0510  0.0770
 5857W        W 9376   2.261   0.868   9.575  0.0856  0.3539  0.0199
 5858W        W 9377   3.213   0.452  10.209 -0.2040 -0.2291  0.0539
 5859W        W 9378   7.762   6.656   0.651 -0.2191  0.2461  0.0436
 5860W        W 9379   5.998   2.544   1.657  0.4387 -0.0093  0.2406
 5861W        W 9380   3.179   2.654   9.166 -0.1819  0.0418 -0.1718
 5862W        W 9381   8.688   5.262  10.939  0.0435 -0.1021  0.0813
 5863W        W 9382   9.424   4.356  10.446  0.3627  0.0390 -0.2407
 5864W        W 9383   8.423   3.037   1.722 -0.4796 -0.0079  0.0391
 5865W        W 9384   8.578   1.633   0.461  0.0189 -0.1799  0.0132
 5866W        W 9385   5.758   8.089   1.091  0.1392 -0.1846 -0.1188
 5867W        W 9386   9.545   8.967  10.793  0.0006  0.1253  0.4074
 5868W        W 9387   2.747   7.149  11.525  0.0960  0.0104 -0.1912
 5869W        W 9388   0.330   2.648   9.443 -0.0096 -0.1520  0.0337
 5870W        W 9389   1.477   8.647   8.158  0.0885  0.0720  0.0525
 5871W        W 9390   8.651   7.024   9.874  0.0669 -0.0810 -0.1450
 5872W        W 9391   0.545   0.893   0.199 -0.4026 -0.0785  0.1017
 5873W        W 9392   4.896   3.630   3.457  0.3165  0.0810  0.1931
 5874W        W 9393   7.963   0.189   1.149  0.4372  0.0607 -0.0627
 5875W        W 9394   1.994   3.461  10.912  0.0310  0.0060 -0.0595
 5876W        W 9395   6.439   2.180   9.491  0.0458  0.0510 -0.2802
 5877W        W 9396   8.318   6.932   9.130 -0.1473  0.1082 -0.1876
 5878W        W 9397   4.717   3.340   0.628 -0.0518  0.3026  0.1894
 5879W        W 9398   8.360   7.808   2.820  0.1412  0.2239  0.0092
 5880W        W 9399   5.380   8.868   0.985  0.0095 -0.1283  0.2183
 5881W        W 9400   6.957   6.454  10.413  0.0505 -0.0279  0.2011
 5882W        W 9401   8.850   9.641   0.778  0.3185 -0.1776 -0.1188
 5883W        W 9402   8.707   7.790  12.126 -0.1587  0.1069 -0.1595
 5884W        W 9403   0.380   6.384  10.794 -0.3365 -0.1434 -0.0672
 5885W        W 9404   1.433   5.860   9.464 -0.0578 -0.2879  0.0138
 5886W        W 9405   2.890   8.127  12.268 -0.0789 -0.0404 -0.1148
 5887W        W 9406   2.038   7.335   3.984 -0.0485 -0.1495  0.1370
 5888W        W 9407   1.465   1.681  11.516  0.3484  0.0822 -0.0866
 5889W        W 9408   0.764   3.313  11.298  0.3042  0.1761 -0.0221
 5890W        W 9409   0.583   1.829   8.861 -0.0010  0.2474  0.3065
 5891W        W 9410   5.078   6.272  12.136 -0.1926 -0.1158 -0.3515
 5892W        W 9411   3.580   8.830   0.986 -0.0583 -0.0966 -0.1071
 5893W        W 9412   0.176   6.761  10.476 -0.3054 -0.2535  0.0251
 5894W        W 9413   2.847   1.682  11.121  0.2045  0.1833  0.3614
 5895W        W 9414   3.759   6.472   4.252 -0.0841  0.1081 -0.2941
 5896W        W 9415   1.886   8.709   9.750  0.0803 -0.0240  0.2533
 5897W        W 9416   0.615   9.447  10.819 -0.0249  0.2054  0.0974
 5898W        W 9417   1.854   3.644   0.537  0.1233 -0.1525  0.0397
 5899W        W 9418   7.344   0.727   2.617  0.2248  0.0298 -0.1499
 5900W        W 9419   7.949   4.832  10.642  0.0969  0.0778 -0.3141
 5901W        W 9420   5.477   1.713  11.461  0.1859  0.4113  0.0255
 5902W        W 9421   0.074   3.998   1.961  0.0565 -0.3610  0.1245
 5903W        W 9422   2.784   3.921  11.945 -0.2359  0.0566 -0.0236
 5904W        W 9423   9.588   8.482  10.174 -0.3542 -0.0763 -0.0663
 5905W        W 9424   8.620   6.569   3.589 -0.0935 -0.1107 -0.2900
 5906W        W 9425   9.296   9.297   2.660 -0.1548  0.3031  0.4029
 5907W        W 9426   6.398   5.287   2.794  0.2861  0.0153  0.1232
 5908W        W 9427   7.812   0.615   1.474  0.2062  0.0895 -0.1739
 5909W        W 9428   1.888   1.270  10.274  0.2474 -0.1036 -0.1562
 5910W        W 9429   1.926   4.937   8.135 -0.0193  0.3087  0.1119
 5911W        W 9430   9.336   9.525  10.099 -0.2460  0.3207  0.3837
 5912W        W 9431   2.867   7.810   0.923  0.1720 -0.0212 -0.0089
 5913W        W 9432   1.648   5.500   0.323  0.0459  0.1038  0.0932
 5914W        W 9433   9.296   6.481   3.168 -0.0405 -0.1352 -0.2095
 5915W        W 9434   7.287   7.335   9.366  0.3696 -0.1430 -0.2283
 5916W        W 9435   3.874   5.798   0.587  0.0502 -0.0833 -0.0212
 5917W        W 9436   7.195   2.454   0.560  0.0687  0.0696 -0.1992
 5918W        W 9437   1.049   9.273   7.640  0.2847  0.0376  0.2845
 5919W        W 9438   4.280   9.492   0.091 -0.4427 -0.1308 -0.0490
 5920W        W 9439   7.236   7.333   1.223  0.0196 -0.1547 -0.1804
 5921W        W 9440   2.041   8.094   1.653 -0.0227 -0.1814  0.3026
 5922W        W 9441   2.299   1.041   3.525  0.0077 -0.0660 -0.1851
 5923W        W 9442   5.613   0.977   2.962 -0.1633  0.3099  0.4795
 5924W        W 9443   0.899   0.676   1.141  0.0335 -0.2498  0.0528
 5925W        W 9444   8.687   4.184  10.881 -0.1706 -0.1726  0.0651
 5926W        W 9445   2.894   6.701   3.890 -0.0272 -0.1214 -0.0452
 5927W        W 9446   8.986   3.935   8.951 -0.1814  0.0477 -0.1355
 5928W        W 9447   6.212   9.573   3.494  0.1204  0.0769  0.0116
 5929W        W 9448   8.829   0.073  10.897 -0.2902  0.2803  0.2338
 5930W        W 9449   3.075   1.868   9.614 -0.2788 -0.1534 -0.1237
 5931W        W 9450   4.498   6.107   1.196 -0.3048  0.3035  0.2245
 5932W        W 9451   3.352   1.861  11.022  0.0164 -0.2671  0.2094
 5933W        W 9452   0.892   5.517   2.728 -0.2040  0.2274 -0.1724
 5934W        W 9453   1.464   7.839  11.966 -0.3072 -0.1935  0.0055
 5935W        W 9454   1.394   1.868   1.491  0.1011 -0.0310  0.3986
 5936W        W 9455   7.049   6.186  12.241 -0.2876 -0.0799 -0.0324
 5937W        W 9456   0.822   6.477  11.046 -0.3612 -0.0094 -0.3053
 5938W        W 9457   4.815   6.499   3.694  0.2967 -0.1760  0.1817
 5939W        W 9458   2.048   6.874   2.800 -0.1391  0.0881 -0.2908
 5940W        W 9459   4.495   4.827   1.491 -0.1182  0.0144  0.2527
 5941W        W 9460   6.195   8.905   1.656 -0.1692  0.1462  0.0680
 5942W        W 9461   1.240   4.166   3.212 -0.2313 -0.1767  0.1391
 5943W        W 9462   2.968   5.108   8.604 -0.1426 -0.0389 -0.0437
 5944W        W 9463   2.504   2.589   9.989 -0.1896  0.1608  0.2411
 5945W        W 9464   3.035   5.871   2.465  0.0905  0.3896 -0.0493
 5946W        W 9465   0.938   4.694  10.080  0.0217 -0.1228  0.0152
 5947W        W 9466   8.954   3.847   0.339 -0.0296  0.4273  0.0581
 5948W        W 9467   8.708   0.105   9.932 -0.1057  0.2274  0.1404
 5949W        W 9468   6.442   4.469   0.465  0.1163 -0.0159 -0.0360
 5950W        W 9469   5.423   1.095   1.279 -0.1384  0.2806  0.2577
 5951W        W 9470   2.471   8.710   9.667  0.1122  0.3282  0.0355
 5952W        W 9471   2.821   8.909   1.922 -0.0413 -0.1332  0.3066
 5953W        W 9472   3.452   1.281   1.471 -0.0615  0.0398  0.2355
 5954W        W 9473   4.401   1.525  11.842 -0.3227  0.4627  0.3101
 5955W        W 9474   3.581   8.164   3.729 -0.1927  0.2898 -0.1030
 5956W        W 9475   5.619   8.575   8.954 -0.2484 -0.0459 -0.0775
 5957W        W 9476   2.173   2.870  11.162  0.0304 -0.1464  0.1248
 5958W        W 9477   4.953   6.306   1.304 -0.1771  0.3487  0.1663
 5959W        W 9478   0.498   1.369   0.333  0.3003 -0.4550 -0.1291
 5960W        W 9479   3.249   4.256   2.390  0.0298 -0.2088  0.0307
 5961W        W 9480   6.408   8.882  11.891  0.1461 -0.3060 -0.0216
 5962W        W 9481   9.378   1.834   8.593  0.0769  0.0695  0.1360
 5963W        W 9482   3.249   8.373   2.661 -0.3147  0.0366  0.4205
 5964W        W 9483   9.464   9.080   1.824  0.0882 -0.1959  0.1953
 5965W        W 9484   3.609   6.101  12.070 -0.0716  0.1488 -0.0746
 5966W        W 9485   7.325   3.809  10.536  0.0400  0.4497 -0.0571
 5967W        W 9486   6.418   7.916   2.627  0.0260 -0.1168 -0.0883
 5968W        W 9487   5.593   1.289   1.781 -0.0952  0.2406  0.0167
 5969W        W 9488   6.177   5.450  11.203 -0.0330  0.1002  0.0320
 5970W        W 9489   4.176   2.756   3.191  0.2091 -0.1969 -0.0761
 5971W        W 9490   5.241   6.014   9.240 -0.1250  0.0583  0.1854
 5972W        W 9491   1.016   9.038   2.016  0.1409  0.1519 -0.2118
 5973W        W 9492   1.922   1.754  10.352 -0.1897 -0.1051 -0.1804
 5974W        W 9493   9.505   2.006   3.605 -0.0084 -0.1635  0.4418
 5975W        W 9494   1.073   5.120   4.541 -0.3708  0.1426 -0.0809
 5976W        W 9495   1.209   5.259  10.814 -0.2353  0.2384 -0.0953
 5977W        W 9496   0.465   6.801   4.842  0.1357 -0.1677  0.2190
 5978W        W 9497   6.425   0.564  10.453  0.1877 -0.1998  0.2406
 5979W        W 9498   9.556   3.315   9.485  0.2855  0.0521  0.2190
 5980W        W 9499   5.198   6.731   3.078 -0.1731 -0.1628  0.0021
 5981W        W 9500   4.193   8.196   2.696  0.1900  0.1119  0.1374
 5982W        W 9501   6.212   4.431   0.016  0.1725 -0.2271  0.3248
 5983W        W 9502   8.472   1.424   9.223  0.0251  0.1412 -0.1242
 5984W        W 9503   7.763   6.779   8.703  0.1706  0.2115 -0.3521
 5985W        W 9504   7.560   4.289  10.183 -0.2097 -0.1787  0.2053
 5986W        W 9505   0.541   8.882   1.756 -0.0322 -0.3948 -0.1842
 5987W        W 9506   9.556   1.436   9.377  0.2033  0.4302 -0.0204
 5988W        W 9507   3.723   3.277   0.688 -0.0086 -0.0682  0.0972
 5989W        W 9508   6.481   2.015   0.748 -0.0124  0.0388 -0.2316
 5990W        W 9509   7.985   9.560   1.513 -0.0234 -0.1416 -0.0518
 5991W        W 9510   6.025   4.569   2.156 -0.1167 -0.0273  0.2702
 5992W        W 9511   3.774   0.637   8.989  0.0529 -0.2032  0.3345
 5993W        W 9512   5.368   2.302   0.064  0.2338  0.1835 -0.2997
 5994W        W 9513   7.525   8.626   0.698  0.2498 -0.3948  0.2009
 5995W        W 9514   8.704   2.656  10.788 -0.0336 -0.0437 -0.1233
 5996W        W 9515   9.404   3.032  11.290  0.2678 -0.0447 -0.1118
 5997W        W 9516   9.310   8.158  11.902  0.1818  0.1685 -0.1447
 5998W        W 9517   3.115   8.642  10.257  0.0806  0.1672  0.2417
 5999W        W 9518   4.700   2.541  10.683 -0.3255 -0.1723 -0.0990
 6000W        W 9519   9.703   8.084   1.032 -0.1911 -0.1810 -0.0551
 6001W        W 9520   6.283   6.064  11.944  0.0451  0.0411  0.2227
 6002W        W 9521   2.491   6.073   4.607  0.1534  0.0387 -0.0813
 6003W        W 9522   4.376   2.657   9.145 -0.0018 -0.0955 -0.2144
 6004W        W 9523   2.646   2.650  11.143 -0.0567 -0.0836  0.1619
 6005W        W 9524   8.933   7.783   0.287  0.1450  0.0941 -0.2904
 6006W        W 9525   1.530   1.556   2.483  0.1563  0.2190 -0.0941
 6007W        W 9526   3.803   8.633   3.587  0.1128  0.3541 -0.1286
 6008W        W 9527   2.398   2.314  11.688 -0.0975  0.3313  0.1206
 6009W        W 9528   1.764   3.959   8.831  0.0481  0.0378  0.2585
 6010W        W 9529   2.023   3.682  11.659  0.4906 -0.0140 -0.1413
 6011W        W 9530   9.042   5.118   2.593  0.2474 -0.4111  0.2520
 6012W        W 9531   6.889   5.237  12.108  0.2974 -0.2093  0.2105
 6013W        W 9532   3.893   2.032   1.258 -0.1858 -0.2853 -0.0648
 6014W        W 9533   1.338   7.931   8.109 -0.3777 -0.2158  0.0871
 6015W        W 9534   8.621   3.789   4.066  0.2637 -0.0302  0.2367
 6016W        W 9535   5.108   3.935   9.774 -0.0688 -0.0304  0.0043
 6017W        W 9536   4.265   9.072  10.790  0.1923 -0.0441  0.2736
 6018W        W 9537   3.786   9.417   3.834  0.1918 -0.0825  0.0165
 6019W        W 9538   8.870   1.318  11.663  0.1495  0.0373 -0.2843
 6020W        W 9539   1.307   7.348   1.544  0.0793 -0.2442  0.0494
 6021W        W 9540   2.982   7.157   1.197  0.0472  0.4112 -0.0720
 6022W        W 9541   7.118   8.263  10.764  0.0404  0.2143 -0.1156
 6023W        W 9542   1.832   8.890   9.291 -0.0467 -0.1637 -0.1072
 6024W        W 9543   8.952   2.508   0.054  0.3897 -0.0854 -0.3669
 6025W        W 9544   0.301   6.883   0.393 -0.1284  0.0537 -0.2595
 6026W        W 9545   7.524   8.893   9.670 -0.2255  0.2844  0.2406
 6027W        W 9546   5.648   9.142   0.593 -0.0580 -0.0176  0.0134
 6028W        W 9547   7.810   1.580   1.907  0.0419 -0.2209  0.0570
 6029W        W 9548   4.250   7.452   8.388  0.0252  0.0277  0.0826
 6030W        W 9549   7.784   2.171   9.477 -0.2148 -0.1441  0.0696
 6031W        W 9550   6.068   7.254   3.138  0.1674 -0.1711  0.2583
 6032W        W 9551   0.886   5.598   3.241  0.1347  0.0018  0.1171
 6033W        W 9552   7.902   3.178   2.930  0.1971  0.0383  0.2128
 6034W        W 9553   5.908   1.719   1.865 -0.2615 -0.0210 -0.0480
 6035W        W 9554   1.355   8.823   2.298 -0.0560 -0.0604  0.0258
 6036W        W 9555   6.935   8.644   9.809  0.0233 -0.0449  0.0611
 6037W        W 9556   1.002   5.626   1.407 -0.3870  0.1316  0.0479
 6038W        W 9557   5.196   6.328   8.821  0.1049 -0.0274  0.1990
 6039W        W 9558   2.043   9.278   9.726 -0.2225  0.1658  0.1561
 6040W        W 9559   7.053   8.532   0.622  0.3108 -0.0202 -0.1173
 6041W        W 9560   1.412   0.187   4.033  0.0759  0.0523 -0.0641
 6042W        W 9561   9.514   0.612  10.331  0.2323 -0.0732 -0.0829
 6043W        W 9562   2.324   5.235  10.264 -0.5857 -0.4426  0.3005
 6044W        W 9563   1.701   0.917   1.889 -0.0543 -0.0206  0.0587
 6045W        W 9564   9.750   1.545  11.492 -0.0160 -0.2173  0.2438
 6046W        W 9565   2.890   8.608  11.240  0.0006  0.1811 -0.1232
 6047W        W 9566   1.600   0.898   0.027  0.2790  0.0744 -0.3023
 6048W        W 9567   9.146   9.088   2.240 -0.3928 -0.4793 -0.2550
 6049W        W 9568   7.873   6.783   9.238  0.2803  0.0342  0.1446
 6050W        W 9569   2.581   3.075   1.228 -0.3544 -0.1483 -0.1433
 6051W        W 9570   5.637   0.166   4.028  0.1748 -0.4306  0.1166
 6052W        W 9571   1.307   3.277   0.660  0.0475 -0.2509 -0.1848
 6053W        W 9572   1.460   2.677  11.342 -0.1496  0.1467  0.2059
 6054W        W 9573   8.619   0.474   1.892  0.1483 -0.0059  0.1634
 6055W        W 9574   6.491   1.738  11.020  0.0488 -0.2325 -0.1201
 6056W        W 9575   5.592   0.605   2.579 -0.0210 -0.4994 -0.5271
 6057W        W 9576   2.956   8.672   1.057  0.0303 -0.2375 -0.1394
 6058W        W 9577   1.548   5.572   3.509 -0.3703 -0.0368 -0.0785
 6059W        W 9578   0.145   3.143  12.010 -0.0564  0.0843  0.3364
 6060W        W 9579   9.634   4.450  10.938 -0.1626  0.0510  0.1432
 6061W        W 9580   0.505   2.272  11.216 -0.1059 -0.0987 -0.1429
 6062W        W 9581   9.537   8.449   9.067  0.1108  0.3917 -0.3548
 6063W        W 9582   3.168   2.419   2.636 -0.2204 -0.2297  0.0587
 6064W        W 9583   6.443   2.628   0.940  0.0764  0.0790 -0.1014
 6065W        W 9584   3.371   3.150   9.035 -0.1752 -0.3232 -0.1366
 6066W        W 9585   0.002   2.548   1.653  0.1805 -0.0694  0.0156
 6067W        W 9586   8.441   8.076   8.101  0.2422 -0.0602 -0.2905
 6068W        W 9587   0.148   1.592   9.608 -0.3050  0.1526 -0.4371
 6069W        W 9588   1.641   3.952   0.976  0.0668 -0.0729 -0.1157
 6070W        W 9589   4.009   5.428   9.309  0.0213 -0.1324 -0.0907
 6071W        W 9590   2.462   2.430   9.354  0.0837 -0.0394 -0.5669
 6072W        W 9591   8.351   1.535  11.908  0.0604  0.2500  0.1245
 6073W        W 9592   0.775   9.341  11.267  0.1484  0.2207 -0.0837
 6074W        W 9593   0.284   9.344  10.237 -0.1277  0.2000 -0.1593
 6075W        W 9594   5.490   0.549   0.715 -0.1630  0.2613  0.1555
 6076W        W 9595   2.145   5.827  10.251  0.0846 -0.1884 -0.2150
 6077W        W 9596   7.772   2.081  11.425  0.0122 -0.2817  0.3556
 6078W        W 9597   0.328   0.369   1.847  0.2229 -0.2710 -0.2550
 6079W        W 9598   2.269   2.284   2.563 -0.2099  0.3575  0.1339
 6080W        W 9599   2.781   6.863   0.776  0.0713 -0.1137 -0.1656
 6081W        W 9600   5.819   5.920   0.165 -0.1205  0.2178 -0.2540
 6082W        W 9601   2.983   7.082   2.730 -0.1433  0.0283 -0.0038
 6083W        W 9602   2.411   5.446   9.795 -0.0129 -0.0530  0.2001
 6084W        W 9603   1.270   3.704  12.050 -0.3268  0.0419  0.0164
 6085W        W 9604   4.170   2.404  10.839  0.0861 -0.0136  0.1061
 6086W        W 9605   2.215   5.476   2.593 -0.0330 -0.3072 -0.1190
 6087W        W 9606   8.317   5.407   3.069 -0.1743  0.0019  0.0763
 6088W        W 9607   8.574   3.281   9.017 -0.0440 -0.3322 -0.1009
 6089W        W 9608   9.689   0.409   1.214  0.1154  0.1478  0.1053
 6090W        W 9609   2.202   4.558  10.684  0.1031 -0.0137  0.2610
 6091W        W 9610   1.506   6.346   7.829 -0.0957  0.0198  0.1540
 6092W        W 9611   1.396   0.972   1.082 -0.4275  0.1584  0.2228
 6093W        W 9612   7.486   6.445  12.146  0.0624  0.0849  0.0299
 6094W        W 9613   4.038   5.276  10.136  0.1904 -0.0858  0.1579
 6095W        W 9614   3.364   2.248   9.372  0.2210 -0.0906 -0.1323
 6096W        W 9615   3.215   3.114   0.954 -0.1681  0.3233  0.1929
 6097W        W 9616   2.231   8.281   2.972 -0.1113 -0.2646  0.1911
 6098W        W 9617   2.281   8.143  11.907  0.0145  0.1619  0.1277
 6099W        W 9618   1.956   4.116   2.330 -0.2028  0.1627  0.0120
 6100W        W 9619   2.240   2.110  10.140  0.1815 -0.0968 -0.0250
 6101W        W 9620   4.399   8.365   1.541  0.3222 -0.0765  0.3520
 6102W        W 9621   3.670   6.474  10.694  0.1816 -0.0823 -0.2051
 6103W        W 9622   3.437   5.518   0.425 -0.0822 -0.1625 -0.0456
 6104W        W 9623   4.220   5.880   0.219  0.5721 -0.0276 -0.3109
 6105W        W 9624   4.578   2.289  11.800 -0.0586  0.0376  0.1792
 6106W        W 9625   5.034   0.771   2.645  0.1894 -0.0405 -0.0350
 6107W        W 9626   5.022   6.201   9.766 -0.1426 -0.1027 -0.0331
 6108W        W 9627   7.705   6.398   8.961  0.3735  0.0339  0.2053
 6109W        W 9628   2.447   5.956   1.482 -0.1117 -0.4535  0.1284
 6110W        W 9629   5.798   9.161   1.164 -0.1698  0.1088  0.1728
 6111W        W 9630   7.348   5.753  10.762  0.2560 -0.1966  0.2640
 6112W        W 9631   1.070   0.481   2.239 -0.4554 -0.1361  0.0340
 6113W        W 9632   7.595   9.209  11.970 -0.1562  0.2565  0.0127
 6114W        W 9633   1.094   3.820   1.025  0.2083  0.2609 -0.0413
 6115W        W 9634   4.246   5.869  10.792 -0.1148 -0.3741 -0.0207
 6116W        W 9635   2.879   3.099   8.837  0.3213 -0.0437  0.1364
 6117W        W 9636   3.604   7.117   9.642  0.0846  0.2066  0.0204
 6118W        W 9637   8.925   1.482   2.953 -0.0939  0.0492 -0.1733
 6119W        W 9638   8.815   4.698   7.972 -0.1627  0.2956 -0.1902
 6120W        W 9639   8.815   1.273   8.480  0.0745 -0.2701  0.1223
 6121W        W 9640   2.139   5.421   8.828  0.0028  0.0503  0.2219
 6122W        W 9641   9.573   8.796   2.370  0.4121 -0.1600 -0.1403
 6123W        W 9642   4.818   0.326   1.428 -0.2813 -0.0953  0.1757
 6124W        W 9643   0.088   2.524  12.348 -0.1894  0.0066 -0.1148
 6125W        W 9644   8.719   1.631  12.239  0.5652 -0.0968  0.2366
 6126W        W 9645   3.632   0.806   1.535  0.0524 -0.1402  0.3911
 6127W        W 9646   2.669   8.828  11.679 -0.0237  0.0701  0.0960
 6128W        W 9647   7.456   9.249   3.361 -0.0312  0.0399 -0.0104
 6129W        W 9648   4.902   8.840   1.816 -0.4417 -0.0045  0.2058
 6130W        W 9649   6.269   6.450   2.838 -0.3503  0.3946  0.2122
 6131W        W 9650   2.115   3.183  11.932  0.1475 -0.1633 -0.2366
 6132W        W 9651   8.639   1.033   8.977  0.0454  0.2141 -0.0793
 6133W        W 9652   0.827   8.999   0.327  0.0592 -0.1750  0.2191
 6134W        W 9653   0.251   9.649   4.309  0.0984 -0.1375 -0.1124
 6135W        W 9654   4.581   5.052  11.859 -0.0570 -0.0888  0.0041
 6136W        W 9655   0.921   6.620   9.293 -0.2089 -0.1733 -0.1033
 6137W        W 9656   4.609   9.353   9.220  0.0413 -0.1278 -0.1814
 6138W        W 9657   6.820   7.711  11.384 -0.0946 -0.4263  0.0141
 6139W        W 9658   2.989   4.103  11.075 -0.0826  0.0926 -0.0625
 6140W        W 9659   9.663   3.877   3.907  0.1572 -0.0365  0.1874
 6141W        W 9660   7.580   0.294   2.475 -0.0209 -0.0084 -0.3246
 6142W        W 9661   4.812   5.410   9.801  0.3921  0.0991  0.0821
 6143W        W 9662   6.210   8.411  10.982  0.1833 -0.0232  0.2173
 6144W        W 9663   1.098   4.376  10.597  0.1977  0.2094 -0.2499
 6145W        W 9664   6.005   3.113   3.156  0.0310 -0.1127  0.3401
 6146W        W 9665   8.273   4.440   9.666 -0.4108  0.1321  0.0555
 6147W        W 9666   8.591   2.320   9.401  0.0946  0.0802  0.0406
 6148W        W 9667   8.863   9.354  10.101  0.1868 -0.0488 -0.0319
 6149W        W 9668   8.120   7.708   4.405 -0.0011  0.1288 -0.1489
 6150W        W 9669   4.796   7.950   8.954  0.0790 -0.0534 -0.0887
 6151W        W 9670   8.024   4.904   9.766  0.1060 -0.3734  0.2331
 6152W        W 9671   8.030   3.067   2.450  0.0054  0.0982 -0.3163
 6153W        W 9672   4.413   5.161   2.427 -0.0350  0.2033 -0.2800
 6154W        W 9673   9.322   1.833   2.704  0.1573 -0.0200  0.0497
 6155W        W 9674   4.870   7.432   9.067  0.0753 -0.0005 -0.1615
 6156W        W 9675   8.208   2.555  10.660  0.1335 -0.0319  0.1353
 6157W        W 9676   0.378   1.051   1.964 -0.0311  0.1361 -0.1493
 6158W        W 9677   8.835   5.858   8.327  0.1049  0.0095 -0.1184
 6159W        W 9678   3.274   4.396  10.327 -0.1163 -0.0193  0.0181
 6160W        W 9679   0.919   6.332  10.378  0.2075 -0.3433  0.0190
 6161W        W 9680   9.013   8.521   9.186 -0.0492 -0.0741  0.0804
 6162W        W 9681   1.689   4.805   9.927 -0.0798 -0.1688  0.1275
 6163W        W 9682   2.604   5.638   9.041  0.2208 -0.2505  0.1215
 6164W        W 9683   3.612   7.628   3.059 -0.0208 -0.0885  0.0241
 6165W        W 9684   5.268   7.848   8.772  0.2163 -0.2211  0.1388
 6166W        W 9685   8.999   3.563  11.135 -0.0434  0.2318 -0.1883
 6167W        W 9686   5.577   3.850   1.512  0.1547 -0.3979 -0.1599
 6168W        W 9687   7.077   5.028   0.156  0.1896  0.0828 -0.2972
 6169W        W 9688   9.316   4.390   9.616  0.0453  0.0556 -0.1557
 6170W        W 9689   2.656   8.683  10.126  0.2147  0.1487 -0.2195
 6171W        W 9690   5.835   9.162   9.587  0.1809  0.1369  0.0476
 6172W        W 9691   6.191   7.724   9.185  0.1225 -0.2245 -0.2502
 6173W        W 9692   5.952   7.512  10.453  0.3236 -0.2707  0.1158
 6174W        W 9693   8.307   1.105   3.764 -0.2366  0.1088 -0.0874
 6175W        W 9694   0.834   7.786   1.713  0.1504 -0.2098  0.2555
 6176W        W 9695   9.084   8.236   8.719 -0.0276  0.0154  0.0014
 6177W        W 9696   2.902   7.181  12.013  0.3215  0.3124  0.3126
 6178W        W 9697   7.428   5.171  10.691  0.1674 -0.4769  0.2767
 6179W        W 9698   0.027   1.335   2.267 -0.1525  0.0574 -0.1134
 6180W        W 9699   8.645   3.428   0.078 -0.4330 -0.1829 -0.0138
 6181W        W 9700   4.014   5.971   2.741  0.1753  0.5113 -0.1878
 6182W        W 9701   7.571   4.829   4.580 -0.3559  0.1608  0.0311
 6183W        W 9702   6.701   8.642  12.178 -0.2260  0.1381  0.1732
 6184W        W 9703   6.327   7.129   1.417  0.0776  0.1232 -0.1039
 6185W        W 9704   6.858   9.529   4.036  0.0335 -0.3710 -0.3787
 6186W        W 9705   3.894   2.836   0.513  0.1482 -0.0073  0.1962
 6187W        W 9706   3.936   6.905   2.562 -0.1648  0.1841 -0.1831
 6188W        W 9707   2.985   7.808   0.312  0.2770 -0.1803 -0.0507
 6189W        W 9708   6.854   0.325   0.258  0.0540 -0.2080  0.0940
 6190W        W 9709   6.064   2.935  12.058 -0.0737 -0.3472 -0.2984
 6191W        W 9710   5.705   2.156   8.908  0.1603 -0.1490 -0.1913
 6192W        W 9711   5.080   3.507  11.714 -0.0699  0.1075 -0.2155
 6193W        W 9712   9.179   4.696   0.790  0.3077  0.1906  0.1933
 6194W        W 9713   2.155   5.558   9.350  0.4442 -0.0253  0.0299
 6195W        W 9714   8.492   9.385   3.479  0.1145  0.1725  0.4460
 6196W        W 9715   2.344   5.068   3.409  0.2463  0.0255  0.3664
 6197W        W 9716   7.901   2.715  12.316 -0.1168  0.1247 -0.0487
 6198W        W 9717   8.794   6.555   9.969 -0.2825 -0.1571 -0.3645
 6199W        W 9718   0.122   9.161  11.211 -0.3280 -0.0552  0.0708
 6200W        W 9719   8.220   8.811   1.797 -0.0128 -0.2167  0.0707
 6201W        W 9720   6.116   4.331  10.574 -0.3423  0.0511  0.3574
 6202W        W 9721   3.783   1.962   0.270  0.0308 -0.2766  0.0424
 6203W        W 9722   6.479   5.111   0.532 -0.0461  0.3703  0.0488
 6204W        W 9723   8.712   5.150   7.627  0.3292  0.0329 -0.1622
 6205W        W 9724   2.966   9.449  12.021  0.0958  0.1308 -0.0548
 6206W        W 9725   1.727   3.578   9.732  0.2177  0.2022 -0.0173
 6207W        W 9726   0.813   1.774   0.200  0.0832 -0.1399  0.1271
 6208W        W 9727   7.623   8.582   8.431 -0.1955  0.4834 -0.2334
 6209W        W 9728   9.378   6.587   0.392  0.1348  0.1436 -0.1786
 6210W        W 9729   0.657   6.891  10.202  0.0789 -0.0192  0.0346
 6211W        W 9730   1.486   5.596   1.115 -0.1099  0.2785 -0.0874
 6212W        W 9731   3.067   9.054   0.296 -0.0429  0.0669 -0.0876
 6213W        W 9732   1.412   1.680   3.897  0.0510  0.0429  0.1435
 6214W        W 9733   2.725   0.431  10.395 -0.2509 -0.0600  0.0459
 6215W        W 9734   7.797   3.558  11.822 -0.3258 -0.0406 -0.2459
 6216W        W 9735   2.954   2.473   9.579  0.0265  0.0189 -0.0839
 6217W        W 9736   6.390   6.586   1.483 -0.3973 -0.1468 -0.0579
 6218W        W 9737   0.425   6.925   1.493  0.0822 -0.4833 -0.1328
 6219W        W 9738   4.564   6.004  10.396 -0.2225 -0.0268 -0.1818
 6220W        W 9739   8.292   9.352   2.391 -0.0611 -0.2424 -0.0192
 6221W        W 9740   2.580   2.953   4.435 -0.3505 -0.3098  0.3123
 6222W        W 9741   6.283   5.841   0.367  0.1154 -0.1717 -0.1716
 6223W        W 9742   6.752   9.126   2.235  0.1845 -0.1522 -0.1406
 6224W        W 9743   3.634   9.335   3.322  0.4186  0.1475 -0.0603
 6225W        W 9744   2.968   3.941   9.336 -0.5068  0.1754 -0.4610
 6226W        W 9745   5.422   9.013  11.538 -0.0006  0.1388  0.1046
 6227W        W 9746   3.068   8.600   1.586 -0.0076 -0.1700  0.5725
 6228W        W 9747   5.362   3.498  11.244  0.0058  0.1618 -0.0127
 6229W        W 9748   0.489   2.466   1.845  0.0908  0.1307 -0.0929
 6230W        W 9749   1.313   1.459   1.010  0.1269 -0.2386  0.2267
 6231W        W 9750   5.270   5.967   0.115 -0.2657  0.0513 -0.1999
 6232W        W 9751   3.433   1.246   2.471 -0.0020 -0.0190 -0.3795
 6233W        W 9752   5.375   2.897  10.041  0.2665 -0.0171 -0.0423
 6234W        W 9753   1.673   7.864   0.177  0.0768 -0.1652  0.1467
 6235W        W 9754   8.967   8.915   4.154 -0.3406 -0.0310  0.0618
 6236W        W 9755   2.280   9.650   8.486  0.1053  0.1553 -0.0984
 6237W        W 9756   3.475   0.058  11.512 -0.1744 -0.0133 -0.1296
 6238W        W 9757   7.408   0.759  11.036  0.0194  0.0583 -0.1962
 6239W        W 9758   5.004   6.513   9.296  0.0783  0.1231 -0.0264
 6240W        W 9759   5.643   0.407   1.922 -0.1502  0.0319 -0.0147
 6241W        W 9760   4.910   4.853   9.047  0.0561  0.0257  0.0539
 6242W        W 9761   3.672   1.310   3.598 -0.1709 -0.1771 -0.3132
 6243W        W 9762   5.368   6.007   0.590  0.3462  0.0126  0.1556
 6244W        W 9763   8.567   5.838   8.774 -0.1258  0.1939 -0.1866
 6245W        W 9764   0.396   8.253  12.180 -0.0796 -0.2342 -0.3338
 6246W        W 9765   1.243   0.386  11.268 -0.0204 -0.1540  0.0996
 6247W        W 9766   9.617   1.493   0.829  0.2203  0.1724 -0.0735
 6248W        W 9767   9.558   2.906  10.741 -0.1266 -0.0489  0.2025
 6249W        W 9768   1.899   6.314   2.332  0.3673  0.1914 -0.3733
 6250W        W 9769   5.603   2.763  10.686  0.0497  0.0808 -0.1486
 6251W        W 9770   2.476   3.687   1.560 -0.1753  0.1488 -0.0403
 6252W        W 9771   1.035   4.368  11.124  0.3332  0.0064 -0.0159
 6253W        W 9772   1.189   3.896   1.987 -0.0695 -0.1701  0.0416
 6254W        W 9773   3.153   5.039   0.500 -0.2010  0.0144  0.1489
 6255W        W 9774   5.812   3.167  10.808 -0.0221 -0.1300  0.5462
 6256W        W 9775   1.034   1.935   3.993 -0.1896  0.1450 -0.0811
 6257W        W 9776   7.738   7.022   7.590  0.1121  0.1967  0.1145
 6258W        W 9777   7.642   7.373  11.754  0.0576 -0.3357  0.2127
 6259W        W 9778   0.157   5.163  11.750 -0.1662  0.1065  0.2204
 6260W        W 9779   9.695   6.680   9.006 -0.1143 -0.3212 -0.1113
 6261W        W 9780   2.790   5.955   1.826 -0.1258  0.1388 -0.1334
 6262W        W 9781   7.870   3.750   2.126  0.0349  0.1389  0.0638
 6263W        W 9782   9.329   5.376   8.729  0.0956 -0.2018 -0.1287
 6264W        W 9783   3.270   0.472   9.185  0.3135  0.3627  0.0375
 6265W        W 9784   4.680   2.807  12.197  0.1082  0.0243  0.0656
 6266W        W 9785   5.289   3.631   3.027 -0.3892  0.2214 -0.1961
 6267W        W 9786   6.821   2.235  11.026 -0.3293 -0.2802  0.3790
 6268W        W 9787   7.713   0.928   0.574  0.2984 -0.1376 -0.0280
 6269W        W 9788   6.296   2.220   3.005 -0.1657 -0.4834 -0.0128
 6270W        W 9789   6.525   0.550   0.513  0.2161 -0.1714  0.0683
 6271W        W 9790   8.319   0.672   1.338 -0.1381  0.0041  0.0765
 6272W        W 9791   7.751   0.872   2.975 -0.0104  0.1871  0.0280
 6273W        W 9792   4.481   9.033   0.368  0.1629  0.1053 -0.1078
 6274W        W 9793   8.376   9.626   8.415  0.2586  0.0894 -0.0973
 6275W        W 9794   1.991   0.701   0.863  0.0499 -0.2007 -0.0768
 6276W        W 9795   1.012   4.531  11.694 -0.0629  0.2211 -0.0016
 6277W        W 9796   0.151   7.236   2.084  0.1365  0.1420  0.1343
 6278W        W 9797   9.707   8.423   4.757  0.3119  0.2276 -0.0161
 6279W        W 9798   3.443   0.225  10.719 -0.3510 -0.0803  0.2035
 6280W        W 9799   1.045   2.312  11.521 -0.2946 -0.4139 -0.3647
 6281W        W 9800   0.320   6.212   9.749 -0.2122  0.0405  0.2342
 6282W        W 9801   1.120   6.407   8.500 -0.3563  0.2048  0.1968
 6283W        W 9802   0.082   3.026   3.902 -0.3692  0.2930 -0.2274
 6284W        W 9803   2.617   4.791  10.482 -0.1151  0.2194 -0.2410
 6285W        W 9804   8.962   1.365   9.236 -0.0337 -0.1127 -0.1186
 6286W        W 9805   0.065   5.324  10.053  0.2665  0.1220  0.1819
 6287W        W 9806   3.156   0.439  11.290  0.1204 -0.0429  0.2301
 6288W        W 9807   7.616   5.763   1.192  0.1883 -0.1125 -0.0190
 6289W        W 9808   6.491   4.064   0.252  0.2470 -0.0642 -0.0567
 6290W        W 9809   2.419   1.591   9.045 -0.3421  0.1950 -0.0763
 6291W        W 9810   2.229   6.192   0.353  0.1751  0.0457  0.1898
 6292W        W 9811   1.794   0.054   3.696 -0.0905 -0.0415 -0.2024
 6293W        W 9812   2.443   0.560  12.110  0.1903 -0.0842  0.1469
 6294W        W 9813   4.128   8.146   3.581  0.0605  0.0564  0.1645
 6295W        W 9814   3.462   1.941   0.806  0.0647 -0.1036 -0.1843
 6296W        W 9815   9.591   4.084   1.479  0.1223  0.0474 -0.2416
 6297W        W 9816   8.786   7.302   1.435  0.4562  0.1808  0.0896
 6298W        W 9817   8.801   7.180   3.607 -0.3678  0.1369 -0.0869
 6299W        W 9818   2.087   7.304   8.708  0.1203 -0.1229  0.1507
 6300W        W 9819   4.221   1.153   2.906  0.1399 -0.0359 -0.1286
 6301W        W 9820   2.965   0.584   2.075  0.1988 -0.1839  0.1702
 6302W        W 9821   3.225   1.472   8.840  0.1858  0.2404 -0.0067
 6303W        W 9822   7.264   5.975  10.343 -0.2261 -0.0344 -0.2680
 6304W        W 9823   0.092   3.569   2.708  0.0508  0.0944 -0.1427
 6305W        W 9824   0.123   8.206  11.737 -0.1960  0.2912  0.1619
 6306W        W 9825   0.410   4.966   9.317  0.1286  0.0692  0.0049
 6307W        W 9826   2.182   3.706   4.046 -0.2620  0.0739  0.2488
 6308W        W 9827   2.265   9.643   3.389 -0.0601 -0.1904  0.1541
 6309W        W 9828   9.428   6.001   1.930  0.1456  0.0032 -0.0345
 6310W        W 9829   4.775   1.218   2.505  0.3124 -0.3168 -0.1644
 6311W        W 9830   3.557   6.577  12.195  0.2217 -0.0178 -0.1474
 6312W        W 9831   1.745   8.161   3.058  0.1452 -0.3175 -0.1037
 6313W        W 9832   6.419   3.288   9.413 -0.2901  0.0845 -0.3985
 6314W        W 9833   4.096   5.426   2.124 -0.0683  0.0728 -0.2060
 6315W        W 9834   0.448   2.740  12.059  0.3122 -0.4349 -0.4170
 6316W        W 9835   4.156   1.639  11.393 -0.0821 -0.1001  0.2661
 6317W        W 9836   5.370   4.825  12.020 -0.1239  0.1914 -0.2310
 6318W        W 9837   5.958   6.660  10.384  0.3572 -0.0695  0.1400
 6319W        W 9838   4.309   5.023   9.740  0.0519  0.0369 -0.0356
 6320W        W 9839   4.287   6.661  10.264 -0.0120  0.0233 -0.0436
 6321W        W 9840   7.230   6.005   3.554 -0.1474  0.1078 -0.0027
 6322W        W 9841   3.546   3.594  11.588  0.0561 -0.1812 -0.2156
 6323W        W 9842   0.065   8.719   1.758 -0.0954  0.0959 -0.1241
 6324W        W 9843   5.474   5.319   9.852 -0.2093  0.0655 -0.1646
 6325W        W 9844   6.642   7.945   1.219 -0.2620 -0.1387 -0.1499
 6326W        W 9845   6.163   4.181   3.900  0.1227 -0.3501  0.0403
 6327W        W 9846   8.884   5.895   4.873 -0.1658  0.1610  0.3317
 6328W        W 9847   8.997   4.235   2.099 -0.1445 -0.2178  0.0677
 6329W        W 9848   4.368   0.138   8.527  0.0159  0.2515  0.1498
 6330W        W 9849   2.762   0.702   9.388  0.0873 -0.0364  0.3212
 6331W        W 9850   8.865   5.361   1.284  0.3062 -0.1416 -0.0340
 6332W        W 9851   8.030   7.465   9.300  0.2160  0.2689  0.1232
 6333W        W 9852   3.319   6.338  10.341 -0.1372 -0.1368 -0.1889
 6334W        W 9853   7.775   5.748   0.182 -0.2169  0.1478  0.1845
 6335W        W 9854   0.398   3.524  11.794 -0.1780  0.4043 -0.1746
 6336W        W 9855   5.488   4.730   1.991 -0.3145 -0.0058  0.1460
 6337W        W 9856   4.297   0.317   2.361  0.2990 -0.2360 -0.0926
 6338W        W 9857   5.056   1.161   1.628  0.0913  0.1351  0.0302
 6339W        W 9858   6.833   8.468  11.614  0.0343 -0.3097 -0.2735
 6340W        W 9859   2.510   0.389   0.208 -0.2606  0.1026  0.1683
 6341W        W 9860   3.900   5.983   2.263 -0.1087  0.2626 -0.1158
 6342W        W 9861   7.207   4.766   1.699 -0.1443 -0.1022  0.1675
 6343W        W 9862   5.898   0.189   3.556  0.1380 -0.1382  0.1450
 6344W        W 9863   9.181   2.612  10.782  0.0963  0.0645  0.3844
 6345W        W 9864   7.728   0.531   9.781 -0.0471 -0.0959 -0.1256
 6346W        W 9865   1.651   3.987   1.921 -0.2757  0.1824  0.0841
 6347W        W 9866   9.082   7.067   4.013  0.0792 -0.2794  0.0329
 6348W        W 9867   2.976   5.863   7.872  0.1197 -0.3004 -0.1471
 6349W        W 9868   9.638   7.024   0.248  0.1080  0.1030 -0.4167
 6350W        W 9869   3.163   1.415  11.934 -0.1261 -0.3173 -0.3792
 6351W        W 9870   8.547   8.533   3.342 -0.2377 -0.1039  0.3251
 6352W        W 9871   0.776   8.310   8.700 -0.1418  0.0576 -0.1873
 6353W        W 9872   4.756   7.096   2.393 -0.0658  0.1447 -0.1651
 6354W        W 9873   3.074   3.929  10.572  0.1287 -0.2553  0.3727
 6355W        W 9874   0.535   9.365   1.831  0.2162 -0.2561  0.1378
 6356W        W 9875   9.143   5.818   3.340  0.0202 -0.2275 -0.4176
 6357W        W 9876   2.168   2.678   0.587  0.0373 -0.1783  0.2458
 6358W        W 9877   6.105   5.848  10.897  0.0244  0.0014  0.0354
 6359W        W 9878   1.237   6.308   0.550 -0.1354  0.4006 -0.0969
 6360W        W 9879   5.232   8.139  10.414  0.2269 -0.0023  0.4316
 6361W        W 9880   1.767   7.363   1.891  0.0737 -0.3236 -0.0317
 6362W        W 9881   3.832   0.383   2.156 -0.0745  0.0270  0.0987
 6363W        W 9882   8.517   7.737   3.821  0.2434  0.1600  0.1541
 6364W        W 9883   4.360   4.656   0.562  0.2138  0.0127 -0.1305
 6365W        W 9884   7.606   8.768  10.497  0.1413  0.0778 -0.2349
 6366W        W 9885   7.408   3.366  10.307  0.0928  0.2649  0.2594
 6367W        W 9886   9.118   4.318   1.617  0.1857 -0.0608  0.1042
 6368W        W 9887   2.898   4.460   3.587 -0.1905 -0.0920 -0.2703
 6369W        W 9888   3.440   9.083  10.081  0.0998  0.4707  0.1438
 6370W        W 9889   6.904   9.447  11.542  0.3556 -0.2209 -0.1061
 6371W        W 9890   7.975   2.927   1.927 -0.2998  0.1060  0.0921
 6372W        W 9891   4.912   0.394  10.813  0.0912  0.1741 -0.1083
 6373W        W 9892   8.434   5.439   8.371 -0.1187  0.1094 -0.0889
 6374W        W 9893   2.075   2.996   9.069  0.5054  0.0900  0.2230
 6375W        W 9894   9.571   2.035   0.780  0.1164 -0.0136 -0.1974
 6376W        W 9895   9.159   6.654   0.798  0.3885 -0.4427 -0.1835
 6377W        W 9896   8.954   9.276  11.664  0.2273 -0.2285 -0.1052
 6378W        W 9897   1.739   3.394   0.946 -0.0042  0.2311 -0.2526
 6379W        W 9898   8.661   6.913   1.733  0.1220 -0.2491 -0.0992
 6380W        W 9899   9.479   3.931   9.700  0.0485 -0.2132  0.2441
 6381W        W 9900   0.984   9.398   9.385  0.1468 -0.1968 -0.1864
 6382W        W 9901   0.698   0.924   1.523  0.1047 -0.0410 -0.1196
 6383W        W 9902   0.612   7.782   2.629  0.0824  0.0616 -0.0231
 6384W        W 9903   0.740   0.591   2.588  0.1764 -0.1948 -0.0912
 6385W        W 9904   1.634   6.197   9.803 -0.3959 -0.0154  0.3331
 6386W        W 9905   2.439   7.958   2.084 -0.1035  0.0677 -0.0012
 6387W        W 9906   0.807   7.521  12.245 -0.1645  0.2278  0.1154
 6388W        W 9907   3.325   3.883  12.180 -0.0580 -0.2524  0.0238
 6389W        W 9908   4.807   9.706  10.206  0.0216 -0.1045 -0.0364
 6390W        W 9909   1.436   2.107  11.832  0.1509  0.0322 -0.2182
 6391W        W 9910   6.550   0.904   2.999 -0.0696  0.3983 -0.0682
 6392W        W 9911   5.965   2.660   1.193  0.0495  0.3970  0.2123
 6393W        W 9912   0.985   2.223   3.048  0.0414  0.2708 -0.2843
 6394W        W 9913   9.611   3.558   3.102 -0.2518 -0.0347 -0.0983
 6395W        W 9914   6.678   8.989  10.516 -0.2584 -0.1218 -0.1610
 6396W        W 9915   7.714   1.353   8.791 -0.2452 -0.2638 -0.1933
 6397W        W 9916   4.130   7.165  10.066 -0.1391  0.3949  0.2712
 6398W        W 9917   6.635   4.464   3.761  0.0094 -0.2431 -0.0717
 6399W        W 9918   7.512   7.433   0.158 -0.2900  0.0459  0.0916
 6400W        W 9919   0.772   7.810   1.224 -0.1385  0.2839  0.1262
 6401W        W 9920   2.497   3.315   4.036  0.0786  0.0500  0.3272
 6402W        W 9921   8.008   5.768   1.966 -0.1375  0.1557 -0.0694
 6403W        W 9922   4.758   9.101   2.916 -0.1395 -0.0652 -0.1968
 6404W        W 9923   4.829   4.135  10.884 -0.1758 -0.0734 -0.1140
 6405W        W 9924   8.457   3.829   9.001  0.0279 -0.0334  0.1404
 6406W        W 9925   0.200   0.080   1.519  0.2412  0.0336 -0.0454
 6407W        W 9926   0.996   2.697  10.027 -0.0549  0.0220  0.1828
 6408W        W 9927   4.302   4.966   9.246  0.3528  0.2523  0.0281
 6409W        W 9928   2.657   6.732   1.308 -0.0990 -0.1760  0.1022
 6410W        W 9929   7.465   6.976   1.482 -0.0541  0.0911  0.2248
 6411W        W 9930   7.601   7.682   9.053 -0.2624  0.4524  0.0992
 6412W        W 9931   2.321   9.623   9.328  0.3074  0.2311 -0.2419
 6413W        W 9932   0.492   6.729  11.921 -0.0346  0.1854  0.0805
 6414W        W 9933   5.208   4.059   1.218  0.2103 -0.0420 -0.2858
 6415W        W 9934   0.515   5.143  10.968  0.2642 -0.2277  0.3031
 6416W        W 9935   2.033   2.444   9.165 -0.0463 -0.0116  0.1793
 6417W        W 9936   3.569   1.626   9.804  0.2692  0.1385  0.1176
 6418W        W 9937   7.418   4.786   0.425  0.4549 -0.3138  0.0679
 6419W        W 9938   8.233   6.637   2.583  0.0019 -0.1276 -0.0108
 6420W        W 9939   3.214   7.487   3.404  0.2555 -0.0027  0.1081
 6421W        W 9940   7.865   7.831  10.682  0.0697 -0.0919 -0.0808
 6422W        W 9941   5.664   6.626   8.305 -0.1246  0.0653 -0.1232
 6423W        W 9942   1.464   7.571  11.551 -0.4594  0.0508  0.1388
 6424W        W 9943   7.092   2.075   2.648  0.2841 -0.2575 -0.2758
 6425W        W 9944   4.759   5.812   9.342 -0.1281 -0.1381 -0.2515
 6426W        W 9945   7.356   0.823   0.867 -0.1341  0.0491 -0.0590
 6427W        W 9946   1.089   7.417   1.998  0.3290 -0.0430 -0.1540
 6428W        W 9947   5.192   7.850   1.169  0.0939  0.0367 -0.2640
 6429W        W 9948   3.306   8.236   9.498  0.0736  0.3670 -0.0700
 6430W        W 9949   7.625   8.107   9.906 -0.0756 -0.1552  0.0571
 6431W        W 9950   6.861   8.449   1.470 -0.0879 -0.3736  0.0611
 6432W        W 9951   4.814   4.304   9.016  0.2031  0.1203 -0.1363
 6433W        W 9952   9.554   0.455   3.618  0.0736  0.0795 -0.0023
 6434W        W 9953   4.079   9.660   8.948  0.0529 -0.1848 -0.2679
 6435W        W 9954   1.758   0.043   1.857  0.0689 -0.1498 -0.1010
 6436W        W 9955   9.335   8.038   9.909 -0.2135 -0.2274  0.1579
 6437W        W 9956   7.060   2.065  10.213  0.1648  0.0991 -0.1187
 6438W        W 9957   3.994   1.217   1.571 -0.1161  0.0061  0.4286
 6439W        W 9958   8.940   0.258   2.900  0.1504 -0.1322 -0.1251
 6440W        W 9959   3.889   3.285  10.759  0.1057  0.2943  0.1317
 6441W        W 9960   8.218   6.552   8.736  0.2297  0.0134 -0.0319
 6442W        W 9961   2.638   7.136   0.304  0.1020  0.1401 -0.0031
 6443W        W 9962   1.164   1.378   2.154 -0.3032  0.2285 -0.3388
 6444W        W 9963   0.460   2.234   2.798  0.2664  0.0415  0.0812
 6445W        W 9964   2.840   5.926   3.293  0.0957  0.2263  0.2902
 6446W        W 9965   7.406   1.522   3.380  0.3054  0.3083 -0.1930
 6447W        W 9966   2.834   4.857   9.486  0.5347  0.0655 -0.0028
 6448W        W 9967   0.935   3.343   4.225 -0.3979 -0.0742 -0.2228
 6449W        W 9968   3.195   8.987  10.613  0.5025  0.3279  0.1358
 6450W        W 9969   3.066   5.596  11.589 -0.1600 -0.1825 -0.0388
 6451W        W 9970   2.018   4.906   9.099 -0.0745 -0.2477  0.1489
 6452W        W 9971   3.391   2.107   1.827 -0.0129  0.0423 -0.0568
 6453W        W 9972   6.140   4.939   9.457 -0.0233 -0.0945  0.0956
 6454W        W 9973   5.961   6.896   2.778 -0.0554  0.0911  0.1392
 6455W        W 9974   8.885   3.734   4.520 -0.3812 -0.0447 -0.3042
 6456W        W 9975   7.184   8.779   8.213 -0.0664 -0.0543 -0.1507
 6457W        W 9976   2.974   0.981  10.996  0.1639 -0.2012 -0.1270
 6458W        W 9977   7.621   6.597   3.630 -0.1156 -0.1719 -0.1659
 6459W        W 9978   7.109   1.780  11.844  0.0701 -0.2706  0.4113
 6460W        W 9979   0.273   7.368  10.047 -0.2401  0.0151 -0.0904
 6461W        W 9980   3.186   7.442  10.873  0.0106  0.2254  0.0863
 6462W        W 9981   1.053   0.168   2.670 -0.0782  0.0282  0.0621
 6463W        W 9982   9.401   1.025   2.152  0.1404 -0.0897 -0.0056
 6464W        W 9983   6.209   3.677   4.044  0.1556 -0.0424  0.1874
 6465W        W 9984   7.340   9.212  10.457 -0.0525  0.1105  0.1141
 6466W        W 9985   5.599   1.043   0.741 -0.1908  0.1262 -0.0850
 6467W        W 9986   6.598   1.971  10.565  0.2866 -0.2082  0.1605
 6468W        W 9987   0.598   5.544  10.163 -0.0040  0.0680 -0.2430
 6469W        W 9988   8.200   4.075  10.198 -0.3087  0.1156 -0.4017
 6470W        W 9989   8.994   4.306   2.643 -0.0387  0.3584  0.2014
 6471W        W 9990   8.941   1.990   8.798 -0.0395 -0.2746  0.0289
 6472W        W 9991   6.761   8.207   2.286 -0.1016  0.0024 -0.0858
 6473W        W 9992   4.301   3.222   8.785  0.0596  0.3286 -0.0630
 6474W        W 9993   8.959   5.674  11.831  0.3119  0.1465 -0.3035
 6475W        W 9994   8.063   2.231  10.329  0.0724 -0.0443  0.0556
 6476W        W 9995   6.799   2.155  11.910  0.0362 -0.0307 -0.0587
 6477W        W 9996   2.574   4.257   0.446 -0.0349 -0.1794 -0.0071
 6478W        W 9997   1.693   7.832   9.441  0.1234  0.1710 -0.1775
 6479W        W 9998   8.180   4.524   3.163  0.1157 -0.0120 -0.1121
 6480W        W 9999   4.056   7.742  11.283  0.2803 -0.2213 -0.2573
 6481W        W10000   8.495   0.662  12.325 -0.1500  0.3995 -0.3232
 6482W        W10001   6.730   7.450   8.483 -0.3042  0.1587  0.2741
 6483W        W10002   0.975   0.529  11.730  0.1703 -0.1056  0.0360
 6484W        W10003   8.410   7.010   3.096  0.1443 -0.0445  0.0150
 6485W        W10004   4.657   2.890  10.233  0.2558 -0.1801 -0.0977
 6486W        W10005   2.772   1.320  10.202  0.0614 -0.1209 -0.2064
 6487W        W10006   7.202   7.695  10.146 -0.2396  0.0925 -0.2822
 6488W        W10007   0.020   7.878  10.894 -0.1708 -0.0221 -0.2094
 6489W        W10008   8.634   4.019   2.382  0.0942 -0.0470  0.3184
 6490W        W10009   8.804   2.309   1.967  0.0837 -0.0185 -0.2188
 6491W        W10010   5.679   4.545  10.842 -0.0465  0.2584 -0.0549
 6492W        W10011   5.022   9.355  11.682 -0.0356 -0.0539 -0.0047
 6493W        W10012   7.399   5.005   3.741 -0.2805  0.2281  0.0048
 6494W        W10013   3.733   5.142   3.176 -0.1078  0.0681 -0.0070
 6495W        W10014   6.675   5.414   0.172  0.2202  0.1015 -0.0850
 6496W        W10015   5.385   5.583   8.587 -0.0033 -0.1395  0.1576
 6497W        W10016   5.922   5.032   2.028  0.3364 -0.0196 -0.0954
 6498W        W10017   1.555   0.669  11.020 -0.1710 -0.1790 -0.1644
 6499W        W10018   4.261   8.412  10.040 -0.0000  0.1105  0.1767
 6500W        W10019   1.135   1.353  11.814 -0.2005 -0.1247  0.1795
 6501W        W10020   2.710   4.595   1.733 -0.1517 -0.0125 -0.0575
 6502W        W10021   5.173   9.114   7.962 -0.2267  0.0516 -0.1104
 6503W        W10022   6.910   8.201   0.275  0.2375  0.0075  0.0490
 6504W        W10023   0.600   1.443   9.774  0.1460  0.0873 -0.1392
 6505W        W10024   4.985   4.216   0.461 -0.0386  0.1702  0.1020
 6506W        W10025   7.159   3.154  11.350 -0.6132  0.0333 -0.0584
 6507W        W10026   9.620   1.635   0.302 -0.1875  0.0434 -0.1604
 6508W        W10027   6.090   0.557  12.201  0.1025 -0.1786  0.2939
 6509W        W10028   7.111   7.653   9.681  0.0919 -0.1312 -0.2192
 6510W        W10029   4.209   6.380  10.732  0.1372  0.1502  0.0856
 6511W        W10030   7.327   9.486   2.431 -0.4263  0.0520 -0.1697
 6512W        W10031   6.555   3.252   1.070 -0.0787 -0.1496  0.0473
 6513W        W10032   0.233   1.783   0.654  0.1393 -0.0464 -0.0549
 6514W        W10033   9.111   3.662   3.979 -0.1141 -0.1269  0.1861
 6515W        W10034   1.388   6.973   1.893 -0.0043 -0.3374 -0.0977
 6516W        W10035   2.630   5.520   1.698 -0.0291  0.2876 -0.0750
 6517W        W10036   0.089   2.606   2.138  0.0814  0.0047 -0.1113
 6518W        W10037   1.362   6.986   3.605  0.1119 -0.0314 -0.0925
 6519W        W10038   0.927   5.789   0.541 -0.1253 -0.2520 -0.1903
 6520W        W10039   1.172   1.841  12.128 -0.1045  0.1715 -0.0460
 6521W        W10040   8.498   1.298   2.426  0.1413  0.1990  0.0871
 6522W        W10041   1.928   9.575   0.666  0.1497 -0.0107 -0.3373
 6523W        W10042   6.630   0.330   1.314  0.1010  0.0847 -0.1182
 6524W        W10043   6.345   8.690   3.021 -0.1956 -0.2000 -0.1655
 6525W        W10044   1.862   4.684   0.617 -0.1710  0.2275  0.2875
 6526W        W10045   7.319   8.771   3.499 -0.5322  0.1095 -0.2172
 6527W        W10046   5.175   3.511   1.233  0.1112 -0.0989 -0.1362
 6528W        W10047   4.690   1.039   3.559 -0.2137  0.0313 -0.1113
 6529W        W10048   4.299   0.543   0.571 -0.1680 -0.0698 -0.1226
 6530W        W10049   9.353   3.217   8.481  0.4155  0.2318 -0.0234
 6531W        W10050   7.248   7.334  12.058 -0.0091 -0.2666 -0.5349
 6532W        W10051   1.696   9.500  11.215 -0.0730 -0.1497 -0.0171
 6533W        W10052   9.333   1.392   2.516 -0.1247  0.0492 -0.0477
 6534W        W10053   1.401   2.455   9.791  0.3487  0.2065  0.0702
 6535W        W10054   0.738   6.161   3.174  0.0197  0.0066  0.1252
 6536W        W10055   3.233   5.389   4.276  0.3272  0.0734 -0.0261
 6537W        W10056   3.594   9.571   2.082  0.1768  0.2107 -0.1740
 6538W        W10057   3.042   0.154   0.802 -0.0859  0.1804  0.1755
 6539W        W10058   0.898   0.878  10.529  0.0025  0.0286  0.0018
 6540W        W10059   2.301   9.390   8.894 -0.1298  0.1678  0.0615
 6541W        W10060   7.960   1.262   2.668  0.0557 -0.2731  0.1021
 6542W        W10061   9.122   7.758  11.672 -0.0100 -0.0081  0.0059
 6543W        W10062   7.529   6.107   3.025  0.0431 -0.0273 -0.0011
 6544W        W10063   2.288   6.788  10.313  0.3201  0.1986  0.3452
 6545W        W10064   2.500   8.174   0.162 -0.2526  0.1473  0.0987
 6546W        W10065   1.786   8.086   2.097  0.2105  0.0131 -0.0490
 6547W        W10066   2.985   2.966   1.665 -0.0967  0.0094 -0.0639
 6548W        W10067   7.996   7.426  12.108 -0.0733 -0.3500 -0.1051
 6549W        W10068   4.556   7.854  11.415 -0.2086  0.3099 -0.5722
 6550W        W10069   7.727   1.465  10.119 -0.1716 -0.2135 -0.2575
 6551W        W10070   1.151   5.666  10.322 -0.1975  0.0976  0.0522
 6552W        W10071   9.450   1.864   8.127 -0.0087  0.0369  0.1225
 6553W        W10072   2.080   5.277   0.579 -0.2199  0.0137 -0.1396
 6554W        W10073   8.073   2.283   2.944  0.0177 -0.2668 -0.3170
 6555W        W10074   8.480   5.486  11.433  0.1801 -0.2273  0.1657
 6556W        W10075   6.254   0.058   1.105 -0.0935 -0.0360 -0.0738
 6557W        W10076   3.012   8.016   2.904 -0.1985  0.3805 -0.1668
 6558W        W10077   3.808   0.888   2.853  0.0034  0.2347 -0.0667
 6559W        W10078   3.927   1.813   0.712 -0.1483 -0.1140 -0.1221
 6560W        W10079   9.373   2.505  12.108 -0.2592  0.0944  0.0156
 6561W        W10080   1.238   7.245  12.067 -0.1751 -0.2338 -0.0348
 6562W        W10081   8.648   7.176   7.762 -0.1612 -0.2249 -0.3016
 6563W        W10082   9.150   1.628  10.900  0.4220  0.3166 -0.1775
 6564W        W10083   5.401   7.907   3.833  0.2412  0.3739 -0.0236
 6565W        W10084   8.219   7.012   2.014  0.1703 -0.2804  0.2305
 6566W        W10085   4.725   8.198   2.458 -0.0583  0.1483  0.1017
 6567W        W10086   0.243   0.361   2.416  0.1885  0.2742 -0.0254
 6568W        W10087   9.614   9.511   7.613 -0.0812 -0.2375  0.4556
 6569W        W10088   1.674   5.915  11.692  0.0124 -0.0576  0.1606
 6570W        W10089   3.146   2.641  11.080  0.0335  0.0820 -0.4119
 6571W        W10090   8.075   1.215  10.451  0.2761  0.0261 -0.1509
 6572W        W10091   4.776   0.640   0.836 -0.3217 -0.1259 -0.3159
 6573W        W10092   3.400   2.054  10.379  0.2035  0.0065  0.0503
 6574W        W10093   2.309   7.600  10.756  0.0100 -0.1630  0.2709
 6575W        W10094   4.658   8.593   3.283  0.0589  0.2981  0.4321
 6576W        W10095   9.472   4.899   1.079 -0.3945 -0.3827 -0.4616
 6577W        W10096   4.398   3.748   9.653 -0.0245 -0.0065  0.0325
 6578W        W10097   8.878   2.885   1.809  0.1428  0.0856  0.2441
 6579W        W10098   0.499   7.624   3.481  0.0681  0.2375  0.0191
 6580W        W10099   5.992   6.234   8.548  0.0176  0.2637  0.1878
 6581W        W10100   6.974   3.739   2.685 -0.2098  0.0860  0.0797
 6582W        W10101   1.042   3.631  10.044  0.1821 -0.2546  0.2249
 6583W        W10102   2.097   1.929  11.459 -0.0335 -0.1461 -0.2447
 6584W        W10103   1.441   5.978   4.438 -0.2725 -0.1987  0.2629
 6585W        W10104   7.040   9.482   3.544 -0.0732 -0.1795  0.0284
 6586W        W10105   4.450   7.832   2.849 -0.1916  0.0911 -0.0988
 6587W        W10106   8.626   2.989   1.252 -0.2512  0.2282  0.0821
 6588W        W10107   1.685   0.645  11.485 -0.0480 -0.2214 -0.0760
 6589W        W10108   7.700   1.387   0.259  0.1972  0.1881  0.2118
 6590W        W10109   4.377   4.690   8.840 -0.0980 -0.0912  0.1390
 6591W        W10110   2.578   8.191   8.511  0.1417 -0.0147  0.0049
 6592W        W10111   4.059   2.867   1.589  0.2965  0.0284 -0.0815
 6593W        W10112   0.482   1.169  10.534  0.1435 -0.2780 -0.2016
 6594W        W10113   0.802   0.480   8.900  0.0135 -0.0516  0.0184
 6595W        W10114   4.701   2.998   1.995  0.1993  0.3581 -0.3106
 6596W        W10115   6.381   7.421   9.965  0.3221 -0.0782 -0.0111
 6597W        W10116   1.821   3.251   2.225  0.1141 -0.0673 -0.1758
 6598W        W10117   9.356   6.797  10.280 -0.3481 -0.4008 -0.1817
 6599W        W10118   1.654   5.201   8.567  0.0419  0.1477 -0.0964
 6600W        W10119   4.087   8.675  10.438  0.0725  0.2155 -0.0124
 6601W        W10120   9.611   4.039   0.948 -0.0054  0.0245  0.0529
 6602W        W10121   0.849   5.045   8.069  0.1213 -0.2032 -0.3431
 6603W        W10122   1.979   7.738   3.710 -0.1356 -0.1566  0.0493
 6604W        W10123   3.173   7.179   8.412  0.2792 -0.1397 -0.2027
 6605W        W10124   8.872   8.476  11.837  0.3104 -0.2059  0.0313
 6606W        W10125   6.491   3.902   8.601  0.2632  0.0940  0.4208
 6607W        W10126   8.075   7.709   9.890 -0.1421 -0.1769 -0.0001
 6608W        W10127   1.627   8.946   8.753  0.0014  0.3385 -0.1042
 6609W        W10128   3.275   8.076   1.606 -0.1555  0.4667  0.3105
 6610W        W10129   8.076   5.354  10.610  0.0343  0.2371  0.1865
 6611W        W10130   5.508   7.076  11.588 -0.3033 -0.1594  0.3286
 6612W        W10131   7.850   3.884   8.313  0.0284 -0.2635 -0.1298
 6613W        W10132   1.829   1.727   1.306  0.1314  0.2499  0.2832
 6614W        W10133   1.184   0.904   1.995 -0.4324 -0.1030  0.2512
 6615W        W10134   0.235   4.557   1.763 -0.0373 -0.0425 -0.0593
 6616W        W10135   0.800   1.622   3.621  0.0188  0.1753 -0.2012
 6617W        W10136   9.037   7.591  11.167  0.0110  0.2877  0.1633
 6618W        W10137   8.743   4.451  11.292  0.0319  0.2631  0.2262
 6619W        W10138   0.219   3.981   0.319  0.0788 -0.1167 -0.0781
 6620W        W10139   3.612   4.250   8.575  0.1637 -0.1266 -0.1239
 6621W        W10140   4.462   4.177   0.478  0.0421  0.2074  0.2026
 6622W        W10141   6.471   6.898   2.704  0.2848 -0.2323  0.0807
 6623W        W10142   9.128   9.182  10.426 -0.1161 -0.1967 -0.0286
 6624W        W10143   7.621   4.053   9.136 -0.0523 -0.1972  0.1554
 6625W        W10144   0.659   7.745   3.922  0.1759  0.0915  0.0267
 6626W        W10145   5.162   9.293   1.951 -0.0359 -0.0801 -0.0306
 6627W        W10146   1.270   1.545   3.423 -0.1829  0.0777 -0.1086
 6628W        W10147   7.595   0.031   0.809 -0.1214 -0.0495  0.0494
 6629W        W10148   0.176   6.777   2.960 -0.0024 -0.2395  0.0007
 6630W        W10149   8.688   5.097  11.749  0.0690 -0.3496  0.2391
 6631W        W10150   0.885   2.778  11.255  0.0125 -0.2315  0.0219
 6632W        W10151   4.923   6.291  11.386  0.2924 -0.0579 -0.0376
 6633W        W10152   8.363   9.482   9.740  0.0720 -0.0599 -0.0121
 6634W        W10153   3.372   4.465   1.027  0.2057  0.2204  0.0447
 6635W        W10154   2.833   9.287  11.485  0.0699  0.0909  0.0285
 6636W        W10155   8.715   9.033   1.338 -0.3443  0.0000  0.2519
 6637W        W10156   1.622   1.836   0.811  0.0591 -0.0486 -0.1094
 6638W        W10157   5.575   6.124   9.668  0.0806 -0.0750  0.0033
 6639W        W10158   7.996   8.631  12.285 -0.2965 -0.3092 -0.1025
 6640W        W10159   3.743   7.922   7.858  0.0642  0.0107  0.3502
 6641W        W10160   2.391   1.807  11.109 -0.1303 -0.0195  0.1321
 6642W        W10161   5.221   2.857   0.583 -0.0672  0.0497  0.0810
 6643W        W10162   3.862   6.712   3.421  0.1645  0.0341  0.1605
 6644W        W10163   4.041   0.006   1.917 -0.0005 -0.0772 -0.0995
 6645W        W10164   0.683   8.429  11.831  0.2225  0.0999  0.3954
 6646W        W10165   3.904   7.193   1.760  0.2063 -0.0614  0.2644
 6647W        W10166   8.862   6.463   0.007  0.0480 -0.1498 -0.0914
 6648W        W10167   9.112   0.711   0.068  0.5142  0.2254  0.0099
 6649W        W10168   5.606   6.046  10.610 -0.2677  0.2062 -0.2766
 6650W        W10169   0.651   1.362  11.703 -0.0732  0.1188 -0.0487
 6651W        W10170   3.509   3.963   9.329  0.1822  0.0368 -0.1692
 6652W        W10171   3.520   3.817   1.675 -0.0884  0.0528 -0.0745
 6653W        W10172   8.310   1.016   0.678 -0.0134  0.1169  0.2178
 6654W        W10173   9.288   6.416   9.227 -0.0673 -0.6951  0.2581
 6655W        W10174   0.623   9.773   4.637  0.0733  0.1640 -0.0786
 6656W        W10175   2.028   5.876   2.233 -0.1238  0.1204  0.0254
 6657W        W10176   7.532   1.305   1.055  0.0196  0.0585 -0.0105
 6658W        W10177   9.373   5.856   1.376  0.0115  0.0483 -0.1518
 6659W        W10178   1.995   0.808   2.334 -0.0994  0.0340  0.4704
 6660W        W10179   6.829   6.299   1.299 -0.1168  0.1448 -0.2791
 6661W        W10180   1.977   5.131  11.326 -0.3209  0.0567 -0.1672
 6662W        W10181   2.089   1.691   9.877  0.0287 -0.1321  0.1723
 6663W        W10182   1.744   9.186  11.653  0.0177 -0.0509 -0.0815
 6664W        W10183   3.851   1.931  10.217 -0.1261  0.0213  0.1166
 6665W        W10184   6.187   5.301   3.327  0.0872 -0.0474 -0.4617
 6666W        W10185   7.083   6.639   2.835 -0.0674 -0.1791 -0.0252
 6667W        W10186   5.345   4.475   3.145 -0.0140 -0.1158 -0.2545
 6668W        W10187   3.397   9.600   0.626  0.1947 -0.0204  0.0805
 6669W        W10188   6.610   1.885   3.273  0.2963 -0.0051  0.0834
 6670W        W10189   3.428   2.148   9.876 -0.0249 -0.0102 -0.0506
 6671W        W10190   9.680   0.966   2.660 -0.1224 -0.2808  0.1960
 6672W        W10191   7.226   0.529   3.475 -0.0779  0.0157  0.1585
 6673W        W10192   6.380   8.435  11.728  0.2371  0.1156  0.1802
 6674W        W10193   5.960   2.848   2.381 -0.1001 -0.2223  0.2488
 6675W        W10194   2.865   6.302   9.697 -0.2927  0.5088 -0.1042
 6676W        W10195   8.681   2.019   1.551  0.0116 -0.0179 -0.0495
 6677W        W10196   5.569   6.792   3.570  0.0159 -0.3909  0.2198
 6678W        W10197   7.207   0.270  10.907  0.2983 -0.0798 -0.2208
 6679W        W10198   4.388   7.376   2.077 -0.1000  0.0281  0.1844
 6680W        W10199   3.058   5.968  10.009  0.2555  0.2715 -0.2011
 6681W        W10200   0.928   2.965   0.603  0.3304  0.2799  0.0746
 6682W        W10201   4.310   8.867  12.225 -0.3703 -0.4307  0.0297
 6683W        W10202   9.388   6.903   9.276 -0.0459 -0.2076 -0.3454
 6684W        W10203   5.314   6.116  11.668 -0.1414  0.1876  0.3136
 6685W        W10204   7.413   4.666   1.214  0.2975  0.0529 -0.1856
 6686W        W10205   8.719   7.186  11.146  0.0324 -0.0302 -0.2708
 6687W        W10206   5.431   9.777   3.586 -0.3153  0.4535 -0.0827
 6688W        W10207   0.541   0.879  10.140  0.3174 -0.0879  0.0554
 6689W        W10208   0.206   7.868   1.936  0.1454 -0.2491  0.0871
 6690W        W10209   1.527   0.992   8.316 -0.0975 -0.3586  0.1916
 6691W        W10210   7.110   7.430   4.001 -0.0005  0.1509  0.1808
 6692W        W10211   0.295   8.110   4.014 -0.4994 -0.0576  0.1144
 6693W        W10212   3.063   0.857  11.535 -0.2486 -0.0300  0.4318
 6694W        W10213   4.556   5.597   3.390  0.1440  0.1685  0.2144
 6695W        W10214   7.422   0.098  11.935  0.0204 -0.0835  0.3090
 6696W        W10215   9.430   6.005  12.012 -0.0579 -0.1762  0.0144
 6697W        W10216   7.050   1.052   3.511  0.0997 -0.1342 -0.0169
 6698W        W10217   1.502   3.473   1.893 -0.4720 -0.3542  0.0245
 6699W        W10218   3.198   3.215   9.989  0.0473  0.0717 -0.0845
 6700W        W10219   1.224   4.222   1.292  0.0225  0.0548  0.1249
 6701W        W10220   9.727   0.939   0.907 -0.0958  0.2279  0.0945
 6702W        W10221   9.409   3.050  11.780 -0.2994  0.3270  0.0444
 6703W        W10222   7.507   7.103   9.000  0.1939  0.4183  0.3915
 6704W        W10223   2.231   1.115   0.864  0.3085  0.0547 -0.0229
 6705ION    NA+10224   9.708   5.468  10.960 -0.2375  0.2408 -0.1035
 6706ION    NA+10225   6.832   4.912   1.978  0.0474 -0.0669 -0.1465
 6707ION    NA+10226   8.523   7.300   9.456 -0.1000  0.1980 -0.0437
 6708ION    NA+10227   5.573   7.004   3.112 -0.2253  0.0542 -0.1023
 6709ION    NA+10228   2.950   3.609  10.990  0.5331 -0.1459  0.0308
 6710ION    NA+10229   0.901   8.169   4.110 -0.0456  0.0425  0.1630
 6711ION    NA+10230   8.592   8.250   1.080  0.2092 -0.2819  0.1647
 6712ION    NA+10231   4.448   4.321   3.151  0.0745  0.1573  0.1973
 6713ION    NA+10232   6.625   5.768  10.933  0.1270  0.3360 -0.0611
 6714ION    NA+10233   8.413   6.435   0.117 -0.0359  0.2704 -0.0729
 6715ION    NA+10234   0.849   3.920   0.590  0.0546  0.3169  0.2500
 6716ION    NA+10235   5.292   5.518   0.904 -0.1920  0.1477  0.0611
 6717ION    NA+10236   8.875   3.011   8.665  0.1183 -0.3071 -0.1681
 6718ION    NA+10237   2.728   9.634   1.550  0.0957 -0.2846 -0.4288
 6719ION    NA+10238   9.355   4.455  11.375  0.0005 -0.4200  0.2155
 6720ION    NA+10239   3.339   5.890   4.606  0.0744 -0.0086  0.3046
 6721ION    NA+10240   0.030   3.352   7.992  0.6039  0.0923 -0.2428
 6722ION    NA+10241   7.210   5.721   3.050 -0.0585  0.2505  0.0824
 6723ION    NA+10242   0.778   3.994  12.039  0.2351  0.0974  0.2291
 6724ION    NA+10243   7.125   4.550   8.302 -0.2569  0.1288  0.1061
 6725ION    NA+10244   3.335   7.790   2.533  0.1164  0.0029  0.0336
 6726ION    NA+10245   5.218   0.784  10.634 -0.1722  0.1475 -0.0160
 6727ION    NA+10246   3.919   5.014  11.458  0.5115  0.0293 -0.0897
 6728ION    NA+10247   9.036   2.380   1.518 -0.2774  0.3877 -0.0947
 6729ION    NA+10248   2.447   9.388   0.670 -0.0288  0.0985 -0.1613
 6730ION    NA+10249   1.987   5.880   3.314 -0.3132 -0.0546  0.1403
 6731ION    NA+10250   6.250   9.258  10.449 -0.0347  0.0624  0.0344
 6732ION    NA+10251   7.381   9.010   8.648 -0.0178  0.2446 -0.1034
 6733ION    NA+10252   1.073   7.643  11.236 -0.3440 -0.3321 -0.2816
 6734ION    NA+10253   7.740   7.073  10.310 -0.2392  0.1057 -0.1439
 6735ION    NA+10254   5.235   8.236   9.847  0.0923 -0.0222 -0.2936
 6736ION    NA+10255   7.552   6.484   1.130  0.1537  0.1437 -0.1102
 6737ION    NA+10256   7.532   1.612  11.654 -0.1174 -0.1164 -0.0111
 6738ION    NA+10257   2.301   6.220  10.525 -0.0343 -0.4990  0.0316
 6739ION    NA+10258   2.813   3.004  12.017  0.0426 -0.0182 -0.0670
 6740ION    NA+10259   6.076   8.187   8.931 -0.2578  0.0468  0.0456
 6741ION    NA+10260   2.416   1.560   0.107 -0.2321 -0.0445  0.1083
 6742ION    NA+10261   6.105   8.028  10.129 -0.0921  0.2504 -0.0430
 6743ION    NA+10262   1.929   5.361   1.277 -0.0667 -0.3079  0.4800
 6744ION    NA+10263   3.535   2.590   0.098  0.0508 -0.0660  0.1748
 6745ION    NA+10264   4.994   1.873   3.356 -0.0688 -0.0348  0.0549
 6746ION    NA+10265   1.088   0.711   8.359  0.1098 -0.0697 -0.0240
 6747ION    NA+10266   6.940   8.339   8.277  0.0784 -0.1097 -0.1371
 6748ION    NA+10267   6.110   1.076  12.035 -0.0212  0.2061  0.2991
 6749ION    NA+10268   0.766   9.435   8.058 -0.2680 -0.0394  0.1770
 6750ION    NA+10269   6.903   5.698   4.416 -0.2081 -0.1315  0.5348
 6751ION    NA+10270   8.286   3.235   4.038  0.0492 -0.1268  0.1290
 6752ION    NA+10271   1.414   1.524   8.200  0.3692  0.1121 -0.0346
 6753ION    NA+10272   9.670   1.970   9.697  0.3020 -0.0367 -0.4797
 6754ION    NA+10273   0.789   0.533  12.238  0.0917 -0.1091 -0.2703
 6755ION    NA+10274   1.859   4.443   8.988  0.1606 -0.0404 -0.2184
 6756ION    NA+10275   4.923   5.000   8.152  0.1248  0.0573 -0.1071
 6757ION    NA+10276   2.150   2.817   1.437  0.1028  0.2047 -0.1489
 6758ION    NA+10277   7.450   1.424   8.339 -0.1130  0.2161  0.1116
 6759ION    NA+10278   4.893   2.946   9.764  0.2365 -0.0760  0.1830
 6760ION    NA+10279   6.872   4.366   0.223 -0.2990  0.0734  0.1141
 6761ION    NA+10280   0.047   0.889  10.016 -0.0627  0.0644  0.0574
 6762ION    NA+10281   8.283   3.566  10.472 -0.1486 -0.0586  0.1439
 6763ION    NA+10282   9.226   0.820   3.497 -0.0779 -0.0173  0.2627
 6764ION    NA+10283   7.735   8.807   4.541 -0.3265  0.0245  0.1544
 6765ION    NA+10284   1.302   2.970   0.222  0.1942 -0.0095 -0.2908
 6766ION    NA+10285   0.863   4.285   1.710 -0.0391  0.0160  0.0485
 6767ION    NA+10286   0.384   4.989   7.876 -0.1053  0.0748 -0.2026
 6768ION    NA+10287   6.373   6.415  10.138  0.0738 -0.1281  0.0862
 6769ION    NA+10288   8.255   2.569   2.519  0.1014 -0.0977 -0.2140
 6770ION    NA+10289   8.182   0.965   4.247 -0.2409 -0.2314  0.0842
 6771ION    NA+10290   6.990   7.070   8.684  0.0514  0.1994 -0.1001
 6772ION    NA+10291   8.444   2.404   7.848  0.1379  0.1679  0.0351
 6773ION    NA+10292   5.536   6.813   7.866  0.1774  0.0938  0.2840
 6774ION    NA+10293   8.128   8.186   9.679  0.0939  0.1001  0.0942
 6775ION    NA+10294   1.566   2.839   4.571  0.3427 -0.0669 -0.0819
 6776ION    CL-10295   2.690   1.694   2.317  0.2536 -0.1279 -0.2333
 6777ION    CL-10296   2.923   1.282   1.320 -0.3066  0.1047 -0.2011
 6778ION    CL-10297   2.056   0.461   1.970  0.2500  0.2449 -0.1888
 6779ION    CL-10298   0.538   3.581   0.340  0.1967 -0.0622 -0.4869
 6780ION    CL-10299   9.612   0.659   3.191  0.0612 -0.1214  0.1932
 6781ION    CL-10300   0.385   7.277   3.859  0.1279  0.1545  0.1817
 6782ION    CL-10301   5.328   7.369   3.437 -0.1791  0.3341 -0.1263
 6783ION    CL-10302   0.223   3.986   9.988  0.0546 -0.0125  0.1665
 6784ION    CL-10303   7.220   1.918  11.355 -0.0543  0.0413  0.3141
 6785ION    CL-10304   1.086   2.567   1.101  0.2950  0.3514  0.0672
 6786ION    CL-10305   8.177   7.206   9.827 -0.1027  0.0913 -0.2641
 6787ION    CL-10306   1.505   1.176  11.071  0.0811  0.0476 -0.2368
 6788ION    CL-10307   8.379   2.557   2.015 -0.0268 -0.0243 -0.0393
 6789ION    CL-10308   1.357   1.449   8.706 -0.4539  0.2591 -0.3671
 6790ION    CL-10309   4.448   2.950   9.526 -0.0129 -0.1006  0.1687
 6791ION    CL-10310   6.023   8.001  10.641 -0.1331 -0.0184 -0.5177
 6792ION    CL-10311   1.418   9.401   8.965 -0.1619 -0.1593  0.0873
 6793ION    CL-10312   8.661   7.885   0.711  0.0481 -0.2572  0.0627
 6794ION    CL-10313   2.521   4.325   1.070 -0.0778  0.3663 -0.0484
 6795ION    CL-10314   2.557   3.969   3.616  0.1790 -0.0084  0.1972
 6796ION    CL-10315   3.407   2.415  11.899 -0.2658 -0.1774  0.1620
 6797ION    CL-10316   7.212   3.873   0.176 -0.4285  0.2116  0.0257
 6798ION    CL-10317   6.399   0.891   0.074 -0.2440  0.4970  0.1012
 6799ION    CL-10318   2.483   3.313  12.238 -0.2446 -0.2837 -0.2679
 6800ION    CL-10319   8.050   0.092   3.684 -0.0426 -0.1447 -0.0882
 6801ION    CL-10320   9.685   9.036   8.492  0.2088 -0.0904  0.0798
 6802ION    CL-10321   7.403   4.243   9.614  0.1112  0.1303 -0.0921
 6803ION    CL-10322   4.784   6.075   0.343 -0.2224  0.0467  0.0358
 6804ION    CL-10323   9.253   6.770   3.597  0.1421 -0.0557 -0.2625
 6805ION    CL-10324   7.673   0.170  10.213  0.1078 -0.3648 -0.2162
 6806ION    CL-10325   1.984   9.231   0.288  0.0704 -0.1925  0.0276
 6807ION    CL-10326   9.482   3.896  11.256  0.1870 -0.4089 -0.2436
 6808ION    CL-10327   7.069   6.214   3.163 -0.0215 -0.0570 -0.0584
 6809ION    CL-10328   3.075   8.412   3.191  0.1276 -0.2365 -0.0193
 6810ION    CL-10329   1.928   6.331   3.449  0.1548 -0.0086  0.0178
 6811ION    CL-10330   3.815   5.114  11.000 -0.3026  0.0487  0.1415
 6812ION    CL-10331   5.516   8.475   3.390  0.0488 -0.1689  0.4300
 6813ION    CL-10332   9.016   0.826  10.401 -0.4673  0.0306  0.1876
 6814ION    CL-10333   0.646   5.105   8.917 -0.1380  0.1697  0.4474
 6815ION    CL-10334   5.659   8.169   9.298 -0.0438 -0.3217  0.1637
 6816ION    CL-10335   9.523   1.278   9.891 -0.0622 -0.0306  0.1309
 6817ION    CL-10336   6.626   4.302  12.055 -0.0337  0.1931 -0.1346
 6818ION    CL-10337   3.393   6.758   4.007 -0.3721 -0.0563  0.0532
 6819ION    CL-10338   2.623   9.062   1.095  0.2184  0.2389 -0.2383
 6820ION    CL-10339   2.083   0.062   8.952  0.0291 -0.0518  0.2278
 6821ION    CL-10340   5.627   8.099  11.587 -0.3383  0.1635 -0.0534
 6822ION    CL-10341   3.056   2.563  12.221 -0.2016 -0.1032 -0.0181
 6823ION    CL-10342   1.220   4.039   8.878  0.0303 -0.0973  0.0432
 6824ION    CL-10343   5.725   8.793  10.585  0.1505 -0.1992  0.1024
 6825ION    CL-10344   2.462   2.626   1.050 -0.1977  0.3097 -0.4383
 6826ION    CL-10345   5.064   5.433   9.348 -0.0734  0.0960  0.1342
 6827ION    CL-10346   1.285   0.519  12.190  0.3285 -0.2771 -0.0152
 6828ION    CL-10347   6.539   5.832  11.432 -0.0368 -0.0336 -0.1260
 6829ION    CL-10348   3.562   3.965   0.631 -0.1134 -0.1540  0.1746
 6830ION    CL-10349   8.664   6.039   0.259  0.1374  0.0589 -0.0637
 6831ION    CL-10350   6.521   5.946  10.411  0.1218  0.0660 -0.1193
 6832ION    CL-10351   8.069   3.622   9.935  0.2200 -0.2831  0.1008
 6833ION    CL-10352   2.573   2.942   9.224 -0.2010  0.1378  0.2080
 6834ION    CL-10353   9.364   2.338   8.768  0.1520 -0.1745 -0.1281
 6835ION    CL-10354   1.019   2.738   2.984  0.2035 -0.0199  0.3025
 6836ION    CL-10355   4.145   4.434   2.767 -0.0707  0.1977 -0.0209
 6837ION    CL-10356   2.605   4.246   9.526 -0.2296  0.1732  0.0677
 6838ION    CL-10357   9.221   9.359   4.047 -0.3239  0.2538 -0.0194
 6839ION    CL-10358   0.260   9.079   3.155 -0.3127 -0.0301  0.0576
 6840ION    CL-10359   2.663   4.416  11.776  0.2117 -0.1587  0.0790
 6841ION    CL-10360   7.384   8.605  10.060  0.0890 -0.1386  0.1343
 6842ION    CL-10361   0.380   5.669  10.970 -0.0112 -0.0636  0.2866
 6843ION    CL-10362   9.454   5.312  11.408  0.1864  0.3762  0.1227
 6844ION    CL-10363   4.887   6.872   8.904 -0.2511  0.2700 -0.3603
 6845ION    CL-10364   7.056   1.588   9.291 -0.0906  0.4422  0.1065
 6846ION    CL-10365   4.123   6.506   9.377 -0.3512 -0.3295  0.0704
   9.77761   9.77761  12.36399
