Protein in INSANE! Membrane UpperLeaflet>POPC=1.0 LowerLeaflet>POPC=1.0
11125
    1AU     AUC    1   5.246   5.296   6.007
    1AU     AUC    2   5.539   5.297   5.838
    1AU     AUC    3   5.509   5.298   6.177
    1AU     AUC    4   4.973   5.283   5.843
    1AU     AUC    5   4.980   5.332   6.196
    1AU     AUC    6   5.070   5.564   6.009
    1AU     AUC    7   5.436   5.559   5.997
    1AU     AUC    8   5.060   5.031   6.005
    1AU     AUC    9   5.412   5.028   6.017
    1AU     AUC   10   5.250   5.133   6.281
    1AU     AUC   11   5.232   5.465   6.267
    1AU     AUC   12   5.246   5.130   5.739
    1AU     AUC   13   5.277   5.445   5.737
    1AU     AUC   14   5.872   5.291   5.681
    1AU     AUC   15   5.864   5.280   6.019
    1AU     AUC   16   5.799   5.290   6.363
    1AU     AUC   17   4.656   5.291   5.676
    1AU     AUC   18   4.632   5.332   6.039
    1AU     AUC   19   4.673   5.364   6.389
    1AU     AUC   20   4.908   5.889   5.981
    1AU     AUC   21   5.253   5.898   5.958
    1AU     AUC   22   5.618   5.862   5.980
    1AU     AUC   23   4.854   4.744   6.007
    1AU     AUC   24   5.186   4.688   5.984
    1AU     AUC   25   5.574   4.703   6.001
    1AU     AUC   26   5.233   4.961   6.578
    1AU     AUC   27   5.269   5.332   6.625
    1AU     AUC   28   5.261   5.660   6.561
    1AU     AUC   29   5.276   4.957   5.456
    1AU     AUC   30   5.264   5.270   5.397
    1AU     AUC   31   5.274   5.593   5.427
    1AU     AUC   32   5.525   5.113   6.504
    1AU     AUC   33   5.555   5.482   6.501
    1AU     AUC   34   5.590   5.113   5.524
    1AU     AUC   35   5.595   5.463   5.534
    1AU     AUC   36   4.942   5.177   6.530
    1AU     AUC   37   4.959   5.533   6.494
    1AU     AUC   38   4.946   5.112   5.550
    1AU     AUC   39   4.930   5.424   5.504
    1AU     AUC   40   5.784   5.576   5.830
    1AU     AUC   41   5.746   5.595   6.175
    1AU     AUC   42   4.756   5.595   5.842
    1AU     AUC   43   4.767   5.657   6.195
    1AU     AUC   44   5.748   4.981   5.852
    1AU     AUC   45   5.702   4.962   6.186
    1AU     AUC   46   4.712   5.001   5.871
    1AU     AUC   47   4.771   5.061   6.220
    1AU     AUC   48   5.066   5.837   6.271
    1AU     AUC   49   5.430   5.778   6.248
    1AU     AUC   50   5.042   4.840   6.296
    1AU     AUC   51   5.373   4.789   6.285
    1AU     AUC   52   5.078   5.721   5.699
    1AU     AUC   53   5.465   5.747   5.667
    1AU     AUC   54   5.039   4.811   5.722
    1AU     AUC   55   5.426   4.840   5.723
    1AU    AUSL   56   5.811   5.255   6.706
    1AU    AUSL   57   5.528   4.789   6.681
    1AU     AUL   58   5.851   4.844   6.841
    1AU       S   59   5.856   4.426   6.651
    1AU     LIG   60   5.767   4.252   7.004
    1AU     LIG   61   6.010   3.945   7.219
    1AU     LIG   62   6.263   3.612   7.408
    1AU     LIG   63   6.447   3.468   7.806
    1AU       S   64   6.076   5.233   6.774
    1AU     LIG   65   6.027   5.143   7.242
    1AU     LIG   66   6.125   5.039   7.701
    1AU     LIG   67   6.454   5.040   8.056
    1AU     LIG   68   6.840   5.117   8.334
    1AU    AUSL   69   5.417   5.152   6.896
    1AU    AUSL   70   5.114   5.489   6.926
    1AU     AUL   71   5.321   5.441   7.255
    1AU       S   72   5.557   5.105   7.061
    1AU     LIG   73   5.418   4.940   7.430
    1AU     LIG   74   5.637   4.819   7.828
    1AU     LIG   75   5.760   4.618   8.243
    1AU     LIG   76   5.915   4.655   8.685
    1AU       S   77   4.943   5.211   7.158
    1AU     LIG   78   4.995   5.158   7.632
    1AU     LIG   79   4.702   5.166   7.982
    1AU     LIG   80   4.543   5.201   8.420
    1AU     LIG   81   4.549   5.436   8.833
    1AU    AUSL   82   5.528   5.589   6.864
    1AU    AUSL   83   5.899   5.671   6.600
    1AU     AUL   84   5.807   5.529   6.988
    1AU       S   85   5.403   5.861   6.986
    1AU     LIG   86   5.653   5.826   7.380
    1AU     LIG   87   5.722   5.906   7.859
    1AU     LIG   88   5.766   5.949   8.347
    1AU     LIG   89   5.786   5.919   8.828
    1AU       S   90   5.989   5.902   6.773
    1AU     LIG   91   6.377   5.743   6.857
    1AU     LIG   92   6.684   5.925   7.170
    1AU     LIG   93   6.949   6.165   7.482
    1AU     LIG   94   7.268   6.413   7.720
    1AU    AUSL   95   5.782   5.327   5.392
    1AU    AUSL   96   5.682   5.759   5.299
    1AU     AUL   97   6.005   5.559   5.132
    1AU       S   98   5.634   5.517   4.875
    1AU     LIG   99   6.017   5.506   4.555
    1AU     LIG  100   6.222   5.176   4.301
    1AU     LIG  101   6.278   5.014   3.870
    1AU     LIG  102   6.499   5.040   3.453
    1AU       S  103   5.978   6.013   5.271
    1AU     LIG  104   6.123   6.167   4.885
    1AU     LIG  105   6.293   6.346   4.493
    1AU     LIG  106   6.510   6.665   4.249
    1AU     LIG  107   6.718   6.982   4.007
    1AU    AUSL  108   5.568   5.082   5.091
    1AU    AUSL  109   5.985   4.945   5.424
    1AU     AUL  110   5.937   5.096   5.147
    1AU       S  111   6.062   4.642   5.193
    1AU     LIG  112   6.234   4.329   4.869
    1AU     LIG  113   6.490   3.964   4.716
    1AU     LIG  114   6.764   3.699   4.436
    1AU     LIG  115   7.186   3.750   4.212
    1AU       S  116   5.676   5.336   4.851
    1AU     LIG  117   5.797   5.012   4.574
    1AU     LIG  118   5.889   4.788   4.161
    1AU     LIG  119   5.870   4.755   3.687
    1AU     LIG  120   6.058   4.857   3.265
    1AU    AUSL  121   5.377   5.448   5.269
    1AU    AUSL  122   5.146   5.062   5.207
    1AU     AUL  123   5.291   5.112   4.938
    1AU       S  124   4.829   5.114   4.808
    1AU     LIG  125   4.782   4.728   4.596
    1AU     LIG  126   4.718   4.641   4.136
    1AU     LIG  127   4.509   4.636   3.709
    1AU     LIG  128   4.572   4.758   3.263
    1AU       S  129   5.449   5.569   4.929
    1AU     LIG  130   5.493   5.429   4.407
    1AU     LIG  131   5.786   5.279   4.043
    1AU     LIG  132   5.925   5.262   3.577
    1AU     LIG  133   5.948   5.466   3.149
    1AU    AUSL  134   4.711   5.419   6.762
    1AU    AUSL  135   5.019   5.768   6.612
    1AU     AUL  136   4.870   5.713   6.954
    1AU       S  137   4.764   5.345   7.235
    1AU     LIG  138   4.522   5.024   7.451
    1AU     LIG  139   4.271   4.919   7.848
    1AU     LIG  140   4.115   4.935   8.299
    1AU     LIG  141   3.772   5.075   8.602
    1AU       S  142   4.590   6.027   6.730
    1AU     LIG  143   4.688   6.210   7.120
    1AU     LIG  144   4.518   6.471   7.466
    1AU     LIG  145   4.192   6.720   7.696
    1AU     LIG  146   4.009   6.883   8.104
    1AU    AUSL  147   5.037   5.128   6.683
    1AU    AUSL  148   4.574   5.015   6.634
    1AU     AUL  149   4.589   5.157   6.855
    1AU       S  150   4.415   4.719   6.871
    1AU     LIG  151   4.040   4.392   6.913
    1AU     LIG  152   3.737   4.038   6.933
    1AU     LIG  153   3.475   3.779   7.210
    1AU     LIG  154   3.063   3.655   7.409
    1AU       S  155   4.995   5.052   7.083
    1AU     LIG  156   4.938   4.720   7.378
    1AU     LIG  157   4.740   4.680   7.784
    1AU     LIG  158   4.582   4.709   8.214
    1AU     LIG  159   4.441   4.560   8.622
    1AU    AUSL  160   4.742   5.205   5.291
    1AU    AUSL  161   4.938   4.827   5.498
    1AU     AUL  162   4.928   4.821   5.145
    1AU       S  163   4.604   5.099   4.955
    1AU     LIG  164   4.356   5.011   4.576
    1AU     LIG  165   4.305   4.946   4.109
    1AU     LIG  166   4.047   4.919   3.709
    1AU     LIG  167   3.596   5.055   3.582
    1AU       S  168   4.519   4.701   5.304
    1AU     LIG  169   4.526   4.439   4.989
    1AU     LIG  170   4.201   4.147   4.856
    1AU     LIG  171   3.858   3.925   4.642
    1AU     LIG  172   3.642   3.732   4.265
    1AU    AUSL  173   5.006   5.487   5.058
    1AU    AUSL  174   4.525   5.568   5.418
    1AU     AUL  175   4.653   5.534   5.101
    1AU       S  176   4.257   5.751   5.251
    1AU     LIG  177   4.049   6.079   4.969
    1AU     LIG  178   3.964   6.256   4.543
    1AU     LIG  179   3.630   6.380   4.239
    1AU     LIG  180   3.143   6.424   4.198
    1AU       S  181   4.904   5.335   4.756
    1AU     LIG  182   4.772   5.166   4.305
    1AU     LIG  183   4.719   5.100   3.834
    1AU     LIG  184   4.647   5.253   3.392
    1AU     LIG  185   4.784   5.521   3.027
    1AU    AUSL  186   6.002   5.799   6.005
    1AU    AUSL  187   6.021   5.630   5.590
    1AU     AUL  188   6.288   5.916   5.838
    1AU       S  189   6.103   5.909   5.429
    1AU     LIG  190   6.448   5.854   5.147
    1AU     LIG  191   6.594   5.986   4.732
    1AU     LIG  192   6.820   6.317   4.499
    1AU     LIG  193   7.048   6.652   4.256
    1AU       S  194   6.466   5.666   6.202
    1AU     LIG  195   6.866   5.847   6.087
    1AU     LIG  196   7.301   6.043   6.079
    1AU     LIG  197   7.492   6.498   6.079
    1AU     LIG  198   7.745   6.778   6.359
    1AU    AUSL  199   6.226   5.404   5.900
    1AU    AUSL  200   6.175   5.072   6.214
    1AU     AUL  201   6.545   5.169   6.218
    1AU       S  202   6.350   5.480   5.963
    1AU     LIG  203   6.792   5.395   5.849
    1AU     LIG  204   7.240   5.566   5.838
    1AU     LIG  205   7.666   5.743   5.780
    1AU     LIG  206   8.054   5.533   5.582
    1AU       S  207   6.424   4.782   6.011
    1AU     LIG  208   6.882   4.752   6.094
    1AU     LIG  209   7.247   4.464   6.202
    1AU     LIG  210   7.672   4.342   6.311
    1AU     LIG  211   8.085   4.485   6.469
    1AU    AUSL  212   5.945   5.437   6.246
    1AU    AUSL  213   5.805   6.016   6.326
    1AU     AUL  214   6.077   5.879   6.316
    1AU       S  215   6.004   6.198   6.661
    1AU     LIG  216   6.387   6.271   6.921
    1AU     LIG  217   6.725   6.518   7.160
    1AU     LIG  218   6.889   6.951   7.309
    1AU     LIG  219   6.956   7.447   7.274
    1AU       S  220   6.286   5.491   6.397
    1AU     LIG  221   6.768   5.501   6.542
    1AU     LIG  222   7.207   5.557   6.351
    1AU     LIG  223   7.641   5.727   6.388
    1AU     LIG  224   8.063   5.894   6.555
    1AU    AUSL  225   4.586   5.879   6.017
    1AU    AUSL  226   4.633   5.666   6.420
    1AU     AUL  227   4.352   6.001   6.259
    1AU       S  228   4.486   5.810   6.661
    1AU     LIG  229   4.265   5.902   7.082
    1AU     LIG  230   4.076   6.221   7.376
    1AU     LIG  231   3.802   6.385   7.729
    1AU     LIG  232   3.467   6.456   8.061
    1AU       S  233   4.588   6.263   5.940
    1AU     LIG  234   4.117   6.231   5.839
    1AU     LIG  235   3.631   6.328   5.848
    1AU     LIG  236   3.200   6.557   5.894
    1AU     LIG  237   2.774   6.673   6.070
    1AU    AUSL  238   4.560   5.477   5.830
    1AU    AUSL  239   4.687   5.942   5.601
    1AU     AUL  240   4.382   5.828   5.703
    1AU       S  241   4.182   5.270   5.454
    1AU     LIG  242   3.826   5.597   5.547
    1AU     LIG  243   3.428   5.852   5.672
    1AU     LIG  244   3.085   6.138   5.492
    1AU     LIG  245   2.605   6.189   5.446
    1AU       S  246   4.527   6.182   5.419
    1AU     LIG  247   4.353   6.479   5.131
    1AU     LIG  248   4.225   6.659   4.726
    1AU     LIG  249   3.954   7.000   4.559
    1AU     LIG  250   3.633   7.312   4.711
    1AU    AUSL  251   4.297   5.547   6.187
    1AU    AUSL  252   4.264   5.173   5.906
    1AU     AUL  253   4.153   5.474   5.887
    1AU       S  254   4.066   5.104   6.182
    1AU     LIG  255   3.759   5.137   5.835
    1AU     LIG  256   3.381   4.884   5.693
    1AU     LIG  257   2.969   4.666   5.715
    1AU     LIG  258   2.565   4.809   5.635
    1AU       S  259   4.142   5.582   6.379
    1AU     LIG  260   3.723   5.563   6.184
    1AU     LIG  261   3.312   5.720   6.393
    1AU     LIG  262   2.878   5.941   6.400
    1AU     LIG  263   2.476   6.222   6.349
    1AU    AUSL  264   5.958   4.711   6.056
    1AU    AUSL  265   5.783   4.985   6.378
    1AU     AUL  266   6.120   4.883   6.425
    1AU       S  267   6.280   4.602   6.070
    1AU     LIG  268   6.645   4.317   5.934
    1AU     LIG  269   7.057   4.068   5.929
    1AU     LIG  270   7.494   3.914   6.041
    1AU     LIG  271   7.792   3.844   6.389
    1AU       S  272   5.999   4.457   6.511
    1AU     LIG  273   6.279   4.237   6.857
    1AU     LIG  274   6.534   4.000   7.182
    1AU     LIG  275   6.756   3.788   7.533
    1AU     LIG  276   7.041   3.841   7.914
    1AU    AUSL  277   5.948   5.086   5.825
    1AU    AUSL  278   5.825   4.595   5.655
    1AU     AUL  279   6.083   4.726   5.670
    1AU       S  280   6.422   4.980   5.806
    1AU     LIG  281   6.717   4.706   5.599
    1AU     LIG  282   7.131   4.520   5.695
    1AU     LIG  283   7.560   4.366   5.789
    1AU     LIG  284   7.970   4.305   5.585
    1AU       S  285   6.013   4.415   5.318
    1AU     LIG  286   6.082   3.965   5.214
    1AU     LIG  287   6.273   3.591   4.991
    1AU     LIG  288   6.595   3.308   4.792
    1AU     LIG  289   6.828   2.889   4.906
    1AU    AUSL  290   4.453   4.804   6.071
    1AU    AUSL  291   4.582   5.033   5.653
    1AU     AUL  292   4.227   4.878   5.782
    1AU       S  293   4.444   4.849   5.373
    1AU     LIG  294   4.054   4.599   5.168
    1AU     LIG  295   3.715   4.289   5.006
    1AU     LIG  296   3.366   4.056   4.769
    1AU     LIG  297   3.019   4.080   4.443
    1AU       S  298   4.040   4.867   6.223
    1AU     LIG  299   3.684   4.660   6.041
    1AU     LIG  300   3.237   4.557   6.138
    1AU     LIG  301   2.886   4.351   6.379
    1AU     LIG  302   2.547   3.997   6.341
    1AU    AUSL  303   4.546   5.202   6.253
    1AU    AUSL  304   4.804   4.818   6.322
    1AU     AUL  305   4.462   4.780   6.391
    1AU       S  306   4.485   4.521   6.763
    1AU     LIG  307   4.386   4.056   6.677
    1AU     LIG  308   4.059   3.683   6.718
    1AU     LIG  309   3.712   3.408   6.927
    1AU     LIG  310   3.268   3.306   7.100
    1AU       S  311   4.131   5.107   6.370
    1AU     LIG  312   3.590   5.087   6.322
    1AU     LIG  313   3.156   5.060   6.123
    1AU     LIG  314   2.752   4.853   6.149
    1AU     LIG  315   2.436   4.650   6.425
    1AU    AUSL  316   5.251   6.119   6.479
    1AU    AUSL  317   4.831   6.050   6.332
    1AU     AUL  318   5.049   6.106   6.716
    1AU       S  319   4.690   6.266   6.460
    1AU     LIG  320   4.366   6.463   6.797
    1AU     LIG  321   4.154   6.694   7.166
    1AU     LIG  322   3.933   7.072   7.382
    1AU     LIG  323   3.687   7.502   7.382
    1AU       S  324   5.285   6.447   6.443
    1AU     LIG  325   5.415   6.508   6.842
    1AU     LIG  326   5.488   6.936   7.006
    1AU     LIG  327   5.586   7.369   7.150
    1AU     LIG  328   5.674   7.697   7.480
    1AU    AUSL  329   5.081   6.270   6.059
    1AU    AUSL  330   5.421   6.219   5.711
    1AU     AUL  331   5.291   6.568   5.853
    1AU       S  332   5.105   6.519   6.278
    1AU     LIG  333   5.305   6.934   6.506
    1AU     LIG  334   5.319   7.378   6.685
    1AU     LIG  335   5.069   7.805   6.680
    1AU     LIG  336   4.832   8.172   6.883
    1AU       S  337   5.156   6.364   5.470
    1AU     LIG  338   5.469   6.768   5.428
    1AU     LIG  339   5.705   7.214   5.343
    1AU     LIG  340   5.988   7.647   5.318
    1AU     LIG  341   6.175   8.110   5.280
    1AU    AUSL  342   5.447   6.016   6.097
    1AU    AUSL  343   5.481   5.758   6.485
    1AU     AUL  344   5.559   6.090   6.550
    1AU       S  345   5.838   6.027   6.905
    1AU     LIG  346   6.136   5.982   7.260
    1AU     LIG  347   6.432   6.255   7.490
    1AU     LIG  348   6.716   6.570   7.706
    1AU     LIG  349   6.757   6.792   8.122
    1AU       S  350   5.531   6.387   6.196
    1AU     LIG  351   5.757   6.665   6.494
    1AU     LIG  352   5.790   7.124   6.636
    1AU     LIG  353   5.809   7.580   6.738
    1AU     LIG  354   5.861   8.029   6.749
    1AU    AUSL  355   5.195   4.641   6.439
    1AU    AUSL  356   5.611   4.593   6.286
    1AU     AUL  357   5.397   4.487   6.663
    1AU       S  358   5.163   4.114   6.526
    1AU     LIG  359   4.874   3.935   6.848
    1AU     LIG  360   4.813   3.475   6.904
    1AU     LIG  361   4.877   3.008   6.926
    1AU     LIG  362   4.696   2.620   7.162
    1AU       S  363   5.764   4.372   6.359
    1AU     LIG  364   5.943   3.941   6.603
    1AU     LIG  365   6.284   3.679   6.870
    1AU     LIG  366   6.657   3.451   7.117
    1AU     LIG  367   6.878   2.996   7.132
    1AU    AUSL  368   4.865   4.431   6.168
    1AU    AUSL  369   4.919   4.729   6.754
    1AU     AUL  370   4.864   4.478   6.511
    1AU       S  371   4.970   4.047   6.371
    1AU     LIG  372   4.746   3.652   6.419
    1AU     LIG  373   4.621   3.192   6.501
    1AU     LIG  374   4.481   2.771   6.694
    1AU     LIG  375   4.595   2.318   6.750
    1AU       S  376   4.710   4.649   6.941
    1AU     LIG  377   4.548   4.242   7.156
    1AU     LIG  378   4.195   3.936   7.149
    1AU     LIG  379   3.952   3.605   7.368
    1AU     LIG  380   3.998   3.405   7.803
    1AU    AUSL  381   5.300   4.341   6.131
    1AU    AUSL  382   5.052   4.462   5.771
    1AU     AUL  383   4.927   4.205   5.939
    1AU       S  384   5.294   4.165   5.668
    1AU     LIG  385   5.008   3.748   5.728
    1AU     LIG  386   4.802   3.279   5.671
    1AU     LIG  387   4.730   2.810   5.510
    1AU     LIG  388   4.616   2.459   5.214
    1AU       S  389   5.297   4.158   6.266
    1AU     LIG  390   5.252   3.680   6.201
    1AU     LIG  391   5.139   3.307   6.493
    1AU     LIG  392   5.338   2.901   6.653
    1AU     LIG  393   5.757   2.659   6.665
    1AU    AUSL  394   5.280   5.915   5.385
    1AU    AUSL  395   5.680   5.879   5.723
    1AU     AUL  396   5.545   6.107   5.380
    1AU       S  397   5.146   6.333   5.259
    1AU     LIG  398   5.453   6.504   4.999
    1AU     LIG  399   5.503   6.961   4.926
    1AU     LIG  400   5.489   7.320   4.622
    1AU     LIG  401   5.583   7.617   4.264
    1AU       S  402   5.933   6.126   5.621
    1AU     LIG  403   6.335   6.344   5.362
    1AU     LIG  404   6.557   6.462   4.947
    1AU     LIG  405   6.791   6.798   4.689
    1AU     LIG  406   7.137   7.137   4.638
    1AU    AUSL  407   5.073   5.949   5.775
    1AU    AUSL  408   4.966   5.627   5.460
    1AU     AUL  409   4.932   5.931   5.324
    1AU       S  410   4.965   6.323   5.594
    1AU     LIG  411   4.955   6.808   5.476
    1AU     LIG  412   5.169   7.203   5.314
    1AU     LIG  413   5.041   7.670   5.298
    1AU     LIG  414   4.792   8.023   5.104
    1AU       S  415   4.501   5.975   5.169
    1AU     LIG  416   4.513   6.167   4.751
    1AU     LIG  417   4.425   6.370   4.346
    1AU     LIG  418   4.124   6.684   4.185
    1AU     LIG  419   4.114   7.150   4.055
    1AU    AUSL  420   5.268   4.566   5.398
    1AU    AUSL  421   4.650   4.600   5.748
    1AU     AUL  422   4.907   4.438   5.458
    1AU       S  423   4.461   4.556   5.534
    1AU     LIG  424   4.264   4.176   5.375
    1AU     LIG  425   3.930   3.871   5.210
    1AU     LIG  426   3.604   3.613   4.974
    1AU     LIG  427   3.458   3.166   4.844
    1AU       S  428   5.303   4.150   5.445
    1AU     LIG  429   5.238   3.714   5.270
    1AU     LIG  430   4.991   3.297   5.187
    1AU     LIG  431   4.843   2.884   4.998
    1AU     LIG  432   4.745   2.590   4.631
    1AU    AUSL  433   5.446   4.617   5.833
    1AU    AUSL  434   5.539   4.892   5.472
    1AU     AUL  435   5.581   4.523   5.443
    1AU       S  436   5.530   4.193   5.759
    1AU     LIG  437   5.520   3.719   5.727
    1AU     LIG  438   5.311   3.314   5.600
    1AU     LIG  439   5.232   2.874   5.413
    1AU     LIG  440   5.384   2.409   5.433
    1AU       S  441   5.796   4.651   5.068
    1AU     LIG  442   5.725   4.222   4.939
    1AU     LIG  443   5.965   3.891   4.701
    1AU     LIG  444   6.239   3.595   4.450
    1AU     LIG  445   6.450   3.537   4.030
    2POPC   NC3  446  10.137   5.910   8.076
    2POPC   PO4  447  10.497   5.350   7.937
    2POPC   GL1  448  10.293   5.481   7.660
    2POPC   GL2  449   9.984   5.567   7.728
    2POPC   C1A  450  10.146   5.350   7.269
    2POPC   D2A  451  10.351   5.394   6.877
    2POPC   C3A  452  10.137   5.426   6.457
    2POPC   C4A  453  10.138   5.387   5.957
    2POPC   C1B  454  10.207   5.855   7.364
    2POPC   C2B  455  10.279   5.966   6.953
    2POPC   C3B  456  10.064   5.947   6.587
    2POPC   C4B  457  10.193   5.841   6.193
    3POPC   NC3  458   0.467   9.277   8.326
    3POPC   PO4  459   0.695   9.626   7.848
    3POPC   GL1  460   0.526   9.488   7.491
    3POPC   GL2  461   0.354   9.208   7.555
    3POPC   C1A  462   0.239   9.562   7.188
    3POPC   D2A  463   0.365   9.703   6.814
    3POPC   C3A  464   0.082   9.687   6.508
    3POPC   C4A  465   0.265   9.723   6.141
    3POPC   C1B  466   0.245   9.016   7.183
    3POPC   C2B  467   0.496   9.107   6.802
    3POPC   C3B  468   0.436   9.333   6.422
    3POPC   C4B  469   0.504   9.315   5.932
    4POPC   NC3  470   9.379   7.410   8.193
    4POPC   PO4  471   8.870   7.059   7.993
    4POPC   GL1  472   9.110   7.129   7.664
    4POPC   GL2  473   9.462   7.130   7.750
    4POPC   C1A  474   9.273   7.024   7.277
    4POPC   D2A  475   9.123   6.891   6.904
    4POPC   C3A  476   9.179   7.181   6.572
    4POPC   C4A  477   9.211   7.117   6.146
    4POPC   C1B  478   9.754   7.182   7.395
    4POPC   C2B  479   9.758   7.059   6.987
    4POPC   C3B  480   9.854   7.183   6.596
    4POPC   C4B  481   9.624   7.394   6.290
    5POPC   NC3  482   5.897   8.560   8.080
    5POPC   PO4  483   5.706   9.232   8.183
    5POPC   GL1  484   5.881   8.996   7.827
    5POPC   GL2  485   5.606   8.951   7.550
    5POPC   C1A  486   6.081   9.007   7.432
    5POPC   D2A  487   5.831   9.216   7.062
    5POPC   C3A  488   5.781   9.047   6.630
    5POPC   C4A  489   5.650   8.772   6.300
    5POPC   C1B  490   5.764   8.713   7.161
    5POPC   C2B  491   5.591   8.533   6.771
    5POPC   C3B  492   5.571   8.265   6.396
    5POPC   C4B  493   5.686   8.248   5.962
    6POPC   NC3  494   6.438   1.976   8.107
    6POPC   PO4  495   6.046   2.439   7.997
    6POPC   GL1  496   6.368   2.155   7.636
    6POPC   GL2  497   6.499   1.791   7.620
    6POPC   C1A  498   6.501   2.031   7.162
    6POPC   D2A  499   6.286   2.259   6.792
    6POPC   C3A  500   6.531   2.328   6.398
    6POPC   C4A  501   6.395   2.248   5.958
    6POPC   C1B  502   6.676   1.469   7.305
    6POPC   C2B  503   6.753   1.601   6.877
    6POPC   C3B  504   6.571   1.873   6.644
    6POPC   C4B  505   6.386   1.851   6.267
    7POPC   NC3  506   8.796   5.854   7.878
    7POPC   PO4  507   8.856   5.259   8.130
    7POPC   GL1  508   8.715   5.331   7.695
    7POPC   GL2  509   8.506   5.595   7.554
    7POPC   C1A  510   8.933   5.475   7.320
    7POPC   D2A  511   8.984   5.619   6.881
    7POPC   C3A  512   8.938   5.481   6.432
    7POPC   C4A  513   8.908   5.638   6.027
    7POPC   C1B  514   8.503   5.641   7.107
    7POPC   C2B  515   8.512   5.422   6.705
    7POPC   C3B  516   8.450   5.612   6.296
    7POPC   C4B  517   8.085   5.678   6.065
    8POPC   NC3  518   3.717   9.688   8.061
    8POPC   PO4  519   3.047   9.730   8.178
    8POPC   GL1  520   3.274   9.725   7.783
    8POPC   GL2  521   3.374   9.365   7.796
    8POPC   C1A  522   3.352   9.798   7.337
    8POPC   D2A  523   3.176   9.720   6.897
    8POPC   C3A  524   3.470   9.571   6.568
    8POPC   C4A  525   3.464   9.432   6.127
    8POPC   C1B  526   3.446   9.197   7.395
    8POPC   C2B  527   3.434   9.251   6.966
    8POPC   C3B  528   3.549   9.052   6.551
    8POPC   C4B  529   3.756   8.954   6.166
    9POPC   NC3  530   2.607   7.872   8.439
    9POPC   PO4  531   3.042   8.217   8.100
    9POPC   GL1  532   2.675   7.978   7.884
    9POPC   GL2  533   2.448   8.194   7.718
    9POPC   C1A  534   2.575   7.799   7.422
    9POPC   D2A  535   2.838   7.692   7.044
    9POPC   C3A  536   2.681   7.712   6.618
    9POPC   C4A  537   2.505   7.525   6.254
    9POPC   C1B  538   2.877   8.217   7.461
    9POPC   C2B  539   3.008   8.180   7.037
    9POPC   C3B  540   3.004   8.105   6.572
    9POPC   C4B  541   2.803   7.967   6.169
   10POPC   NC3  542   8.457   7.023   8.178
   10POPC   PO4  543   8.521   7.591   8.425
   10POPC   GL1  544   8.600   7.486   7.893
   10POPC   GL2  545   8.506   7.146   7.670
   10POPC   C1A  546   8.671   7.538   7.376
   10POPC   D2A  547   8.563   7.700   6.925
   10POPC   C3A  548   8.428   7.495   6.498
   10POPC   C4A  549   8.428   7.504   6.018
   10POPC   C1B  550   8.748   7.046   7.262
   10POPC   C2B  551   8.714   7.175   6.805
   10POPC   C3B  552   8.725   7.041   6.348
   10POPC   C4B  553   8.784   7.171   5.883
   11POPC   NC3  554   6.131   9.092   8.276
   11POPC   PO4  555   6.301   8.396   8.210
   11POPC   GL1  556   6.315   8.599   7.765
   11POPC   GL2  557   6.639   8.740   7.696
   11POPC   C1A  558   6.348   8.620   7.276
   11POPC   D2A  559   6.664   8.457   6.983
   11POPC   C3A  560   6.573   8.524   6.538
   11POPC   C4A  561   6.430   8.542   6.097
   11POPC   C1B  562   6.704   8.964   7.331
   11POPC   C2B  563   6.568   8.971   6.908
   11POPC   C3B  564   6.620   9.017   6.478
   11POPC   C4B  565   6.189   8.968   6.254
   12POPC   NC3  566   5.035   1.162   8.092
   12POPC   PO4  567   5.270   1.814   8.080
   12POPC   GL1  568   4.925   1.583   7.783
   12POPC   GL2  569   4.939   1.264   7.617
   12POPC   C1A  570   4.703   1.564   7.315
   12POPC   D2A  571   4.962   1.513   6.906
   12POPC   C3A  572   4.790   1.502   6.493
   12POPC   C4A  573   4.846   1.419   6.036
   12POPC   C1B  574   4.921   1.085   7.218
   12POPC   C2B  575   4.837   1.055   6.785
   12POPC   C3B  576   5.017   1.056   6.371
   12POPC   C4B  577   4.617   0.978   6.168
   13POPC   NC3  578   0.217   9.530   7.899
   13POPC   PO4  579   9.989   9.441   8.053
   13POPC   GL1  580  10.217   9.566   7.726
   13POPC   GL2  581  10.335   9.225   7.662
   13POPC   C1A  582  10.137   9.812   7.352
   13POPC   D2A  583  10.319   9.780   6.940
   13POPC   C3A  584  10.101   9.876   6.550
   13POPC   C4A  585  10.216   9.680   6.142
   13POPC   C1B  586  10.292   9.319   7.245
   13POPC   C2B  587  10.462   9.276   6.829
   13POPC   C3B  588  10.143   9.359   6.551
   13POPC   C4B  589   9.988   9.234   6.171
   14POPC   NC3  590   1.711   5.532   8.410
   14POPC   PO4  591   1.115   5.443   8.177
   14POPC   GL1  592   1.168   5.549   7.730
   14POPC   GL2  593   1.348   5.273   7.573
   14POPC   C1A  594   1.104   5.824   7.356
   14POPC   D2A  595   1.253   5.666   6.931
   14POPC   C3A  596   1.108   5.858   6.511
   14POPC   C4A  597   1.145   5.675   6.101
   14POPC   C1B  598   0.940   5.357   7.303
   14POPC   C2B  599   0.813   5.376   6.837
   14POPC   C3B  600   0.847   5.370   6.367
   14POPC   C4B  601   0.841   5.301   5.884
   15POPC   NC3  602   8.563   3.347   8.040
   15POPC   PO4  603   8.635   3.995   7.826
   15POPC   GL1  604   8.710   3.648   7.519
   15POPC   GL2  605   8.695   3.257   7.550
   15POPC   C1A  606   8.818   3.502   7.084
   15POPC   D2A  607   8.636   3.421   6.677
   15POPC   C3A  608   8.889   3.332   6.349
   15POPC   C4A  609   8.815   3.504   5.960
   15POPC   C1B  610   8.354   3.376   7.254
   15POPC   C2B  611   8.251   3.665   6.923
   15POPC   C3B  612   8.141   3.504   6.527
   15POPC   C4B  613   8.389   3.553   6.205
   16POPC   NC3  614   0.380   2.824   8.128
   16POPC   PO4  615   0.307   2.148   8.153
   16POPC   GL1  616   0.354   2.413   7.754
   16POPC   GL2  617   0.190   2.743   7.685
   16POPC   C1A  618   0.129   2.420   7.325
   16POPC   D2A  619   0.155   2.653   6.929
   16POPC   C3A  620   0.448   2.547   6.578
   16POPC   C4A  621   0.128   2.468   6.270
   16POPC   C1B  622   0.441   2.848   7.326
   16POPC   C2B  623   0.454   3.089   6.954
   16POPC   C3B  624   0.330   3.046   6.523
   16POPC   C4B  625   0.478   2.858   6.148
   17POPC   NC3  626   8.921   7.808   8.332
   17POPC   PO4  627   8.605   8.232   7.964
   17POPC   GL1  628   8.664   7.972   7.637
   17POPC   GL2  629   8.984   7.769   7.703
   17POPC   C1A  630   8.622   8.206   7.253
   17POPC   D2A  631   8.351   8.237   6.916
   17POPC   C3A  632   8.499   8.087   6.571
   17POPC   C4A  633   8.616   8.194   6.153
   17POPC   C1B  634   9.060   7.918   7.266
   17POPC   C2B  635   8.952   8.120   6.848
   17POPC   C3B  636   8.958   7.931   6.429
   17POPC   C4B  637   8.903   7.510   6.273
   18POPC   NC3  638   2.808  10.083   8.383
   18POPC   PO4  639   3.293  10.270   7.937
   18POPC   GL1  640   3.580  10.173   7.637
   18POPC   GL2  641   3.920  10.087   7.752
   18POPC   C1A  642   3.584  10.266   7.203
   18POPC   D2A  643   3.430  10.189   6.780
   18POPC   C3A  644   3.600  10.417   6.391
   18POPC   C4A  645   3.401  10.339   5.955
   18POPC   C1B  646   3.882   9.857   7.368
   18POPC   C2B  647   3.712   9.789   6.976
   18POPC   C3B  648   3.813   9.945   6.581
   18POPC   C4B  649   3.547   9.941   6.228
   19POPC   NC3  650   9.675   8.266   8.040
   19POPC   PO4  651   9.372   7.800   8.438
   19POPC   GL1  652   9.510   7.771   7.893
   19POPC   GL2  653   9.464   8.010   7.649
   19POPC   C1A  654   9.376   7.544   7.460
   19POPC   D2A  655   9.154   7.467   7.024
   19POPC   C3A  656   9.342   7.657   6.618
   19POPC   C4A  657   9.332   7.757   6.130
   19POPC   C1B  658   9.573   8.195   7.305
   19POPC   C2B  659   9.459   8.056   6.915
   19POPC   C3B  660   9.442   8.144   6.472
   19POPC   C4B  661   9.700   8.104   6.106
   20POPC   NC3  662   8.401   9.272   8.234
   20POPC   PO4  663   8.950   8.988   8.037
   20POPC   GL1  664   8.644   9.081   7.704
   20POPC   GL2  665   8.490   9.410   7.712
   20POPC   C1A  666   8.580   9.180   7.239
   20POPC   D2A  667   8.745   9.114   6.833
   20POPC   C3A  668   8.564   9.133   6.449
   20POPC   C4A  669   8.802   9.145   6.095
   20POPC   C1B  670   8.876   9.525   7.453
   20POPC   C2B  671   8.906   9.579   7.000
   20POPC   C3B  672   8.588   9.596   6.676
   20POPC   C4B  673   8.649   9.605   6.242
   21POPC   NC3  674   9.350   4.608   8.471
   21POPC   PO4  675   9.385   4.453   7.868
   21POPC   GL1  676   9.498   4.737   7.617
   21POPC   GL2  677   9.531   5.024   7.793
   21POPC   C1A  678   9.502   4.767   7.185
   21POPC   D2A  679   9.208   4.775   6.903
   21POPC   C3A  680   9.321   4.690   6.499
   21POPC   C4A  681   8.998   4.635   6.222
   21POPC   C1B  682   9.657   5.207   7.412
   21POPC   C2B  683   9.406   5.381   7.086
   21POPC   C3B  684   9.290   5.237   6.702
   21POPC   C4B  685   9.447   5.161   6.307
   22POPC   NC3  686   0.786   0.929   8.101
   22POPC   PO4  687   1.401   0.785   8.026
   22POPC   GL1  688   1.135   0.937   7.700
   22POPC   GL2  689   1.050   1.276   7.827
   22POPC   C1A  690   1.134   1.068   7.269
   22POPC   D2A  691   1.393   1.084   6.924
   22POPC   C3A  692   1.218   0.888   6.590
   22POPC   C4A  693   1.171   1.095   6.216
   22POPC   C1B  694   1.334   1.448   7.534
   22POPC   C2B  695   1.249   1.562   7.109
   22POPC   C3B  696   1.098   1.453   6.691
   22POPC   C4B  697   1.398   1.523   6.378
   23POPC   NC3  698   6.887   8.690   8.125
   23POPC   PO4  699   7.352   9.164   8.152
   23POPC   GL1  700   7.091   9.024   7.794
   23POPC   GL2  701   7.291   8.723   7.740
   23POPC   C1A  702   7.199   9.038   7.359
   23POPC   D2A  703   7.104   8.799   6.983
   23POPC   C3A  704   7.250   8.893   6.557
   23POPC   C4A  705   7.037   8.811   6.163
   23POPC   C1B  706   7.037   8.512   7.419
   23POPC   C2B  707   7.139   8.268   7.052
   23POPC   C3B  708   7.074   8.417   6.633
   23POPC   C4B  709   6.918   8.332   6.221
   24POPC   NC3  710   0.119   6.404   8.309
   24POPC   PO4  711  10.004   6.375   8.139
   24POPC   GL1  712   9.894   6.408   7.715
   24POPC   GL2  713  10.176   6.239   7.667
   24POPC   C1A  714   9.819   6.225   7.248
   24POPC   D2A  715   9.995   6.409   6.852
   24POPC   C3A  716   9.784   6.388   6.479
   24POPC   C4A  717   9.762   6.083   6.193
   24POPC   C1B  718  10.289   6.398   7.279
   24POPC   C2B  719  10.486   6.441   6.869
   24POPC   C3B  720  10.335   6.368   6.436
   24POPC   C4B  721  10.472   6.579   6.049
   25POPC   NC3  722   5.345   0.381   8.238
   25POPC   PO4  723   4.641   0.193   8.212
   25POPC   GL1  724   4.775   0.410   7.804
   25POPC   GL2  725   4.958   0.744   7.737
   25POPC   C1A  726   4.986   0.290   7.383
   25POPC   D2A  727   5.114   0.426   6.960
   25POPC   C3A  728   4.993   0.133   6.621
   25POPC   C4A  729   5.154   0.112   6.201
   25POPC   C1B  730   4.668   0.683   7.395
   25POPC   C2B  731   4.622   0.628   6.963
   25POPC   C3B  732   4.803   0.610   6.553
   25POPC   C4B  733   4.973   0.594   6.151
   26POPC   NC3  734   5.932   1.249   8.028
   26POPC   PO4  735   5.400   0.823   8.045
   26POPC   GL1  736   5.391   1.019   7.605
   26POPC   GL2  737   5.454   1.385   7.669
   26POPC   C1A  738   5.419   1.141   7.125
   26POPC   D2A  739   5.758   1.227   6.768
   26POPC   C3A  740   5.593   1.025   6.375
   26POPC   C4A  741   5.406   0.841   6.020
   26POPC   C1B  742   5.689   1.522   7.269
   26POPC   C2B  743   5.481   1.662   6.873
   26POPC   C3B  744   5.406   1.515   6.461
   26POPC   C4B  745   5.802   1.457   6.230
   27POPC   NC3  746   9.414   5.169   8.263
   27POPC   PO4  747   9.685   5.786   8.177
   27POPC   GL1  748   9.448   5.777   7.806
   27POPC   GL2  749   9.684   5.967   7.664
   27POPC   C1A  750   9.264   5.840   7.378
   27POPC   D2A  751   9.446   5.940   6.950
   27POPC   C3A  752   9.264   5.865   6.543
   27POPC   C4A  753   9.305   5.939   6.120
   27POPC   C1B  754   9.738   5.705   7.317
   27POPC   C2B  755   9.877   5.616   6.937
   27POPC   C3B  756   9.668   5.568   6.587
   27POPC   C4B  757   9.715   5.571   6.169
   28POPC   NC3  758   5.307   9.127   7.940
   28POPC   PO4  759   5.685   9.710   8.004
   28POPC   GL1  760   5.544   9.489   7.697
   28POPC   GL2  761   5.828   9.420   7.576
   28POPC   C1A  762   5.362   9.325   7.305
   28POPC   D2A  763   5.179   9.459   6.917
   28POPC   C3A  764   5.361   9.337   6.528
   28POPC   C4A  765   5.429   9.545   6.139
   28POPC   C1B  766   5.769   9.681   7.279
   28POPC   C2B  767   5.601   9.795   6.908
   28POPC   C3B  768   5.756   9.650   6.517
   28POPC   C4B  769   5.957   9.439   6.192
   29POPC   NC3  770   9.518   2.652   8.464
   29POPC   PO4  771   9.762   3.226   8.164
   29POPC   GL1  772   9.667   2.853   7.874
   29POPC   GL2  773   9.301   2.810   7.775
   29POPC   C1A  774   9.643   2.721   7.414
   29POPC   D2A  775   9.302   2.772   7.070
   29POPC   C3A  776   9.415   2.847   6.655
   29POPC   C4A  777   9.657   2.622   6.347
   29POPC   C1B  778   9.215   2.443   7.454
   29POPC   C2B  779   9.198   2.269   7.045
   29POPC   C3B  780   9.114   2.424   6.646
   29POPC   C4B  781   9.225   2.349   6.235
   30POPC   NC3  782   2.685   3.443   8.522
   30POPC   PO4  783   2.251   3.376   8.182
   30POPC   GL1  784   2.316   3.480   7.770
   30POPC   GL2  785   2.376   3.157   7.643
   30POPC   C1A  786   2.564   3.542   7.367
   30POPC   D2A  787   2.728   3.348   6.990
   30POPC   C3A  788   2.587   3.469   6.557
   30POPC   C4A  789   2.435   3.473   6.122
   30POPC   C1B  790   2.823   3.089   7.466
   30POPC   C2B  791   2.952   2.893   7.066
   30POPC   C3B  792   2.960   3.043   6.634
   30POPC   C4B  793   3.152   3.234   6.266
   31POPC   NC3  794   4.652  10.172   8.366
   31POPC   PO4  795   4.167   9.822   8.125
   31POPC   GL1  796   4.451   9.944   7.807
   31POPC   GL2  797   4.410  10.268   7.688
   31POPC   C1A  798   4.430   9.878   7.343
   31POPC   D2A  799   4.189   9.958   6.955
   31POPC   C3A  800   4.306   9.818   6.566
   31POPC   C4A  801   4.433   9.977   6.172
   31POPC   C1B  802   4.134  10.314   7.319
   31POPC   C2B  803   3.952  10.395   6.893
   31POPC   C3B  804   4.163  10.310   6.521
   31POPC   C4B  805   4.193   0.035   6.177
   32POPC   NC3  806   2.787   5.307   8.609
   32POPC   PO4  807   2.355   5.214   8.151
   32POPC   GL1  808   2.436   5.322   7.647
   32POPC   GL2  809   2.442   5.705   7.590
   32POPC   C1A  810   2.567   5.422   7.185
   32POPC   D2A  811   2.677   5.626   6.787
   32POPC   C3A  812   2.862   5.423   6.386
   32POPC   C4A  813   3.101   5.542   5.977
   32POPC   C1B  814   2.436   5.937   7.170
   32POPC   C2B  815   2.253   5.938   6.742
   32POPC   C3B  816   2.420   5.720   6.365
   32POPC   C4B  817   2.387   5.888   5.928
   33POPC   NC3  818   5.651  10.165   8.145
   33POPC   PO4  819   6.247  10.103   7.886
   33POPC   GL1  820   5.914  10.021   7.625
   33POPC   GL2  821   5.582  10.134   7.660
   33POPC   C1A  822   5.817  10.172   7.225
   33POPC   D2A  823   5.974  10.362   6.899
   33POPC   C3A  824   5.873  10.134   6.568
   33POPC   C4A  825   6.019  10.172   6.154
   33POPC   C1B  826   5.303  10.326   7.355
   33POPC   C2B  827   5.432  10.302   6.922
   33POPC   C3B  828   5.404  10.321   6.510
   33POPC   C4B  829   5.522  10.120   6.135
   34POPC   NC3  830   6.159   9.649   7.895
   34POPC   PO4  831   6.560   9.090   8.113
   34POPC   GL1  832   6.460   9.265   7.693
   34POPC   GL2  833   6.774   9.401   7.582
   34POPC   C1A  834   6.244   9.451   7.293
   34POPC   D2A  835   6.107   9.627   6.907
   34POPC   C3A  836   6.211   9.329   6.607
   34POPC   C4A  837   6.479   9.412   6.214
   34POPC   C1B  838   6.670   9.650   7.190
   34POPC   C2B  839   6.607   9.570   6.778
   34POPC   C3B  840   6.761   9.761   6.457
   34POPC   C4B  841   6.958   9.820   6.110
   35POPC   NC3  842   0.593   1.871   7.904
   35POPC   PO4  843  10.392   1.787   8.000
   35POPC   GL1  844   0.179   1.624   7.771
   35POPC   GL2  845   0.179   1.951   7.614
   35POPC   C1A  846   0.290   1.532   7.346
   35POPC   D2A  847   0.358   1.681   6.946
   35POPC   C3A  848   0.527   1.544   6.599
   35POPC   C4A  849   0.411   1.696   6.222
   35POPC   C1B  850   0.462   2.036   7.308
   35POPC   C2B  851   0.389   2.187   6.936
   35POPC   C3B  852   0.273   2.056   6.553
   35POPC   C4B  853   0.566   2.171   6.206
   36POPC   NC3  854   3.439   0.964   8.230
   36POPC   PO4  855   3.115   1.408   7.959
   36POPC   GL1  856   3.386   1.171   7.709
   36POPC   GL2  857   3.533   0.832   7.660
   36POPC   C1A  858   3.272   1.101   7.300
   36POPC   D2A  859   3.018   1.081   6.957
   36POPC   C3A  860   3.275   1.205   6.611
   36POPC   C4A  861   3.154   1.342   6.203
   36POPC   C1B  862   3.781   1.014   7.315
   36POPC   C2B  863   3.829   1.250   6.975
   36POPC   C3B  864   3.834   1.104   6.609
   36POPC   C4B  865   3.646   1.212   6.243
   37POPC   NC3  866   9.788   4.279   8.047
   37POPC   PO4  867   0.020   4.384   8.016
   37POPC   GL1  868  10.353   4.468   7.683
   37POPC   GL2  869  10.089   4.221   7.640
   37POPC   C1A  870  10.424   4.448   7.288
   37POPC   D2A  871  10.147   4.446   6.982
   37POPC   C3A  872  10.361   4.480   6.640
   37POPC   C4A  873  10.245   4.613   6.242
   37POPC   C1B  874  10.261   3.958   7.323
   37POPC   C2B  875  10.141   3.929   6.924
   37POPC   C3B  876   9.985   4.163   6.591
   37POPC   C4B  877  10.134   4.120   6.175
   38POPC   NC3  878   7.574   0.125   7.867
   38POPC   PO4  879   7.627   0.748   8.047
   38POPC   GL1  880   7.866   0.519   7.726
   38POPC   GL2  881   7.975   0.164   7.570
   38POPC   C1A  882   7.896   0.607   7.303
   38POPC   D2A  883   7.855   0.863   6.973
   38POPC   C3A  884   7.776   0.676   6.606
   38POPC   C4A  885   7.966   0.775   6.259
   38POPC   C1B  886   7.978   0.119   7.161
   38POPC   C2B  887   7.691   0.239   6.858
   38POPC   C3B  888   7.916   0.181   6.494
   38POPC   C4B  889   7.916   0.287   6.065
   39POPC   NC3  890   8.008   1.942   8.043
   39POPC   PO4  891   7.432   1.594   8.203
   39POPC   GL1  892   7.545   1.676   7.738
   39POPC   GL2  893   7.898   1.656   7.637
   39POPC   C1A  894   7.592   1.670   7.247
   39POPC   D2A  895   7.903   1.724   6.928
   39POPC   C3A  896   7.634   1.775   6.587
   39POPC   C4A  897   7.583   1.755   6.170
   39POPC   C1B  898   7.971   2.006   7.380
   39POPC   C2B  899   8.217   2.123   6.990
   39POPC   C3B  900   8.027   2.096   6.578
   39POPC   C4B  901   7.872   2.189   6.185
   40POPC   NC3  902  10.308   7.827   7.975
   40POPC   PO4  903   9.825   7.353   8.029
   40POPC   GL1  904   9.919   7.593   7.631
   40POPC   GL2  905   9.966   7.952   7.608
   40POPC   C1A  906   9.785   7.702   7.187
   40POPC   D2A  907   9.969   7.951   6.844
   40POPC   C3A  908  10.020   7.824   6.402
   40POPC   C4A  909  10.400   7.786   6.105
   40POPC   C1B  910  10.288   7.814   7.291
   40POPC   C2B  911  10.485   7.858   6.870
   40POPC   C3B  912  10.398   8.153   6.529
   40POPC   C4B  913  10.204   8.261   6.133
   41POPC   NC3  914   2.176   4.746   8.050
   41POPC   PO4  915   1.722   5.295   8.018
   41POPC   GL1  916   1.884   5.272   7.596
   41POPC   GL2  917   1.812   4.944   7.551
   41POPC   C1A  918   2.192   5.091   7.253
   41POPC   D2A  919   2.184   4.957   6.793
   41POPC   C3A  920   2.396   5.155   6.412
   41POPC   C4A  921   2.268   4.963   6.004
   41POPC   C1B  922   1.730   5.210   7.119
   41POPC   C2B  923   1.684   5.126   6.681
   41POPC   C3B  924   1.906   4.899   6.347
   41POPC   C4B  925   1.771   4.660   5.955
   42POPC   NC3  926   7.658   8.655   8.166
   42POPC   PO4  927   8.290   8.453   8.388
   42POPC   GL1  928   8.124   8.455   7.874
   42POPC   GL2  929   7.829   8.633   7.685
   42POPC   C1A  930   8.109   8.357   7.371
   42POPC   D2A  931   7.906   8.480   6.953
   42POPC   C3A  932   7.953   8.274   6.536
   42POPC   C4A  933   8.153   8.388   6.141
   42POPC   C1B  934   7.650   8.811   7.284
   42POPC   C2B  935   7.790   8.956   6.851
   42POPC   C3B  936   7.751   8.840   6.422
   42POPC   C4B  937   7.518   8.980   6.040
   43POPC   NC3  938   1.187   5.900   8.099
   43POPC   PO4  939   1.266   6.602   8.087
   43POPC   GL1  940   1.373   6.268   7.801
   43POPC   GL2  941   1.065   6.212   7.684
   43POPC   C1A  942   1.494   6.147   7.397
   43POPC   D2A  943   1.264   6.187   7.023
   43POPC   C3A  944   1.437   6.304   6.646
   43POPC   C4A  945   1.489   6.139   6.244
   43POPC   C1B  946   1.182   6.586   7.420
   43POPC   C2B  947   1.170   6.832   7.042
   43POPC   C3B  948   1.240   6.926   6.597
   43POPC   C4B  949   1.170   6.595   6.299
   44POPC   NC3  950   1.432   3.195   8.396
   44POPC   PO4  951   0.831   3.019   8.083
   44POPC   GL1  952   1.119   3.167   7.707
   44POPC   GL2  953   1.256   3.537   7.744
   44POPC   C1A  954   1.234   3.292   7.274
   44POPC   D2A  955   1.162   3.565   6.939
   44POPC   C3A  956   1.258   3.316   6.626
   44POPC   C4A  957   1.063   3.274   6.261
   44POPC   C1B  958   1.455   3.748   7.377
   44POPC   C2B  959   1.670   3.559   7.026
   44POPC   C3B  960   1.602   3.693   6.620
   44POPC   C4B  961   1.414   3.620   6.233
   45POPC   NC3  962   1.185   9.541   7.962
   45POPC   PO4  963   0.749   8.957   8.155
   45POPC   GL1  964   0.834   9.118   7.725
   45POPC   GL2  965   1.030   9.369   7.534
   45POPC   C1A  966   0.765   9.078   7.257
   45POPC   D2A  967   1.026   9.361   6.999
   45POPC   C3A  968   0.903   9.442   6.608
   45POPC   C4A  969   0.886   9.178   6.259
   45POPC   C1B  970   1.361   9.564   7.339
   45POPC   C2B  971   1.423   9.711   6.939
   45POPC   C3B  972   1.417   9.506   6.577
   45POPC   C4B  973   1.243   9.502   6.203
   46POPC   NC3  974   8.835   2.385   8.005
   46POPC   PO4  975   8.502   2.915   8.237
   46POPC   GL1  976   8.486   2.776   7.782
   46POPC   GL2  977   8.808   2.742   7.614
   46POPC   C1A  978   8.377   2.852   7.336
   46POPC   D2A  979   8.559   2.991   6.943
   46POPC   C3A  980   8.370   3.010   6.522
   46POPC   C4A  981   8.556   3.038   6.106
   46POPC   C1B  982   8.793   2.577   7.177
   46POPC   C2B  983   8.595   2.444   6.792
   46POPC   C3B  984   8.625   2.591   6.385
   46POPC   C4B  985   9.005   2.823   6.263
   47POPC   NC3  986   0.461   8.577   8.077
   47POPC   PO4  987   0.074   9.129   8.104
   47POPC   GL1  988   0.144   8.793   7.739
   47POPC   GL2  989   0.516   8.723   7.570
   47POPC   C1A  990   0.089   8.488   7.401
   47POPC   D2A  991   0.087   8.382   6.973
   47POPC   C3A  992   0.263   8.661   6.657
   47POPC   C4A  993   0.140   8.527   6.225
   47POPC   C1B  994   0.577   8.631   7.093
   47POPC   C2B  995   0.812   8.421   6.754
   47POPC   C3B  996   0.865   8.701   6.423
   47POPC   C4B  997   0.488   8.876   6.208
   48POPC   NC3  998   2.824   0.575   8.254
   48POPC   PO4  999   2.640  10.431   8.115
   48POPC   GL1 1000   2.582   0.278   7.772
   48POPC   GL2 1001   2.674   0.647   7.676
   48POPC   C1A 1002   2.584   0.277   7.317
   48POPC   D2A 1003   2.577   0.523   6.951
   48POPC   C3A 1004   2.732   0.344   6.567
   48POPC   C4A 1005   2.520   0.381   6.183
   48POPC   C1B 1006   2.945   0.682   7.294
   48POPC   C2B 1007   3.080   0.591   6.867
   48POPC   C3B 1008   3.029   0.776   6.534
   48POPC   C4B 1009   2.909   0.692   6.188
   49POPC   NC3 1010   9.741   0.330   8.355
   49POPC   PO4 1011   9.646   0.769   7.887
   49POPC   GL1 1012   9.572   0.464   7.600
   49POPC   GL2 1013   9.228   0.458   7.636
   49POPC   C1A 1014   9.491   0.322   7.169
   49POPC   D2A 1015   9.133   0.164   6.901
   49POPC   C3A 1016   9.310   0.256   6.490
   49POPC   C4A 1017   9.672   0.194   6.214
   49POPC   C1B 1018   9.287   0.755   7.298
   49POPC   C2B 1019   9.224   0.665   6.880
   49POPC   C3B 1020   9.322   0.789   6.480
   49POPC   C4B 1021   9.452   0.622   6.117
   50POPC   NC3 1022   3.910   1.044   7.921
   50POPC   PO4 1023   4.549   1.189   8.187
   50POPC   GL1 1024   4.516   1.020   7.790
   50POPC   GL2 1025   4.329   0.732   7.778
   50POPC   C1A 1026   4.418   1.117   7.357
   50POPC   D2A 1027   4.375   1.351   6.975
   50POPC   C3A 1028   4.371   1.219   6.566
   50POPC   C4A 1029   4.354   1.474   6.179
   50POPC   C1B 1030   4.152   0.668   7.367
   50POPC   C2B 1031   4.167   0.863   6.973
   50POPC   C3B 1032   4.227   0.721   6.576
   50POPC   C4B 1033   4.106   0.952   6.219
   51POPC   NC3 1034   3.180   2.709   8.034
   51POPC   PO4 1035   3.752   2.770   8.096
   51POPC   GL1 1036   3.624   2.739   7.648
   51POPC   GL2 1037   3.404   2.437   7.635
   51POPC   C1A 1038   3.634   2.929   7.193
   51POPC   D2A 1039   3.440   2.971   6.765
   51POPC   C3A 1040   3.639   3.024   6.352
   51POPC   C4A 1041   3.530   3.153   5.907
   51POPC   C1B 1042   3.284   2.512   7.200
   51POPC   C2B 1043   3.147   2.526   6.770
   51POPC   C3B 1044   3.311   2.635   6.383
   51POPC   C4B 1045   3.228   2.340   6.032
   52POPC   NC3 1046   2.502   1.199   7.968
   52POPC   PO4 1047   2.851   1.624   8.384
   52POPC   GL1 1048   2.708   1.617   7.787
   52POPC   GL2 1049   2.833   1.258   7.581
   52POPC   C1A 1050   2.655   1.601   7.263
   52POPC   D2A 1051   2.883   1.544   6.824
   52POPC   C3A 1052   2.747   1.219   6.490
   52POPC   C4A 1053   2.559   1.355   6.077
   52POPC   C1B 1054   2.585   1.027   7.279
   52POPC   C2B 1055   2.360   0.996   6.883
   52POPC   C3B 1056   2.468   0.788   6.512
   52POPC   C4B 1057   2.432   0.875   6.094
   53POPC   NC3 1058   3.455   7.947   8.098
   53POPC   PO4 1059   3.910   8.467   8.024
   53POPC   GL1 1060   3.668   8.338   7.632
   53POPC   GL2 1061   3.348   8.149   7.658
   53POPC   C1A 1062   3.535   8.222   7.189
   53POPC   D2A 1063   3.419   8.315   6.779
   53POPC   C3A 1064   3.485   8.031   6.418
   53POPC   C4A 1065   3.298   8.081   6.011
   53POPC   C1B 1066   3.250   7.832   7.351
   53POPC   C2B 1067   3.341   7.804   6.894
   53POPC   C3B 1068   3.174   7.620   6.502
   53POPC   C4B 1069   3.173   7.599   6.058
   54POPC   NC3 1070   3.618   8.821   7.915
   54POPC   PO4 1071   3.053   8.998   8.003
   54POPC   GL1 1072   3.048   8.927   7.587
   54POPC   GL2 1073   3.242   8.642   7.589
   54POPC   C1A 1074   2.959   8.703   7.181
   54POPC   D2A 1075   3.235   8.785   6.872
   54POPC   C3A 1076   3.193   8.674   6.481
   54POPC   C4A 1077   3.219   8.948   6.140
   54POPC   C1B 1078   3.579   8.724   7.248
   54POPC   C2B 1079   3.791   8.668   6.814
   54POPC   C3B 1080   3.681   8.502   6.383
   54POPC   C4B 1081   3.518   8.560   5.934
   55POPC   NC3 1082   1.373   4.155   8.123
   55POPC   PO4 1083   0.988   4.620   8.097
   55POPC   GL1 1084   0.943   4.355   7.725
   55POPC   GL2 1085   1.089   4.031   7.713
   55POPC   C1A 1086   1.172   4.395   7.316
   55POPC   D2A 1087   1.257   4.568   6.884
   55POPC   C3A 1088   1.006   4.513   6.538
   55POPC   C4A 1089   1.089   4.418   6.123
   55POPC   C1B 1090   0.990   3.919   7.289
   55POPC   C2B 1091   1.330   4.052   6.950
   55POPC   C3B 1092   1.254   4.058   6.500
   55POPC   C4B 1093   0.935   3.756   6.381
   56POPC   NC3 1094   9.044   8.528   8.054
   56POPC   PO4 1095   9.634   8.797   8.026
   56POPC   GL1 1096   9.465   8.592   7.671
   56POPC   GL2 1097   9.208   8.820   7.631
   56POPC   C1A 1098   9.502   8.710   7.219
   56POPC   D2A 1099   9.290   8.532   6.828
   56POPC   C3A 1100   9.486   8.651   6.498
   56POPC   C4A 1101   9.480   8.562   6.077
   56POPC   C1B 1102   9.138   9.099   7.287
   56POPC   C2B 1103   9.238   9.027   6.867
   56POPC   C3B 1104   9.083   8.949   6.463
   56POPC   C4B 1105   9.299   9.032   6.066
   57POPC   NC3 1106   1.084   7.844   8.135
   57POPC   PO4 1107   1.409   8.304   7.828
   57POPC   GL1 1108   1.244   7.949   7.646
   57POPC   GL2 1109   0.865   7.896   7.679
   57POPC   C1A 1110   1.390   7.995   7.236
   57POPC   D2A 1111   1.516   7.748   6.928
   57POPC   C3A 1112   1.351   7.880   6.562
   57POPC   C4A 1113   1.539   7.843   6.202
   57POPC   C1B 1114   0.844   7.744   7.275
   57POPC   C2B 1115   0.978   7.926   6.919
   57POPC   C3B 1116   0.814   7.907   6.529
   57POPC   C4B 1117   0.999   7.950   6.164
   58POPC   NC3 1118   2.100   7.328   8.005
   58POPC   PO4 1119   1.463   7.581   8.028
   58POPC   GL1 1120   1.616   7.303   7.677
   58POPC   GL2 1121   1.927   7.295   7.537
   58POPC   C1A 1122   1.557   7.087   7.276
   58POPC   D2A 1123   1.763   7.287   6.913
   58POPC   C3A 1124   1.626   7.248   6.472
   58POPC   C4A 1125   1.693   6.843   6.227
   58POPC   C1B 1126   2.333   7.336   7.362
   58POPC   C2B 1127   2.391   7.441   6.940
   58POPC   C3B 1128   2.124   7.469   6.597
   58POPC   C4B 1129   2.080   7.216   6.213
   59POPC   NC3 1130   6.940   9.377   8.146
   59POPC   PO4 1131   7.477   9.843   8.115
   59POPC   GL1 1132   7.223   9.621   7.782
   59POPC   GL2 1133   7.443   9.363   7.670
   59POPC   C1A 1134   7.152   9.572   7.310
   59POPC   D2A 1135   6.946   9.287   7.010
   59POPC   C3A 1136   7.031   9.347   6.596
   59POPC   C4A 1137   7.019   9.309   6.173
   59POPC   C1B 1138   7.628   9.331   7.292
   59POPC   C2B 1139   7.431   9.293   6.941
   59POPC   C3B 1140   7.551   9.317   6.568
   59POPC   C4B 1141   7.518   9.453   6.227
   60POPC   NC3 1142   0.528   7.525   7.875
   60POPC   PO4 1143   0.646   8.156   8.079
   60POPC   GL1 1144   0.441   8.218   7.699
   60POPC   GL2 1145   0.178   7.979   7.627
   60POPC   C1A 1146   0.581   8.184   7.301
   60POPC   D2A 1147   0.474   8.053   6.908
   60POPC   C3A 1148   0.401   8.202   6.526
   60POPC   C4A 1149   0.637   8.323   6.210
   60POPC   C1B 1150   0.314   7.719   7.268
   60POPC   C2B 1151   0.465   7.566   6.852
   60POPC   C3B 1152   0.277   7.718   6.457
   60POPC   C4B 1153   0.465   7.882   6.065
   61POPC   NC3 1154   2.634   1.954   8.168
   61POPC   PO4 1155   2.027   2.181   8.283
   61POPC   GL1 1156   2.291   2.205   7.799
   61POPC   GL2 1157   2.632   2.121   7.690
   61POPC   C1A 1158   2.370   2.060   7.281
   61POPC   D2A 1159   2.581   1.946   6.841
   61POPC   C3A 1160   2.456   2.168   6.419
   61POPC   C4A 1161   2.333   2.191   5.932
   61POPC   C1B 1162   2.981   1.980   7.429
   61POPC   C2B 1163   3.099   2.050   6.988
   61POPC   C3B 1164   2.999   2.050   6.550
   61POPC   C4B 1165   2.758   1.721   6.354
   62POPC   NC3 1166   4.171   2.589   8.092
   62POPC   PO4 1167   4.584   3.084   7.924
   62POPC   GL1 1168   4.354   2.794   7.587
   62POPC   GL2 1169   4.108   2.502   7.593
   62POPC   C1A 1170   4.183   2.744   7.133
   62POPC   D2A 1171   3.974   2.965   6.782
   62POPC   C3A 1172   4.157   3.002   6.370
   62POPC   C4A 1173   4.002   2.961   5.963
   62POPC   C1B 1174   3.782   2.447   7.258
   62POPC   C2B 1175   3.686   2.539   6.819
   62POPC   C3B 1176   3.897   2.562   6.410
   62POPC   C4B 1177   4.346   2.477   6.296
   63POPC   NC3 1178   2.813   8.614   8.002
   63POPC   PO4 1179   2.306   9.100   8.125
   63POPC   GL1 1180   2.559   8.999   7.761
   63POPC   GL2 1181   2.609   8.654   7.559
   63POPC   C1A 1182   2.628   9.095   7.345
   63POPC   D2A 1183   2.519   8.881   6.992
   63POPC   C3A 1184   2.735   8.882   6.617
   63POPC   C4A 1185   2.598   8.891   6.209
   63POPC   C1B 1186   2.480   8.395   7.215
   63POPC   C2B 1187   2.622   8.404   6.798
   63POPC   C3B 1188   2.673   8.423   6.375
   63POPC   C4B 1189   3.000   8.484   6.065
   64POPC   NC3 1190   5.792   0.521   7.970
   64POPC   PO4 1191   5.289  10.453   8.044
   64POPC   GL1 1192   5.537   0.143   7.732
   64POPC   GL2 1193   5.398   0.470   7.643
   64POPC   C1A 1194   5.688   0.159   7.291
   64POPC   D2A 1195   5.603   0.259   6.851
   64POPC   C3A 1196   5.805   0.131   6.473
   64POPC   C4A 1197   5.666   0.115   6.024
   64POPC   C1B 1198   5.621   0.667   7.265
   64POPC   C2B 1199   5.528   0.751   6.818
   64POPC   C3B 1200   5.431   0.521   6.434
   64POPC   C4B 1201   5.814   0.574   6.198
   65POPC   NC3 1202   8.922   4.372   7.912
   65POPC   PO4 1203   9.447   4.111   8.333
   65POPC   GL1 1204   9.292   3.967   7.861
   65POPC   GL2 1205   9.602   3.908   7.692
   65POPC   C1A 1206   9.246   4.148   7.363
   65POPC   D2A 1207   9.413   4.301   6.950
   65POPC   C3A 1208   9.097   4.240   6.626
   65POPC   C4A 1209   9.203   4.128   6.222
   65POPC   C1B 1210   9.720   3.954   7.242
   65POPC   C2B 1211   9.658   3.798   6.805
   65POPC   C3B 1212   9.638   3.887   6.363
   65POPC   C4B 1213   9.653   4.348   6.246
   66POPC   NC3 1214   1.435  10.239   8.250
   66POPC   PO4 1215   0.874   0.062   8.151
   66POPC   GL1 1216   1.158  10.407   7.790
   66POPC   GL2 1217   1.210  10.050   7.757
   66POPC   C1A 1218   1.349  10.451   7.371
   66POPC   D2A 1219   1.343  10.207   6.957
   66POPC   C3A 1220   1.419  10.392   6.588
   66POPC   C4A 1221   1.374  10.335   6.172
   66POPC   C1B 1222   1.075   9.993   7.334
   66POPC   C2B 1223   0.937   9.889   6.889
   66POPC   C3B 1224   1.122   9.947   6.462
   66POPC   C4B 1225   1.130   9.939   5.985
   67POPC   NC3 1226  10.372   1.350   8.159
   67POPC   PO4 1227   0.580   1.349   8.117
   67POPC   GL1 1228   0.295   1.122   7.836
   67POPC   GL2 1229   0.586   1.151   7.652
   67POPC   C1A 1230   0.210   1.037   7.351
   67POPC   D2A 1231   0.056   1.245   6.975
   67POPC   C3A 1232   0.231   1.126   6.588
   67POPC   C4A 1233   0.258   0.984   6.157
   67POPC   C1B 1234   0.793   1.432   7.380
   67POPC   C2B 1235   0.715   1.261   6.988
   67POPC   C3B 1236   0.743   1.066   6.585
   67POPC   C4B 1237   0.716   1.289   6.202
   68POPC   NC3 1238   8.735   6.620   7.929
   68POPC   PO4 1239   8.456   6.080   7.676
   68POPC   GL1 1240   8.835   6.239   7.520
   68POPC   GL2 1241   8.964   6.621   7.487
   68POPC   C1A 1242   8.857   6.038   7.126
   68POPC   D2A 1243   8.607   5.968   6.725
   68POPC   C3A 1244   8.801   6.024   6.347
   68POPC   C4A 1245   8.917   6.193   5.966
   68POPC   C1B 1246   8.690   6.541   7.144
   68POPC   C2B 1247   8.632   6.624   6.724
   68POPC   C3B 1248   8.610   6.534   6.302
   68POPC   C4B 1249   8.421   6.848   5.977
   69POPC   NC3 1250   7.728   9.455   8.061
   69POPC   PO4 1251   8.112   8.931   8.085
   69POPC   GL1 1252   7.971   9.135   7.693
   69POPC   GL2 1253   7.982   9.490   7.638
   69POPC   C1A 1254   8.075   9.086   7.256
   69POPC   D2A 1255   8.244   9.223   6.846
   69POPC   C3A 1256   8.049   9.273   6.440
   69POPC   C4A 1257   8.268   9.343   6.048
   69POPC   C1B 1258   8.122   9.594   7.260
   69POPC   C2B 1259   7.884   9.562   6.892
   69POPC   C3B 1260   7.805   9.811   6.549
   69POPC   C4B 1261   7.942   9.724   6.153
   70POPC   NC3 1262   1.283   5.002   8.088
   70POPC   PO4 1263   1.739   4.426   8.148
   70POPC   GL1 1264   1.442   4.605   7.734
   70POPC   GL2 1265   1.137   4.813   7.659
   70POPC   C1A 1266   1.421   4.841   7.274
   70POPC   D2A 1267   1.244   5.124   6.990
   70POPC   C3A 1268   1.187   5.019   6.588
   70POPC   C4A 1269   1.412   4.770   6.302
   70POPC   C1B 1270   0.893   4.847   7.317
   70POPC   C2B 1271   0.795   4.805   6.933
   70POPC   C3B 1272   0.692   4.915   6.549
   70POPC   C4B 1273   0.919   4.892   6.168
   71POPC   NC3 1274  10.383   2.250   7.932
   71POPC   PO4 1275   9.809   2.243   8.378
   71POPC   GL1 1276   9.861   2.300   7.890
   71POPC   GL2 1277   9.946   1.969   7.769
   71POPC   C1A 1278   9.983   2.306   7.394
   71POPC   D2A 1279  10.272   2.250   7.001
   71POPC   C3A 1280  10.213   2.020   6.583
   71POPC   C4A 1281  10.442   1.939   6.184
   71POPC   C1B 1282  10.223   1.853   7.384
   71POPC   C2B 1283  10.348   1.724   6.984
   71POPC   C3B 1284  10.500   1.597   6.582
   71POPC   C4B 1285  10.493   1.418   6.196
   72POPC   NC3 1286   7.280   1.349   8.561
   72POPC   PO4 1287   7.130   0.897   8.132
   72POPC   GL1 1288   7.155   0.971   7.674
   72POPC   GL2 1289   6.920   1.239   7.742
   72POPC   C1A 1290   6.955   0.979   7.266
   72POPC   D2A 1291   6.719   1.082   6.902
   72POPC   C3A 1292   6.918   1.098   6.518
   72POPC   C4A 1293   7.003   0.949   6.111
   72POPC   C1B 1294   7.175   1.435   7.450
   72POPC   C2B 1295   7.177   1.395   7.032
   72POPC   C3B 1296   7.232   1.465   6.611
   72POPC   C4B 1297   7.259   1.370   6.176
   73POPC   NC3 1298  10.492   3.937   7.927
   73POPC   PO4 1299   0.676   3.967   8.021
   73POPC   GL1 1300   0.540   4.050   7.638
   73POPC   GL2 1301   0.354   4.340   7.612
   73POPC   C1A 1302   0.370   3.941   7.243
   73POPC   D2A 1303   0.105   4.123   6.947
   73POPC   C3A 1304   0.007   4.006   6.541
   73POPC   C4A 1305   0.122   4.279   6.230
   73POPC   C1B 1306   0.673   4.369   7.270
   73POPC   C2B 1307   0.807   4.184   6.890
   73POPC   C3B 1308   0.605   4.162   6.501
   73POPC   C4B 1309   0.593   4.483   6.210
   74POPC   NC3 1310   1.692   6.429   8.161
   74POPC   PO4 1311   1.850   6.951   7.995
   74POPC   GL1 1312   1.634   6.712   7.675
   74POPC   GL2 1313   1.850   6.396   7.662
   74POPC   C1A 1314   1.651   6.592   7.211
   74POPC   D2A 1315   1.655   6.762   6.803
   74POPC   C3A 1316   2.025   6.900   6.619
   74POPC   C4A 1317   2.292   6.723   6.296
   74POPC   C1B 1318   1.994   6.208   7.254
   74POPC   C2B 1319   2.038   6.411   6.869
   74POPC   C3B 1320   1.945   6.336   6.468
   74POPC   C4B 1321   1.976   5.947   6.243
   75POPC   NC3 1322   9.973   0.271   7.864
   75POPC   PO4 1323  10.207   0.868   8.195
   75POPC   GL1 1324  10.120   0.829   7.752
   75POPC   GL2 1325  10.345   0.608   7.683
   75POPC   C1A 1326   9.976   0.605   7.317
   75POPC   D2A 1327   9.981   0.310   6.967
   75POPC   C3A 1328   9.764   0.493   6.618
   75POPC   C4A 1329   9.942   0.629   6.235
   75POPC   C1B 1330  10.488   0.573   7.267
   75POPC   C2B 1331   0.038   0.529   6.850
   75POPC   C3B 1332  10.406   0.644   6.460
   75POPC   C4B 1333  10.353   0.259   6.211
   76POPC   NC3 1334   6.451   7.963   8.265
   76POPC   PO4 1335   6.834   7.567   8.043
   76POPC   GL1 1336   6.541   7.851   7.775
   76POPC   GL2 1337   6.194   8.038   7.828
   76POPC   C1A 1338   6.495   8.183   7.454
   76POPC   D2A 1339   6.221   8.169   7.090
   76POPC   C3A 1340   6.367   8.095   6.689
   76POPC   C4A 1341   6.481   8.060   6.258
   76POPC   C1B 1342   6.187   7.768   7.415
   76POPC   C2B 1343   6.290   7.653   6.965
   76POPC   C3B 1344   6.258   7.643   6.496
   76POPC   C4B 1345   5.987   7.920   6.241
   77POPC   NC3 1346   1.878   8.939   8.142
   77POPC   PO4 1347   1.582   8.424   8.309
   77POPC   GL1 1348   1.838   8.538   7.830
   77POPC   GL2 1349   2.208   8.622   7.893
   77POPC   C1A 1350   1.665   8.600   7.325
   77POPC   D2A 1351   1.613   8.817   6.895
   77POPC   C3A 1352   1.715   8.659   6.460
   77POPC   C4A 1353   1.776   8.728   5.996
   77POPC   C1B 1354   2.140   8.751   7.438
   77POPC   C2B 1355   2.080   8.616   7.001
   77POPC   C3B 1356   2.234   8.671   6.599
   77POPC   C4B 1357   2.208   8.568   6.208
   78POPC   NC3 1358   1.961   9.972   8.238
   78POPC   PO4 1359   1.657   0.102   8.054
   78POPC   GL1 1360   1.709  10.231   7.762
   78POPC   GL2 1361   1.973  10.308   7.503
   78POPC   C1A 1362   1.613  10.018   7.342
   78POPC   D2A 1363   1.857  10.089   6.943
   78POPC   C3A 1364   1.661   9.958   6.557
   78POPC   C4A 1365   1.615   9.820   6.142
   78POPC   C1B 1366   2.165   0.031   7.172
   78POPC   C2B 1367   2.322   0.074   6.757
   78POPC   C3B 1368   2.156  10.333   6.425
   78POPC   C4B 1369   2.102   9.921   6.320
   79POPC   NC3 1370   0.502   7.160   8.379
   79POPC   PO4 1371   0.052   7.425   7.927
   79POPC   GL1 1372   0.276   7.118   7.685
   79POPC   GL2 1373   0.633   7.021   7.759
   79POPC   C1A 1374   0.368   7.210   7.265
   79POPC   D2A 1375   0.130   7.186   6.915
   79POPC   C3A 1376   0.340   7.201   6.514
   79POPC   C4A 1377   0.672   7.458   6.299
   79POPC   C1B 1378   0.629   6.768   7.342
   79POPC   C2B 1379   0.407   6.730   6.926
   79POPC   C3B 1380   0.275   6.678   6.491
   79POPC   C4B 1381   0.452   6.866   6.141
   80POPC   NC3 1382   1.864   0.839   8.059
   80POPC   PO4 1383   2.118   1.479   7.965
   80POPC   GL1 1384   2.062   1.117   7.661
   80POPC   GL2 1385   1.689   1.001   7.595
   80POPC   C1A 1386   2.161   1.291   7.266
   80POPC   D2A 1387   2.193   1.642   7.007
   80POPC   C3A 1388   2.357   1.505   6.642
   80POPC   C4A 1389   2.168   1.203   6.367
   80POPC   C1B 1390   1.822   0.932   7.161
   80POPC   C2B 1391   1.886   1.223   6.811
   80POPC   C3B 1392   1.673   1.110   6.424
   80POPC   C4B 1393   1.545   0.731   6.224
   81POPC   NC3 1394   2.880  10.086   7.881
   81POPC   PO4 1395   2.213  10.065   7.863
   81POPC   GL1 1396   2.503  10.291   7.570
   81POPC   GL2 1397   2.875  10.417   7.527
   81POPC   C1A 1398   2.565  10.233   7.121
   81POPC   D2A 1399   2.391   9.987   6.781
   81POPC   C3A 1400   2.607  10.018   6.399
   81POPC   C4A 1401   2.648  10.419   6.276
   81POPC   C1B 1402   3.065  10.203   7.162
   81POPC   C2B 1403   2.960  10.397   6.740
   81POPC   C3B 1404   3.108  10.210   6.367
   81POPC   C4B 1405   3.056   9.758   6.322
   82POPC   NC3 1406   7.948  10.213   8.281
   82POPC   PO4 1407   8.211   9.660   8.075
   82POPC   GL1 1408   8.129   9.980   7.760
   82POPC   GL2 1409   7.843  10.189   7.775
   82POPC   C1A 1410   8.172  10.134   7.330
   82POPC   D2A 1411   8.223   9.960   6.911
   82POPC   C3A 1412   8.202  10.234   6.571
   82POPC   C4A 1413   7.921  10.248   6.221
   82POPC   C1B 1414   7.679  10.279   7.338
   82POPC   C2B 1415   7.754  10.225   6.878
   82POPC   C3B 1416   7.506  10.348   6.500
   82POPC   C4B 1417   7.506  10.439   6.010
   83POPC   NC3 1418   1.401   7.072   8.055
   83POPC   PO4 1419   0.836   7.445   8.207
   83POPC   GL1 1420   1.058   7.414   7.769
   83POPC   GL2 1421   1.151   7.069   7.619
   83POPC   C1A 1422   1.287   7.516   7.364
   83POPC   D2A 1423   1.241   7.321   6.952
   83POPC   C3A 1424   1.085   7.447   6.588
   83POPC   C4A 1425   1.213   7.458   6.162
   83POPC   C1B 1426   0.876   7.221   7.312
   83POPC   C2B 1427   0.738   7.127   6.904
   83POPC   C3B 1428   0.747   6.869   6.559
   83POPC   C4B 1429   0.929   7.044   6.214
   84POPC   NC3 1430   7.002   9.902   8.198
   84POPC   PO4 1431   7.126   0.064   8.001
   84POPC   GL1 1432   7.194  10.402   7.607
   84POPC   GL2 1433   7.346  10.121   7.714
   84POPC   C1A 1434   7.200  10.202   7.201
   84POPC   D2A 1435   6.943   9.973   6.926
   84POPC   C3A 1436   6.836  10.240   6.601
   84POPC   C4A 1437   7.068  10.301   6.235
   84POPC   C1B 1438   7.578   9.814   7.439
   84POPC   C2B 1439   7.458   9.808   6.980
   84POPC   C3B 1440   7.281   9.805   6.557
   84POPC   C4B 1441   7.458   9.950   6.174
   85POPC   NC3 1442   4.367   0.585   8.265
   85POPC   PO4 1443   3.751   0.627   8.070
   85POPC   GL1 1444   3.930   0.381   7.745
   85POPC   GL2 1445   4.250   0.232   7.867
   85POPC   C1A 1446   3.867   0.241   7.320
   85POPC   D2A 1447   3.845   0.468   6.948
   85POPC   C3A 1448   3.929   0.288   6.564
   85POPC   C4A 1449   3.956   0.476   6.171
   85POPC   C1B 1450   4.421   0.231   7.446
   85POPC   C2B 1451   4.297   0.252   7.015
   85POPC   C3B 1452   4.453   0.234   6.589
   85POPC   C4B 1453   4.470   0.473   6.191
   86POPC   NC3 1454   1.602   2.361   8.406
   86POPC   PO4 1455   1.501   2.982   7.998
   86POPC   GL1 1456   1.646   2.805   7.600
   86POPC   GL2 1457   2.012   2.795   7.659
   86POPC   C1A 1458   1.594   2.541   7.227
   86POPC   D2A 1459   1.636   2.340   6.799
   86POPC   C3A 1460   1.508   2.526   6.471
   86POPC   C4A 1461   1.778   2.681   6.184
   86POPC   C1B 1462   2.123   2.509   7.368
   86POPC   C2B 1463   2.037   2.598   6.976
   86POPC   C3B 1464   2.108   2.584   6.566
   86POPC   C4B 1465   2.311   2.620   6.179
   87POPC   NC3 1466   8.444   5.049   8.053
   87POPC   PO4 1467   8.867   4.581   8.348
   87POPC   GL1 1468   9.052   4.849   7.924
   87POPC   GL2 1469   8.762   4.823   7.727
   87POPC   C1A 1470   9.108   5.005   7.417
   87POPC   D2A 1471   8.849   5.124   6.989
   87POPC   C3A 1472   8.861   4.978   6.570
   87POPC   C4A 1473   8.625   5.109   6.219
   87POPC   C1B 1474   8.650   4.790   7.305
   87POPC   C2B 1475   8.756   4.535   6.947
   87POPC   C3B 1476   8.627   4.474   6.527
   87POPC   C4B 1477   8.440   4.632   6.146
   88POPC   NC3 1478  10.169   9.861   8.180
   88POPC   PO4 1479   9.797  10.416   8.171
   88POPC   GL1 1480   9.959  10.275   7.737
   88POPC   GL2 1481  10.307  10.115   7.755
   88POPC   C1A 1482   9.807  10.430   7.300
   88POPC   D2A 1483   9.578  10.392   6.895
   88POPC   C3A 1484   9.840  10.330   6.545
   88POPC   C4A 1485  10.037  10.365   6.150
   88POPC   C1B 1486  10.300  10.308   7.343
   88POPC   C2B 1487  10.176  10.278   6.933
   88POPC   C3B 1488  10.499  10.200   6.628
   88POPC   C4B 1489  10.457  10.110   6.213
   89POPC   NC3 1490   0.706   1.916   8.390
   89POPC   PO4 1491   1.348   1.980   8.360
   89POPC   GL1 1492   1.359   2.069   7.906
   89POPC   GL2 1493   1.104   1.808   7.811
   89POPC   C1A 1494   1.449   1.954   7.476
   89POPC   D2A 1495   1.337   2.080   7.095
   89POPC   C3A 1496   1.281   1.942   6.675
   89POPC   C4A 1497   1.419   2.017   6.260
   89POPC   C1B 1498   0.959   1.923   7.391
   89POPC   C2B 1499   0.837   1.844   7.000
   89POPC   C3B 1500   0.773   1.986   6.635
   89POPC   C4B 1501   0.930   1.768   6.307
   90POPC   NC3 1502   8.654   5.110   8.531
   90POPC   PO4 1503   8.316   5.499   8.031
   90POPC   GL1 1504   8.191   5.223   7.637
   90POPC   GL2 1505   8.240   4.878   7.612
   90POPC   C1A 1506   8.337   5.164   7.176
   90POPC   D2A 1507   8.404   4.894   6.779
   90POPC   C3A 1508   8.156   5.007   6.388
   90POPC   C4A 1509   8.100   5.131   5.937
   90POPC   C1B 1510   8.159   4.674   7.185
   90POPC   C2B 1511   7.891   4.806   6.804
   90POPC   C3B 1512   7.654   4.860   6.379
   90POPC   C4B 1513   7.453   4.859   5.946
   91POPC   NC3 1514   5.584   2.174   7.971
   91POPC   PO4 1515   6.100   1.677   7.995
   91POPC   GL1 1516   5.751   1.822   7.668
   91POPC   GL2 1517   5.871   2.176   7.567
   91POPC   C1A 1518   5.555   2.013   7.234
   91POPC   D2A 1519   5.753   2.181   6.858
   91POPC   C3A 1520   5.526   2.205   6.455
   91POPC   C4A 1521   5.512   1.896   6.123
   91POPC   C1B 1522   6.053   1.877   7.279
   91POPC   C2B 1523   6.067   1.778   6.853
   91POPC   C3B 1524   5.925   1.889   6.457
   91POPC   C4B 1525   5.983   1.975   5.998
   92POPC   NC3 1526   1.692   8.029   8.066
   92POPC   PO4 1527   2.273   7.713   8.183
   92POPC   GL1 1528   2.121   7.755   7.701
   92POPC   GL2 1529   1.757   7.797   7.620
   92POPC   C1A 1530   2.070   7.747   7.201
   92POPC   D2A 1531   2.337   7.991   6.892
   92POPC   C3A 1532   2.325   8.013   6.409
   92POPC   C4A 1533   2.039   7.724   6.177
   92POPC   C1B 1534   1.953   8.182   7.430
   92POPC   C2B 1535   1.826   8.180   6.999
   92POPC   C3B 1536   1.861   7.974   6.611
   92POPC   C4B 1537   1.872   8.208   6.227
   93POPC   NC3 1538   9.570   3.669   8.204
   93POPC   PO4 1539   8.869   3.673   8.222
   93POPC   GL1 1540   9.094   3.493   7.827
   93POPC   GL2 1541   9.460   3.382   7.778
   93POPC   C1A 1542   9.222   3.651   7.397
   93POPC   D2A 1543   9.189   3.844   6.975
   93POPC   C3A 1544   9.169   3.700   6.582
   93POPC   C4A 1545   9.265   3.617   6.152
   93POPC   C1B 1546   9.300   3.158   7.402
   93POPC   C2B 1547   9.308   3.338   6.967
   93POPC   C3B 1548   9.539   3.356   6.578
   93POPC   C4B 1549   9.443   3.118   6.216
   94POPC   NC3 1550   0.541   4.428   8.092
   94POPC   PO4 1551   0.266   5.019   8.311
   94POPC   GL1 1552   0.278   4.829   7.815
   94POPC   GL2 1553   0.623   4.795   7.740
   94POPC   C1A 1554   0.346   4.746   7.307
   94POPC   D2A 1555   0.362   4.551   6.857
   94POPC   C3A 1556   0.235   4.750   6.451
   94POPC   C4A 1557   0.197   4.728   5.982
   94POPC   C1B 1558   0.492   5.191   7.488
   94POPC   C2B 1559   0.379   5.187   7.029
   94POPC   C3B 1560   0.319   5.273   6.586
   94POPC   C4B 1561   0.447   5.138   6.145
   95POPC   NC3 1562   1.222   8.646   8.094
   95POPC   PO4 1563   1.620   9.268   7.974
   95POPC   GL1 1564   1.404   8.925   7.694
   95POPC   GL2 1565   1.075   8.679   7.611
   95POPC   C1A 1566   1.281   8.978   7.264
   95POPC   D2A 1567   1.064   8.849   6.897
   95POPC   C3A 1568   1.272   9.011   6.548
   95POPC   C4A 1569   1.297   8.823   6.164
   95POPC   C1B 1570   1.084   8.426   7.215
   95POPC   C2B 1571   1.333   8.350   6.823
   95POPC   C3B 1572   1.280   8.349   6.358
   95POPC   C4B 1573   1.058   8.426   5.952
   96POPC   NC3 1574   6.775   0.725   7.906
   96POPC   PO4 1575   6.127   0.815   8.102
   96POPC   GL1 1576   6.349   0.972   7.752
   96POPC   GL2 1577   6.410   1.313   7.792
   96POPC   C1A 1578   6.431   0.936   7.315
   96POPC   D2A 1579   6.135   0.854   6.986
   96POPC   C3A 1580   6.317   0.919   6.597
   96POPC   C4A 1581   6.099   1.024   6.235
   96POPC   C1B 1582   6.179   1.382   7.396
   96POPC   C2B 1583   6.280   1.342   6.962
   96POPC   C3B 1584   6.280   1.428   6.524
   96POPC   C4B 1585   6.545   1.247   6.204
   97POPC   NC3 1586   3.265   1.734   8.236
   97POPC   PO4 1587   3.828   1.360   8.242
   97POPC   GL1 1588   3.717   1.552   7.818
   97POPC   GL2 1589   3.403   1.779   7.732
   97POPC   C1A 1590   3.630   1.514   7.361
   97POPC   D2A 1591   3.376   1.566   6.984
   97POPC   C3A 1592   3.481   1.669   6.535
   97POPC   C4A 1593   3.269   1.849   6.162
   97POPC   C1B 1594   3.501   2.014   7.334
   97POPC   C2B 1595   3.613   2.043   6.902
   97POPC   C3B 1596   3.515   2.182   6.490
   97POPC   C4B 1597   3.726   2.172   6.111
   98POPC   NC3 1598   6.325   0.506   8.396
   98POPC   PO4 1599   5.763   0.171   8.272
   98POPC   GL1 1600   6.056   0.090   7.841
   98POPC   GL2 1601   6.247   0.415   7.715
   98POPC   C1A 1602   6.180   0.029   7.357
   98POPC   D2A 1603   6.092   0.350   6.992
   98POPC   C3A 1604   6.253   0.401   6.542
   98POPC   C4A 1605   6.169   0.198   6.125
   98POPC   C1B 1606   6.510   0.413   7.319
   98POPC   C2B 1607   6.598   0.574   6.923
   98POPC   C3B 1608   6.748   0.622   6.521
   98POPC   C4B 1609   6.557   0.730   6.165
   99POPC   NC3 1610   1.285   2.592   7.934
   99POPC   PO4 1611   0.880   2.185   8.062
   99POPC   GL1 1612   0.870   2.363   7.651
   99POPC   GL2 1613   0.797   2.722   7.664
   99POPC   C1A 1614   0.805   2.404   7.186
   99POPC   D2A 1615   1.082   2.402   6.810
   99POPC   C3A 1616   1.023   2.347   6.365
   99POPC   C4A 1617   0.884   2.574   5.989
   99POPC   C1B 1618   1.137   2.785   7.340
   99POPC   C2B 1619   1.295   2.866   6.925
   99POPC   C3B 1620   1.080   2.838   6.529
   99POPC   C4B 1621   1.275   2.851   6.149
  100POPC   NC3 1622   1.943   3.990   8.134
  100POPC   PO4 1623   2.299   4.333   7.894
  100POPC   GL1 1624   1.906   4.389   7.670
  100POPC   GL2 1625   1.646   4.122   7.704
  100POPC   C1A 1626   1.686   4.412   7.269
  100POPC   D2A 1627   1.755   4.670   6.905
  100POPC   C3A 1628   1.752   4.431   6.525
  100POPC   C4A 1629   2.087   4.366   6.210
  100POPC   C1B 1630   1.918   3.968   7.370
  100POPC   C2B 1631   1.893   4.020   6.931
  100POPC   C3B 1632   2.042   3.954   6.522
  100POPC   C4B 1633   1.717   4.015   6.230
  101POPC   NC3 1634   8.148   2.621   8.141
  101POPC   PO4 1635   8.157   3.182   7.855
  101POPC   GL1 1636   7.962   2.810   7.669
  101POPC   GL2 1637   8.050   2.423   7.694
  101POPC   C1A 1638   7.861   2.971   7.258
  101POPC   D2A 1639   8.038   3.151   6.894
  101POPC   C3A 1640   7.860   3.053   6.483
  101POPC   C4A 1641   8.069   3.182   6.116
  101POPC   C1B 1642   8.007   2.493   7.270
  101POPC   C2B 1643   8.156   2.653   6.913
  101POPC   C3B 1644   8.050   2.586   6.527
  101POPC   C4B 1645   8.125   2.677   6.141
  102POPC   NC3 1646   1.227   0.350   8.032
  102POPC   PO4 1647   0.573   0.521   8.039
  102POPC   GL1 1648   0.770   0.272   7.690
  102POPC   GL2 1649   1.089   0.399   7.546
  102POPC   C1A 1650   0.834  10.496   7.324
  102POPC   D2A 1651   1.074   0.127   6.945
  102POPC   C3A 1652   0.905  10.443   6.556
  102POPC   C4A 1653   0.751   0.151   6.198
  102POPC   C1B 1654   1.411   0.630   7.314
  102POPC   C2B 1655   1.523   0.577   6.875
  102POPC   C3B 1656   1.337   0.375   6.511
  102POPC   C4B 1657   1.210   0.324   6.072
  103POPC   NC3 1658  10.372   4.931   8.101
  103POPC   PO4 1659   9.731   4.790   8.252
  103POPC   GL1 1660   9.953   4.727   7.857
  103POPC   GL2 1661  10.046   5.044   7.723
  103POPC   C1A 1662   9.958   4.675   7.398
  103POPC   D2A 1663   9.951   4.940   7.013
  103POPC   C3A 1664   9.852   4.731   6.606
  103POPC   C4A 1665   9.918   4.991   6.234
  103POPC   C1B 1666  10.396   4.943   7.433
  103POPC   C2B 1667  10.463   4.877   6.991
  103POPC   C3B 1668  10.304   4.976   6.607
  103POPC   C4B 1669  10.449   5.101   6.224
  104POPC   NC3 1670  10.192   7.072   7.971
  104POPC   PO4 1671   0.309   6.801   8.147
  104POPC   GL1 1672   0.003   6.685   7.757
  104POPC   GL2 1673  10.155   6.817   7.549
  104POPC   C1A 1674   0.084   6.798   7.313
  104POPC   D2A 1675  10.234   6.861   7.029
  104POPC   C3A 1676  10.336   6.902   6.628
  104POPC   C4A 1677  10.102   6.807   6.352
  104POPC   C1B 1678  10.273   7.253   7.344
  104POPC   C2B 1679  10.173   7.434   6.946
  104POPC   C3B 1680  10.347   7.431   6.540
  104POPC   C4B 1681  10.110   7.366   6.190
  105POPC   NC3 1682   8.234   5.951   8.051
  105POPC   PO4 1683   8.334   6.589   8.176
  105POPC   GL1 1684   8.259   6.565   7.720
  105POPC   GL2 1685   7.978   6.322   7.700
  105POPC   C1A 1686   8.193   6.543   7.256
  105POPC   D2A 1687   8.232   6.295   6.885
  105POPC   C3A 1688   8.150   6.445   6.484
  105POPC   C4A 1689   8.303   6.150   6.192
  105POPC   C1B 1690   7.697   6.515   7.362
  105POPC   C2B 1691   7.764   6.543   6.884
  105POPC   C3B 1692   7.677   6.266   6.517
  105POPC   C4B 1693   7.808   6.112   6.126
  106POPC   NC3 1694   1.743   1.828   8.142
  106POPC   PO4 1695   1.754   2.528   8.000
  106POPC   GL1 1696   1.801   2.252   7.650
  106POPC   GL2 1697   1.922   1.878   7.658
  106POPC   C1A 1698   1.866   2.100   7.190
  106POPC   D2A 1699   2.094   2.095   6.787
  106POPC   C3A 1700   1.906   2.157   6.369
  106POPC   C4A 1701   1.840   2.237   5.935
  106POPC   C1B 1702   1.763   1.605   7.297
  106POPC   C2B 1703   1.690   1.711   6.865
  106POPC   C3B 1704   1.887   1.644   6.480
  106POPC   C4B 1705   2.232   1.755   6.211
  107POPC   NC3 1706   9.584   6.228   8.200
  107POPC   PO4 1707   8.981   6.247   8.032
  107POPC   GL1 1708   9.299   6.288   7.728
  107POPC   GL2 1709   9.410   6.614   7.765
  107POPC   C1A 1710   9.296   6.323   7.267
  107POPC   D2A 1711   9.081   6.383   6.850
  107POPC   C3A 1712   9.220   6.359   6.443
  107POPC   C4A 1713   9.396   6.487   6.081
  107POPC   C1B 1714   9.641   6.687   7.372
  107POPC   C2B 1715   9.544   6.599   6.930
  107POPC   C3B 1716   9.496   6.795   6.541
  107POPC   C4B 1717   9.659   6.903   6.165
  108POPC   NC3 1718   2.191   2.597   8.139
  108POPC   PO4 1719   2.851   2.374   8.075
  108POPC   GL1 1720   2.877   2.563   7.649
  108POPC   GL2 1721   2.531   2.655   7.639
  108POPC   C1A 1722   2.779   2.420   7.240
  108POPC   D2A 1723   2.498   2.430   6.931
  108POPC   C3A 1724   2.610   2.677   6.635
  108POPC   C4A 1725   2.836   2.496   6.324
  108POPC   C1B 1726   2.449   2.861   7.217
  108POPC   C2B 1727   2.283   3.059   6.862
  108POPC   C3B 1728   2.311   3.058   6.416
  108POPC   C4B 1729   2.700   2.979   6.203
  109POPC   NC3 1730   6.608  10.381   7.950
  109POPC   PO4 1731   6.639   9.691   7.979
  109POPC   GL1 1732   6.579   9.890   7.602
  109POPC   GL2 1733   6.886   9.980   7.530
  109POPC   C1A 1734   6.300   9.996   7.238
  109POPC   D2A 1735   6.417  10.031   6.818
  109POPC   C3A 1736   6.250   9.813   6.432
  109POPC   C4A 1737   6.264   9.770   5.933
  109POPC   C1B 1738   6.695  10.343   7.275
  109POPC   C2B 1739   6.497   0.045   6.897
  109POPC   C3B 1740   6.314  10.392   6.504
  109POPC   C4B 1741   6.548  10.149   6.186
  110POPC   NC3 1742   2.110   5.545   7.946
  110POPC   PO4 1743   1.713   5.973   8.252
  110POPC   GL1 1744   1.630   5.779   7.811
  110POPC   GL2 1745   1.921   5.872   7.616
  110POPC   C1A 1746   1.578   5.652   7.337
  110POPC   D2A 1747   1.747   5.865   6.939
  110POPC   C3A 1748   1.591   5.723   6.536
  110POPC   C4A 1749   1.632   5.581   6.096
  110POPC   C1B 1750   2.072   5.604   7.261
  110POPC   C2B 1751   2.142   5.458   6.859
  110POPC   C3B 1752   1.995   5.446   6.453
  110POPC   C4B 1753   2.134   5.465   6.059
  111POPC   NC3 1754   0.811   3.472   7.986
  111POPC   PO4 1755   0.177   3.230   8.002
  111POPC   GL1 1756   0.481   3.191   7.702
  111POPC   GL2 1757   0.415   3.558   7.660
  111POPC   C1A 1758   0.728   3.319   7.336
  111POPC   D2A 1759   0.646   3.591   6.976
  111POPC   C3A 1760   0.729   3.358   6.616
  111POPC   C4A 1761   0.580   3.377   6.168
  111POPC   C1B 1762   0.224   3.446   7.274
  111POPC   C2B 1763   0.067   3.608   6.892
  111POPC   C3B 1764   0.282   3.581   6.531
  111POPC   C4B 1765   0.368   3.846   6.173
  112POPC   NC3 1766   6.440   2.674   8.045
  112POPC   PO4 1767   6.929   3.043   7.965
  112POPC   GL1 1768   6.672   2.894   7.613
  112POPC   GL2 1769   6.692   2.544   7.630
  112POPC   C1A 1770   6.387   3.027   7.253
  112POPC   D2A 1771   6.391   3.155   6.796
  112POPC   C3A 1772   6.705   3.020   6.462
  112POPC   C4A 1773   6.714   3.032   5.999
  112POPC   C1B 1774   6.535   2.534   7.224
  112POPC   C2B 1775   6.592   2.675   6.817
  112POPC   C3B 1776   6.260   2.729   6.517
  112POPC   C4B 1777   6.020   2.381   6.313
  113POPC   NC3 1778  10.068   8.970   8.050
  113POPC   PO4 1779  10.145   8.265   8.005
  113POPC   GL1 1780   9.986   8.464   7.630
  113POPC   GL2 1781   9.923   8.826   7.581
  113POPC   C1A 1782  10.075   8.314   7.216
  113POPC   D2A 1783   9.801   8.442   6.902
  113POPC   C3A 1784   9.910   8.365   6.524
  113POPC   C4A 1785   9.948   8.733   6.308
  113POPC   C1B 1786  10.195   8.812   7.213
  113POPC   C2B 1787  10.240   8.724   6.766
  113POPC   C3B 1788  10.408   8.939   6.406
  113POPC   C4B 1789   0.009   9.266   6.161
  114POPC   NC3 1790  10.215   3.157   8.045
  114POPC   PO4 1791  10.025   3.853   8.016
  114POPC   GL1 1792   9.993   3.566   7.696
  114POPC   GL2 1793  10.361   3.481   7.657
  114POPC   C1A 1794   9.718   3.443   7.321
  114POPC   D2A 1795   9.730   3.066   7.047
  114POPC   C3A 1796   9.907   3.000   6.628
  114POPC   C4A 1797   9.923   3.265   6.243
  114POPC   C1B 1798  10.207   3.459   7.234
  114POPC   C2B 1799  10.021   3.443   6.845
  114POPC   C3B 1800  10.100   3.674   6.480
  114POPC   C4B 1801  10.416   3.629   6.179
  115POPC   NC3 1802   7.285   0.457   8.196
  115POPC   PO4 1803   6.606   0.338   8.079
  115POPC   GL1 1804   6.854   0.297   7.663
  115POPC   GL2 1805   7.218   0.463   7.683
  115POPC   C1A 1806   7.033   0.248   7.257
  115POPC   D2A 1807   7.123   0.449   6.887
  115POPC   C3A 1808   7.036   0.208   6.543
  115POPC   C4A 1809   6.671   0.155   6.287
  115POPC   C1B 1810   7.382   0.685   7.295
  115POPC   C2B 1811   7.314   0.917   6.872
  115POPC   C3B 1812   7.273   0.710   6.468
  115POPC   C4B 1813   7.471   0.343   6.316
  116POPC   NC3 1814   9.231  10.209   8.229
  116POPC   PO4 1815   9.313   0.421   8.190
  116POPC   GL1 1816   9.414   0.042   7.850
  116POPC   GL2 1817   9.460  10.165   7.794
  116POPC   C1A 1818   9.282  10.419   7.396
  116POPC   D2A 1819   9.184  10.076   7.085
  116POPC   C3A 1820   9.149  10.217   6.638
  116POPC   C4A 1821   9.386  10.288   6.298
  116POPC   C1B 1822   9.633   9.975   7.427
  116POPC   C2B 1823   9.749   9.911   6.987
  116POPC   C3B 1824   9.567   9.884   6.565
  116POPC   C4B 1825   9.763   9.943   6.164
  117POPC   NC3 1826   7.480   1.180   7.984
  117POPC   PO4 1827   8.161   1.420   7.999
  117POPC   GL1 1828   8.093   1.183   7.595
  117POPC   GL2 1829   7.772   1.007   7.606
  117POPC   C1A 1830   8.311   0.957   7.271
  117POPC   D2A 1831   8.382   0.926   6.832
  117POPC   C3A 1832   8.088   1.163   6.591
  117POPC   C4A 1833   8.019   1.519   6.320
  117POPC   C1B 1834   7.573   1.164   7.271
  117POPC   C2B 1835   7.649   1.305   6.848
  117POPC   C3B 1836   7.595   1.125   6.453
  117POPC   C4B 1837   7.715   1.164   6.034
  118POPC   NC3 1838   9.374   9.219   8.008
  118POPC   PO4 1839   9.058   9.807   8.055
  118POPC   GL1 1840   9.317   9.656   7.693
  118POPC   GL2 1841   9.668   9.494   7.651
  118POPC   C1A 1842   9.356   9.586   7.247
  118POPC   D2A 1843   9.475   9.466   6.847
  118POPC   C3A 1844   9.131   9.477   6.523
  118POPC   C4A 1845   9.120   9.849   6.246
  118POPC   C1B 1846   9.715   9.192   7.283
  118POPC   C2B 1847   9.769   8.986   6.857
  118POPC   C3B 1848   9.593   9.141   6.469
  118POPC   C4B 1849   9.526   9.490   6.179
  119POPC   NC3 1850   0.394   5.458   8.138
  119POPC   PO4 1851   0.741   6.013   8.019
  119POPC   GL1 1852   0.655   5.700   7.715
  119POPC   GL2 1853   0.288   5.698   7.691
  119POPC   C1A 1854   0.606   5.759   7.275
  119POPC   D2A 1855   0.806   5.901   6.916
  119POPC   C3A 1856   0.595   5.769   6.557
  119POPC   C4A 1857   0.627   5.833   6.148
  119POPC   C1B 1858   0.139   5.550   7.300
  119POPC   C2B 1859   0.247   5.709   6.916
  119POPC   C3B 1860   0.050   5.741   6.554
  119POPC   C4B 1861   0.150   5.562   6.201
  120POPC   NC3 1862   4.246   1.550   8.300
  120POPC   PO4 1863   4.410   2.167   8.140
  120POPC   GL1 1864   4.351   1.923   7.737
  120POPC   GL2 1865   4.415   1.544   7.784
  120POPC   C1A 1866   4.048   2.037   7.379
  120POPC   D2A 1867   4.113   2.244   6.931
  120POPC   C3A 1868   4.066   2.077   6.503
  120POPC   C4A 1869   4.219   2.030   6.049
  120POPC   C1B 1870   4.143   1.540   7.407
  120POPC   C2B 1871   4.001   1.719   6.997
  120POPC   C3B 1872   4.004   1.582   6.579
  120POPC   C4B 1873   3.872   1.680   6.167
  121POPC   NC3 1874   2.103   9.514   8.038
  121POPC   PO4 1875   1.547   9.829   8.058
  121POPC   GL1 1876   1.770   9.675   7.665
  121POPC   GL2 1877   2.123   9.693   7.563
  121POPC   C1A 1878   1.844   9.577   7.177
  121POPC   D2A 1879   2.048   9.620   6.774
  121POPC   C3A 1880   1.891   9.467   6.402
  121POPC   C4A 1881   1.634   9.200   6.165
  121POPC   C1B 1882   2.163   9.270   7.427
  121POPC   C2B 1883   2.077   9.129   7.005
  121POPC   C3B 1884   2.286   9.173   6.603
  121POPC   C4B 1885   2.135   9.087   6.177
  122POPC   NC3 1886   8.651   1.480   8.052
  122POPC   PO4 1887   8.401   2.200   8.042
  122POPC   GL1 1888   8.530   1.898   7.766
  122POPC   GL2 1889   8.907   1.878   7.791
  122POPC   C1A 1890   8.402   1.751   7.354
  122POPC   D2A 1891   8.345   1.464   7.003
  122POPC   C3A 1892   8.380   1.757   6.653
  122POPC   C4A 1893   8.369   1.900   6.218
  122POPC   C1B 1894   8.813   2.091   7.375
  122POPC   C2B 1895   8.774   1.977   6.925
  122POPC   C3B 1896   8.779   2.078   6.461
  122POPC   C4B 1897   8.759   2.263   6.031
  123POPC   NC3 1898   8.623   9.875   7.938
  123POPC   PO4 1899   8.805  10.391   8.293
  123POPC   GL1 1900   8.916  10.381   7.821
  123POPC   GL2 1901   8.980  10.062   7.611
  123POPC   C1A 1902   8.748  10.472   7.385
  123POPC   D2A 1903   8.454  10.482   7.025
  123POPC   C3A 1904   8.654   0.040   6.639
  123POPC   C4A 1905   8.896   0.050   6.261
  123POPC   C1B 1906   8.679   9.976   7.258
  123POPC   C2B 1907   8.711  10.065   6.823
  123POPC   C3B 1908   8.672  10.101   6.364
  123POPC   C4B 1909   8.341  10.022   6.074
  124POPC   NC3 1910   1.897   3.203   7.954
  124POPC   PO4 1911   1.545   3.727   8.152
  124POPC   GL1 1912   1.789   3.626   7.729
  124POPC   GL2 1913   1.656   3.306   7.536
  124POPC   C1A 1914   2.065   3.484   7.339
  124POPC   D2A 1915   2.238   3.596   6.948
  124POPC   C3A 1916   2.032   3.431   6.607
  124POPC   C4A 1917   1.940   3.561   6.200
  124POPC   C1B 1918   1.838   3.042   7.183
  124POPC   C2B 1919   1.769   2.964   6.729
  124POPC   C3B 1920   1.655   3.154   6.343
  124POPC   C4B 1921   1.878   3.127   5.954
  125POPC   NC3 1922   4.862   2.045   8.030
  125POPC   PO4 1923   5.283   2.401   7.712
  125POPC   GL1 1924   5.209   1.984   7.619
  125POPC   GL2 1925   4.841   2.018   7.520
  125POPC   C1A 1926   5.192   1.678   7.329
  125POPC   D2A 1927   5.015   1.988   7.032
  125POPC   C3A 1928   5.098   1.935   6.608
  125POPC   C4A 1929   5.038   1.842   6.201
  125POPC   C1B 1930   4.515   2.013   7.185
  125POPC   C2B 1931   4.460   1.815   6.776
  125POPC   C3B 1932   4.580   1.959   6.383
  125POPC   C4B 1933   4.839   2.318   6.270
  126POPC   NC3 1934   2.802   9.314   8.216
  126POPC   PO4 1935   2.417   9.811   8.304
  126POPC   GL1 1936   2.575   9.672   7.862
  126POPC   GL2 1937   2.844   9.437   7.736
  126POPC   C1A 1938   2.594   9.731   7.385
  126POPC   D2A 1939   2.481   9.468   7.029
  126POPC   C3A 1940   2.656   9.545   6.629
  126POPC   C4A 1941   2.408   9.536   6.260
  126POPC   C1B 1942   3.005   9.427   7.329
  126POPC   C2B 1943   2.935   9.217   6.952
  126POPC   C3B 1944   3.079   9.250   6.543
  126POPC   C4B 1945   2.861   9.316   6.174
  127POPC   NC3 1946   7.348   2.039   8.106
  127POPC   PO4 1947   6.786   2.352   8.109
  127POPC   GL1 1948   7.049   2.192   7.732
  127POPC   GL2 1949   7.026   1.824   7.748
  127POPC   C1A 1950   7.426   2.110   7.419
  127POPC   D2A 1951   7.683   2.178   6.998
  127POPC   C3A 1952   7.518   2.279   6.595
  127POPC   C4A 1953   7.354   2.215   6.182
  127POPC   C1B 1954   6.985   1.882   7.291
  127POPC   C2B 1955   7.244   1.905   6.922
  127POPC   C3B 1956   7.093   1.926   6.504
  127POPC   C4B 1957   6.845   1.640   6.282
  128POPC   NC3 1958   3.500   0.179   7.975
  128POPC   PO4 1959   3.139   0.738   7.959
  128POPC   GL1 1960   3.115   0.358   7.640
  128POPC   GL2 1961   3.403   0.148   7.500
  128POPC   C1A 1962   3.069   0.202   7.161
  128POPC   D2A 1963   3.412   0.199   6.833
  128POPC   C3A 1964   3.232   0.290   6.418
  128POPC   C4A 1965   3.014   0.196   6.028
  128POPC   C1B 1966   3.443   0.554   7.263
  128POPC   C2B 1967   3.505   0.843   6.924
  128POPC   C3B 1968   3.572   0.670   6.551
  128POPC   C4B 1969   3.422   0.749   6.196
  129POPC   NC3 1970   8.043   0.953   8.050
  129POPC   PO4 1971   8.685   0.800   8.047
  129POPC   GL1 1972   8.617   1.070   7.702
  129POPC   GL2 1973   8.873   0.898   7.543
  129POPC   C1A 1974   8.729   1.377   7.365
  129POPC   D2A 1975   8.869   1.454   6.912
  129POPC   C3A 1976   8.579   1.321   6.559
  129POPC   C4A 1977   8.486   0.928   6.327
  129POPC   C1B 1978   8.820   0.945   7.106
  129POPC   C2B 1979   8.895   0.975   6.676
  129POPC   C3B 1980   8.970   1.133   6.253
  129POPC   C4B 1981   9.184   0.978   5.898
  130POPC   NC3 1982   8.289   8.007   8.233
  130POPC   PO4 1983   7.709   7.790   7.985
  130POPC   GL1 1984   7.799   8.096   7.693
  130POPC   GL2 1985   8.157   7.970   7.722
  130POPC   C1A 1986   7.596   8.305   7.320
  130POPC   D2A 1987   7.607   8.065   6.891
  130POPC   C3A 1988   7.433   8.098   6.462
  130POPC   C4A 1989   7.424   8.486   6.248
  130POPC   C1B 1990   8.207   7.865   7.276
  130POPC   C2B 1991   7.993   7.723   6.887
  130POPC   C3B 1992   7.850   7.737   6.459
  130POPC   C4B 1993   8.183   7.883   6.248
  131POPC   NC3 1994   7.261   7.748   8.025
  131POPC   PO4 1995   7.258   8.414   8.141
  131POPC   GL1 1996   7.280   8.179   7.739
  131POPC   GL2 1997   6.905   8.210   7.817
  131POPC   C1A 1998   7.405   7.851   7.353
  131POPC   D2A 1999   7.198   7.762   6.930
  131POPC   C3A 2000   7.347   7.595   6.515
  131POPC   C4A 2001   7.452   7.679   6.075
  131POPC   C1B 2002   6.929   7.954   7.433
  131POPC   C2B 2003   6.724   7.938   7.039
  131POPC   C3B 2004   6.854   7.964   6.606
  131POPC   C4B 2005   6.984   7.825   6.212
  132POPC   NC3 2006   0.150   0.668   8.109
  132POPC   PO4 2007  10.407   0.121   7.903
  132POPC   GL1 2008   0.260   0.304   7.636
  132POPC   GL2 2009   0.361   0.654   7.617
  132POPC   C1A 2010   0.474   0.374   7.212
  132POPC   D2A 2011   0.477   0.775   6.958
  132POPC   C3A 2012   0.415   0.663   6.537
  132POPC   C4A 2013   0.356   0.488   6.174
  132POPC   C1B 2014   0.752   0.755   7.400
  132POPC   C2B 2015   0.982   0.641   7.020
  132POPC   C3B 2016   0.864   0.480   6.627
  132POPC   C4B 2017   0.845   0.683   6.237
  133POPC   NC3 2018   4.182   8.077   8.126
  133POPC   PO4 2019   3.795   7.645   8.109
  133POPC   GL1 2020   3.892   7.883   7.706
  133POPC   GL2 2021   4.254   7.944   7.651
  133POPC   C1A 2022   3.948   7.928   7.223
  133POPC   D2A 2023   3.891   8.130   6.783
  133POPC   C3A 2024   3.979   7.895   6.363
  133POPC   C4A 2025   3.682   7.660   6.068
  133POPC   C1B 2026   4.427   8.140   7.284
  133POPC   C2B 2027   4.364   7.951   6.891
  133POPC   C3B 2028   4.550   7.944   6.510
  133POPC   C4B 2029   4.464   8.033   6.127
  134POPC   NC3 2030   8.537   8.674   8.062
  134POPC   PO4 2031   9.159   8.099   8.040
  134POPC   GL1 2032   9.044   8.288   7.631
  134POPC   GL2 2033   8.774   8.557   7.621
  134POPC   C1A 2034   9.102   8.421   7.274
  134POPC   D2A 2035   8.854   8.698   7.093
  134POPC   C3A 2036   8.750   8.586   6.680
  134POPC   C4A 2037   9.025   8.439   6.362
  134POPC   C1B 2038   8.439   8.723   7.407
  134POPC   C2B 2039   8.345   8.747   6.982
  134POPC   C3B 2040   8.250   8.726   6.549
  134POPC   C4B 2041   8.551   8.695   6.202
  135POPC   NC3 2042   0.423   0.000   8.027
  135POPC   PO4 2043   0.138   9.875   8.191
  135POPC   GL1 2044   0.329  10.036   7.752
  135POPC   GL2 2045   0.690  10.146   7.707
  135POPC   C1A 2046   0.317  10.369   7.385
  135POPC   D2A 2047   0.128   0.050   7.001
  135POPC   C3A 2048   0.359   0.118   6.587
  135POPC   C4A 2049   0.280  10.481   6.149
  135POPC   C1B 2050   0.577   9.963   7.275
  135POPC   C2B 2051   0.512  10.200   6.890
  135POPC   C3B 2052   0.484  10.088   6.454
  135POPC   C4B 2053   0.672  10.153   6.062
  136POPC   NC3 2054   9.797   1.112   8.133
  136POPC   PO4 2055   9.973   1.629   8.279
  136POPC   GL1 2056   9.953   1.473   7.824
  136POPC   GL2 2057  10.256   1.361   7.653
  136POPC   C1A 2058   9.816   1.547   7.387
  136POPC   D2A 2059   9.974   1.366   6.986
  136POPC   C3A 2060   9.806   1.558   6.622
  136POPC   C4A 2061  10.022   1.638   6.266
  136POPC   C1B 2062  10.210   1.056   7.322
  136POPC   C2B 2063  10.188   0.890   6.910
  136POPC   C3B 2064  10.229   1.152   6.561
  136POPC   C4B 2065  10.122   1.090   6.158
  137POPC   NC3 2066   0.622   6.450   7.980
  137POPC   PO4 2067   0.112   5.985   8.144
  137POPC   GL1 2068   0.190   6.196   7.739
  137POPC   GL2 2069   0.530   6.178   7.579
  137POPC   C1A 2070   0.166   6.069   7.282
  137POPC   D2A 2071   0.418   6.205   6.952
  137POPC   C3A 2072   0.298   6.176   6.550
  137POPC   C4A 2073   0.147   6.072   6.152
  137POPC   C1B 2074   0.808   6.279   7.265
  137POPC   C2B 2075   0.861   6.464   6.872
  137POPC   C3B 2076   0.799   6.279   6.499
  137POPC   C4B 2077   0.562   6.362   6.146
  138POPC   NC3 2078   9.158   0.828   7.979
  138POPC   PO4 2079   9.145   1.538   8.130
  138POPC   GL1 2080   9.106   1.327   7.735
  138POPC   GL2 2081   9.458   1.209   7.715
  138POPC   C1A 2082   9.205   1.242   7.280
  138POPC   D2A 2083   9.472   1.315   6.962
  138POPC   C3A 2084   9.312   1.338   6.573
  138POPC   C4A 2085   9.425   1.528   6.186
  138POPC   C1B 2086   9.700   1.060   7.344
  138POPC   C2B 2087   9.688   0.854   6.972
  138POPC   C3B 2088   9.750   1.029   6.580
  138POPC   C4B 2089   9.628   1.082   6.160
  139POPC   NC3 2090   2.165   0.010   7.970
  139POPC   PO4 2091   2.331   0.763   8.043
  139POPC   GL1 2092   2.118   0.548   7.715
  139POPC   GL2 2093   1.727   0.494   7.724
  139POPC   C1A 2094   2.215   0.641   7.317
  139POPC   D2A 2095   2.042   0.489   6.965
  139POPC   C3A 2096   1.960   0.738   6.633
  139POPC   C4A 2097   2.057   0.564   6.261
  139POPC   C1B 2098   1.769   0.267   7.376
  139POPC   C2B 2099   1.686   0.097   6.981
  139POPC   C3B 2100   1.831   0.213   6.577
  139POPC   C4B 2101   1.702   0.226   6.156
  140POPC   NC3 2102   5.297   9.567   8.206
  140POPC   PO4 2103   4.826   9.073   8.055
  140POPC   GL1 2104   4.854   9.223   7.676
  140POPC   GL2 2105   5.018   9.497   7.700
  140POPC   C1A 2106   4.909   9.060   7.283
  140POPC   D2A 2107   4.724   9.186   6.943
  140POPC   C3A 2108   4.878   9.200   6.560
  140POPC   C4A 2109   4.744   8.922   6.285
  140POPC   C1B 2110   4.843   9.582   7.279
  140POPC   C2B 2111   4.728   9.700   6.832
  140POPC   C3B 2112   4.774   9.669   6.412
  140POPC   C4B 2113   4.941   9.515   6.031
  141POPC   NC3 2114   9.561   1.853   8.233
  141POPC   PO4 2115   9.286   2.408   8.093
  141POPC   GL1 2116   9.400   2.083   7.765
  141POPC   GL2 2117   9.459   1.723   7.748
  141POPC   C1A 2118   9.571   2.028   7.338
  141POPC   D2A 2119   9.850   1.933   6.994
  141POPC   C3A 2120   9.706   2.137   6.612
  141POPC   C4A 2121   9.642   2.048   6.188
  141POPC   C1B 2122   9.172   1.728   7.378
  141POPC   C2B 2123   9.281   1.781   6.934
  141POPC   C3B 2124   9.253   1.894   6.504
  141POPC   C4B 2125   9.105   1.897   6.054
  142POPC   NC3 2126  10.213   2.026   8.354
  142POPC   PO4 2127  10.387   2.690   8.087
  142POPC   GL1 2128  10.156   2.726   7.667
  142POPC   GL2 2129  10.028   3.065   7.569
  142POPC   C1A 2130  10.105   2.737   7.179
  142POPC   D2A 2131   9.803   2.558   6.917
  142POPC   C3A 2132  10.085   2.509   6.595
  142POPC   C4A 2133  10.072   2.351   6.190
  142POPC   C1B 2134  10.448   3.036   7.367
  142POPC   C2B 2135  10.445   3.118   6.928
  142POPC   C3B 2136  10.362   3.226   6.513
  142POPC   C4B 2137  10.248   2.865   6.270
  143POPC   NC3 2138   4.497   9.503   8.067
  143POPC   PO4 2139   3.904   9.180   7.993
  143POPC   GL1 2140   4.236   9.210   7.725
  143POPC   GL2 2141   4.137   9.553   7.673
  143POPC   C1A 2142   4.440   9.280   7.363
  143POPC   D2A 2143   4.325   9.487   7.012
  143POPC   C3A 2144   4.391   9.327   6.588
  143POPC   C4A 2145   4.420   9.439   6.152
  143POPC   C1B 2146   3.924   9.346   7.289
  143POPC   C2B 2147   3.896   9.340   6.812
  143POPC   C3B 2148   3.927   9.373   6.396
  143POPC   C4B 2149   3.988   9.692   6.187
  144POPC   NC3 2150   4.912   8.595   8.127
  144POPC   PO4 2151   5.481   8.711   7.985
  144POPC   GL1 2152   5.133   8.740   7.657
  144POPC   GL2 2153   4.752   8.725   7.670
  144POPC   C1A 2154   5.263   8.711   7.230
  144POPC   D2A 2155   5.353   8.981   6.920
  144POPC   C3A 2156   5.204   8.821   6.562
  144POPC   C4A 2157   5.154   8.532   6.256
  144POPC   C1B 2158   4.807   8.510   7.280
  144POPC   C2B 2159   4.772   8.684   6.852
  144POPC   C3B 2160   4.682   8.454   6.467
  144POPC   C4B 2161   4.531   8.529   6.049
  145POPC   NC3 2162   8.720   4.113   8.273
  145POPC   PO4 2163   8.408   4.600   8.019
  145POPC   GL1 2164   8.448   4.413   7.616
  145POPC   GL2 2165   8.764   4.336   7.447
  145POPC   C1A 2166   8.287   4.166   7.277
  145POPC   D2A 2167   8.324   4.252   6.861
  145POPC   C3A 2168   8.285   4.011   6.467
  145POPC   C4A 2169   8.087   4.139   6.070
  145POPC   C1B 2170   8.761   4.030   7.154
  145POPC   C2B 2171   8.707   3.911   6.755
  145POPC   C3B 2172   8.766   3.871   6.332
  145POPC   C4B 2173   8.734   4.215   6.099
  146POPC   NC3 2174   7.151   2.678   8.098
  146POPC   PO4 2175   7.717   2.314   8.087
  146POPC   GL1 2176   7.504   2.517   7.708
  146POPC   GL2 2177   7.174   2.699   7.599
  146POPC   C1A 2178   7.504   2.590   7.246
  146POPC   D2A 2179   7.660   2.718   6.860
  146POPC   C3A 2180   7.399   2.793   6.529
  146POPC   C4A 2181   7.617   2.640   6.221
  146POPC   C1B 2182   7.024   2.401   7.269
  146POPC   C2B 2183   6.864   2.242   6.887
  146POPC   C3B 2184   7.016   2.421   6.547
  146POPC   C4B 2185   7.001   2.657   6.226
  147POPC   NC3 2186   4.854  10.414   7.899
  147POPC   PO4 2187   4.878   9.793   8.187
  147POPC   GL1 2188   5.153   9.954   7.851
  147POPC   GL2 2189   4.901  10.017   7.585
  147POPC   C1A 2190   5.299   9.819   7.393
  147POPC   D2A 2191   5.088   9.967   7.030
  147POPC   C3A 2192   5.209   9.860   6.584
  147POPC   C4A 2193   5.031  10.042   6.200
  147POPC   C1B 2194   4.734  10.312   7.279
  147POPC   C2B 2195   4.538  10.314   6.919
  147POPC   C3B 2196   4.692  10.179   6.568
  147POPC   C4B 2197   4.684  10.426   6.217
  148POPC   NC3 2198   8.722   0.339   8.184
  148POPC   PO4 2199   7.996   0.126   8.074
  148POPC   GL1 2200   8.360   0.398   7.795
  148POPC   GL2 2201   8.723   0.408   7.687
  148POPC   C1A 2202   8.378   0.434   7.308
  148POPC   D2A 2203   8.174   0.472   6.877
  148POPC   C3A 2204   8.353   0.448   6.483
  148POPC   C4A 2205   8.361   0.083   6.213
  148POPC   C1B 2206   8.885   0.449   7.266
  148POPC   C2B 2207   8.696   0.494   6.894
  148POPC   C3B 2208   8.862   0.492   6.531
  148POPC   C4B 2209   8.947   0.619   6.178
  149POPC   NC3 2210   4.213   8.820   8.053
  149POPC   PO4 2211   4.587   8.277   8.095
  149POPC   GL1 2212   4.311   8.465   7.682
  149POPC   GL2 2213   4.006   8.726   7.595
  149POPC   C1A 2214   4.396   8.776   7.299
  149POPC   D2A 2215   4.220   8.976   6.950
  149POPC   C3A 2216   4.272   8.842   6.509
  149POPC   C4A 2217   4.259   8.972   6.072
  149POPC   C1B 2218   4.017   8.443   7.233
  149POPC   C2B 2219   4.293   8.453   6.859
  149POPC   C3B 2220   4.184   8.356   6.415
  149POPC   C4B 2221   4.032   8.536   6.017
  150POPC   NC3 2222   9.772  10.374   4.079
  150POPC   PO4 2223   9.152  10.248   3.699
  150POPC   GL1 2224   9.293   9.947   4.157
  150POPC   GL2 2225   9.528  10.041   4.372
  150POPC   C1A 2226   9.105  10.095   4.661
  150POPC   D2A 2227   9.042  10.373   5.060
  150POPC   C3A 2228   9.223  10.233   5.462
  150POPC   C4A 2229   9.112  10.252   5.882
  150POPC   C1B 2230   9.632  10.196   4.772
  150POPC   C2B 2231   9.829  10.071   5.165
  150POPC   C3B 2232   9.861  10.362   5.525
  150POPC   C4B 2233   9.619  10.337   5.857
  151POPC   NC3 2234   6.354   9.872   3.896
  151POPC   PO4 2235   6.852  10.104   3.669
  151POPC   GL1 2236   6.767  10.026   4.145
  151POPC   GL2 2237   6.560  10.315   4.230
  151POPC   C1A 2238   6.495   9.905   4.547
  151POPC   D2A 2239   6.285   9.994   4.949
  151POPC   C3A 2240   6.557   9.928   5.289
  151POPC   C4A 2241   6.668   9.968   5.714
  151POPC   C1B 2242   6.242  10.361   4.566
  151POPC   C2B 2243   6.232   0.022   4.980
  151POPC   C3B 2244   6.331  10.379   5.353
  151POPC   C4B 2245   6.319  10.330   5.778
  152POPC   NC3 2246   0.802   9.584   4.130
  152POPC   PO4 2247   1.295   9.333   3.685
  152POPC   GL1 2248   1.266   9.360   4.158
  152POPC   GL2 2249   1.457   9.643   4.136
  152POPC   C1A 2250   1.077   9.238   4.617
  152POPC   D2A 2251   1.050   9.020   5.054
  152POPC   C3A 2252   0.828   9.143   5.437
  152POPC   C4A 2253   0.997   9.386   5.783
  152POPC   C1B 2254   1.434   9.716   4.580
  152POPC   C2B 2255   1.388   9.459   4.948
  152POPC   C3B 2256   1.295   9.380   5.359
  152POPC   C4B 2257   1.506   9.514   5.748
  153POPC   NC3 2258   1.225  10.324   3.901
  153POPC   PO4 2259   0.603   9.975   3.981
  153POPC   GL1 2260   0.878  10.199   4.258
  153POPC   GL2 2261   1.103   9.967   4.272
  153POPC   C1A 2262   1.170  10.296   4.632
  153POPC   D2A 2263   0.864  10.347   4.942
  153POPC   C3A 2264   0.877  10.270   5.388
  153POPC   C4A 2265   1.031  10.414   5.799
  153POPC   C1B 2266   0.920   9.857   4.695
  153POPC   C2B 2267   1.107   9.891   5.072
  153POPC   C3B 2268   1.157   9.846   5.493
  153POPC   C4B 2269   1.512  10.043   5.672
  154POPC   NC3 2270   1.179   1.444   4.072
  154POPC   PO4 2271   1.579   0.871   3.843
  154POPC   GL1 2272   1.494   1.084   4.261
  154POPC   GL2 2273   1.173   1.037   4.432
  154POPC   C1A 2274   1.490   1.349   4.700
  154POPC   D2A 2275   1.343   1.440   5.125
  154POPC   C3A 2276   1.574   1.491   5.529
  154POPC   C4A 2277   1.561   1.261   5.930
  154POPC   C1B 2278   0.891   1.352   4.651
  154POPC   C2B 2279   0.830   1.476   5.052
  154POPC   C3B 2280   0.830   1.210   5.389
  154POPC   C4B 2281   1.075   1.246   5.728
  155POPC   NC3 2282   8.826   7.831   3.884
  155POPC   PO4 2283   8.274   8.303   3.834
  155POPC   GL1 2284   8.297   8.110   4.249
  155POPC   GL2 2285   8.619   7.961   4.319
  155POPC   C1A 2286   8.289   8.040   4.688
  155POPC   D2A 2287   8.570   8.123   4.997
  155POPC   C3A 2288   8.537   8.025   5.431
  155POPC   C4A 2289   8.249   8.014   5.775
  155POPC   C1B 2290   8.861   7.850   4.665
  155POPC   C2B 2291   8.848   7.707   5.090
  155POPC   C3B 2292   9.038   7.858   5.477
  155POPC   C4B 2293   8.834   7.837   5.892
  156POPC   NC3 2294   2.709   1.155   3.814
  156POPC   PO4 2295   3.166   1.547   3.642
  156POPC   GL1 2296   3.071   1.285   4.133
  156POPC   GL2 2297   2.694   1.313   4.288
  156POPC   C1A 2298   3.059   1.356   4.639
  156POPC   D2A 2299   3.008   1.051   5.001
  156POPC   C3A 2300   3.069   1.185   5.434
  156POPC   C4A 2301   2.881   1.055   5.844
  156POPC   C1B 2302   2.536   1.215   4.694
  156POPC   C2B 2303   2.605   1.391   5.107
  156POPC   C3B 2304   2.580   1.305   5.524
  156POPC   C4B 2305   2.316   0.993   5.622
  157POPC   NC3 2306   0.579   3.314   3.988
  157POPC   PO4 2307  10.429   3.411   3.872
  157POPC   GL1 2308   0.146   3.524   4.264
  157POPC   GL2 2309   0.342   3.232   4.411
  157POPC   C1A 2310   0.082   3.609   4.706
  157POPC   D2A 2311   0.284   3.431   5.046
  157POPC   C3A 2312   0.153   3.448   5.458
  157POPC   C4A 2313   0.339   3.170   5.752
  157POPC   C1B 2314   0.647   3.428   4.656
  157POPC   C2B 2315   0.819   3.458   5.049
  157POPC   C3B 2316   0.728   3.362   5.461
  157POPC   C4B 2317   0.533   3.662   5.736
  158POPC   NC3 2318   8.785   5.385   3.830
  158POPC   PO4 2319   8.914   6.051   3.938
  158POPC   GL1 2320   8.800   5.753   4.289
  158POPC   GL2 2321   8.465   5.774   4.285
  158POPC   C1A 2322   8.904   5.535   4.714
  158POPC   D2A 2323   8.716   5.497   5.121
  158POPC   C3A 2324   8.851   5.526   5.527
  158POPC   C4A 2325   8.522   5.383   5.808
  158POPC   C1B 2326   8.431   5.701   4.719
  158POPC   C2B 2327   8.231   5.685   5.100
  158POPC   C3B 2328   8.430   5.840   5.431
  158POPC   C4B 2329   8.522   5.885   5.839
  159POPC   NC3 2330   7.926   4.874   3.856
  159POPC   PO4 2331   8.457   4.698   3.899
  159POPC   GL1 2332   8.250   4.795   4.296
  159POPC   GL2 2333   7.880   4.733   4.355
  159POPC   C1A 2334   8.202   4.861   4.768
  159POPC   D2A 2335   8.081   4.666   5.187
  159POPC   C3A 2336   7.818   4.789   5.570
  159POPC   C4A 2337   7.932   4.652   6.003
  159POPC   C1B 2338   7.727   5.010   4.737
  159POPC   C2B 2339   7.834   5.160   5.197
  159POPC   C3B 2340   7.626   5.251   5.629
  159POPC   C4B 2341   7.647   5.318   6.087
  160POPC   NC3 2342   1.969  10.271   3.846
  160POPC   PO4 2343   1.493   0.220   3.857
  160POPC   GL1 2344   1.742   0.034   4.223
  160POPC   GL2 2345   1.571  10.210   4.277
  160POPC   C1A 2346   2.076   0.037   4.638
  160POPC   D2A 2347   2.201  10.411   5.113
  160POPC   C3A 2348   2.015   0.094   5.526
  160POPC   C4A 2349   2.162   0.103   5.987
  160POPC   C1B 2350   1.679  10.178   4.731
  160POPC   C2B 2351   1.835  10.029   5.149
  160POPC   C3B 2352   2.016  10.082   5.580
  160POPC   C4B 2353   1.849  10.233   5.997
  161POPC   NC3 2354   1.882   4.496   4.034
  161POPC   PO4 2355   1.808   3.853   3.809
  161POPC   GL1 2356   2.020   4.019   4.216
  161POPC   GL2 2357   1.768   4.078   4.442
  161POPC   C1A 2358   2.179   4.006   4.699
  161POPC   D2A 2359   1.935   4.103   5.082
  161POPC   C3A 2360   2.167   4.004   5.488
  161POPC   C4A 2361   2.207   3.949   5.956
  161POPC   C1B 2362   1.770   4.468   4.684
  161POPC   C2B 2363   1.770   4.664   5.083
  161POPC   C3B 2364   1.769   4.433   5.439
  161POPC   C4B 2365   1.780   4.178   5.776
  162POPC   NC3 2366   7.076   0.605   4.023
  162POPC   PO4 2367   7.668   0.471   3.860
  162POPC   GL1 2368   7.585   0.592   4.261
  162POPC   GL2 2369   7.371   0.298   4.299
  162POPC   C1A 2370   7.534   0.507   4.722
  162POPC   D2A 2371   7.470   0.396   5.160
  162POPC   C3A 2372   7.390   0.712   5.488
  162POPC   C4A 2373   7.439   0.718   5.965
  162POPC   C1B 2374   7.075   0.306   4.679
  162POPC   C2B 2375   6.991   0.223   5.110
  162POPC   C3B 2376   7.100   0.288   5.580
  162POPC   C4B 2377   7.032   0.409   6.041
  163POPC   NC3 2378   7.955   0.132   3.940
  163POPC   PO4 2379   8.610   0.101   3.869
  163POPC   GL1 2380   8.346   0.186   4.258
  163POPC   GL2 2381   8.162   0.534   4.207
  163POPC   C1A 2382   7.995   0.193   4.574
  163POPC   D2A 2383   7.771  10.451   4.898
  163POPC   C3A 2384   7.857   0.085   5.335
  163POPC   C4A 2385   7.618   0.292   5.661
  163POPC   C1B 2386   7.980   0.707   4.596
  163POPC   C2B 2387   7.966   0.476   4.991
  163POPC   C3B 2388   7.883   0.642   5.360
  163POPC   C4B 2389   7.896   0.719   5.763
  164POPC   NC3 2390   8.820  10.215   4.069
  164POPC   PO4 2391   8.758   9.612   3.846
  164POPC   GL1 2392   8.868   9.759   4.316
  164POPC   GL2 2393   8.616   9.990   4.467
  164POPC   C1A 2394   8.812   9.659   4.779
  164POPC   D2A 2395   8.834   9.929   5.091
  164POPC   C3A 2396   8.980   9.798   5.487
  164POPC   C4A 2397   8.781   9.893   5.858
  164POPC   C1B 2398   8.670  10.381   4.701
  164POPC   C2B 2399   8.531  10.462   5.108
  164POPC   C3B 2400   8.645  10.228   5.464
  164POPC   C4B 2401   8.628  10.371   5.854
  165POPC   NC3 2402   2.140   2.644   3.873
  165POPC   PO4 2403   1.493   2.624   3.805
  165POPC   GL1 2404   1.619   2.755   4.212
  165POPC   GL2 2405   1.956   2.741   4.334
  165POPC   C1A 2406   1.551   2.775   4.672
  165POPC   D2A 2407   1.781   2.742   5.063
  165POPC   C3A 2408   1.542   2.859   5.359
  165POPC   C4A 2409   1.546   2.801   5.730
  165POPC   C1B 2410   2.119   2.603   4.720
  165POPC   C2B 2411   2.327   2.448   5.066
  165POPC   C3B 2412   2.178   2.370   5.463
  165POPC   C4B 2413   2.028   2.662   5.742
  166POPC   NC3 2414   6.607   8.360   3.703
  166POPC   PO4 2415   6.137   8.852   3.854
  166POPC   GL1 2416   6.162   8.772   4.361
  166POPC   GL2 2417   6.529   8.793   4.520
  166POPC   C1A 2418   6.264   8.442   4.725
  166POPC   D2A 2419   6.506   8.558   5.107
  166POPC   C3A 2420   6.326   8.535   5.539
  166POPC   C4A 2421   6.193   8.187   5.813
  166POPC   C1B 2422   6.237   8.946   4.845
  166POPC   C2B 2423   6.211   9.018   5.274
  166POPC   C3B 2424   6.561   8.985   5.525
  166POPC   C4B 2425   6.615   9.001   5.959
  167POPC   NC3 2426  10.225   7.231   3.982
  167POPC   PO4 2427   9.844   6.697   3.844
  167POPC   GL1 2428   9.854   6.986   4.257
  167POPC   GL2 2429  10.169   7.149   4.456
  167POPC   C1A 2430   9.792   6.998   4.726
  167POPC   D2A 2431   9.951   6.873   5.128
  167POPC   C3A 2432  10.011   7.094   5.489
  167POPC   C4A 2433  10.068   6.985   5.880
  167POPC   C1B 2434  10.236   7.402   4.837
  167POPC   C2B 2435  10.417   7.206   5.220
  167POPC   C3B 2436   0.022   6.958   5.651
  167POPC   C4B 2437  10.498   7.066   6.141
  168POPC   NC3 2438   8.328   1.584   4.161
  168POPC   PO4 2439   8.160   0.926   3.873
  168POPC   GL1 2440   8.209   1.073   4.258
  168POPC   GL2 2441   7.849   1.072   4.293
  168POPC   C1A 2442   8.403   1.081   4.668
  168POPC   D2A 2443   8.189   0.921   5.040
  168POPC   C3A 2444   8.309   0.919   5.487
  168POPC   C4A 2445   8.202   1.103   5.906
  168POPC   C1B 2446   7.921   1.224   4.685
  168POPC   C2B 2447   7.898   1.324   5.119
  168POPC   C3B 2448   7.814   1.166   5.522
  168POPC   C4B 2449   7.612   1.537   5.707
  169POPC   NC3 2450   4.896   8.415   4.059
  169POPC   PO4 2451   4.787   9.104   3.917
  169POPC   GL1 2452   4.877   8.922   4.289
  169POPC   GL2 2453   4.599   8.730   4.341
  169POPC   C1A 2454   4.811   9.027   4.721
  169POPC   D2A 2455   4.628   8.932   5.086
  169POPC   C3A 2456   4.792   8.846   5.455
  169POPC   C4A 2457   4.941   8.706   5.838
  169POPC   C1B 2458   4.780   8.490   4.698
  169POPC   C2B 2459   4.927   8.510   5.114
  169POPC   C3B 2460   4.803   8.333   5.524
  169POPC   C4B 2461   4.916   8.194   5.946
  170POPC   NC3 2462   7.797   6.524   3.907
  170POPC   PO4 2463   7.568   7.051   4.059
  170POPC   GL1 2464   7.785   6.725   4.394
  170POPC   GL2 2465   8.049   6.488   4.350
  170POPC   C1A 2466   7.937   6.538   4.839
  170POPC   D2A 2467   7.736   6.374   5.218
  170POPC   C3A 2468   7.791   6.575   5.621
  170POPC   C4A 2469   8.021   6.553   5.990
  170POPC   C1B 2470   8.213   6.158   4.600
  170POPC   C2B 2471   8.354   6.189   5.008
  170POPC   C3B 2472   8.228   6.368   5.371
  170POPC   C4B 2473   8.063   6.101   5.699
  171POPC   NC3 2474   5.673   2.265   4.007
  171POPC   PO4 2475   5.366   1.651   3.834
  171POPC   GL1 2476   5.516   1.715   4.246
  171POPC   GL2 2477   5.829   1.862   4.275
  171POPC   C1A 2478   5.671   1.618   4.683
  171POPC   D2A 2479   5.860   1.714   5.063
  171POPC   C3A 2480   5.609   1.815   5.399
  171POPC   C4A 2481   5.724   1.621   5.757
  171POPC   C1B 2482   5.673   2.114   4.662
  171POPC   C2B 2483   5.764   2.225   5.103
  171POPC   C3B 2484   5.869   2.246   5.557
  171POPC   C4B 2485   5.636   2.363   5.944
  172POPC   NC3 2486   1.461   3.778   4.115
  172POPC   PO4 2487   0.918   3.491   3.747
  172POPC   GL1 2488   0.996   3.563   4.201
  172POPC   GL2 2489   1.045   3.239   4.356
  172POPC   C1A 2490   1.081   3.718   4.651
  172POPC   D2A 2491   1.287   3.717   5.080
  172POPC   C3A 2492   0.994   3.782   5.450
  172POPC   C4A 2493   1.015   3.587   5.866
  172POPC   C1B 2494   1.338   3.257   4.698
  172POPC   C2B 2495   1.231   3.177   5.102
  172POPC   C3B 2496   1.349   3.373   5.474
  172POPC   C4B 2497   1.395   3.254   5.877
  173POPC   NC3 2498   0.785   2.319   4.051
  173POPC   PO4 2499   0.730   2.908   4.137
  173POPC   GL1 2500   0.620   2.633   4.410
  173POPC   GL2 2501   0.296   2.708   4.462
  173POPC   C1A 2502   0.684   2.401   4.756
  173POPC   D2A 2503   0.479   2.488   5.123
  173POPC   C3A 2504   0.661   2.618   5.527
  173POPC   C4A 2505   0.416   2.462   5.836
  173POPC   C1B 2506   0.512   2.943   4.815
  173POPC   C2B 2507   0.458   2.991   5.247
  173POPC   C3B 2508   0.175   2.726   5.475
  173POPC   C4B 2509   0.030   2.798   5.876
  174POPC   NC3 2510   1.823   7.218   3.999
  174POPC   PO4 2511   2.502   7.266   3.881
  174POPC   GL1 2512   2.241   7.115   4.273
  174POPC   GL2 2513   1.956   7.331   4.462
  174POPC   C1A 2514   2.162   6.969   4.727
  174POPC   D2A 2515   2.115   7.255   5.091
  174POPC   C3A 2516   2.137   6.974   5.440
  174POPC   C4A 2517   2.072   6.860   5.857
  174POPC   C1B 2518   1.683   7.151   4.774
  174POPC   C2B 2519   1.682   6.977   5.182
  174POPC   C3B 2520   1.687   7.144   5.598
  174POPC   C4B 2521   1.676   7.412   5.949
  175POPC   NC3 2522   7.233   7.365   4.006
  175POPC   PO4 2523   6.756   7.938   3.875
  175POPC   GL1 2524   7.015   7.951   4.333
  175POPC   GL2 2525   7.386   7.991   4.389
  175POPC   C1A 2526   7.088   7.797   4.775
  175POPC   D2A 2527   7.262   7.764   5.218
  175POPC   C3A 2528   7.099   7.706   5.662
  175POPC   C4A 2529   7.057   7.368   5.981
  175POPC   C1B 2530   7.353   8.261   4.753
  175POPC   C2B 2531   7.399   8.398   5.175
  175POPC   C3B 2532   7.208   8.193   5.510
  175POPC   C4B 2533   7.270   8.132   5.922
  176POPC   NC3 2534   1.557   2.164   3.742
  176POPC   PO4 2535   1.659   1.561   4.116
  176POPC   GL1 2536   1.482   1.863   4.369
  176POPC   GL2 2537   1.169   1.741   4.479
  176POPC   C1A 2538   1.476   1.900   4.818
  176POPC   D2A 2539   1.369   1.979   5.196
  176POPC   C3A 2540   1.103   1.735   5.473
  176POPC   C4A 2541   1.249   1.657   5.923
  176POPC   C1B 2542   0.932   1.914   4.822
  176POPC   C2B 2543   0.917   2.209   5.167
  176POPC   C3B 2544   0.763   2.135   5.571
  176POPC   C4B 2545   0.994   2.089   5.918
  177POPC   NC3 2546   5.034   0.538   3.830
  177POPC   PO4 2547   4.423   0.571   4.089
  177POPC   GL1 2548   4.640   0.600   4.444
  177POPC   GL2 2549   4.889   0.362   4.284
  177POPC   C1A 2550   4.660   0.643   4.910
  177POPC   D2A 2551   4.650   0.382   5.247
  177POPC   C3A 2552   4.732   0.575   5.613
  177POPC   C4A 2553   4.773   0.244   5.845
  177POPC   C1B 2554   4.957   0.294   4.694
  177POPC   C2B 2555   5.113   0.477   5.057
  177POPC   C3B 2556   5.136   0.318   5.437
  177POPC   C4B 2557   5.287   0.387   5.810
  178POPC   NC3 2558   3.483   1.776   3.935
  178POPC   PO4 2559   2.881   1.730   4.075
  178POPC   GL1 2560   3.200   1.773   4.372
  178POPC   GL2 2561   3.478   1.986   4.394
  178POPC   C1A 2562   3.163   1.848   4.818
  178POPC   D2A 2563   3.402   1.919   5.190
  178POPC   C3A 2564   3.215   1.663   5.458
  178POPC   C4A 2565   2.956   1.588   5.810
  178POPC   C1B 2566   3.438   2.262   4.748
  178POPC   C2B 2567   3.609   2.402   5.128
  178POPC   C3B 2568   3.745   2.276   5.513
  178POPC   C4B 2569   3.476   2.018   5.713
  179POPC   NC3 2570   6.555   2.277   3.935
  179POPC   PO4 2571   6.848   1.671   4.049
  179POPC   GL1 2572   6.643   1.832   4.373
  179POPC   GL2 2573   6.331   1.831   4.247
  179POPC   C1A 2574   6.653   1.974   4.789
  179POPC   D2A 2575   6.785   1.874   5.186
  179POPC   C3A 2576   6.592   2.089   5.510
  179POPC   C4A 2577   6.612   1.800   5.825
  179POPC   C1B 2578   6.157   1.920   4.690
  179POPC   C2B 2579   6.241   2.043   5.147
  179POPC   C3B 2580   6.146   1.816   5.538
  179POPC   C4B 2581   6.199   1.498   5.908
  180POPC   NC3 2582   8.940   0.400   3.900
  180POPC   PO4 2583   9.259  10.421   4.156
  180POPC   GL1 2584   8.893   0.187   4.359
  180POPC   GL2 2585   8.698   0.548   4.316
  180POPC   C1A 2586   8.892   0.354   4.789
  180POPC   D2A 2587   9.145   0.378   5.158
  180POPC   C3A 2588   8.928   0.173   5.483
  180POPC   C4A 2589   8.741   0.353   5.818
  180POPC   C1B 2590   8.435   0.537   4.695
  180POPC   C2B 2591   8.476   0.492   5.155
  180POPC   C3B 2592   8.287   0.386   5.564
  180POPC   C4B 2593   8.330   0.571   5.983
  181POPC   NC3 2594  10.296   0.575   3.890
  181POPC   PO4 2595   9.612   0.539   3.834
  181POPC   GL1 2596   9.857   0.496   4.230
  181POPC   GL2 2597  10.176   0.453   4.378
  181POPC   C1A 2598   9.803   0.210   4.614
  181POPC   D2A 2599   9.676   0.432   4.991
  181POPC   C3A 2600   9.863   0.424   5.399
  181POPC   C4A 2601   9.999   0.290   5.820
  181POPC   C1B 2602  10.161   0.474   4.809
  181POPC   C2B 2603  10.186   0.711   5.142
  181POPC   C3B 2604  10.346   0.678   5.518
  181POPC   C4B 2605  10.373   0.685   5.954
  182POPC   NC3 2606   8.387   2.533   3.995
  182POPC   PO4 2607   8.916   2.989   3.865
  182POPC   GL1 2608   8.899   2.838   4.271
  182POPC   GL2 2609   8.547   2.964   4.334
  182POPC   C1A 2610   9.067   2.731   4.678
  182POPC   D2A 2611   8.982   2.911   5.057
  182POPC   C3A 2612   9.032   2.608   5.368
  182POPC   C4A 2613   8.893   2.668   5.774
  182POPC   C1B 2614   8.570   2.589   4.613
  182POPC   C2B 2615   8.653   2.504   5.022
  182POPC   C3B 2616   8.550   2.778   5.342
  182POPC   C4B 2617   8.384   2.745   5.731
  183POPC   NC3 2618   4.611  10.159   3.884
  183POPC   PO4 2619   5.196   0.033   3.856
  183POPC   GL1 2620   5.203  10.420   4.250
  183POPC   GL2 2621   5.043  10.109   4.157
  183POPC   C1A 2622   5.323  10.451   4.666
  183POPC   D2A 2623   5.059  10.445   5.043
  183POPC   C3A 2624   5.239  10.330   5.417
  183POPC   C4A 2625   5.051  10.335   5.789
  183POPC   C1B 2626   4.801  10.246   4.553
  183POPC   C2B 2627   4.775  10.027   4.965
  183POPC   C3B 2628   4.960   9.885   5.348
  183POPC   C4B 2629   4.757   9.909   5.768
  184POPC   NC3 2630   9.240   1.252   3.949
  184POPC   PO4 2631   9.826   1.309   4.176
  184POPC   GL1 2632   9.698   0.968   4.390
  184POPC   GL2 2633   9.410   1.079   4.391
  184POPC   C1A 2634   9.862   0.881   4.752
  184POPC   D2A 2635   9.707   0.899   5.137
  184POPC   C3A 2636   9.833   1.127   5.425
  184POPC   C4A 2637   9.525   1.287   5.701
  184POPC   C1B 2638   9.490   1.305   4.760
  184POPC   C2B 2639   9.422   1.333   5.189
  184POPC   C3B 2640   9.081   1.222   5.459
  184POPC   C4B 2641   9.027   1.457   5.834
  185POPC   NC3 2642   2.430   8.751   3.893
  185POPC   PO4 2643   2.836   8.199   3.753
  185POPC   GL1 2644   2.669   8.504   4.235
  185POPC   GL2 2645   2.345   8.586   4.382
  185POPC   C1A 2646   2.757   8.719   4.654
  185POPC   D2A 2647   2.936   8.750   5.076
  185POPC   C3A 2648   2.745   9.064   5.362
  185POPC   C4A 2649   2.846   8.923   5.784
  185POPC   C1B 2650   2.205   8.404   4.753
  185POPC   C2B 2651   2.429   8.534   5.092
  185POPC   C3B 2652   2.640   8.573   5.475
  185POPC   C4B 2653   2.550   8.406   5.881
  186POPC   NC3 2654   7.289  10.206   3.802
  186POPC   PO4 2655   6.906   0.166   4.067
  186POPC   GL1 2656   7.137  10.341   4.293
  186POPC   GL2 2657   7.313   9.993   4.267
  186POPC   C1A 2658   6.922  10.173   4.626
  186POPC   D2A 2659   6.693  10.315   4.971
  186POPC   C3A 2660   6.861  10.332   5.401
  186POPC   C4A 2661   6.819  10.441   5.829
  186POPC   C1B 2662   7.299   9.844   4.688
  186POPC   C2B 2663   7.175  10.052   5.059
  186POPC   C3B 2664   7.066   9.855   5.431
  186POPC   C4B 2665   7.199  10.102   5.763
  187POPC   NC3 2666   7.106   9.223   3.782
  187POPC   PO4 2667   7.548   9.520   4.086
  187POPC   GL1 2668   7.401   9.243   4.384
  187POPC   GL2 2669   7.074   9.243   4.285
  187POPC   C1A 2670   7.201   9.329   4.787
  187POPC   D2A 2671   7.328   9.571   5.113
  187POPC   C3A 2672   7.355   9.361   5.473
  187POPC   C4A 2673   7.290   9.583   5.810
  187POPC   C1B 2674   6.909   9.620   4.470
  187POPC   C2B 2675   6.841   9.686   4.935
  187POPC   C3B 2676   6.887   9.330   5.274
  187POPC   C4B 2677   7.038   9.053   5.680
  188POPC   NC3 2678   9.160   8.861   3.862
  188POPC   PO4 2679   9.737   8.549   3.809
  188POPC   GL1 2680   9.709   8.792   4.171
  188POPC   GL2 2681   9.432   8.617   4.303
  188POPC   C1A 2682   9.773   8.806   4.639
  188POPC   D2A 2683   9.623   8.879   5.070
  188POPC   C3A 2684   9.879   8.831   5.441
  188POPC   C4A 2685   9.778   8.908   5.864
  188POPC   C1B 2686   9.246   8.791   4.712
  188POPC   C2B 2687   9.140   8.737   5.142
  188POPC   C3B 2688   9.269   8.761   5.586
  188POPC   C4B 2689   8.966   8.679   5.913
  189POPC   NC3 2690   3.615  10.124   3.804
  189POPC   PO4 2691   2.927   9.750   3.841
  189POPC   GL1 2692   3.106   9.701   4.238
  189POPC   GL2 2693   3.374   9.926   4.219
  189POPC   C1A 2694   2.989   9.867   4.656
  189POPC   D2A 2695   3.092  10.074   5.052
  189POPC   C3A 2696   3.037   9.879   5.453
  189POPC   C4A 2697   3.231   9.838   5.851
  189POPC   C1B 2698   3.439  10.107   4.637
  189POPC   C2B 2699   3.624  10.120   5.065
  189POPC   C3B 2700   3.542  10.195   5.491
  189POPC   C4B 2701   3.838   0.020   5.722
  190POPC   NC3 2702   8.311   9.388   3.827
  190POPC   PO4 2703   8.369  10.008   4.002
  190POPC   GL1 2704   8.432   9.546   4.270
  190POPC   GL2 2705   8.760   9.275   4.225
  190POPC   C1A 2706   8.463   9.270   4.634
  190POPC   D2A 2707   8.646   9.219   5.055
  190POPC   C3A 2708   8.587   9.543   5.302
  190POPC   C4A 2709   8.630   9.447   5.716
  190POPC   C1B 2710   8.966   9.211   4.633
  190POPC   C2B 2711   9.161   9.311   5.032
  190POPC   C3B 2712   9.039   9.278   5.462
  190POPC   C4B 2713   9.102   9.482   5.886
  191POPC   NC3 2714   2.582   0.464   3.859
  191POPC   PO4 2715   3.072   0.819   3.750
  191POPC   GL1 2716   2.755   0.796   4.181
  191POPC   GL2 2717   2.885   0.438   4.264
  191POPC   C1A 2718   2.722   0.738   4.676
  191POPC   D2A 2719   2.525   0.851   5.073
  191POPC   C3A 2720   2.736   0.809   5.407
  191POPC   C4A 2721   2.655   0.597   5.756
  191POPC   C1B 2722   2.553   0.279   4.543
  191POPC   C2B 2723   2.430   0.350   4.963
  191POPC   C3B 2724   2.465   0.300   5.389
  191POPC   C4B 2725   2.602   0.088   5.747
  192POPC   NC3 2726   8.797   6.523   3.867
  192POPC   PO4 2727   8.165   6.801   3.966
  192POPC   GL1 2728   8.511   6.655   4.270
  192POPC   GL2 2729   8.546   6.288   4.247
  192POPC   C1A 2730   8.476   6.609   4.725
  192POPC   D2A 2731   8.755   6.534   5.094
  192POPC   C3A 2732   8.751   6.740   5.529
  192POPC   C4A 2733   8.928   6.691   5.970
  192POPC   C1B 2734   8.746   6.124   4.643
  192POPC   C2B 2735   8.814   5.991   5.075
  192POPC   C3B 2736   8.771   6.200   5.479
  192POPC   C4B 2737   8.492   6.393   5.794
  193POPC   NC3 2738   9.713   8.084   3.880
  193POPC   PO4 2739   9.047   8.242   3.982
  193POPC   GL1 2740   9.223   8.162   4.364
  193POPC   GL2 2741   9.560   8.095   4.361
  193POPC   C1A 2742   9.467   8.346   4.774
  193POPC   D2A 2743   9.587   8.090   5.133
  193POPC   C3A 2744   9.438   8.231   5.551
  193POPC   C4A 2745   9.176   8.197   5.930
  193POPC   C1B 2746   9.367   7.853   4.722
  193POPC   C2B 2747   9.354   7.629   5.109
  193POPC   C3B 2748   9.569   7.702   5.516
  193POPC   C4B 2749   9.861   7.677   5.881
  194POPC   NC3 2750   1.187   2.943   3.929
  194POPC   PO4 2751   1.074   2.236   3.718
  194POPC   GL1 2752   1.283   2.309   4.174
  194POPC   GL2 2753   1.135   2.622   4.304
  194POPC   C1A 2754   1.210   2.304   4.665
  194POPC   D2A 2755   1.351   2.476   5.062
  194POPC   C3A 2756   1.188   2.446   5.529
  194POPC   C4A 2757   1.369   2.411   5.968
  194POPC   C1B 2758   1.035   2.810   4.713
  194POPC   C2B 2759   0.934   2.760   5.131
  194POPC   C3B 2760   1.063   2.941   5.532
  194POPC   C4B 2761   0.853   3.070   5.862
  195POPC   NC3 2762   6.630   1.031   3.481
  195POPC   PO4 2763   7.178   1.112   3.889
  195POPC   GL1 2764   7.035   1.084   4.263
  195POPC   GL2 2765   7.156   1.364   4.423
  195POPC   C1A 2766   6.952   0.822   4.622
  195POPC   D2A 2767   7.151   0.763   4.992
  195POPC   C3A 2768   6.902   0.680   5.304
  195POPC   C4A 2769   6.824   0.737   5.700
  195POPC   C1B 2770   7.445   1.011   4.583
  195POPC   C2B 2771   7.629   0.923   4.994
  195POPC   C3B 2772   7.383   1.185   5.274
  195POPC   C4B 2773   7.300   1.147   5.720
  196POPC   NC3 2774   1.909   1.215   3.906
  196POPC   PO4 2775   2.439   1.556   3.796
  196POPC   GL1 2776   2.203   1.491   4.238
  196POPC   GL2 2777   2.188   1.106   4.318
  196POPC   C1A 2778   2.041   1.397   4.696
  196POPC   D2A 2779   2.113   1.140   5.056
  196POPC   C3A 2780   2.100   1.403   5.409
  196POPC   C4A 2781   2.094   1.400   5.853
  196POPC   C1B 2782   1.817   0.963   4.616
  196POPC   C2B 2783   1.636   0.960   5.066
  196POPC   C3B 2784   1.783   1.004   5.518
  196POPC   C4B 2785   1.934   0.941   5.965
  197POPC   NC3 2786   3.331   9.179   3.966
  197POPC   PO4 2787   4.053   9.126   3.983
  197POPC   GL1 2788   3.720   9.130   4.312
  197POPC   GL2 2789   3.596   9.463   4.306
  197POPC   C1A 2790   3.724   9.194   4.787
  197POPC   D2A 2791   3.693   9.193   5.245
  197POPC   C3A 2792   3.884   9.575   5.404
  197POPC   C4A 2793   3.722   9.775   5.758
  197POPC   C1B 2794   3.386   9.565   4.677
  197POPC   C2B 2795   3.423   9.662   5.103
  197POPC   C3B 2796   3.374   9.509   5.489
  197POPC   C4B 2797   3.020   9.392   5.706
  198POPC   NC3 2798   8.509  10.223   3.566
  198POPC   PO4 2799   7.794  10.194   3.809
  198POPC   GL1 2800   7.976  10.239   4.234
  198POPC   GL2 2801   7.670  10.371   4.339
  198POPC   C1A 2802   8.195  10.227   4.643
  198POPC   D2A 2803   8.314   9.962   5.009
  198POPC   C3A 2804   8.121  10.124   5.396
  198POPC   C4A 2805   8.115  10.415   5.764
  198POPC   C1B 2806   7.759   9.987   4.598
  198POPC   C2B 2807   7.739   9.908   5.023
  198POPC   C3B 2808   7.577  10.054   5.398
  198POPC   C4B 2809   7.768  10.017   5.780
  199POPC   NC3 2810   4.945   1.858   3.765
  199POPC   PO4 2811   4.483   2.220   3.838
  199POPC   GL1 2812   4.714   1.941   4.214
  199POPC   GL2 2813   4.998   1.648   4.245
  199POPC   C1A 2814   4.658   1.711   4.632
  199POPC   D2A 2815   4.867   1.722   5.047
  199POPC   C3A 2816   4.664   1.663   5.445
  199POPC   C4A 2817   4.671   1.877   5.856
  199POPC   C1B 2818   5.192   1.802   4.637
  199POPC   C2B 2819   5.270   2.031   5.045
  199POPC   C3B 2820   4.967   2.101   5.419
  199POPC   C4B 2821   5.111   2.205   5.845
  200POPC   NC3 2822   2.466   1.937   4.090
  200POPC   PO4 2823   2.017   2.252   3.658
  200POPC   GL1 2824   1.854   2.280   4.117
  200POPC   GL2 2825   1.973   1.981   4.233
  200POPC   C1A 2826   1.713   2.312   4.560
  200POPC   D2A 2827   1.850   2.237   5.023
  200POPC   C3A 2828   1.676   2.337   5.436
  200POPC   C4A 2829   1.467   2.024   5.679
  200POPC   C1B 2830   1.958   1.884   4.670
  200POPC   C2B 2831   1.839   1.716   5.111
  200POPC   C3B 2832   1.950   1.869   5.561
  200POPC   C4B 2833   1.758   1.741   5.990
  201POPC   NC3 2834   3.008   3.509   4.008
  201POPC   PO4 2835   2.413   3.155   3.823
  201POPC   GL1 2836   2.355   3.321   4.236
  201POPC   GL2 2837   2.702   3.347   4.403
  201POPC   C1A 2838   2.280   3.496   4.658
  201POPC   D2A 2839   2.566   3.359   5.000
  201POPC   C3A 2840   2.520   3.355   5.432
  201POPC   C4A 2841   2.813   3.271   5.795
  201POPC   C1B 2842   2.716   3.747   4.719
  201POPC   C2B 2843   2.563   3.852   5.191
  201POPC   C3B 2844   2.628   3.784   5.698
  201POPC   C4B 2845   2.893   3.681   6.101
  202POPC   NC3 2846   5.198   9.341   3.874
  202POPC   PO4 2847   4.644   9.708   3.980
  202POPC   GL1 2848   4.870   9.660   4.368
  202POPC   GL2 2849   5.090   9.383   4.364
  202POPC   C1A 2850   4.962   9.573   4.819
  202POPC   D2A 2851   4.690   9.433   5.111
  202POPC   C3A 2852   4.767   9.429   5.536
  202POPC   C4A 2853   4.672   9.135   5.839
  202POPC   C1B 2854   5.292   9.189   4.716
  202POPC   C2B 2855   5.127   9.076   5.157
  202POPC   C3B 2856   5.171   9.115   5.649
  202POPC   C4B 2857   5.198   9.068   6.111
  203POPC   NC3 2858   9.318   2.747   3.915
  203POPC   PO4 2859   9.402   2.120   3.774
  203POPC   GL1 2860   9.459   2.253   4.224
  203POPC   GL2 2861   9.445   2.592   4.375
  203POPC   C1A 2862   9.446   2.173   4.671
  203POPC   D2A 2863   9.367   2.265   5.101
  203POPC   C3A 2864   9.768   2.400   5.302
  203POPC   C4A 2865   9.761   2.357   5.774
  203POPC   C1B 2866   9.581   2.637   4.789
  203POPC   C2B 2867   9.458   2.786   5.138
  203POPC   C3B 2868   9.487   2.724   5.557
  203POPC   C4B 2869   9.382   2.708   5.932
  204POPC   NC3 2870   2.221   5.120   4.079
  204POPC   PO4 2871   1.579   4.925   3.968
  204POPC   GL1 2872   1.722   5.160   4.309
  204POPC   GL2 2873   1.922   4.867   4.396
  204POPC   C1A 2874   1.694   5.435   4.723
  204POPC   D2A 2875   1.879   5.432   5.154
  204POPC   C3A 2876   1.630   5.425   5.545
  204POPC   C4A 2877   1.799   5.152   5.886
  204POPC   C1B 2878   2.051   5.055   4.783
  204POPC   C2B 2879   2.179   4.959   5.195
  204POPC   C3B 2880   2.057   4.841   5.553
  204POPC   C4B 2881   2.182   4.474   5.717
  205POPC   NC3 2882   2.204   5.756   3.649
  205POPC   PO4 2883   1.579   5.774   3.867
  205POPC   GL1 2884   1.943   5.587   4.109
  205POPC   GL2 2885   2.144   5.885   4.151
  205POPC   C1A 2886   2.156   5.549   4.554
  205POPC   D2A 2887   2.121   5.794   4.913
  205POPC   C3A 2888   2.264   5.760   5.369
  205POPC   C4A 2889   2.163   5.355   5.576
  205POPC   C1B 2890   1.797   5.917   4.485
  205POPC   C2B 2891   1.688   6.045   4.897
  205POPC   C3B 2892   1.777   5.934   5.327
  205POPC   C4B 2893   1.919   5.812   5.743
  206POPC   NC3 2894   5.839   0.673   3.977
  206POPC   PO4 2895   6.003   0.039   3.968
  206POPC   GL1 2896   5.779   0.002   4.345
  206POPC   GL2 2897   5.578   0.283   4.276
  206POPC   C1A 2898   5.792   0.101   4.763
  206POPC   D2A 2899   5.514   0.172   5.091
  206POPC   C3A 2900   5.650   0.163   5.476
  206POPC   C4A 2901   6.059   0.232   5.624
  206POPC   C1B 2902   5.483   0.496   4.667
  206POPC   C2B 2903   5.542   0.740   5.045
  206POPC   C3B 2904   5.389   0.774   5.459
  206POPC   C4B 2905   5.718   0.621   5.686
  207POPC   NC3 2906   6.632   1.282   3.970
  207POPC   PO4 2907   6.654   0.704   3.842
  207POPC   GL1 2908   6.546   0.976   4.326
  207POPC   GL2 2909   6.218   1.066   4.421
  207POPC   C1A 2910   6.590   1.170   4.749
  207POPC   D2A 2911   6.537   1.023   5.174
  207POPC   C3A 2912   6.885   1.173   5.425
  207POPC   C4A 2913   6.862   1.363   5.827
  207POPC   C1B 2914   6.116   1.383   4.721
  207POPC   C2B 2915   6.358   1.556   5.059
  207POPC   C3B 2916   6.473   1.449   5.468
  207POPC   C4B 2917   6.445   1.078   5.726
  208POPC   NC3 2918   6.891   3.168   3.608
  208POPC   PO4 2919   6.805   2.669   4.000
  208POPC   GL1 2920   7.129   2.652   4.303
  208POPC   GL2 2921   7.228   2.291   4.303
  208POPC   C1A 2922   7.276   2.937   4.653
  208POPC   D2A 2923   7.253   3.143   5.073
  208POPC   C3A 2924   7.305   3.007   5.519
  208POPC   C4A 2925   7.230   3.060   5.999
  208POPC   C1B 2926   7.404   2.441   4.669
  208POPC   C2B 2927   7.281   2.610   5.052
  208POPC   C3B 2928   7.443   2.524   5.442
  208POPC   C4B 2929   7.306   2.581   5.829
  209POPC   NC3 2930   9.912   3.712   3.678
  209POPC   PO4 2931  10.417   3.977   3.904
  209POPC   GL1 2932  10.206   4.163   4.251
  209POPC   GL2 2933  10.304   4.442   4.339
  209POPC   C1A 2934   9.956   4.187   4.636
  209POPC   D2A 2935   9.727   4.335   5.018
  209POPC   C3A 2936   9.923   4.095   5.314
  209POPC   C4A 2937  10.004   4.095   5.689
  209POPC   C1B 2938  10.460   4.124   4.679
  209POPC   C2B 2939  10.382   3.957   5.082
  209POPC   C3B 2940  10.415   4.251   5.410
  209POPC   C4B 2941  10.377   4.409   5.790
  210POPC   NC3 2942   7.802   3.337   4.107
  210POPC   PO4 2943   8.229   3.697   3.999
  210POPC   GL1 2944   8.192   3.484   4.404
  210POPC   GL2 2945   8.068   3.129   4.502
  210POPC   C1A 2946   8.177   3.483   4.876
  210POPC   D2A 2947   8.142   3.151   5.200
  210POPC   C3A 2948   8.071   3.325   5.630
  210POPC   C4A 2949   7.955   3.660   5.934
  210POPC   C1B 2950   7.719   3.282   4.822
  210POPC   C2B 2951   7.669   3.361   5.292
  210POPC   C3B 2952   7.538   3.431   5.734
  210POPC   C4B 2953   7.594   3.388   6.193
  211POPC   NC3 2954   0.288   8.909   4.026
  211POPC   PO4 2955   0.580   8.359   3.979
  211POPC   GL1 2956   0.539   8.521   4.347
  211POPC   GL2 2957   0.190   8.577   4.397
  211POPC   C1A 2958   0.471   8.344   4.738
  211POPC   D2A 2959   0.446   8.084   5.063
  211POPC   C3A 2960   0.438   8.330   5.423
  211POPC   C4A 2961   0.498   8.558   5.797
  211POPC   C1B 2962   0.428   8.908   4.661
  211POPC   C2B 2963   0.460   9.075   5.061
  211POPC   C3B 2964   0.374   8.870   5.418
  211POPC   C4B 2965   0.176   8.972   5.784
  212POPC   NC3 2966   2.318   6.836   3.796
  212POPC   PO4 2967   1.683   6.766   3.943
  212POPC   GL1 2968   1.792   6.827   4.361
  212POPC   GL2 2969   2.094   6.609   4.335
  212POPC   C1A 2970   1.756   6.635   4.777
  212POPC   D2A 2971   1.718   6.452   5.178
  212POPC   C3A 2972   1.739   6.623   5.569
  212POPC   C4A 2973   1.850   6.403   5.975
  212POPC   C1B 2974   2.131   6.271   4.672
  212POPC   C2B 2975   2.176   6.238   5.128
  212POPC   C3B 2976   2.110   6.254   5.560
  212POPC   C4B 2977   2.365   6.410   5.886
  213POPC   NC3 2978  10.148   4.430   3.827
  213POPC   PO4 2979  10.013   5.098   3.734
  213POPC   GL1 2980   9.995   4.839   4.132
  213POPC   GL2 2981  10.307   4.947   4.168
  213POPC   C1A 2982   9.980   4.695   4.613
  213POPC   D2A 2983  10.212   4.485   4.995
  213POPC   C3A 2984  10.027   4.584   5.415
  213POPC   C4A 2985   9.878   4.555   5.857
  213POPC   C1B 2986  10.227   5.128   4.584
  213POPC   C2B 2987  10.176   4.996   5.016
  213POPC   C3B 2988  10.094   5.083   5.457
  213POPC   C4B 2989  10.217   4.905   5.823
  214POPC   NC3 2990   3.402   2.616   3.729
  214POPC   PO4 2991   3.143   3.097   4.110
  214POPC   GL1 2992   3.452   2.781   4.282
  214POPC   GL2 2993   3.280   2.472   4.292
  214POPC   C1A 2994   3.695   2.720   4.705
  214POPC   D2A 2995   3.854   2.860   5.115
  214POPC   C3A 2996   3.700   2.788   5.540
  214POPC   C4A 2997   3.607   2.648   5.963
  214POPC   C1B 2998   3.188   2.701   4.717
  214POPC   C2B 2999   3.278   2.775   5.156
  214POPC   C3B 3000   3.226   2.586   5.572
  214POPC   C4B 3001   3.120   2.834   5.943
  215POPC   NC3 3002   1.442   8.884   3.814
  215POPC   PO4 3003   2.153   9.165   3.826
  215POPC   GL1 3004   2.026   8.956   4.195
  215POPC   GL2 3005   1.793   8.668   4.224
  215POPC   C1A 3006   2.000   8.856   4.642
  215POPC   D2A 3007   1.879   8.687   5.045
  215POPC   C3A 3008   2.092   8.740   5.418
  215POPC   C4A 3009   2.302   8.828   5.773
  215POPC   C1B 3010   1.689   8.428   4.630
  215POPC   C2B 3011   1.671   8.178   5.006
  215POPC   C3B 3012   1.881   8.233   5.379
  215POPC   C4B 3013   2.049   8.361   5.766
  216POPC   NC3 3014   0.449   9.548   3.704
  216POPC   PO4 3015  10.388   9.063   3.823
  216POPC   GL1 3016  10.472   9.169   4.303
  216POPC   GL2 3017   0.331   9.329   4.352
  216POPC   C1A 3018   0.033   9.241   4.764
  216POPC   D2A 3019   0.213   9.541   5.039
  216POPC   C3A 3020   0.320   9.384   5.452
  216POPC   C4A 3021   0.044   9.546   5.740
  216POPC   C1B 3022   0.612   9.427   4.741
  216POPC   C2B 3023   0.736   9.566   5.203
  216POPC   C3B 3024   0.671   9.754   5.681
  216POPC   C4B 3025   0.758   9.673   6.174
  217POPC   NC3 3026   4.192   7.881   3.910
  217POPC   PO4 3027   3.738   8.234   3.803
  217POPC   GL1 3028   3.843   8.062   4.256
  217POPC   GL2 3029   4.188   7.957   4.416
  217POPC   C1A 3030   3.781   7.836   4.683
  217POPC   D2A 3031   3.788   8.053   5.100
  217POPC   C3A 3032   3.876   7.818   5.494
  217POPC   C4A 3033   4.159   7.743   5.849
  217POPC   C1B 3034   4.338   8.111   4.844
  217POPC   C2B 3035   4.316   7.978   5.279
  217POPC   C3B 3036   4.631   7.853   5.618
  217POPC   C4B 3037   4.823   7.684   6.015
  218POPC   NC3 3038   0.591   7.109   3.982
  218POPC   PO4 3039   0.031   7.141   3.663
  218POPC   GL1 3040   0.155   7.149   4.209
  218POPC   GL2 3041   0.406   7.443   4.326
  218POPC   C1A 3042   0.166   7.164   4.686
  218POPC   D2A 3043   0.407   7.315   5.059
  218POPC   C3A 3044   0.308   7.359   5.507
  218POPC   C4A 3045   0.288   7.428   5.964
  218POPC   C1B 3046   0.687   7.185   4.635
  218POPC   C2B 3047   0.872   7.056   5.032
  218POPC   C3B 3048   0.812   7.273   5.395
  218POPC   C4B 3049   0.671   7.134   5.785
  219POPC   NC3 3050   0.895   0.577   4.202
  219POPC   PO4 3051   0.245   0.401   3.876
  219POPC   GL1 3052   0.418   0.433   4.247
  219POPC   GL2 3053   0.156   0.647   4.313
  219POPC   C1A 3054   0.494   0.521   4.710
  219POPC   D2A 3055   0.725   0.396   5.064
  219POPC   C3A 3056   0.775   0.671   5.405
  219POPC   C4A 3057   0.719   0.456   5.791
  219POPC   C1B 3058   0.086   0.269   4.590
  219POPC   C2B 3059   0.087   0.374   5.038
  219POPC   C3B 3060   0.331   0.372   5.389
  219POPC   C4B 3061   0.170   0.330   5.754
  220POPC   NC3 3062   6.490   2.790   4.314
  220POPC   PO4 3063   6.110   2.334   4.081
  220POPC   GL1 3064   6.380   2.301   4.436
  220POPC   GL2 3065   6.721   2.334   4.398
  220POPC   C1A 3066   6.402   2.420   4.850
  220POPC   D2A 3067   6.439   2.704   5.186
  220POPC   C3A 3068   6.301   2.548   5.565
  220POPC   C4A 3069   6.281   2.733   6.002
  220POPC   C1B 3070   6.911   2.414   4.735
  220POPC   C2B 3071   6.834   2.379   5.136
  220POPC   C3B 3072   6.919   2.651   5.435
  220POPC   C4B 3073   6.756   2.567   5.804
  221POPC   NC3 3074   1.740   8.214   3.986
  221POPC   PO4 3075   1.553   7.570   3.961
  221POPC   GL1 3076   1.987   7.758   4.185
  221POPC   GL2 3077   1.998   8.092   4.397
  221POPC   C1A 3078   2.229   7.719   4.641
  221POPC   D2A 3079   2.182   7.958   5.015
  221POPC   C3A 3080   2.139   7.702   5.382
  221POPC   C4A 3081   2.163   7.440   5.746
  221POPC   C1B 3082   1.729   7.825   4.633
  221POPC   C2B 3083   1.745   7.604   5.020
  221POPC   C3B 3084   1.634   7.646   5.447
  221POPC   C4B 3085   1.824   7.890   5.762
  222POPC   NC3 3086   1.067   7.849   3.828
  222POPC   PO4 3087   1.359   8.482   4.013
  222POPC   GL1 3088   1.303   8.259   4.352
  222POPC   GL2 3089   1.386   7.953   4.232
  222POPC   C1A 3090   1.154   8.258   4.776
  222POPC   D2A 3091   0.946   8.195   5.174
  222POPC   C3A 3092   1.271   8.261   5.486
  222POPC   C4A 3093   1.533   8.298   5.867
  222POPC   C1B 3094   1.229   7.780   4.576
  222POPC   C2B 3095   1.283   7.813   5.007
  222POPC   C3B 3096   1.120   7.776   5.395
  222POPC   C4B 3097   1.294   7.850   5.777
  223POPC   NC3 3098   0.199   7.931   3.889
  223POPC   PO4 3099   0.707   7.893   3.536
  223POPC   GL1 3100   0.653   7.874   4.120
  223POPC   GL2 3101   0.348   8.011   4.356
  223POPC   C1A 3102   0.746   7.904   4.623
  223POPC   D2A 3103   0.799   7.632   4.999
  223POPC   C3A 3104   0.616   7.768   5.408
  223POPC   C4A 3105   0.787   8.087   5.698
  223POPC   C1B 3106   0.243   7.731   4.739
  223POPC   C2B 3107   0.083   7.712   5.181
  223POPC   C3B 3108   0.153   7.824   5.628
  223POPC   C4B 3109   0.132   8.206   5.844
  224POPC   NC3 3110  10.161   3.682   4.139
  224POPC   PO4 3111   9.706   3.293   3.744
  224POPC   GL1 3112   9.870   3.261   4.220
  224POPC   GL2 3113  10.221   3.187   4.290
  224POPC   C1A 3114   9.979   3.408   4.695
  224POPC   D2A 3115  10.233   3.432   5.091
  224POPC   C3A 3116  10.082   3.596   5.509
  224POPC   C4A 3117   9.967   3.686   5.964
  224POPC   C1B 3118  10.449   3.102   4.662
  224POPC   C2B 3119  10.478   2.977   5.067
  224POPC   C3B 3120  10.327   3.074   5.471
  224POPC   C4B 3121  10.272   3.250   5.868
  225POPC   NC3 3122   1.859   0.506   3.943
  225POPC   PO4 3123   2.332   0.866   3.864
  225POPC   GL1 3124   2.257   0.598   4.255
  225POPC   GL2 3125   1.885   0.481   4.432
  225POPC   C1A 3126   2.235   0.716   4.675
  225POPC   D2A 3127   1.937   0.548   4.942
  225POPC   C3A 3128   2.095   0.640   5.326
  225POPC   C4A 3129   2.152   0.536   5.754
  225POPC   C1B 3130   1.599   0.190   4.675
  225POPC   C2B 3131   1.695   0.089   5.088
  225POPC   C3B 3132   1.623   0.448   5.343
  225POPC   C4B 3133   1.629   0.570   5.757
  226POPC   NC3 3134   7.294   1.604   3.974
  226POPC   PO4 3135   7.946   1.427   3.952
  226POPC   GL1 3136   7.692   1.581   4.339
  226POPC   GL2 3137   7.403   1.823   4.402
  226POPC   C1A 3138   7.531   1.530   4.786
  226POPC   D2A 3139   7.545   1.687   5.205
  226POPC   C3A 3140   7.169   1.655   5.475
  226POPC   C4A 3141   7.150   1.773   5.900
  226POPC   C1B 3142   7.194   1.973   4.781
  226POPC   C2B 3143   7.263   2.113   5.207
  226POPC   C3B 3144   7.067   2.184   5.620
  226POPC   C4B 3145   6.876   2.154   6.075
  227POPC   NC3 3146   7.909   8.018   3.938
  227POPC   PO4 3147   8.418   7.574   3.989
  227POPC   GL1 3148   8.160   7.634   4.332
  227POPC   GL2 3149   7.883   7.876   4.418
  227POPC   C1A 3150   8.076   7.565   4.766
  227POPC   D2A 3151   8.180   7.799   5.143
  227POPC   C3A 3152   8.120   7.581   5.544
  227POPC   C4A 3153   7.923   7.573   5.937
  227POPC   C1B 3154   7.633   7.816   4.798
  227POPC   C2B 3155   7.709   7.977   5.200
  227POPC   C3B 3156   7.642   7.898   5.634
  227POPC   C4B 3157   7.762   8.073   6.047
  228POPC   NC3 3158   4.329   2.621   3.960
  228POPC   PO4 3159   3.781   2.177   3.960
  228POPC   GL1 3160   3.802   2.375   4.338
  228POPC   GL2 3161   4.078   2.581   4.385
  228POPC   C1A 3162   3.946   2.274   4.745
  228POPC   D2A 3163   4.117   2.388   5.144
  228POPC   C3A 3164   4.183   2.608   5.503
  228POPC   C4A 3165   4.071   2.473   5.876
  228POPC   C1B 3166   4.265   2.699   4.782
  228POPC   C2B 3167   4.357   2.942   5.159
  228POPC   C3B 3168   4.321   3.090   5.595
  228POPC   C4B 3169   4.510   2.889   5.990
  229POPC   NC3 3170   9.739   5.322   4.017
  229POPC   PO4 3171   9.167   5.116   3.672
  229POPC   GL1 3172   9.273   4.937   4.207
  229POPC   GL2 3173   9.562   5.021   4.354
  229POPC   C1A 3174   9.176   5.060   4.679
  229POPC   D2A 3175   9.342   5.301   5.070
  229POPC   C3A 3176   9.218   5.131   5.521
  229POPC   C4A 3177   9.072   5.154   5.975
  229POPC   C1B 3178   9.710   5.121   4.746
  229POPC   C2B 3179   9.684   4.895   5.141
  229POPC   C3B 3180   9.527   4.714   5.525
  229POPC   C4B 3181   9.426   4.755   5.983
  230POPC   NC3 3182   7.963   7.234   3.921
  230POPC   PO4 3183   7.504   7.736   3.947
  230POPC   GL1 3184   7.634   7.454   4.349
  230POPC   GL2 3185   7.937   7.201   4.412
  230POPC   C1A 3186   7.626   7.297   4.795
  230POPC   D2A 3187   7.774   7.455   5.200
  230POPC   C3A 3188   7.552   7.392   5.618
  230POPC   C4A 3189   7.570   7.179   6.043
  230POPC   C1B 3190   8.105   7.012   4.785
  230POPC   C2B 3191   8.029   6.904   5.265
  230POPC   C3B 3192   7.983   7.066   5.733
  230POPC   C4B 3193   8.079   7.160   6.198
  231POPC   NC3 3194  10.280   6.539   3.848
  231POPC   PO4 3195   9.892   6.053   4.147
  231POPC   GL1 3196  10.253   6.262   4.318
  231POPC   GL2 3197  10.244   6.637   4.347
  231POPC   C1A 3198  10.329   6.293   4.758
  231POPC   D2A 3199  10.066   6.331   5.111
  231POPC   C3A 3200  10.239   6.093   5.449
  231POPC   C4A 3201  10.264   6.182   5.840
  231POPC   C1B 3202  10.317   6.796   4.772
  231POPC   C2B 3203  10.421   6.695   5.185
  231POPC   C3B 3204  10.145   6.593   5.561
  231POPC   C4B 3205   9.936   6.506   5.992
  232POPC   NC3 3206   5.599  10.304   3.911
  232POPC   PO4 3207   5.913   9.738   3.909
  232POPC   GL1 3208   5.874   9.992   4.266
  232POPC   GL2 3209   5.524  10.028   4.317
  232POPC   C1A 3210   5.810  10.088   4.721
  232POPC   D2A 3211   5.847  10.232   5.137
  232POPC   C3A 3212   6.049   9.978   5.457
  232POPC   C4A 3213   5.805  10.240   5.709
  232POPC   C1B 3214   5.213   9.970   4.616
  232POPC   C2B 3215   5.361  10.020   5.011
  232POPC   C3B 3216   5.528   9.927   5.399
  232POPC   C4B 3217   5.268   9.873   5.771
  233POPC   NC3 3218   0.481  10.483   3.908
  233POPC   PO4 3219   0.210   9.964   3.530
  233POPC   GL1 3220   0.190   9.792   4.144
  233POPC   GL2 3221   0.238  10.184   4.275
  233POPC   C1A 3222   0.389   9.872   4.627
  233POPC   D2A 3223   0.526   9.992   5.061
  233POPC   C3A 3224   0.261   9.883   5.412
  233POPC   C4A 3225   0.232  10.068   5.789
  233POPC   C1B 3226   0.501  10.426   4.565
  233POPC   C2B 3227   0.373  10.480   4.972
  233POPC   C3B 3228   0.264  10.383   5.376
  233POPC   C4B 3229   0.533  10.486   5.708
  234POPC   NC3 3230  10.432  10.099   3.883
  234POPC   PO4 3231  10.142   0.152   3.982
  234POPC   GL1 3232  10.257  10.398   4.322
  234POPC   GL2 3233  10.027  10.146   4.455
  234POPC   C1A 3234  10.260  10.439   4.776
  234POPC   D2A 3235  10.036   0.056   5.088
  234POPC   C3A 3236  10.307   0.160   5.420
  234POPC   C4A 3237  10.390  10.436   5.797
  234POPC   C1B 3238  10.382   9.952   4.607
  234POPC   C2B 3239   0.023  10.052   4.999
  234POPC   C3B 3240  10.308  10.144   5.378
  234POPC   C4B 3241  10.126  10.016   5.783
  235POPC   NC3 3242   3.406   0.583   3.997
  235POPC   PO4 3243   3.298  10.432   3.917
  235POPC   GL1 3244   3.558   0.083   4.283
  235POPC   GL2 3245   3.457   0.383   4.452
  235POPC   C1A 3246   3.666   0.051   4.761
  235POPC   D2A 3247   3.322   0.034   5.114
  235POPC   C3A 3248   3.407   0.188   5.544
  235POPC   C4A 3249   3.525   0.322   5.970
  235POPC   C1B 3250   3.095   0.277   4.708
  235POPC   C2B 3251   2.946   0.482   5.056
  235POPC   C3B 3252   2.967   0.369   5.448
  235POPC   C4B 3253   3.160   0.603   5.763
  236POPC   NC3 3254   9.604   6.306   3.902
  236POPC   PO4 3255   9.138   6.664   4.149
  236POPC   GL1 3256   9.571   6.547   4.329
  236POPC   GL2 3257   9.528   6.176   4.466
  236POPC   C1A 3258   9.856   6.511   4.661
  236POPC   D2A 3259   9.538   6.638   4.951
  236POPC   C3A 3260   9.649   6.522   5.336
  236POPC   C4A 3261   9.652   6.748   5.670
  236POPC   C1B 3262   9.602   6.154   4.939
  236POPC   C2B 3263   9.214   6.301   5.187
  236POPC   C3B 3264   9.219   6.419   5.605
  236POPC   C4B 3265   9.602   6.201   5.726
  237POPC   NC3 3266   1.201   4.585   3.951
  237POPC   PO4 3267   0.848   5.173   3.877
  237POPC   GL1 3268   1.144   4.984   4.284
  237POPC   GL2 3269   1.428   4.697   4.385
  237POPC   C1A 3270   1.066   4.810   4.739
  237POPC   D2A 3271   0.971   5.060   5.119
  237POPC   C3A 3272   1.056   4.951   5.560
  237POPC   C4A 3273   1.307   5.128   5.923
  237POPC   C1B 3274   1.538   4.956   4.727
  237POPC   C2B 3275   1.480   5.120   5.132
  237POPC   C3B 3276   1.553   4.898   5.511
  237POPC   C4B 3277   1.344   4.537   5.706
  238POPC   NC3 3278   8.639   8.413   4.080
  238POPC   PO4 3279   8.393   8.989   4.021
  238POPC   GL1 3280   8.558   8.821   4.379
  238POPC   GL2 3281   8.923   8.741   4.335
  238POPC   C1A 3282   8.693   8.805   4.787
  238POPC   D2A 3283   8.649   8.589   5.145
  238POPC   C3A 3284   8.738   8.857   5.456
  238POPC   C4A 3285   8.493   8.969   5.764
  238POPC   C1B 3286   8.925   8.378   4.689
  238POPC   C2B 3287   9.069   8.209   5.094
  238POPC   C3B 3288   8.924   8.359   5.508
  238POPC   C4B 3289   8.510   8.461   5.721
  239POPC   NC3 3290   7.244   8.148   3.933
  239POPC   PO4 3291   6.961   8.766   3.788
  239POPC   GL1 3292   7.019   8.739   4.232
  239POPC   GL2 3293   7.218   8.495   4.329
  239POPC   C1A 3294   7.027   8.872   4.662
  239POPC   D2A 3295   7.219   8.904   5.083
  239POPC   C3A 3296   6.962   8.647   5.352
  239POPC   C4A 3297   6.799   8.563   5.756
  239POPC   C1B 3298   7.535   8.737   4.615
  239POPC   C2B 3299   7.747   8.743   5.033
  239POPC   C3B 3300   7.574   8.845   5.463
  239POPC   C4B 3301   7.293   8.624   5.748
  240POPC   NC3 3302   4.258   0.929   3.828
  240POPC   PO4 3303   3.824   1.468   3.867
  240POPC   GL1 3304   3.977   1.180   4.189
  240POPC   GL2 3305   4.298   1.114   4.291
  240POPC   C1A 3306   3.948   1.231   4.658
  240POPC   D2A 3307   4.183   1.316   5.055
  240POPC   C3A 3308   4.089   1.137   5.458
  240POPC   C4A 3309   3.962   1.261   5.856
  240POPC   C1B 3310   4.345   0.943   4.677
  240POPC   C2B 3311   4.185   0.771   5.025
  240POPC   C3B 3312   4.256   0.647   5.402
  240POPC   C4B 3313   4.311   0.789   5.801
  241POPC   NC3 3314   9.927   9.255   3.940
  241POPC   PO4 3315  10.002   9.969   4.000
  241POPC   GL1 3316   9.841   9.668   4.251
  241POPC   GL2 3317  10.181   9.584   4.317
  241POPC   C1A 3318   9.851   9.735   4.692
  241POPC   D2A 3319  10.192   9.601   4.980
  241POPC   C3A 3320  10.159   9.656   5.423
  241POPC   C4A 3321   9.864   9.583   5.790
  241POPC   C1B 3322  10.032   9.255   4.597
  241POPC   C2B 3323  10.095   9.070   4.993
  241POPC   C3B 3324  10.361   9.182   5.315
  241POPC   C4B 3325  10.195   9.184   5.715
  242POPC   NC3 3326   6.333   7.788   3.999
  242POPC   PO4 3327   6.300   8.407   4.047
  242POPC   GL1 3328   6.677   8.344   4.245
  242POPC   GL2 3329   6.524   8.076   4.400
  242POPC   C1A 3330   6.838   8.387   4.670
  242POPC   D2A 3331   6.943   8.196   5.068
  242POPC   C3A 3332   6.683   8.183   5.419
  242POPC   C4A 3333   6.747   8.062   5.825
  242POPC   C1B 3334   6.517   8.016   4.854
  242POPC   C2B 3335   6.540   7.745   5.204
  242POPC   C3B 3336   6.404   7.745   5.631
  242POPC   C4B 3337   6.553   7.602   6.042
  243POPC   NC3 3338   8.599   0.897   3.928
  243POPC   PO4 3339   8.835   1.475   4.076
  243POPC   GL1 3340   8.885   1.096   4.304
  243POPC   GL2 3341   8.994   1.308   4.550
  243POPC   C1A 3342   8.856   0.857   4.698
  243POPC   D2A 3343   8.695   0.985   5.112
  243POPC   C3A 3344   8.827   0.751   5.472
  243POPC   C4A 3345   8.687   0.907   5.860
  243POPC   C1B 3346   8.755   1.464   4.888
  243POPC   C2B 3347   8.732   1.558   5.322
  243POPC   C3B 3348   8.582   1.338   5.630
  243POPC   C4B 3349   8.557   1.422   6.071
  244POPC   NC3 3350   2.551   9.459   3.798
  244POPC   PO4 3351   2.905   8.926   3.987
  244POPC   GL1 3352   2.533   9.131   4.221
  244POPC   GL2 3353   2.648   9.457   4.288
  244POPC   C1A 3354   2.302   9.275   4.617
  244POPC   D2A 3355   2.319   9.036   5.018
  244POPC   C3A 3356   2.270   9.230   5.412
  244POPC   C4A 3357   2.474   9.292   5.821
  244POPC   C1B 3358   2.831   9.374   4.679
  244POPC   C2B 3359   2.838   9.576   5.080
  244POPC   C3B 3360   2.599   9.626   5.457
  244POPC   C4B 3361   2.705   9.746   5.901
  245POPC   NC3 3362   5.783   8.622   4.030
  245POPC   PO4 3363   5.315   8.239   4.090
  245POPC   GL1 3364   5.308   8.647   4.310
  245POPC   GL2 3365   5.590   8.842   4.446
  245POPC   C1A 3366   5.244   8.696   4.761
  245POPC   D2A 3367   5.450   8.510   5.095
  245POPC   C3A 3368   5.301   8.665   5.450
  245POPC   C4A 3369   5.444   8.686   5.849
  245POPC   C1B 3370   5.805   8.658   4.736
  245POPC   C2B 3371   5.967   8.586   5.136
  245POPC   C3B 3372   5.816   8.485   5.522
  245POPC   C4B 3373   5.966   8.690   5.890
  246POPC   NC3 3374   9.238   3.394   3.823
  246POPC   PO4 3375   9.705   3.743   4.097
  246POPC   GL1 3376   9.401   3.509   4.301
  246POPC   GL2 3377   9.373   3.129   4.237
  246POPC   C1A 3378   9.445   3.612   4.712
  246POPC   D2A 3379   9.725   3.767   4.999
  246POPC   C3A 3380   9.567   3.675   5.426
  246POPC   C4A 3381   9.578   3.418   5.820
  246POPC   C1B 3382   9.571   3.113   4.633
  246POPC   C2B 3383   9.631   3.260   5.073
  246POPC   C3B 3384   9.341   3.186   5.441
  246POPC   C4B 3385   9.108   3.129   5.826
  247POPC   NC3 3386   0.291   1.852   3.865
  247POPC   PO4 3387   0.843   1.869   4.123
  247POPC   GL1 3388   0.528   1.629   4.356
  247POPC   GL2 3389   0.143   1.685   4.329
  247POPC   C1A 3390   0.420   1.747   4.771
  247POPC   D2A 3391   0.509   1.922   5.144
  247POPC   C3A 3392   0.587   1.674   5.460
  247POPC   C4A 3393   0.756   1.655   5.841
  247POPC   C1B 3394   0.203   2.132   4.526
  247POPC   C2B 3395   0.090   2.147   4.984
  247POPC   C3B 3396   0.191   2.208   5.430
  247POPC   C4B 3397   0.325   1.963   5.796
  248POPC   NC3 3398   9.387   0.152   3.776
  248POPC   PO4 3399   9.050   0.836   3.862
  248POPC   GL1 3400   9.194   0.652   4.270
  248POPC   GL2 3401   9.378   0.374   4.317
  248POPC   C1A 3402   9.340   0.689   4.714
  248POPC   D2A 3403   9.198   0.879   5.096
  248POPC   C3A 3404   9.387   0.730   5.501
  248POPC   C4A 3405   9.785   0.770   5.767
  248POPC   C1B 3406   9.335   0.129   4.742
  248POPC   C2B 3407   9.519   0.003   5.162
  248POPC   C3B 3408   9.443   0.205   5.557
  248POPC   C4B 3409   9.230   0.229   5.932
  249POPC   NC3 3410   8.469   3.276   3.917
  249POPC   PO4 3411   8.888   3.796   3.878
  249POPC   GL1 3412   8.697   3.607   4.229
  249POPC   GL2 3413   8.904   3.353   4.229
  249POPC   C1A 3414   8.613   3.395   4.641
  249POPC   D2A 3415   8.625   3.271   5.069
  249POPC   C3A 3416   8.418   3.573   5.322
  249POPC   C4A 3417   8.423   3.718   5.723
  249POPC   C1B 3418   9.082   3.247   4.636
  249POPC   C2B 3419   9.136   3.410   5.050
  249POPC   C3B 3420   8.918   3.475   5.458
  249POPC   C4B 3421   8.585   3.204   5.625
  250POPC   NC3 3422  10.248   5.883   3.917
  250POPC   PO4 3423   0.294   5.546   4.008
  250POPC   GL1 3424   0.034   5.551   4.339
  250POPC   GL2 3425  10.180   5.493   4.240
  250POPC   C1A 3426   0.060   5.444   4.787
  250POPC   D2A 3427   0.030   5.324   5.216
  250POPC   C3A 3428  10.267   5.561   5.464
  250POPC   C4A 3429  10.458   5.740   5.780
  250POPC   C1B 3430  10.199   5.776   4.619
  250POPC   C2B 3431  10.178   5.838   5.025
  250POPC   C3B 3432   9.807   5.879   5.325
  250POPC   C4B 3433   9.899   5.796   5.757
  251POPC   NC3 3434   9.167   9.775   3.709
  251POPC   PO4 3435   9.474   9.194   3.847
  251POPC   GL1 3436   9.275   9.424   4.164
  251POPC   GL2 3437   9.306   9.112   4.311
  251POPC   C1A 3438   9.296   9.639   4.583
  251POPC   D2A 3439   9.345   9.829   5.010
  251POPC   C3A 3440   9.482   9.704   5.400
  251POPC   C4A 3441   9.421   9.860   5.805
  251POPC   C1B 3442   9.523   9.222   4.668
  251POPC   C2B 3443   9.685   9.400   5.009
  251POPC   C3B 3444   9.805   9.308   5.366
  251POPC   C4B 3445   9.500   9.257   5.661
  252POPC   NC3 3446   3.078   5.508   4.063
  252POPC   PO4 3447   2.438   5.497   3.938
  252POPC   GL1 3448   2.610   5.595   4.301
  252POPC   GL2 3449   2.565   5.940   4.426
  252POPC   C1A 3450   2.641   5.501   4.731
  252POPC   D2A 3451   2.407   5.383   5.075
  252POPC   C3A 3452   2.648   5.297   5.474
  252POPC   C4A 3453   2.617   5.341   5.939
  252POPC   C1B 3454   2.582   5.989   4.887
  252POPC   C2B 3455   2.759   5.742   5.218
  252POPC   C3B 3456   2.785   5.763   5.659
  252POPC   C4B 3457   2.830   6.150   5.938
  253POPC   NC3 3458   2.038   3.452   3.798
  253POPC   PO4 3459   1.455   3.315   4.057
  253POPC   GL1 3460   1.827   3.229   4.225
  253POPC   GL2 3461   1.887   3.545   4.307
  253POPC   C1A 3462   1.901   3.143   4.660
  253POPC   D2A 3463   1.721   3.253   5.067
  253POPC   C3A 3464   1.936   3.200   5.454
  253POPC   C4A 3465   2.136   3.510   5.711
  253POPC   C1B 3466   1.802   3.652   4.740
  253POPC   C2B 3467   2.080   3.608   5.119
  253POPC   C3B 3468   1.761   3.698   5.394
  253POPC   C4B 3469   1.658   3.681   5.795
  254POPC   NC3 3470   0.323   4.130   3.800
  254POPC   PO4 3471   0.922   4.176   3.886
  254POPC   GL1 3472   0.563   4.322   4.198
  254POPC   GL2 3473   0.234   4.149   4.277
  254POPC   C1A 3474   0.452   4.402   4.646
  254POPC   D2A 3475   0.240   4.353   5.030
  254POPC   C3A 3476   0.401   4.434   5.423
  254POPC   C4A 3477   0.377   4.240   5.798
  254POPC   C1B 3478   0.486   3.898   4.524
  254POPC   C2B 3479   0.514   3.886   4.967
  254POPC   C3B 3480   0.316   3.930   5.370
  254POPC   C4B 3481  10.500   3.876   5.742
  255POPC   NC3 3482   5.052   1.262   3.888
  255POPC   PO4 3483   4.644   0.738   3.629
  255POPC   GL1 3484   4.726   0.954   4.067
  255POPC   GL2 3485   5.018   0.864   4.231
  255POPC   C1A 3486   4.762   1.200   4.492
  255POPC   D2A 3487   4.681   1.266   4.930
  255POPC   C3A 3488   4.576   1.018   5.291
  255POPC   C4A 3489   4.520   1.230   5.710
  255POPC   C1B 3490   5.078   0.816   4.667
  255POPC   C2B 3491   5.107   1.024   5.079
  255POPC   C3B 3492   4.990   1.243   5.461
  255POPC   C4B 3493   4.975   0.982   5.807
  256POPC   NC3 3494   8.007   8.793   3.837
  256POPC   PO4 3495   7.631   8.344   4.081
  256POPC   GL1 3496   7.865   8.386   4.392
  256POPC   GL2 3497   8.028   8.683   4.330
  256POPC   C1A 3498   7.860   8.281   4.810
  256POPC   D2A 3499   8.111   8.338   5.177
  256POPC   C3A 3500   7.812   8.364   5.509
  256POPC   C4A 3501   7.758   8.547   5.879
  256POPC   C1B 3502   8.224   8.623   4.735
  256POPC   C2B 3503   8.234   8.879   5.123
  256POPC   C3B 3504   8.083   8.790   5.552
  256POPC   C4B 3505   8.076   8.890   6.036
  257POPC   NC3 3506   2.803   4.428   3.650
  257POPC   PO4 3507   2.329   4.672   4.049
  257POPC   GL1 3508   2.237   4.448   4.427
  257POPC   GL2 3509   2.496   4.201   4.344
  257POPC   C1A 3510   2.226   4.507   4.894
  257POPC   D2A 3511   2.553   4.536   5.201
  257POPC   C3A 3512   2.623   4.277   5.553
  257POPC   C4A 3513   2.573   4.385   5.994
  257POPC   C1B 3514   2.642   4.247   4.770
  257POPC   C2B 3515   2.953   4.176   5.081
  257POPC   C3B 3516   3.136   4.224   5.489
  257POPC   C4B 3517   3.007   4.146   5.912
  258POPC   NC3 3518   5.746   1.341   3.831
  258POPC   PO4 3519   5.398   0.836   3.916
  258POPC   GL1 3520   5.422   1.190   4.225
  258POPC   GL2 3521   5.754   1.265   4.326
  258POPC   C1A 3522   5.319   1.266   4.663
  258POPC   D2A 3523   5.617   1.252   5.043
  258POPC   C3A 3524   5.488   1.277   5.479
  258POPC   C4A 3525   5.348   1.343   5.953
  258POPC   C1B 3526   5.773   0.950   4.636
  258POPC   C2B 3527   6.044   0.944   5.008
  258POPC   C3B 3528   6.018   1.162   5.422
  258POPC   C4B 3529   5.816   1.109   5.834
  259POPC   NC3 3530   9.271   5.837   4.129
  259POPC   PO4 3531   9.835   5.700   3.769
  259POPC   GL1 3532   9.692   5.664   4.356
  259POPC   GL2 3533   9.398   5.499   4.517
  259POPC   C1A 3534   9.735   5.669   4.824
  259POPC   D2A 3535   9.906   5.414   5.113
  259POPC   C3A 3536   9.683   5.393   5.463
  259POPC   C4A 3537   9.692   5.147   5.814
  259POPC   C1B 3538   9.253   5.857   4.776
  259POPC   C2B 3539   9.280   5.800   5.204
  259POPC   C3B 3540   9.196   5.895   5.609
  259POPC   C4B 3541   9.356   5.542   5.819
  260POPC   NC3 3542   6.115   9.310   3.904
  260POPC   PO4 3543   5.513   9.021   3.995
  260POPC   GL1 3544   5.746   9.285   4.266
  260POPC   GL2 3545   5.557   9.539   4.221
  260POPC   C1A 3546   5.821   9.203   4.727
  260POPC   D2A 3547   5.624   8.997   5.079
  260POPC   C3A 3548   5.731   8.992   5.508
  260POPC   C4A 3549   5.669   9.132   5.927
  260POPC   C1B 3550   5.548   9.622   4.675
  260POPC   C2B 3551   5.404   9.503   5.118
  260POPC   C3B 3552   5.496   9.469   5.578
  260POPC   C4B 3553   5.769   9.748   5.835
  261POPC   NC3 3554   9.383   6.977   3.895
  261POPC   PO4 3555   9.653   7.595   3.813
  261POPC   GL1 3556   9.553   7.595   4.246
  261POPC   GL2 3557   9.414   7.282   4.298
  261POPC   C1A 3558   9.678   7.467   4.673
  261POPC   D2A 3559   9.795   7.376   5.083
  261POPC   C3A 3560   9.537   7.200   5.375
  261POPC   C4A 3561   9.617   7.243   5.802
  261POPC   C1B 3562   9.167   7.385   4.656
  261POPC   C2B 3563   9.281   7.099   4.945
  261POPC   C3B 3564   9.195   6.819   5.274
  261POPC   C4B 3565   9.205   6.952   5.672
  262POPC   NC3 3566   2.761   1.852   3.651
  262POPC   PO4 3567   2.979   2.430   3.848
  262POPC   GL1 3568   2.839   2.204   4.354
  262POPC   GL2 3569   2.727   1.837   4.517
  262POPC   C1A 3570   2.761   2.166   4.872
  262POPC   D2A 3571   3.066   2.296   5.168
  262POPC   C3A 3572   2.996   2.109   5.596
  262POPC   C4A 3573   2.810   2.067   6.003
  262POPC   C1B 3574   2.429   1.720   4.745
  262POPC   C2B 3575   2.293   1.934   5.085
  262POPC   C3B 3576   2.512   1.992   5.439
  262POPC   C4B 3577   2.469   1.739   5.764
  263POPC   NC3 3578   4.131   1.886   3.855
  263POPC   PO4 3579   4.668   1.518   3.883
  263POPC   GL1 3580   4.307   1.636   4.261
  263POPC   GL2 3581   4.218   2.044   4.323
  263POPC   C1A 3582   4.115   1.728   4.717
  263POPC   D2A 3583   3.891   1.932   5.090
  263POPC   C3A 3584   3.883   1.771   5.495
  263POPC   C4A 3585   4.228   1.650   5.712
  263POPC   C1B 3586   4.438   2.171   4.706
  263POPC   C2B 3587   4.410   1.970   5.109
  263POPC   C3B 3588   4.340   2.117   5.532
  263POPC   C4B 3589   4.582   2.392   5.811
  264POPC   NC3 3590   2.950  10.168   4.008
  264POPC   PO4 3591   2.346   0.060   3.913
  264POPC   GL1 3592   2.533  10.315   4.277
  264POPC   GL2 3593   2.518   9.941   4.195
  264POPC   C1A 3594   2.788  10.335   4.687
  264POPC   D2A 3595   2.784  10.496   5.121
  264POPC   C3A 3596   3.014  10.370   5.502
  264POPC   C4A 3597   2.901  10.206   5.897
  264POPC   C1B 3598   2.489   9.811   4.648
  264POPC   C2B 3599   2.567  10.014   5.063
  264POPC   C3B 3600   2.543  10.141   5.501
  264POPC   C4B 3601   2.375  10.135   5.940
  265POPC   NC3 3602   4.330   0.319   3.721
  265POPC   PO4 3603   3.799   0.791   3.815
  265POPC   GL1 3604   3.908   0.659   4.243
  265POPC   GL2 3605   4.027   0.299   4.262
  265POPC   C1A 3606   3.810   0.657   4.696
  265POPC   D2A 3607   3.578   0.469   5.062
  265POPC   C3A 3608   3.803   0.476   5.468
  265POPC   C4A 3609   3.801   0.780   5.803
  265POPC   C1B 3610   4.236   0.364   4.675
  265POPC   C2B 3611   4.072   0.255   5.047
  265POPC   C3B 3612   4.223   0.098   5.390
  265POPC   C4B 3613   4.266   0.294   5.762
  266POPC   NC3 3614   1.277   6.961   3.870
  266POPC   PO4 3615   0.920   7.425   4.021
  266POPC   GL1 3616   1.059   7.094   4.298
  266POPC   GL2 3617   1.411   7.237   4.326
  266POPC   C1A 3618   1.300   6.841   4.599
  266POPC   D2A 3619   1.276   6.699   5.022
  266POPC   C3A 3620   1.236   6.892   5.457
  266POPC   C4A 3621   1.321   6.963   5.915
  266POPC   C1B 3622   1.203   7.318   4.754
  266POPC   C2B 3623   1.308   7.326   5.196
  266POPC   C3B 3624   1.224   7.370   5.653
  266POPC   C4B 3625   0.848   7.594   5.831
  267POPC   NC3 3626   7.534   2.482   3.948
  267POPC   PO4 3627   8.055   2.950   4.002
  267POPC   GL1 3628   7.950   2.629   4.249
  267POPC   GL2 3629   7.653   2.758   4.344
  267POPC   C1A 3630   8.070   2.428   4.620
  267POPC   D2A 3631   8.174   2.668   4.998
  267POPC   C3A 3632   8.099   2.500   5.397
  267POPC   C4A 3633   7.831   2.473   5.770
  267POPC   C1B 3634   7.756   2.791   4.743
  267POPC   C2B 3635   7.700   2.868   5.135
  267POPC   C3B 3636   7.818   2.903   5.504
  267POPC   C4B 3637   7.704   2.969   5.869
  268POPC   NC3 3638   1.721   9.315   3.844
  268POPC   PO4 3639   1.572   9.974   3.735
  268POPC   GL1 3640   1.917   9.841   4.126
  268POPC   GL2 3641   2.084   9.507   4.188
  268POPC   C1A 3642   1.974   9.755   4.625
  268POPC   D2A 3643   2.189   9.616   5.041
  268POPC   C3A 3644   1.921   9.595   5.435
  268POPC   C4A 3645   2.028   9.609   5.898
  268POPC   C1B 3646   1.768   9.305   4.492
  268POPC   C2B 3647   1.846   9.242   4.927
  268POPC   C3B 3648   1.736   9.118   5.316
  268POPC   C4B 3649   1.885   9.141   5.725
  269POPC   NC3 3650   9.124   1.768   3.854
  269POPC   PO4 3651   8.420   2.044   3.946
  269POPC   GL1 3652   8.792   2.025   4.247
  269POPC   GL2 3653   8.717   1.762   4.478
  269POPC   C1A 3654   8.927   2.183   4.698
  269POPC   D2A 3655   8.715   2.014   5.087
  269POPC   C3A 3656   8.732   2.210   5.502
  269POPC   C4A 3657   8.647   1.841   5.776
  269POPC   C1B 3658   8.432   2.071   4.654
  269POPC   C2B 3659   8.206   2.141   5.031
  269POPC   C3B 3660   8.270   2.027   5.457
  269POPC   C4B 3661   8.284   2.249   5.849
  270POPC   NC3 3662   2.812   2.853   3.890
  270POPC   PO4 3663   2.360   2.378   4.176
  270POPC   GL1 3664   2.470   2.801   4.272
  270POPC   GL2 3665   2.823   2.801   4.377
  270POPC   C1A 3666   2.403   3.016   4.650
  270POPC   D2A 3667   2.203   3.016   5.051
  270POPC   C3A 3668   2.360   2.872   5.426
  270POPC   C4A 3669   2.360   3.036   5.843
  270POPC   C1B 3670   2.686   2.620   4.714
  270POPC   C2B 3671   2.753   2.730   5.110
  270POPC   C3B 3672   2.687   2.486   5.454
  270POPC   C4B 3673   2.694   2.565   5.851
  271POPC   NC3 3674  10.123   8.709   3.638
  271POPC   PO4 3675  10.170   8.071   3.738
  271POPC   GL1 3676  10.110   8.376   4.109
  271POPC   GL2 3677  10.226   8.714   4.163
  271POPC   C1A 3678   9.964   8.365   4.543
  271POPC   D2A 3679  10.039   8.536   4.986
  271POPC   C3A 3680   9.952   8.345   5.363
  271POPC   C4A 3681   9.878   8.427   5.773
  271POPC   C1B 3682  10.297   8.788   4.615
  271POPC   C2B 3683   0.022   8.762   5.030
  271POPC   C3B 3684  10.374   8.686   5.474
  271POPC   C4B 3685  10.268   8.724   5.922
  272POPC   NC3 3686   8.918   4.760   3.922
  272POPC   PO4 3687   9.139   5.395   4.119
  272POPC   GL1 3688   8.773   5.227   4.330
  272POPC   GL2 3689   8.773   4.891   4.367
  272POPC   C1A 3690   8.634   5.125   4.773
  272POPC   D2A 3691   8.915   5.030   5.110
  272POPC   C3A 3692   8.698   5.035   5.463
  272POPC   C4A 3693   8.775   4.795   5.804
  272POPC   C1B 3694   8.840   4.653   4.723
  272POPC   C2B 3695   8.591   4.663   5.036
  272POPC   C3B 3696   8.548   4.551   5.384
  272POPC   C4B 3697   8.301   4.728   5.669
  273POPC   NC3 3698  10.126   3.091   3.783
  273POPC   PO4 3699   9.761   2.618   3.981
  273POPC   GL1 3700   9.938   2.753   4.361
  273POPC   GL2 3701  10.286   2.668   4.320
  273POPC   C1A 3702  10.012   2.898   4.778
  273POPC   D2A 3703   9.951   2.871   5.191
  273POPC   C3A 3704   9.838   3.093   5.539
  273POPC   C4A 3705   9.871   2.865   5.925
  273POPC   C1B 3706  10.404   2.560   4.747
  273POPC   C2B 3707  10.285   2.503   5.171
  273POPC   C3B 3708  10.180   2.577   5.580
  273POPC   C4B 3709  10.422   2.307   5.842
  274POPC   NC3 3710   0.311   0.854   3.805
  274POPC   PO4 3711   0.885   0.997   4.023
  274POPC   GL1 3712   0.632   0.969   4.413
  274POPC   GL2 3713   0.346   1.120   4.253
  274POPC   C1A 3714   0.634   0.970   4.909
  274POPC   D2A 3715   0.281   0.829   5.189
  274POPC   C3A 3716   0.326   0.803   5.661
  274POPC   C4A 3717   0.672   0.959   5.836
  274POPC   C1B 3718   0.273   1.271   4.658
  274POPC   C2B 3719   0.347   1.365   5.088
  274POPC   C3B 3720   0.324   1.256   5.463
  274POPC   C4B 3721   0.356   1.373   5.841
  275POPC   NC3 3722   4.230   9.575   3.783
  275POPC   PO4 3723   4.233  10.328   3.683
  275POPC   GL1 3724   4.147  10.274   4.141
  275POPC   GL2 3725   3.838  10.148   4.282
  275POPC   C1A 3726   4.278  10.339   4.588
  275POPC   D2A 3727   4.549   0.005   4.935
  275POPC   C3A 3728   4.664  10.332   5.376
  275POPC   C4A 3729   4.439  10.307   5.774
  275POPC   C1B 3730   3.942   9.966   4.688
  275POPC   C2B 3731   4.155  10.158   5.071
  275POPC   C3B 3732   4.044  10.107   5.510
  275POPC   C4B 3733   3.974  10.137   5.991
  276POPC   NC3 3734   6.555   8.791   4.024
  276POPC   PO4 3735   6.564   9.445   3.919
  276POPC   GL1 3736   6.563   9.243   4.292
  276POPC   GL2 3737   6.245   9.275   4.413
  276POPC   C1A 3738   6.645   9.253   4.749
  276POPC   D2A 3739   6.363   9.473   5.053
  276POPC   C3A 3740   6.458   9.492   5.502
  276POPC   C4A 3741   6.767   9.475   5.776
  276POPC   C1B 3742   6.064   9.638   4.625
  276POPC   C2B 3743   5.883   9.687   5.058
  276POPC   C3B 3744   5.968   9.456   5.441
  276POPC   C4B 3745   6.158   9.190   5.783
  277POPC   NC3 3746   1.333   5.343   3.915
  277POPC   PO4 3747   1.020   5.975   4.003
  277POPC   GL1 3748   1.055   5.586   4.267
  277POPC   GL2 3749   1.420   5.594   4.329
  277POPC   C1A 3750   1.097   5.338   4.670
  277POPC   D2A 3751   0.911   5.563   5.021
  277POPC   C3A 3752   1.062   5.449   5.439
  277POPC   C4A 3753   0.871   5.768   5.694
  277POPC   C1B 3754   1.298   5.802   4.678
  277POPC   C2B 3755   1.401   5.659   5.085
  277POPC   C3B 3756   1.280   5.886   5.415
  277POPC   C4B 3757   1.435   5.964   5.779
  278POPC   NC3 3758   1.179   3.860   3.680
  278POPC   PO4 3759   1.483   4.253   4.080
  278POPC   GL1 3760   1.244   4.165   4.386
  278POPC   GL2 3761   1.008   4.417   4.406
  278POPC   C1A 3762   1.399   4.139   4.798
  278POPC   D2A 3763   1.332   4.371   5.165
  278POPC   C3A 3764   1.393   4.072   5.480
  278POPC   C4A 3765   1.299   4.014   5.918
  278POPC   C1B 3766   0.895   4.197   4.779
  278POPC   C2B 3767   0.824   4.229   5.212
  278POPC   C3B 3768   0.895   4.274   5.644
  278POPC   C4B 3769   0.794   4.036   5.995
  279POPC   NC3 3770  10.055   1.507   3.838
  279POPC   PO4 3771  10.396   2.071   3.872
  279POPC   GL1 3772  10.157   1.921   4.221
  279POPC   GL2 3773   9.973   2.231   4.353
  279POPC   C1A 3774  10.274   1.895   4.653
  279POPC   D2A 3775  10.421   1.641   4.998
  279POPC   C3A 3776   0.073   1.718   5.369
  279POPC   C4A 3777  10.433   1.655   5.749
  279POPC   C1B 3778   9.955   2.295   4.781
  279POPC   C2B 3779  10.071   2.033   5.093
  279POPC   C3B 3780  10.183   2.064   5.477
  279POPC   C4B 3781  10.032   1.944   5.861
  280POPC   NC3 3782   9.275   3.999   4.055
  280POPC   PO4 3783   9.795   4.154   3.657
  280POPC   GL1 3784   9.716   4.244   4.159
  280POPC   GL2 3785   9.582   4.518   4.257
  280POPC   C1A 3786   9.466   4.129   4.630
  280POPC   D2A 3787   9.266   4.026   5.040
  280POPC   C3A 3788   9.426   4.186   5.443
  280POPC   C4A 3789   9.538   3.988   5.857
  280POPC   C1B 3790   9.477   4.643   4.678
  280POPC   C2B 3791   9.252   4.591   5.039
  280POPC   C3B 3792   9.044   4.608   5.403
  280POPC   C4B 3793   9.112   4.406   5.785
  281POPC   NC3 3794   2.622   7.788   3.808
  281POPC   PO4 3795   2.181   8.347   3.986
  281POPC   GL1 3796   2.482   8.033   4.240
  281POPC   GL2 3797   2.528   7.630   4.265
  281POPC   C1A 3798   2.625   8.129   4.676
  281POPC   D2A 3799   2.745   8.132   5.137
  281POPC   C3A 3800   2.394   8.144   5.448
  281POPC   C4A 3801   2.355   7.934   5.849
  281POPC   C1B 3802   2.763   7.643   4.661
  281POPC   C2B 3803   2.580   7.620   5.044
  281POPC   C3B 3804   2.647   7.717   5.442
  281POPC   C4B 3805   2.731   7.587   5.820
  282POPC   NC3 3806   0.628   6.211   3.999
  282POPC   PO4 3807   0.182   6.658   4.051
  282POPC   GL1 3808   0.406   6.501   4.366
  282POPC   GL2 3809   0.648   6.740   4.330
  282POPC   C1A 3810   0.335   6.530   4.797
  282POPC   D2A 3811   0.239   6.238   5.104
  282POPC   C3A 3812   0.134   6.385   5.506
  282POPC   C4A 3813   0.378   6.584   5.742
  282POPC   C1B 3814   0.843   6.651   4.705
  282POPC   C2B 3815   0.790   6.521   5.112
  282POPC   C3B 3816   0.750   6.750   5.455
  282POPC   C4B 3817   0.881   6.679   5.880
  283POPC   NC3 3818  10.049   7.661   3.597
  283POPC   PO4 3819  10.441   7.610   4.113
  283POPC   GL1 3820  10.070   7.634   4.361
  283POPC   GL2 3821  10.014   7.901   4.237
  283POPC   C1A 3822   9.907   7.895   4.735
  283POPC   D2A 3823  10.093   7.927   5.115
  283POPC   C3A 3824  10.113   7.597   5.405
  283POPC   C4A 3825  10.329   7.425   5.736
  283POPC   C1B 3826  10.362   8.064   4.540
  283POPC   C2B 3827  10.477   8.252   4.917
  283POPC   C3B 3828  10.450   8.201   5.353
  283POPC   C4B 3829  10.179   8.017   5.682
  284POPC   NC3 3830   8.451   7.133   4.127
  284POPC   PO4 3831   8.949   6.957   3.729
  284POPC   GL1 3832   8.938   7.117   4.208
  284POPC   GL2 3833   8.815   7.465   4.302
  284POPC   C1A 3834   8.839   6.985   4.655
  284POPC   D2A 3835   8.762   7.057   5.100
  284POPC   C3A 3836   9.031   7.307   5.355
  284POPC   C4A 3837   9.167   7.463   5.756
  284POPC   C1B 3838   8.570   7.428   4.727
  284POPC   C2B 3839   8.324   7.308   5.125
  284POPC   C3B 3840   8.435   7.165   5.508
  284POPC   C4B 3841   8.635   7.537   5.554
  285POPC   NC3 3842   6.478   0.280   3.922
  285POPC   PO4 3843   6.140   1.024   3.921
  285POPC   GL1 3844   6.252   0.593   4.237
  285POPC   GL2 3845   6.637   0.496   4.338
  285POPC   C1A 3846   6.103   0.501   4.677
  285POPC   D2A 3847   5.973   0.442   5.131
  285POPC   C3A 3848   6.230   0.676   5.432
  285POPC   C4A 3849   6.171   0.685   5.863
  285POPC   C1B 3850   6.568   0.254   4.669
  285POPC   C2B 3851   6.510   0.445   5.053
  285POPC   C3B 3852   6.593   0.294   5.445
  285POPC   C4B 3853   6.539   0.346   5.834
  286POPC   NC3 3854   4.445   9.302   4.159
  286POPC   PO4 3855   3.842   9.740   3.943
  286POPC   GL1 3856   4.186   9.757   4.259
  286POPC   GL2 3857   4.083   9.480   4.482
  286POPC   C1A 3858   4.435   9.815   4.640
  286POPC   D2A 3859   4.238   9.648   5.007
  286POPC   C3A 3860   4.432   9.807   5.367
  286POPC   C4A 3861   4.270   9.725   5.761
  286POPC   C1B 3862   4.253   9.163   4.777
  286POPC   C2B 3863   4.153   9.004   5.181
  286POPC   C3B 3864   4.260   9.240   5.544
  286POPC   C4B 3865   3.949   9.322   5.862
  287POPC   NC3 3866   8.502   4.061   3.942
  287POPC   PO4 3867   9.056   4.400   4.179
  287POPC   GL1 3868   8.652   4.411   4.269
  287POPC   GL2 3869   8.710   4.083   4.405
  287POPC   C1A 3870   8.382   4.411   4.609
  287POPC   D2A 3871   8.561   4.179   4.924
  287POPC   C3A 3872   8.356   4.082   5.303
  287POPC   C4A 3873   8.442   4.215   5.719
  287POPC   C1B 3874   8.954   3.790   4.647
  287POPC   C2B 3875   8.808   3.778   5.063
  287POPC   C3B 3876   8.867   4.074   5.405
  287POPC   C4B 3877   9.033   3.912   5.779
  288POPC   NC3 3878   8.137   1.752   3.691
  288POPC   PO4 3879   7.571   2.031   3.924
  288POPC   GL1 3880   7.757   2.160   4.291
  288POPC   GL2 3881   8.043   1.983   4.319
  288POPC   C1A 3882   7.717   2.067   4.732
  288POPC   D2A 3883   7.738   2.351   5.053
  288POPC   C3A 3884   7.771   2.106   5.402
  288POPC   C4A 3885   7.545   2.050   5.745
  288POPC   C1B 3886   8.063   1.714   4.726
  288POPC   C2B 3887   8.291   1.635   5.098
  288POPC   C3B 3888   8.139   1.549   5.531
  288POPC   C4B 3889   8.009   1.807   5.870
  289POPC   NC3 3890   9.847   2.161   3.876
  289POPC   PO4 3891   9.558   1.536   3.767
  289POPC   GL1 3892   9.629   1.773   4.131
  289POPC   GL2 3893   9.377   1.602   4.297
  289POPC   C1A 3894   9.777   1.806   4.578
  289POPC   D2A 3895   9.639   1.767   4.991
  289POPC   C3A 3896   9.632   1.934   5.401
  289POPC   C4A 3897   9.545   1.788   5.774
  289POPC   C1B 3898   9.204   1.740   4.665
  289POPC   C2B 3899   9.147   1.752   5.091
  289POPC   C3B 3900   9.115   1.873   5.506
  289POPC   C4B 3901   9.248   2.260   5.706
  290POPC   NC3 3902   3.308   8.328   3.671
  290POPC   PO4 3903   3.000   7.815   4.085
  290POPC   GL1 3904   3.369   7.890   4.306
  290POPC   GL2 3905   3.405   7.526   4.307
  290POPC   C1A 3906   3.428   8.196   4.701
  290POPC   D2A 3907   3.270   8.261   5.149
  290POPC   C3A 3908   3.501   8.153   5.546
  290POPC   C4A 3909   3.799   8.119   5.911
  290POPC   C1B 3910   3.282   7.687   4.752
  290POPC   C2B 3911   3.396   7.734   5.194
  290POPC   C3B 3912   3.163   7.780   5.579
  290POPC   C4B 3913   2.884   8.100   5.677
  291POPC   NC3 3914   0.362   5.106   3.914
  291POPC   PO4 3915   0.100   4.511   3.936
  291POPC   GL1 3916   0.240   4.717   4.290
  291POPC   GL2 3917   0.238   5.093   4.408
  291POPC   C1A 3918   0.041   4.716   4.682
  291POPC   D2A 3919   0.170   4.865   5.032
  291POPC   C3A 3920   0.027   4.796   5.428
  291POPC   C4A 3921   0.127   5.158   5.705
  291POPC   C1B 3922   0.581   4.900   4.616
  291POPC   C2B 3923   0.642   4.695   5.018
  291POPC   C3B 3924   0.549   4.912   5.404
  291POPC   C4B 3925   0.653   4.730   5.777
  292POPC   NC3 3926   0.944   8.595   3.823
  292POPC   PO4 3927   0.652   9.186   3.958
  292POPC   GL1 3928   0.873   8.916   4.258
  292POPC   GL2 3929   1.251   8.871   4.306
  292POPC   C1A 3930   0.913   8.702   4.671
  292POPC   D2A 3931   0.702   8.630   5.081
  292POPC   C3A 3932   0.915   8.637   5.478
  292POPC   C4A 3933   0.879   8.885   5.863
  292POPC   C1B 3934   1.448   8.875   4.726
  292POPC   C2B 3935   1.382   8.606   5.101
  292POPC   C3B 3936   1.574   8.671   5.506
  292POPC   C4B 3937   1.377   9.015   5.714
  293POPC   NC3 3938   7.924   9.777   3.997
  293POPC   PO4 3939   7.902   9.211   3.661
  293POPC   GL1 3940   7.935   9.187   4.178
  293POPC   GL2 3941   7.949   9.494   4.404
  293POPC   C1A 3942   7.988   9.076   4.671
  293POPC   D2A 3943   8.158   9.395   5.013
  293POPC   C3A 3944   8.195   9.286   5.467
  293POPC   C4A 3945   8.201   9.707   5.696
  293POPC   C1B 3946   7.686   9.476   4.742
  293POPC   C2B 3947   7.697   9.246   5.108
  293POPC   C3B 3948   7.792   9.572   5.419
  293POPC   C4B 3949   7.803   9.361   5.813
  294POPC   NC3 3950   3.457   1.150   3.799
  294POPC   PO4 3951   3.216   0.822   4.329
  294POPC   GL1 3952   3.530   1.044   4.411
  294POPC   GL2 3953   3.532   1.387   4.289
  294POPC   C1A 3954   3.513   1.069   4.848
  294POPC   D2A 3955   3.737   0.941   5.160
  294POPC   C3A 3956   3.447   0.842   5.434
  294POPC   C4A 3957   3.376   1.061   5.823
  294POPC   C1B 3958   3.566   1.567   4.686
  294POPC   C2B 3959   3.689   1.472   5.093
  294POPC   C3B 3960   3.612   1.335   5.477
  294POPC   C4B 3961   3.512   1.535   5.855
  295POPC   NC3 3962   3.069   8.265   4.142
  295POPC   PO4 3963   3.480   8.742   3.842
  295POPC   GL1 3964   3.534   8.545   4.227
  295POPC   GL2 3965   3.217   8.702   4.346
  295POPC   C1A 3966   3.632   8.718   4.628
  295POPC   D2A 3967   3.457   8.790   5.014
  295POPC   C3A 3968   3.531   8.633   5.409
  295POPC   C4A 3969   3.140   8.533   5.584
  295POPC   C1B 3970   3.236   9.060   4.621
  295POPC   C2B 3971   3.187   9.212   5.041
  295POPC   C3B 3972   3.232   9.025   5.429
  295POPC   C4B 3973   3.494   9.086   5.747
  296POPC   NC3 3974   2.940   7.361   4.068
  296POPC   PO4 3975   3.440   7.004   4.111
  296POPC   GL1 3976   3.105   7.046   4.427
  296POPC   GL2 3977   2.759   6.921   4.260
  296POPC   C1A 3978   3.064   7.233   4.852
  296POPC   D2A 3979   3.006   7.391   5.286
  296POPC   C3A 3980   3.032   7.187   5.736
  296POPC   C4A 3981   2.925   7.188   6.212
  296POPC   C1B 3982   2.611   7.170   4.617
  296POPC   C2B 3983   2.600   7.107   5.065
  296POPC   C3B 3984   2.568   7.220   5.496
  296POPC   C4B 3985   2.513   7.106   5.931
  297POPC   NC3 3986   1.429   6.230   3.940
  297POPC   PO4 3987   0.869   6.709   3.858
  297POPC   GL1 3988   1.103   6.520   4.224
  297POPC   GL2 3989   0.900   6.258   4.411
  297POPC   C1A 3990   1.348   6.337   4.614
  297POPC   D2A 3991   1.188   6.183   5.014
  297POPC   C3A 3992   1.284   6.386   5.419
  297POPC   C4A 3993   1.355   6.466   5.845
  297POPC   C1B 3994   0.701   6.117   4.791
  297POPC   C2B 3995   0.741   6.024   5.253
  297POPC   C3B 3996   0.847   6.260   5.617
  297POPC   C4B 3997   1.011   6.160   6.037
  298POPC   NC3 3998   0.716   5.638   3.865
  298POPC   PO4 3999   0.221   6.162   3.740
  298POPC   GL1 4000   0.210   6.025   4.205
  298POPC   GL2 4001   0.560   5.844   4.336
  298POPC   C1A 4002   0.196   5.957   4.657
  298POPC   D2A 4003   0.407   5.743   4.989
  298POPC   C3A 4004   0.235   5.817   5.374
  298POPC   C4A 4005   0.412   6.042   5.728
  298POPC   C1B 4006   0.587   5.451   4.589
  298POPC   C2B 4007   0.508   5.243   4.987
  298POPC   C3B 4008   0.555   5.416   5.394
  298POPC   C4B 4009   0.423   5.545   5.783
  299POPC   NC3 4010   1.260   0.572   3.666
  299POPC   PO4 4011   0.897   0.159   4.010
  299POPC   GL1 4012   1.231   0.201   4.304
  299POPC   GL2 4013   1.408   0.544   4.238
  299POPC   C1A 4014   1.097   0.281   4.739
  299POPC   D2A 4015   1.189   0.161   5.153
  299POPC   C3A 4016   1.173   0.336   5.540
  299POPC   C4A 4017   1.519   0.069   5.714
  299POPC   C1B 4018   1.421   0.664   4.673
  299POPC   C2B 4019   1.191   0.681   5.059
  299POPC   C3B 4020   1.277   0.861   5.443
  299POPC   C4B 4021   1.157   0.761   5.839
  300POPC   NC3 4022   3.937   8.657   3.921
  300POPC   PO4 4023   4.466   8.219   4.058
  300POPC   GL1 4024   4.163   8.451   4.323
  300POPC   GL2 4025   4.096   8.801   4.407
  300POPC   C1A 4026   3.928   8.336   4.681
  300POPC   D2A 4027   3.906   8.559   5.078
  300POPC   C3A 4028   3.970   8.362   5.476
  300POPC   C4A 4029   4.299   8.230   5.707
  300POPC   C1B 4030   4.317   8.650   4.787
  300POPC   C2B 4031   4.415   8.491   5.219
  300POPC   C3B 4032   4.331   8.722   5.600
  300POPC   C4B 4033   3.923   8.860   5.645
  301POPC   NC3 4034   9.746   0.971   3.890
  301POPC   PO4 4035  10.422   1.089   3.772
  301POPC   GL1 4036  10.351   1.232   4.180
  301POPC   GL2 4037  10.192   0.941   4.256
  301POPC   C1A 4038  10.266   1.386   4.601
  301POPC   D2A 4039   9.963   1.365   4.967
  301POPC   C3A 4040  10.010   1.599   5.371
  301POPC   C4A 4041   9.988   1.435   5.804
  301POPC   C1B 4042  10.398   0.891   4.655
  301POPC   C2B 4043  10.417   1.125   5.003
  301POPC   C3B 4044  10.333   1.221   5.375
  301POPC   C4B 4045  10.422   1.140   5.763
  302W        W 4046  10.391   3.559   8.988
  303W        W 4047   3.403   7.470   2.203
  304W        W 4048   7.999   2.758   1.848
  305W        W 4049   6.074   0.512   0.261
  306W        W 4050   9.053   2.387   8.552
  307W        W 4051   9.868   3.082   8.670
  308W        W 4052   8.194   5.503   9.725
  309W        W 4053   2.265   3.559   0.846
  310W        W 4054  10.067   3.183   0.957
  311W        W 4055   0.276   7.397  10.519
  312W        W 4056   5.251   1.900   2.183
  313W        W 4057   9.689   7.171   9.603
  314W        W 4058   9.894   7.962   8.976
  315W        W 4059   8.433   5.667   0.081
  316W        W 4060   8.954   0.881   3.250
  317W        W 4061   5.268   6.443   1.669
  318W        W 4062   8.010   6.170   1.470
  319W        W 4063   5.651  10.450  11.912
  320W        W 4064   6.517  10.331   1.442
  321W        W 4065   1.849   5.693  11.746
  322W        W 4066   3.513   6.670  11.481
  323W        W 4067   6.431   8.057   0.340
  324W        W 4068   8.967   7.692   9.865
  325W        W 4069   0.981   1.862   9.797
  326W        W 4070  10.323   1.781   9.116
  327W        W 4071   4.616   0.761  10.122
  328W        W 4072  10.007   8.585  10.922
  329W        W 4073   9.741   2.281   0.738
  330W        W 4074   1.960   6.926   2.828
  331W        W 4075   1.379   7.001   1.775
  332W        W 4076   9.537   2.104  11.781
  333W        W 4077   6.342   3.130   9.999
  334W        W 4078   2.157   2.876   2.541
  335W        W 4079   0.427   1.002   9.421
  336W        W 4080   8.731   2.221   2.186
  337W        W 4081   8.899   8.835  10.592
  338W        W 4082   4.970   0.465   1.509
  339W        W 4083   2.725   9.483  11.143
  340W        W 4084   3.514   7.385   2.965
  341W        W 4085   9.049   0.870   2.727
  342W        W 4086   1.352   2.566   0.094
  343W        W 4087   2.337   4.755   2.646
  344W        W 4088   6.754   0.141   3.515
  345W        W 4089  10.462   4.203   9.667
  346W        W 4090   7.019  10.310   1.727
  347W        W 4091   7.408   3.678   9.887
  348W        W 4092   1.643   6.787  10.307
  349W        W 4093  10.259   5.070   2.012
  350W        W 4094   8.444   5.604   0.612
  351W        W 4095   3.576   6.899  11.025
  352W        W 4096   6.982   4.113   1.894
  353W        W 4097   4.688   4.175  10.389
  354W        W 4098   8.509   7.629   9.089
  355W        W 4099   5.149  10.096  10.709
  356W        W 4100   8.546   7.648   9.602
  357W        W 4101   6.420   9.134   2.062
  358W        W 4102   2.265   1.300   1.709
  359W        W 4103   7.582   4.690   9.363
  360W        W 4104   0.888   0.843   0.294
  361W        W 4105   4.797   8.442   9.706
  362W        W 4106   5.296   4.783   0.328
  363W        W 4107   8.398   3.179   1.928
  364W        W 4108   0.439   0.794   1.394
  365W        W 4109   8.902   8.149   0.221
  366W        W 4110   5.181   3.039  11.381
  367W        W 4111   9.581   2.666   3.509
  368W        W 4112   2.137   1.733   3.105
  369W        W 4113   4.853   0.942   1.760
  370W        W 4114   8.471   0.195   1.756
  371W        W 4115   8.984   9.110  10.159
  372W        W 4116   9.257   1.387   1.101
  373W        W 4117   8.031   6.042   2.896
  374W        W 4118   6.158   3.719   0.686
  375W        W 4119   4.916   7.932   0.229
  376W        W 4120   8.715   9.769  10.959
  377W        W 4121   0.939   8.634   9.469
  378W        W 4122   5.691   9.427  10.205
  379W        W 4123   1.029   7.170   2.582
  380W        W 4124   1.914   0.959   1.766
  381W        W 4125   4.581   9.899   9.801
  382W        W 4126   6.701   9.700  11.723
  383W        W 4127   0.946   4.668   2.981
  384W        W 4128   7.131   3.547  10.474
  385W        W 4129   8.115   7.327   1.660
  386W        W 4130   4.802   2.193   2.930
  387W        W 4131   9.658   9.856   0.739
  388W        W 4132   8.496   9.563   3.034
  389W        W 4133   6.687   4.583   9.171
  390W        W 4134   7.022   9.449  10.239
  391W        W 4135   0.775   7.739   0.016
  392W        W 4136   5.438   7.586  10.494
  393W        W 4137   7.502   6.261  11.813
  394W        W 4138   1.626   0.546   1.742
  395W        W 4139   7.933   1.164   2.994
  396W        W 4140   0.930   3.765   8.785
  397W        W 4141   3.516   2.393  11.365
  398W        W 4142   4.050   9.630   9.788
  399W        W 4143   3.081   5.288   2.791
  400W        W 4144   7.204   4.353   3.332
  401W        W 4145   9.419   8.066   2.566
  402W        W 4146   7.695   1.429   9.492
  403W        W 4147   2.215   5.580   8.477
  404W        W 4148   8.176   3.760   2.893
  405W        W 4149   9.781   8.589   1.527
  406W        W 4150   7.573   4.644   3.157
  407W        W 4151   0.759  10.354   0.666
  408W        W 4152   2.628   2.734   2.271
  409W        W 4153   8.126   9.283   9.306
  410W        W 4154   1.743   4.498   8.689
  411W        W 4155   0.389   4.350   9.934
  412W        W 4156   7.893  10.269  10.574
  413W        W 4157   1.192   9.164  11.192
  414W        W 4158   7.041   8.194  11.939
  415W        W 4159   1.272   3.599   9.613
  416W        W 4160   6.358   9.773  11.318
  417W        W 4161   3.654   0.464   0.489
  418W        W 4162   9.246   7.177   2.942
  419W        W 4163   6.688   9.387  11.226
  420W        W 4164   8.070   1.250  10.131
  421W        W 4165   7.863   0.437   0.011
  422W        W 4166   7.733   2.704   8.809
  423W        W 4167  10.081   3.363   3.358
  424W        W 4168   0.971  10.483   1.777
  425W        W 4169   4.168   2.500  11.767
  426W        W 4170   4.743   4.113   2.203
  427W        W 4171   5.328   6.106   3.349
  428W        W 4172   7.452   8.531   3.648
  429W        W 4173   2.027   0.861   3.424
  430W        W 4174   4.292   0.864   1.868
  431W        W 4175  10.089   6.837  11.771
  432W        W 4176   1.979   9.126   1.250
  433W        W 4177   7.519   7.680   2.711
  434W        W 4178   1.775   2.106   0.377
  435W        W 4179   9.928   2.792  10.069
  436W        W 4180   0.227   4.646   9.546
  437W        W 4181   4.435   3.188   3.647
  438W        W 4182   6.516   5.026  11.572
  439W        W 4183   7.993   1.620   3.218
  440W        W 4184   1.877   0.617   8.916
  441W        W 4185   5.013   6.678   0.299
  442W        W 4186   3.761   3.740   1.958
  443W        W 4187   4.114   8.514  10.931
  444W        W 4188   1.254   0.449   2.819
  445W        W 4189   4.559   1.738   1.893
  446W        W 4190   8.208   5.751   9.217
  447W        W 4191   6.910   9.905   0.358
  448W        W 4192   3.446   0.766   0.869
  449W        W 4193   9.563   5.541   2.156
  450W        W 4194   6.666   9.943   3.061
  451W        W 4195   8.921   4.286   3.708
  452W        W 4196   5.082   5.250  11.410
  453W        W 4197   6.795   9.463   2.933
  454W        W 4198  10.305  10.359   2.490
  455W        W 4199   8.392   0.226  11.332
  456W        W 4200   2.862   1.284   8.797
  457W        W 4201   6.084   3.790  11.202
  458W        W 4202   0.767   8.621   1.764
  459W        W 4203   2.193   7.195   1.257
  460W        W 4204   9.491   9.571   2.481
  461W        W 4205   6.682   4.098  11.836
  462W        W 4206   6.941   4.142   9.292
  463W        W 4207   3.142   2.356   2.878
  464W        W 4208   8.173   3.739   0.289
  465W        W 4209   1.767   2.270  11.862
  466W        W 4210   8.032   1.206   3.489
  467W        W 4211   1.497  10.318  11.888
  468W        W 4212   5.487   6.648   9.411
  469W        W 4213   2.092   0.812   0.883
  470W        W 4214   5.952   8.172   0.507
  471W        W 4215  10.372   2.012   1.553
  472W        W 4216   6.633   4.080   9.692
  473W        W 4217   9.035   0.289   9.145
  474W        W 4218   8.011   4.663   2.897
  475W        W 4219   5.127   2.518   1.733
  476W        W 4220   3.111   8.197   2.637
  477W        W 4221   7.413   8.936  11.734
  478W        W 4222   2.886   0.349  11.816
  479W        W 4223  10.377   0.214   1.661
  480W        W 4224   1.955   0.872   0.388
  481W        W 4225   9.283   8.395   3.551
  482W        W 4226   9.832   6.421   9.030
  483W        W 4227   6.042   9.176  11.933
  484W        W 4228   9.380   6.620  10.871
  485W        W 4229   7.557   8.823   9.282
  486W        W 4230   2.386   4.236   9.876
  487W        W 4231   5.492   3.280   1.263
  488W        W 4232   4.497   9.952  11.323
  489W        W 4233   5.239   3.733   1.167
  490W        W 4234   5.030   0.739   9.793
  491W        W 4235   5.088   0.800   9.292
  492W        W 4236   1.276   4.971   3.531
  493W        W 4237   8.119   4.178  10.025
  494W        W 4238   2.888   2.239   3.342
  495W        W 4239   8.537   8.436  11.464
  496W        W 4240   9.792   2.342  10.299
  497W        W 4241   2.309   6.280   8.799
  498W        W 4242   5.963   6.294   9.481
  499W        W 4243   6.132   3.736   1.198
  500W        W 4244   2.797   7.415   1.000
  501W        W 4245   9.324   5.155  10.507
  502W        W 4246   6.858   2.116   1.666
  503W        W 4247   7.214   5.336   2.101
  504W        W 4248   6.119   6.015   2.531
  505W        W 4249   3.311   1.355   2.481
  506W        W 4250   0.085   3.898   0.788
  507W        W 4251   0.173   1.270   2.279
  508W        W 4252  10.060   3.973   8.735
  509W        W 4253   7.400   5.953   8.124
  510W        W 4254   2.761   5.886   9.480
  511W        W 4255  10.145   4.261  10.076
  512W        W 4256   2.152   5.181   2.922
  513W        W 4257   3.819   2.793  11.525
  514W        W 4258   8.315   6.498   0.041
  515W        W 4259   6.866   0.118  10.845
  516W        W 4260   6.652   4.546   1.901
  517W        W 4261   5.642   6.518   3.256
  518W        W 4262   6.131   3.694   2.833
  519W        W 4263   7.712   3.572   2.909
  520W        W 4264   6.574   5.949   1.819
  521W        W 4265   4.601   5.453   2.412
  522W        W 4266   2.907   3.236   0.374
  523W        W 4267   5.153   0.843   0.659
  524W        W 4268   1.429   7.595   1.142
  525W        W 4269   2.805   2.747  11.709
  526W        W 4270   6.534   1.426   2.715
  527W        W 4271   1.821   5.893   9.407
  528W        W 4272   3.551   2.496   2.224
  529W        W 4273   9.998   0.037  10.450
  530W        W 4274   6.516   1.668  10.068
  531W        W 4275   5.814   6.232   4.209
  532W        W 4276   6.707   7.030   0.104
  533W        W 4277   7.715   4.321  11.837
  534W        W 4278   9.339   8.579   9.487
  535W        W 4279   9.075  10.227  10.883
  536W        W 4280   9.125   4.674  10.565
  537W        W 4281   4.216   1.258  10.596
  538W        W 4282   9.903   4.744   1.216
  539W        W 4283   1.673   6.109   0.752
  540W        W 4284   9.647   4.154  10.053
  541W        W 4285   3.454   2.328   3.271
  542W        W 4286   0.453   5.250   9.788
  543W        W 4287   0.377   4.517   2.432
  544W        W 4288   2.400   6.035  10.311
  545W        W 4289   5.558  10.461  10.463
  546W        W 4290   1.922   0.680   2.195
  547W        W 4291   7.674   3.547   8.921
  548W        W 4292   7.970   1.880   9.330
  549W        W 4293   6.639   5.459   0.461
  550W        W 4294   9.806   7.175  10.538
  551W        W 4295  10.159   4.656  10.403
  552W        W 4296   3.757   6.635  10.635
  553W        W 4297   9.587   2.628   3.018
  554W        W 4298   7.556   1.140  11.471
  555W        W 4299   6.606   8.629   2.700
  556W        W 4300   4.568   1.797   3.357
  557W        W 4301   5.026   2.772   8.007
  558W        W 4302   4.188   0.579   9.901
  559W        W 4303   6.466   5.681   2.257
  560W        W 4304   8.897   5.047   9.532
  561W        W 4305   8.911   2.154   0.506
  562W        W 4306   8.498   2.754   2.214
  563W        W 4307   2.171   4.711   9.874
  564W        W 4308   1.388   0.717   0.347
  565W        W 4309   7.881   7.441   1.214
  566W        W 4310   6.907   3.153   1.204
  567W        W 4311  10.109   5.057  10.077
  568W        W 4312   0.795   2.778   9.710
  569W        W 4313   5.214   4.313   2.310
  570W        W 4314   1.199   4.767   9.622
  571W        W 4315   6.583   5.882   0.195
  572W        W 4316   2.018   8.022  11.923
  573W        W 4317   4.724   4.954  11.640
  574W        W 4318   0.649   1.684   1.732
  575W        W 4319   7.096   5.588  11.924
  576W        W 4320   3.336   1.911   2.174
  577W        W 4321   8.854   4.238   1.536
  578W        W 4322   0.351   9.888   1.774
  579W        W 4323   0.474   5.644   1.888
  580W        W 4324   8.480   8.860   8.767
  581W        W 4325   6.063   6.948   2.765
  582W        W 4326   6.245   6.540   9.857
  583W        W 4327   2.722   5.199   3.177
  584W        W 4328   7.146   6.534   9.383
  585W        W 4329   3.761   2.572   0.063
  586W        W 4330   3.258   8.229   0.561
  587W        W 4331   9.347   7.316   9.209
  588W        W 4332   6.678   9.241   0.671
  589W        W 4333   3.102   3.275   2.556
  590W        W 4334   9.416   7.539   2.474
  591W        W 4335   9.054   4.108   0.402
  592W        W 4336   4.502   4.106   0.666
  593W        W 4337   5.201   7.079   9.321
  594W        W 4338   5.109   9.936   9.045
  595W        W 4339   1.977   6.745   9.909
  596W        W 4340   3.761   6.033  10.460
  597W        W 4341   5.950   9.700   3.411
  598W        W 4342   9.436   3.771   0.448
  599W        W 4343   0.874   0.332  10.502
  600W        W 4344   2.309   4.570   0.998
  601W        W 4345   6.660   1.785   8.659
  602W        W 4346   2.637   3.607   3.404
  603W        W 4347   7.693   3.826   3.893
  604W        W 4348   6.045   3.222  10.797
  605W        W 4349   1.307   3.813   9.144
  606W        W 4350   9.538   4.739   1.963
  607W        W 4351   0.880   8.339  11.195
  608W        W 4352   3.614   1.602   3.410
  609W        W 4353   1.255   7.484   8.840
  610W        W 4354   4.785   1.033   1.210
  611W        W 4355   7.694   2.832   1.362
  612W        W 4356   1.334   2.395  11.049
  613W        W 4357   4.616   2.158  10.586
  614W        W 4358   3.246   9.747   9.159
  615W        W 4359   9.288   6.293   9.815
  616W        W 4360   4.093   8.392   9.068
  617W        W 4361   6.979   1.842  11.010
  618W        W 4362   4.116   6.000  11.783
  619W        W 4363   3.417   0.991   2.124
  620W        W 4364   9.062   1.676   0.653
  621W        W 4365   5.150   3.843   0.665
  622W        W 4366   3.368   5.001   9.836
  623W        W 4367   2.126   5.687  10.011
  624W        W 4368   4.564   2.798   8.813
  625W        W 4369   1.593   0.227   9.065
  626W        W 4370   6.918   7.015   3.510
  627W        W 4371   7.673   1.046   9.835
  628W        W 4372   2.400   7.368   0.230
  629W        W 4373   7.615   4.124  10.024
  630W        W 4374   6.135   8.358   1.875
  631W        W 4375   4.795   4.588   2.434
  632W        W 4376   7.260   3.623  11.968
  633W        W 4377   3.606   6.141   2.680
  634W        W 4378   4.751   7.355   0.971
  635W        W 4379   2.430   6.503  10.056
  636W        W 4380   7.500   0.831  11.858
  637W        W 4381   5.048   6.503  10.333
  638W        W 4382   3.208  10.300  11.405
  639W        W 4383   9.861   8.473   9.053
  640W        W 4384   9.201   5.735   0.698
  641W        W 4385   0.365   5.954   0.386
  642W        W 4386  10.145   2.803   1.742
  643W        W 4387   5.525   5.128  10.921
  644W        W 4388   2.145   2.077   9.944
  645W        W 4389   3.275   8.386  10.502
  646W        W 4390   4.749   0.029   1.994
  647W        W 4391  10.083   8.291   9.951
  648W        W 4392   5.672   4.143   9.526
  649W        W 4393   4.022   2.336   2.378
  650W        W 4394   4.506   4.194   1.180
  651W        W 4395   7.996  10.417   0.430
  652W        W 4396   9.480   6.741   9.939
  653W        W 4397   0.047   6.557  11.062
  654W        W 4398   1.765   6.950   3.301
  655W        W 4399   9.016   4.251   1.003
  656W        W 4400   1.934   8.791  10.507
  657W        W 4401   8.630   7.209   2.305
  658W        W 4402   9.836   1.368   0.253
  659W        W 4403   3.311   5.073   8.374
  660W        W 4404   2.317   2.102   0.979
  661W        W 4405   9.322   7.688   2.959
  662W        W 4406   6.755   5.993   8.714
  663W        W 4407   5.236   5.783   9.083
  664W        W 4408   7.605   5.696   2.142
  665W        W 4409   4.843   2.676  11.267
  666W        W 4410   9.090   2.356   1.354
  667W        W 4411   5.665   5.613   1.087
  668W        W 4412   5.901   8.626   1.504
  669W        W 4413   4.031   3.259   2.281
  670W        W 4414   6.108   0.332   2.497
  671W        W 4415   9.482   9.454   8.954
  672W        W 4416   3.829   0.035   1.705
  673W        W 4417   4.976   3.231   3.642
  674W        W 4418  10.067   3.628   1.726
  675W        W 4419   1.224   4.207   1.949
  676W        W 4420   0.494   3.419   3.453
  677W        W 4421   8.042   8.624  11.008
  678W        W 4422   6.514   3.598  11.727
  679W        W 4423   5.378  10.373   2.935
  680W        W 4424   5.052   6.065   1.411
  681W        W 4425   7.997   1.748   0.817
  682W        W 4426   0.828   0.949  11.805
  683W        W 4427   9.829   6.977   0.942
  684W        W 4428   1.957   3.684  11.923
  685W        W 4429   6.549   0.537   2.223
  686W        W 4430   0.312   2.070   1.833
  687W        W 4431   0.356   3.959  10.536
  688W        W 4432   6.231   4.689   0.514
  689W        W 4433   9.628   0.583   0.095
  690W        W 4434   0.514   4.741   1.965
  691W        W 4435   9.966   2.308   1.728
  692W        W 4436  10.244   7.780   9.790
  693W        W 4437   6.736   7.269   2.205
  694W        W 4438   0.859   8.608   2.254
  695W        W 4439   2.335   1.562   9.984
  696W        W 4440   8.638   6.526   1.908
  697W        W 4441   4.811   0.326   3.405
  698W        W 4442   1.891  10.480   3.393
  699W        W 4443   0.277   4.825  11.128
  700W        W 4444   7.188   1.876   8.579
  701W        W 4445   2.010   3.955   9.339
  702W        W 4446   3.767   7.639   2.600
  703W        W 4447   8.932   3.112   0.560
  704W        W 4448   7.788   3.117   3.125
  705W        W 4449   3.824   0.121   3.570
  706W        W 4450   7.973   8.331   3.076
  707W        W 4451   4.771   0.341   0.031
  708W        W 4452   5.220   6.023   1.936
  709W        W 4453   8.605   9.494   2.558
  710W        W 4454   1.267   5.737   8.592
  711W        W 4455   5.610   3.434   8.990
  712W        W 4456   7.910   5.234   9.122
  713W        W 4457   1.007   8.086   9.501
  714W        W 4458   2.307   7.000   8.896
  715W        W 4459   7.005  10.380   8.531
  716W        W 4460   7.134   7.396   1.872
  717W        W 4461   1.639  10.303   2.453
  718W        W 4462   3.211   0.337   0.787
  719W        W 4463   5.171   7.881  10.838
  720W        W 4464   7.100   4.223  10.927
  721W        W 4465   8.455   8.851   9.294
  722W        W 4466   5.683   8.923   2.190
  723W        W 4467   9.756   6.969   9.133
  724W        W 4468   5.118   7.155   0.474
  725W        W 4469   5.514   5.151   2.608
  726W        W 4470   6.442   7.434   0.371
  727W        W 4471   8.192   4.847   8.466
  728W        W 4472   6.416   7.445  11.222
  729W        W 4473   7.719   0.546   9.933
  730W        W 4474   1.401   1.416   1.737
  731W        W 4475   0.309   7.921   2.305
  732W        W 4476   1.580   8.407   1.642
  733W        W 4477   6.039   4.235  11.472
  734W        W 4478   0.090   4.705   0.427
  735W        W 4479   3.638   9.932   9.995
  736W        W 4480   9.528   5.270  10.989
  737W        W 4481   9.680   0.124   9.999
  738W        W 4482   3.783   1.911   0.423
  739W        W 4483   1.254   3.792   0.035
  740W        W 4484   0.419   5.736  11.036
  741W        W 4485   9.999   2.870   3.292
  742W        W 4486   1.150   7.800   3.294
  743W        W 4487   5.667   1.833   0.034
  744W        W 4488   2.094   9.250   8.887
  745W        W 4489   7.560   6.656   1.105
  746W        W 4490   5.655   9.568   8.859
  747W        W 4491   5.682   2.207   2.914
  748W        W 4492  10.046   3.509  10.718
  749W        W 4493   7.440   9.685   9.024
  750W        W 4494   1.759   7.591  11.820
  751W        W 4495   1.441   0.065  11.299
  752W        W 4496   4.330   6.662   1.608
  753W        W 4497   9.984   8.806  10.015
  754W        W 4498   0.573   0.011  10.798
  755W        W 4499   4.208  10.083   2.412
  756W        W 4500   5.338  10.073   9.532
  757W        W 4501   4.517   1.334   8.717
  758W        W 4502   0.446   0.824  10.995
  759W        W 4503   9.381   9.873   9.449
  760W        W 4504   2.063   3.178   0.028
  761W        W 4505   9.020   2.711  11.247
  762W        W 4506   7.237   7.914   9.116
  763W        W 4507   3.297   7.984   2.214
  764W        W 4508   1.354   1.980  10.726
  765W        W 4509   6.983   2.610   1.849
  766W        W 4510   8.969   3.116   0.058
  767W        W 4511   2.587  10.461   8.984
  768W        W 4512   2.169   8.955  11.796
  769W        W 4513   6.562   4.042   0.998
  770W        W 4514   9.859   9.977   9.268
  771W        W 4515   3.093   6.235   3.721
  772W        W 4516   1.689  10.402   1.292
  773W        W 4517   2.321   9.490   2.761
  774W        W 4518   9.612   8.446   0.305
  775W        W 4519   3.351   1.926  10.355
  776W        W 4520   1.295   0.656   1.190
  777W        W 4521   7.401   8.170  10.072
  778W        W 4522   2.736   6.418  10.963
  779W        W 4523   3.790   4.787   0.566
  780W        W 4524   7.700   5.774   1.321
  781W        W 4525   6.187   7.046  11.474
  782W        W 4526   0.368   2.292   1.381
  783W        W 4527   6.158   5.485   0.988
  784W        W 4528   5.544   6.025  10.236
  785W        W 4529   5.056   3.321   2.211
  786W        W 4530   0.846   6.202  11.502
  787W        W 4531   5.767   1.247  10.256
  788W        W 4532   6.381   9.524   3.220
  789W        W 4533   5.589   6.739   2.806
  790W        W 4534   0.127   2.099   8.619
  791W        W 4535   4.290   3.071   1.857
  792W        W 4536   6.643   0.329   1.351
  793W        W 4537   2.717   5.592   9.034
  794W        W 4538   0.140   9.453   3.304
  795W        W 4539   3.242   0.761   1.706
  796W        W 4540   0.279   6.555  10.592
  797W        W 4541   3.101   4.251   2.796
  798W        W 4542   4.275   9.354   8.889
  799W        W 4543   1.263   1.905   2.976
  800W        W 4544   2.997   4.301   8.569
  801W        W 4545   8.271   1.068  11.000
  802W        W 4546   7.252   2.823   0.022
  803W        W 4547   5.183   6.514   1.174
  804W        W 4548   7.234   4.207   8.556
  805W        W 4549  10.008   3.974  10.908
  806W        W 4550   4.784   0.345  11.520
  807W        W 4551   4.162   2.769   9.604
  808W        W 4552   8.889   0.266   8.655
  809W        W 4553   6.789   5.344   1.292
  810W        W 4554   9.343   4.096   1.377
  811W        W 4555   8.972   7.922   1.788
  812W        W 4556   7.020   7.550  10.369
  813W        W 4557   0.954   0.819  10.223
  814W        W 4558   3.753   4.050   3.800
  815W        W 4559   4.675   9.340  10.947
  816W        W 4560   7.558   7.329   3.619
  817W        W 4561  10.255   9.492  10.476
  818W        W 4562   6.958   3.680   9.532
  819W        W 4563  10.233   7.446  10.532
  820W        W 4564   5.626   2.242  11.185
  821W        W 4565   1.063   1.426   8.991
  822W        W 4566   0.123   5.559   9.545
  823W        W 4567   5.129   0.947   3.490
  824W        W 4568   3.594   4.239   1.833
  825W        W 4569   3.774   7.856   2.100
  826W        W 4570   7.116   1.192   0.794
  827W        W 4571   5.984   8.371  11.493
  828W        W 4572   2.481   6.901   2.898
  829W        W 4573   6.701   1.491   2.227
  830W        W 4574   8.058   2.876  11.215
  831W        W 4575   4.499   1.631   0.885
  832W        W 4576   8.541   9.488  10.565
  833W        W 4577   2.689   2.634   9.417
  834W        W 4578   7.896  10.199  10.078
  835W        W 4579   2.583   0.757   3.427
  836W        W 4580   7.449   5.665   8.557
  837W        W 4581   7.934   6.552  11.188
  838W        W 4582   6.042   3.285   0.934
  839W        W 4583   5.622   6.744   1.926
  840W        W 4584   9.214   1.128   2.083
  841W        W 4585   7.121   4.725   0.233
  842W        W 4586   4.841   6.181   0.369
  843W        W 4587   1.085   9.677  11.307
  844W        W 4588   0.758   9.798   2.512
  845W        W 4589   4.768   4.721   0.420
  846W        W 4590   4.745   3.710   9.507
  847W        W 4591   2.227   7.358  11.756
  848W        W 4592   6.200   4.247  11.955
  849W        W 4593   9.809   9.978   3.248
  850W        W 4594   6.572   8.354  10.375
  851W        W 4595   2.887   2.679  10.295
  852W        W 4596   7.894   4.587   8.145
  853W        W 4597   3.334   5.760   2.840
  854W        W 4598   1.856   1.782   2.364
  855W        W 4599   3.092   6.501   2.148
  856W        W 4600   4.062   8.620  11.428
  857W        W 4601   3.335   8.585   1.450
  858W        W 4602   2.089   2.396   2.371
  859W        W 4603   7.754   2.478   9.990
  860W        W 4604   2.274   3.875   3.133
  861W        W 4605   6.683   7.077  11.428
  862W        W 4606   0.480   8.365   3.220
  863W        W 4607   2.771   6.018   0.064
  864W        W 4608   6.662   4.786   2.399
  865W        W 4609   1.304   7.277  11.658
  866W        W 4610   8.917   7.467  10.881
  867W        W 4611   1.179   9.306   3.113
  868W        W 4612   3.665   2.755  10.031
  869W        W 4613   8.064   6.460  10.705
  870W        W 4614   6.450   3.242   0.552
  871W        W 4615   8.666   3.586   2.048
  872W        W 4616   9.532   6.629   1.177
  873W        W 4617   4.175   9.811  10.953
  874W        W 4618   1.434   0.548   2.323
  875W        W 4619   7.890   3.283  10.486
  876W        W 4620   0.318   3.217   9.108
  877W        W 4621   1.759   5.054   3.238
  878W        W 4622   4.119   0.404  10.760
  879W        W 4623   2.587   6.558   2.153
  880W        W 4624   0.534   0.915   9.932
  881W        W 4625   7.537   9.974   1.043
  882W        W 4626   2.065   1.017  11.810
  883W        W 4627   7.407   4.974   9.788
  884W        W 4628   8.462   4.649  10.794
  885W        W 4629  10.056   0.930  10.597
  886W        W 4630   9.646   6.646   2.195
  887W        W 4631   9.369   6.116  10.792
  888W        W 4632   5.004   2.609   8.996
  889W        W 4633   8.468   4.586   8.819
  890W        W 4634   4.687   2.197  11.448
  891W        W 4635  10.247   7.968   1.455
  892W        W 4636   9.091   2.835   0.975
  893W        W 4637   6.568   5.121   0.873
  894W        W 4638   8.195   3.624   8.928
  895W        W 4639  10.427   3.240   9.436
  896W        W 4640   0.676   9.752  10.459
  897W        W 4641   0.882   0.950   1.221
  898W        W 4642   8.119   4.795  11.239
  899W        W 4643   9.402   9.429  10.465
  900W        W 4644   0.497   7.571   0.841
  901W        W 4645   4.004   7.700   1.295
  902W        W 4646   3.583  10.030   0.479
  903W        W 4647   4.733   1.732   8.951
  904W        W 4648   5.618   9.389  11.749
  905W        W 4649   4.272   3.628   0.659
  906W        W 4650   7.525   7.651  10.298
  907W        W 4651   0.813   8.042   2.434
  908W        W 4652   2.556   1.167  11.462
  909W        W 4653   0.929   9.106   1.943
  910W        W 4654   0.841   3.078   2.324
  911W        W 4655   8.063   9.301   3.169
  912W        W 4656   7.577   0.989   3.319
  913W        W 4657   8.530   0.511   0.614
  914W        W 4658   8.435   1.963  11.932
  915W        W 4659   6.980   1.477   0.409
  916W        W 4660   6.507   2.724   3.281
  917W        W 4661   2.235   9.348  11.269
  918W        W 4662   8.098   1.389   9.165
  919W        W 4663   1.719   7.223   8.860
  920W        W 4664   2.152   4.098  10.737
  921W        W 4665   6.515   0.727   0.403
  922W        W 4666   9.885   2.710  11.137
  923W        W 4667   6.396   6.819  10.566
  924W        W 4668   0.940   8.753  10.352
  925W        W 4669   3.525   0.956   1.332
  926W        W 4670   3.331   6.806   0.215
  927W        W 4671  10.024   7.345  11.868
  928W        W 4672   8.865   4.220  10.496
  929W        W 4673   6.992   6.967   9.971
  930W        W 4674   1.524   8.189  11.916
  931W        W 4675   9.070   9.484  11.832
  932W        W 4676   0.570   9.132  11.126
  933W        W 4677   5.499   6.652   4.075
  934W        W 4678   8.437  10.020   8.384
  935W        W 4679   0.570   4.830   0.548
  936W        W 4680   9.404   6.229   8.755
  937W        W 4681   6.615   3.764   1.422
  938W        W 4682   9.356   6.440  10.343
  939W        W 4683   4.392  10.343   2.877
  940W        W 4684   3.872   7.311   2.210
  941W        W 4685   8.422   0.732  11.359
  942W        W 4686   4.564   5.777  11.902
  943W        W 4687   8.737   9.272   2.135
  944W        W 4688   3.668   6.053   1.305
  945W        W 4689   8.309   9.451   0.878
  946W        W 4690   5.183   5.242   9.562
  947W        W 4691   7.909   4.049   1.124
  948W        W 4692   1.825   1.615   0.544
  949W        W 4693   5.126   5.235   0.830
  950W        W 4694   1.736   4.147   3.176
  951W        W 4695   3.292   8.367   9.529
  952W        W 4696   9.965   3.158   9.244
  953W        W 4697   6.104   2.464  10.365
  954W        W 4698   1.889   9.390  10.826
  955W        W 4699   5.610   6.490   2.371
  956W        W 4700   2.597   9.952   9.133
  957W        W 4701   1.022   9.072   2.470
  958W        W 4702   3.821   9.380  11.768
  959W        W 4703   2.730   7.978   3.308
  960W        W 4704   4.574   4.052   8.911
  961W        W 4705   3.635   7.565   3.419
  962W        W 4706   2.396   0.285  11.814
  963W        W 4707   5.660   8.035  11.299
  964W        W 4708   1.413   5.658   2.482
  965W        W 4709   5.259   0.958  11.350
  966W        W 4710   7.565   6.992   8.692
  967W        W 4711   2.896   3.189   8.918
  968W        W 4712   2.629   8.974   9.985
  969W        W 4713   5.655   7.573   8.858
  970W        W 4714   4.066   2.227   8.882
  971W        W 4715   5.967   6.797   9.500
  972W        W 4716   9.834  10.278  11.445
  973W        W 4717   4.228   0.325   2.732
  974W        W 4718   7.466   1.064   2.819
  975W        W 4719   4.174   8.511   2.815
  976W        W 4720   1.857   5.078   9.993
  977W        W 4721   8.893   4.532   2.023
  978W        W 4722   3.219   6.093   9.669
  979W        W 4723   9.012   0.840  11.423
  980W        W 4724   5.550   1.671  10.530
  981W        W 4725   2.792   8.089   1.795
  982W        W 4726   6.632   8.136   2.779
  983W        W 4727   6.653  10.023   1.018
  984W        W 4728   6.700   4.452   0.639
  985W        W 4729   4.825   9.830   0.898
  986W        W 4730  10.430   1.416   0.831
  987W        W 4731  10.315   4.710  11.384
  988W        W 4732   3.569   5.247   9.412
  989W        W 4733   5.462   4.335   1.663
  990W        W 4734   0.149   0.202   2.091
  991W        W 4735   0.820   7.122   3.528
  992W        W 4736   4.604   2.682   2.773
  993W        W 4737   1.161   6.115  10.848
  994W        W 4738   9.072   9.711   2.200
  995W        W 4739   8.806   9.872  11.519
  996W        W 4740   6.865   8.342   2.349
  997W        W 4741   0.168   9.183   2.371
  998W        W 4742   8.939   0.057  10.490
  999W        W 4743  10.298   3.251  11.358
 1000W        W 4744   2.340   2.107   2.041
 1001W        W 4745   7.829   3.301   1.124
 1002W        W 4746   0.790   0.514  11.566
 1003W        W 4747   4.939   4.465   2.972
 1004W        W 4748   2.279   7.839   0.374
 1005W        W 4749   9.869   9.223   2.629
 1006W        W 4750   4.055   3.945   9.140
 1007W        W 4751   5.341   7.896   2.655
 1008W        W 4752   6.579   5.711  11.718
 1009W        W 4753   5.945   2.236  10.777
 1010W        W 4754   5.689   8.569   0.713
 1011W        W 4755  10.307  10.020  11.784
 1012W        W 4756   1.660   9.080   9.117
 1013W        W 4757   3.005   2.709   3.413
 1014W        W 4758   7.437   1.322   1.692
 1015W        W 4759   1.167   1.869   1.600
 1016W        W 4760   3.152   6.126  11.761
 1017W        W 4761   7.924   9.142   0.791
 1018W        W 4762   3.537   7.717   1.658
 1019W        W 4763   3.670   4.694   8.217
 1020W        W 4764   7.092   4.742  10.392
 1021W        W 4765   9.393   3.718  10.129
 1022W        W 4766   8.573   5.703   3.070
 1023W        W 4767   3.989   4.439   1.581
 1024W        W 4768   9.148   3.579  11.330
 1025W        W 4769   9.540   6.354   0.166
 1026W        W 4770   2.523   2.583   3.304
 1027W        W 4771   9.328   7.829  11.509
 1028W        W 4772   8.383  10.193   0.191
 1029W        W 4773   5.544   0.010   8.859
 1030W        W 4774   5.799   9.855   9.592
 1031W        W 4775   1.333   0.773   9.522
 1032W        W 4776   1.235   5.083   3.012
 1033W        W 4777   5.667  10.386   1.964
 1034W        W 4778   5.755   0.656   1.301
 1035W        W 4779   1.858   8.650   3.146
 1036W        W 4780   1.168   1.067   3.603
 1037W        W 4781  10.453   1.782  10.116
 1038W        W 4782   2.320   3.627  11.073
 1039W        W 4783   8.878   5.747   2.658
 1040W        W 4784   8.122   9.279   9.820
 1041W        W 4785   5.210   3.542   1.729
 1042W        W 4786   1.925   8.464  10.118
 1043W        W 4787   5.586   3.686  11.951
 1044W        W 4788   8.324   3.315  10.815
 1045W        W 4789   6.553   8.520   9.868
 1046W        W 4790   2.800   0.393   9.774
 1047W        W 4791   7.557   0.300   2.264
 1048W        W 4792  10.235   5.045   3.196
 1049W        W 4793   1.308   5.910   3.412
 1050W        W 4794   4.587   1.880  11.050
 1051W        W 4795   4.272   3.316  11.261
 1052W        W 4796   8.286  10.227   8.818
 1053W        W 4797   9.749   4.027   1.687
 1054W        W 4798  10.148   5.973   9.036
 1055W        W 4799   2.551   4.532   8.747
 1056W        W 4800   6.658   7.534   1.748
 1057W        W 4801   5.784   6.209  11.511
 1058W        W 4802   6.871   5.166   9.548
 1059W        W 4803   0.926   3.571  10.822
 1060W        W 4804   4.067   0.196  11.226
 1061W        W 4805  10.011   3.223   9.767
 1062W        W 4806   0.825   8.000   2.970
 1063W        W 4807   1.357   9.983  10.611
 1064W        W 4808   0.622   0.530   9.120
 1065W        W 4809   7.118   1.028   8.932
 1066W        W 4810   0.764   2.598   2.996
 1067W        W 4811   8.701   7.310  11.856
 1068W        W 4812   7.158   3.374   8.938
 1069W        W 4813   4.441   0.019   2.393
 1070W        W 4814   7.838   5.185  11.442
 1071W        W 4815   9.550   7.119  10.983
 1072W        W 4816   4.138  10.071  10.035
 1073W        W 4817   7.027   6.089   9.623
 1074W        W 4818   0.138   7.496   9.593
 1075W        W 4819   7.159   4.592   4.219
 1076W        W 4820   7.460   0.865  10.904
 1077W        W 4821   5.254   8.304   0.490
 1078W        W 4822   4.767   9.326   0.914
 1079W        W 4823   9.253   1.634   1.975
 1080W        W 4824   5.155   8.956   1.976
 1081W        W 4825   3.629   8.554   8.943
 1082W        W 4826   6.938   0.176  11.824
 1083W        W 4827   9.895   1.867   1.444
 1084W        W 4828   7.564   5.404  11.000
 1085W        W 4829   8.669   6.819   1.474
 1086W        W 4830   5.785   4.644   1.368
 1087W        W 4831   5.096  10.454   1.545
 1088W        W 4832   8.352   6.207   2.181
 1089W        W 4833   6.144   3.686   1.704
 1090W        W 4834  10.352   1.221   2.663
 1091W        W 4835   3.530   2.783   1.819
 1092W        W 4836   5.259   8.993  11.465
 1093W        W 4837   1.729   7.168   9.810
 1094W        W 4838   9.885   7.092   2.998
 1095W        W 4839   3.688   9.605   0.211
 1096W        W 4840   6.864   2.226  10.691
 1097W        W 4841   9.425   1.210   9.969
 1098W        W 4842   5.363   0.428  10.581
 1099W        W 4843   3.280  10.187  10.888
 1100W        W 4844   8.147   8.391   0.306
 1101W        W 4845   6.500   3.345   2.780
 1102W        W 4846   4.630   7.885   2.319
 1103W        W 4847   2.317   8.360   1.399
 1104W        W 4848   6.082   9.680  10.459
 1105W        W 4849   6.085   1.038   0.166
 1106W        W 4850   3.290   0.502   2.751
 1107W        W 4851   3.911   4.608   2.714
 1108W        W 4852   2.857   3.572  11.737
 1109W        W 4853   5.285   1.348  10.997
 1110W        W 4854   2.939   4.596   9.617
 1111W        W 4855   6.253   1.345  10.548
 1112W        W 4856   3.204   4.571  11.562
 1113W        W 4857   6.563  10.222   0.549
 1114W        W 4858   9.864   1.403  10.688
 1115W        W 4859   0.144   8.313   0.371
 1116W        W 4860   3.411   3.662  10.381
 1117W        W 4861   0.184   6.182   9.860
 1118W        W 4862   4.953   5.649  10.277
 1119W        W 4863   6.166   6.497   1.219
 1120W        W 4864   5.631   3.130  11.134
 1121W        W 4865   4.682   9.111   9.147
 1122W        W 4866   9.530   9.589   0.031
 1123W        W 4867   4.995   4.530   1.834
 1124W        W 4868   1.742   6.013   9.912
 1125W        W 4869   2.181   9.477   9.854
 1126W        W 4870   0.376   2.754   1.157
 1127W        W 4871   2.978   5.935   0.548
 1128W        W 4872   2.230   0.934  10.556
 1129W        W 4873   0.183   1.667  11.073
 1130W        W 4874   3.555   1.710  11.996
 1131W        W 4875   9.964   6.160   1.369
 1132W        W 4876   8.060   7.075   8.513
 1133W        W 4877   5.972   7.478   1.507
 1134W        W 4878   3.715   3.540   1.435
 1135W        W 4879   8.488   5.927   9.610
 1136W        W 4880   1.024   5.932   9.475
 1137W        W 4881   2.816   8.890   2.174
 1138W        W 4882   4.795   3.170   2.701
 1139W        W 4883   9.899   6.016   0.010
 1140W        W 4884   4.994   4.208   8.670
 1141W        W 4885  10.410   7.248   0.210
 1142W        W 4886   9.573   7.048  11.927
 1143W        W 4887   7.581   5.779  11.914
 1144W        W 4888   3.722   1.423   9.355
 1145W        W 4889   0.760   7.053  10.596
 1146W        W 4890   9.195   1.736  10.814
 1147W        W 4891   8.940   3.311   1.085
 1148W        W 4892  10.313   0.472   0.701
 1149W        W 4893   0.296   6.967  10.249
 1150W        W 4894   8.397   5.041   9.657
 1151W        W 4895   0.289   2.781   3.119
 1152W        W 4896   4.412   9.531  10.126
 1153W        W 4897   7.908  10.243   9.569
 1154W        W 4898   2.686   5.658   1.719
 1155W        W 4899   7.192   7.007   0.211
 1156W        W 4900   5.443   7.288   3.703
 1157W        W 4901   8.341  10.488  11.772
 1158W        W 4902   6.466   1.390   9.610
 1159W        W 4903   1.789   4.267   0.623
 1160W        W 4904   9.893   8.902  11.560
 1161W        W 4905   3.530   7.546   1.171
 1162W        W 4906   1.872   3.073   3.027
 1163W        W 4907   6.973   6.052   0.955
 1164W        W 4908   0.487   2.100   0.916
 1165W        W 4909   7.153   9.290   3.250
 1166W        W 4910   2.677   1.933   9.913
 1167W        W 4911   3.698   8.864   0.900
 1168W        W 4912   1.362   0.870  10.531
 1169W        W 4913   9.968   5.710  10.306
 1170W        W 4914   8.746  10.056  10.533
 1171W        W 4915   3.124   9.805  11.346
 1172W        W 4916   1.828   5.750  11.229
 1173W        W 4917   0.973   1.396   3.271
 1174W        W 4918   9.535   7.059   3.415
 1175W        W 4919  10.343   9.876   1.691
 1176W        W 4920   5.751   7.014   2.356
 1177W        W 4921   7.381   5.658   9.088
 1178W        W 4922   2.833   4.843   2.818
 1179W        W 4923   9.471   3.622   3.405
 1180W        W 4924   9.555   4.504   0.415
 1181W        W 4925   5.676   1.305   8.744
 1182W        W 4926   7.051   3.971   2.401
 1183W        W 4927   5.642   3.757   1.972
 1184W        W 4928   7.696   3.826  11.864
 1185W        W 4929   7.174   2.647  10.626
 1186W        W 4930  10.422   4.373   0.778
 1187W        W 4931   7.186   1.238  11.854
 1188W        W 4932   2.914   2.944   8.437
 1189W        W 4933   5.527   2.238   8.808
 1190W        W 4934   8.185   1.921   2.820
 1191W        W 4935   3.313   0.492   2.235
 1192W        W 4936   7.934   7.384   2.711
 1193W        W 4937   0.274   1.352   9.825
 1194W        W 4938   2.352   1.863   8.619
 1195W        W 4939   0.621   8.903   0.949
 1196W        W 4940   6.195   6.001   1.043
 1197W        W 4941   9.071   3.752  10.522
 1198W        W 4942   4.265   1.168   0.847
 1199W        W 4943   2.653   3.791   0.624
 1200W        W 4944   7.889   5.109   0.213
 1201W        W 4945   7.838   8.286  11.334
 1202W        W 4946   7.932   6.615  11.691
 1203W        W 4947   1.252   7.332   3.081
 1204W        W 4948   1.442   6.500  11.017
 1205W        W 4949   7.574   7.902  11.061
 1206W        W 4950   1.548   2.787   3.298
 1207W        W 4951   6.049   1.962   0.743
 1208W        W 4952   2.209   8.579   2.310
 1209W        W 4953   6.887   7.872   9.985
 1210W        W 4954   1.395   5.567   9.430
 1211W        W 4955   1.868   5.913  10.403
 1212W        W 4956   1.741   7.739   8.726
 1213W        W 4957   7.189   1.478  11.326
 1214W        W 4958   2.272   3.781   8.886
 1215W        W 4959  10.037   3.808  10.287
 1216W        W 4960   0.016   9.387   1.431
 1217W        W 4961   9.844   5.489   9.850
 1218W        W 4962   7.608   9.498   8.549
 1219W        W 4963   3.179   2.760   9.362
 1220W        W 4964   7.296   4.422   0.597
 1221W        W 4965   2.957   7.564   8.653
 1222W        W 4966   4.006   7.931   3.413
 1223W        W 4967   3.464   3.346   3.202
 1224W        W 4968   8.197   4.690   0.176
 1225W        W 4969   5.574   1.673   2.511
 1226W        W 4970   3.145   4.090  10.821
 1227W        W 4971   9.529   0.703  11.603
 1228W        W 4972   5.648   8.466   0.210
 1229W        W 4973   2.154   7.329  11.249
 1230W        W 4974   4.598   5.027  10.806
 1231W        W 4975   3.754   1.328  10.371
 1232W        W 4976   2.284   8.415   8.913
 1233W        W 4977   8.945   0.015   1.876
 1234W        W 4978   6.013   5.806   9.571
 1235W        W 4979   0.730  10.040   3.473
 1236W        W 4980   5.713   9.582   2.987
 1237W        W 4981   9.419   1.721   1.493
 1238W        W 4982   3.519   1.714   0.801
 1239W        W 4983   7.002   0.257   9.539
 1240W        W 4984   9.491   0.962   0.908
 1241W        W 4985   9.375   9.634   2.989
 1242W        W 4986   9.315   5.092   9.215
 1243W        W 4987   1.510   7.767   2.934
 1244W        W 4988   2.199   5.788   2.344
 1245W        W 4989   6.179   6.439   3.891
 1246W        W 4990   5.252   3.785   2.310
 1247W        W 4991   0.532   8.294   9.493
 1248W        W 4992   6.222   2.719  10.782
 1249W        W 4993   4.954   3.712   7.828
 1250W        W 4994   4.272   3.900  10.348
 1251W        W 4995   7.375   6.798   3.676
 1252W        W 4996   5.392   7.092  10.560
 1253W        W 4997   5.998   8.379   9.547
 1254W        W 4998   7.210   7.327   0.663
 1255W        W 4999   5.098   0.716   2.147
 1256W        W 5000   4.750   2.704  10.758
 1257W        W 5001   3.341   2.812   0.258
 1258W        W 5002   7.943   0.952   8.871
 1259W        W 5003   5.996   3.905  10.197
 1260W        W 5004   2.245   5.746   8.955
 1261W        W 5005   2.761   4.688   1.955
 1262W        W 5006   9.727   7.151   1.439
 1263W        W 5007   8.569   3.369   3.382
 1264W        W 5008   4.992   7.982   9.782
 1265W        W 5009   1.689   4.698   9.692
 1266W        W 5010   9.128   8.182   9.206
 1267W        W 5011   7.545   5.179   3.607
 1268W        W 5012   6.490   7.336   2.735
 1269W        W 5013   4.537   8.131  10.022
 1270W        W 5014   4.509   9.693   8.550
 1271W        W 5015   7.812  10.414  11.954
 1272W        W 5016   4.135   1.405   0.393
 1273W        W 5017   1.255   6.462   0.305
 1274W        W 5018   8.108   8.911   0.333
 1275W        W 5019   0.129   6.855   8.633
 1276W        W 5020   4.615   5.021   2.675
 1277W        W 5021   9.415   2.488   9.959
 1278W        W 5022  10.150   0.342   9.981
 1279W        W 5023   1.822   1.653  10.055
 1280W        W 5024   1.284   2.186   1.182
 1281W        W 5025   7.922   8.805   3.321
 1282W        W 5026  10.275   6.461   9.671
 1283W        W 5027   0.481   3.467  10.594
 1284W        W 5028   7.052   5.379   0.769
 1285W        W 5029   5.612   9.404   1.456
 1286W        W 5030   3.442   8.657   3.303
 1287W        W 5031   7.471   5.027   0.479
 1288W        W 5032   7.237   9.294   1.889
 1289W        W 5033   9.125   1.338   0.227
 1290W        W 5034   2.889   4.050   3.284
 1291W        W 5035   9.769   0.500   1.833
 1292W        W 5036   1.827   5.562   0.251
 1293W        W 5037   3.109  10.487   9.626
 1294W        W 5038   1.839  10.327  11.520
 1295W        W 5039  10.264   1.940   2.047
 1296W        W 5040   6.880   7.609   1.232
 1297W        W 5041   6.493   3.536  10.739
 1298W        W 5042   8.747  10.442   9.465
 1299W        W 5043   3.199   6.048   2.366
 1300W        W 5044   4.476   4.606   0.834
 1301W        W 5045  10.468   5.417   2.347
 1302W        W 5046   3.084   0.699   3.267
 1303W        W 5047   6.708   5.560  10.831
 1304W        W 5048   8.914   7.648   0.369
 1305W        W 5049   8.385   8.556   3.296
 1306W        W 5050   2.412   0.274   9.426
 1307W        W 5051   8.382   1.801   0.423
 1308W        W 5052   0.815   2.393   8.581
 1309W        W 5053   0.696   4.150   2.225
 1310W        W 5054   6.941   2.286   8.830
 1311W        W 5055   4.652   7.079   1.657
 1312W        W 5056   0.375   6.418  11.908
 1313W        W 5057   3.116   7.653   3.137
 1314W        W 5058   4.130   7.877   9.780
 1315W        W 5059   2.501   9.575   8.783
 1316W        W 5060   7.665   6.526   1.560
 1317W        W 5061   6.844   2.314  11.735
 1318W        W 5062   1.168   7.577  11.264
 1319W        W 5063   4.621   9.935   2.682
 1320W        W 5064   7.902   6.056   4.137
 1321W        W 5065   4.846   1.316  11.247
 1322W        W 5066   6.562   5.845   2.742
 1323W        W 5067   9.917   7.522   1.821
 1324W        W 5068   6.487   0.973   9.296
 1325W        W 5069   2.387   1.463   9.013
 1326W        W 5070   4.774   6.510   1.813
 1327W        W 5071   4.625   6.159  10.360
 1328W        W 5072   6.982   9.438   1.452
 1329W        W 5073   4.154   4.693   9.970
 1330W        W 5074   2.706   3.224  10.861
 1331W        W 5075   4.198   0.351   1.190
 1332W        W 5076   7.696   8.309   0.528
 1333W        W 5077   9.357   0.232   9.562
 1334W        W 5078   2.811   1.448   9.817
 1335W        W 5079   3.208   4.095  11.325
 1336W        W 5080   7.422   9.748   0.449
 1337W        W 5081   1.219   6.511   1.735
 1338W        W 5082  10.426   0.160   1.142
 1339W        W 5083   8.832   3.139   9.532
 1340W        W 5084   6.075   7.371   3.060
 1341W        W 5085   5.068   7.421  10.066
 1342W        W 5086   7.691   7.336   9.935
 1343W        W 5087   3.800   2.273   1.821
 1344W        W 5088   2.582   3.176  11.944
 1345W        W 5089   3.943   2.636   8.586
 1346W        W 5090   7.853   7.028   9.537
 1347W        W 5091   3.879   3.641  11.054
 1348W        W 5092   6.085   0.380   0.809
 1349W        W 5093   2.173   4.371   8.427
 1350W        W 5094   6.232   0.047  10.854
 1351W        W 5095   7.536   2.926   2.294
 1352W        W 5096   5.554   4.364  11.415
 1353W        W 5097   8.217   5.782   3.840
 1354W        W 5098   9.003   7.697   9.347
 1355W        W 5099   4.722   7.239   9.491
 1356W        W 5100   7.917   1.184   1.932
 1357W        W 5101   7.871   8.361   9.843
 1358W        W 5102   3.704   1.407   1.502
 1359W        W 5103   7.436   7.433  11.257
 1360W        W 5104   6.566   6.850   2.722
 1361W        W 5105   8.462   4.614   3.111
 1362W        W 5106   7.939   5.100   8.077
 1363W        W 5107   4.572  10.352  10.038
 1364W        W 5108   5.739   4.659   2.928
 1365W        W 5109   9.700  10.441   1.267
 1366W        W 5110  10.071   0.510  11.811
 1367W        W 5111   5.105   6.138  11.050
 1368W        W 5112   2.252   6.260   3.775
 1369W        W 5113   1.922   1.112   8.813
 1370W        W 5114   1.812   3.201  10.990
 1371W        W 5115   4.088   2.374   0.464
 1372W        W 5116   9.361   0.432   8.707
 1373W        W 5117   2.899   4.044   2.342
 1374W        W 5118   8.966   2.726  10.731
 1375W        W 5119   4.468   6.776  11.814
 1376W        W 5120   0.135   9.319  11.282
 1377W        W 5121  10.268   6.346   2.503
 1378W        W 5122   5.829   7.687   1.956
 1379W        W 5123   2.743   9.873   3.310
 1380W        W 5124   8.383   4.157   9.574
 1381W        W 5125   5.732   8.319   1.148
 1382W        W 5126   4.716   3.249   9.698
 1383W        W 5127   2.626   1.216  10.270
 1384W        W 5128   7.798  10.366   1.266
 1385W        W 5129   8.291   0.246   0.224
 1386W        W 5130   7.078   8.776   3.302
 1387W        W 5131   7.845   9.368   2.667
 1388W        W 5132   2.252   9.851   1.421
 1389W        W 5133   5.994   2.963  10.345
 1390W        W 5134   7.232   7.872   1.691
 1391W        W 5135   1.702   2.647   9.531
 1392W        W 5136   5.430   0.848  10.883
 1393W        W 5137   9.964   0.529   3.100
 1394W        W 5138   1.267   0.533  11.396
 1395W        W 5139   8.552   1.784   1.375
 1396W        W 5140   2.437   2.203   9.548
 1397W        W 5141   1.936   3.317   1.536
 1398W        W 5142   5.708   8.222   2.741
 1399W        W 5143   1.014   2.332   9.587
 1400W        W 5144   0.699   2.883  11.411
 1401W        W 5145   7.697   1.984  10.264
 1402W        W 5146   5.449   0.810   3.097
 1403W        W 5147   3.944   5.618  10.211
 1404W        W 5148   2.911   4.531  10.971
 1405W        W 5149   8.963   6.223   2.832
 1406W        W 5150   5.568   2.041   0.979
 1407W        W 5151   1.620   8.071  10.070
 1408W        W 5152   2.698   6.956   3.376
 1409W        W 5153   7.572   1.405   3.617
 1410W        W 5154   2.789   3.730   1.953
 1411W        W 5155  10.346   3.035   8.908
 1412W        W 5156   9.126   6.690   2.680
 1413W        W 5157   1.208   3.322   0.239
 1414W        W 5158   4.899   0.676   8.233
 1415W        W 5159   3.574   3.220  10.666
 1416W        W 5160   1.426   2.260   9.312
 1417W        W 5161   0.471   6.855  10.972
 1418W        W 5162   2.149   7.685   1.195
 1419W        W 5163   1.330   4.316   8.997
 1420W        W 5164   2.586   2.682   0.822
 1421W        W 5165   9.057   5.538   9.275
 1422W        W 5166   0.288   4.133  11.931
 1423W        W 5167   2.421   0.853   1.927
 1424W        W 5168   2.356   6.077   9.785
 1425W        W 5169   5.013   3.785   9.043
 1426W        W 5170   8.900   5.305   0.440
 1427W        W 5171   6.211   5.492   0.071
 1428W        W 5172   1.484   5.073   1.914
 1429W        W 5173   0.244   0.561   0.983
 1430W        W 5174   6.131   8.386  10.108
 1431W        W 5175   0.323   0.390  11.366
 1432W        W 5176   9.495   4.144   0.064
 1433W        W 5177   7.979   8.752   1.699
 1434W        W 5178  10.260   8.454   3.143
 1435W        W 5179   4.819   4.559   1.338
 1436W        W 5180   0.941   0.329   0.305
 1437W        W 5181   8.870   9.833   3.254
 1438W        W 5182   1.078  10.361   0.170
 1439W        W 5183   7.992   4.626   2.392
 1440W        W 5184  10.334  10.037   9.054
 1441W        W 5185   8.805   5.497   9.750
 1442W        W 5186   8.841   9.052  11.983
 1443W        W 5187   4.778   1.225   0.731
 1444W        W 5188   7.951   6.497   2.647
 1445W        W 5189   5.437   2.145  10.729
 1446W        W 5190   4.204   5.853  10.634
 1447W        W 5191   2.202   2.195  11.134
 1448W        W 5192   5.220   4.238   3.627
 1449W        W 5193   3.679   5.892   2.233
 1450W        W 5194   1.745   9.600   9.022
 1451W        W 5195   5.275   0.056  10.959
 1452W        W 5196   6.131   9.897   2.961
 1453W        W 5197   2.160   6.534   1.879
 1454W        W 5198   8.202   5.669   8.512
 1455W        W 5199   1.642   4.596   0.259
 1456W        W 5200   7.641   3.270  11.931
 1457W        W 5201   2.840   5.753  10.388
 1458W        W 5202   6.618   6.616   3.165
 1459W        W 5203   6.815   2.070  10.204
 1460W        W 5204   5.735   3.761   2.488
 1461W        W 5205   5.178   1.759   0.827
 1462W        W 5206   3.802   3.549   9.381
 1463W        W 5207  10.213   6.035   0.924
 1464W        W 5208   4.229   1.413   9.583
 1465W        W 5209   2.991   0.867   2.406
 1466W        W 5210   3.558   0.146  11.287
 1467W        W 5211   4.694   0.325   9.900
 1468W        W 5212   1.699   3.173   2.547
 1469W        W 5213   1.007   8.331   0.455
 1470W        W 5214   3.500   6.670   8.666
 1471W        W 5215   2.261   5.470  11.995
 1472W        W 5216   6.441   5.273   2.586
 1473W        W 5217   2.239   0.363   3.490
 1474W        W 5218   7.534   1.499   0.722
 1475W        W 5219   9.716  10.136  10.304
 1476W        W 5220   9.595   2.249   1.235
 1477W        W 5221   1.788   7.292  10.342
 1478W        W 5222   0.727   4.284   3.239
 1479W        W 5223   1.683   7.605  11.304
 1480W        W 5224   8.540   5.288   1.274
 1481W        W 5225   5.720   7.127   4.097
 1482W        W 5226   4.532   8.116   8.974
 1483W        W 5227   9.810   7.659   9.395
 1484W        W 5228   4.985   7.901   8.809
 1485W        W 5229   8.749   5.833   0.964
 1486W        W 5230   3.252   6.343   1.465
 1487W        W 5231   6.822   8.111   8.889
 1488W        W 5232   8.985   3.374   1.588
 1489W        W 5233   9.495   4.714  10.961
 1490W        W 5234   2.732   4.641   0.705
 1491W        W 5235   9.834   2.207   0.183
 1492W        W 5236  10.373   6.102   0.282
 1493W        W 5237   3.142   5.658   1.951
 1494W        W 5238   7.862   7.173  10.394
 1495W        W 5239   6.157   0.531  10.751
 1496W        W 5240   7.850   9.741  11.451
 1497W        W 5241   3.882   8.402   3.233
 1498W        W 5242   0.258   8.554   9.141
 1499W        W 5243   5.316   4.491   1.194
 1500W        W 5244   8.476   6.371   1.267
 1501W        W 5245   7.467   9.534   3.580
 1502W        W 5246   3.714  10.074   9.117
 1503W        W 5247   8.543   1.006   2.905
 1504W        W 5248   4.268   1.484  11.095
 1505W        W 5249   3.568   4.325   0.435
 1506W        W 5250   4.531   6.966   0.632
 1507W        W 5251   8.473   9.008   2.520
 1508W        W 5252   2.056   7.705   2.163
 1509W        W 5253   8.483   8.278  11.948
 1510W        W 5254   1.740   2.116   2.745
 1511W        W 5255   5.662   1.299   0.246
 1512W        W 5256   7.004   7.540   3.511
 1513W        W 5257   0.194   5.939  11.895
 1514W        W 5258   9.436   5.030   1.254
 1515W        W 5259   4.255   1.111   9.997
 1516W        W 5260   0.005   8.405  10.982
 1517W        W 5261   9.330   0.552  10.482
 1518W        W 5262   3.177   6.999   2.132
 1519W        W 5263   7.669   4.158   8.297
 1520W        W 5264   1.463   5.492  11.461
 1521W        W 5265   5.151  10.460   3.364
 1522W        W 5266   9.537   5.444   0.956
 1523W        W 5267   9.053   5.830   3.166
 1524W        W 5268   8.776   7.057   2.770
 1525W        W 5269   3.684   8.638   2.712
 1526W        W 5270   2.742  10.426  11.586
 1527W        W 5271   3.497   2.768  10.956
 1528W        W 5272   7.279   2.312   9.750
 1529W        W 5273   3.380   9.127   3.466
 1530W        W 5274  10.318   6.209   3.000
 1531W        W 5275   1.840   3.716  10.898
 1532W        W 5276   7.502   6.097   9.383
 1533W        W 5277   6.029   7.428   2.557
 1534W        W 5278   5.614   8.311   3.639
 1535W        W 5279   2.225   5.791   1.449
 1536W        W 5280   5.534   6.848   0.403
 1537W        W 5281   3.332   1.185   3.310
 1538W        W 5282  10.362   6.437   9.084
 1539W        W 5283   6.771   8.462   0.301
 1540W        W 5284   9.821   5.243  10.456
 1541W        W 5285   4.468   7.516   1.441
 1542W        W 5286   3.666   6.673   9.167
 1543W        W 5287   1.459   5.542   2.982
 1544W        W 5288   5.589   3.102   9.394
 1545W        W 5289   7.542   8.883   1.950
 1546W        W 5290  10.167   5.981   9.869
 1547W        W 5291   9.878   6.089   8.600
 1548W        W 5292   6.139   9.903   9.975
 1549W        W 5293   9.865   3.242  11.133
 1550W        W 5294   6.097   6.478  11.815
 1551W        W 5295   4.527   7.505   1.956
 1552W        W 5296   2.379   7.558  10.147
 1553W        W 5297   4.472   7.248  11.087
 1554W        W 5298   5.612   1.297   9.255
 1555W        W 5299   7.249   4.459   9.016
 1556W        W 5300   7.682   6.949   0.337
 1557W        W 5301  10.313   4.945   2.508
 1558W        W 5302   9.020   6.234   3.483
 1559W        W 5303   8.097   1.269  11.468
 1560W        W 5304   6.760   5.687   9.852
 1561W        W 5305   1.528   1.859   1.979
 1562W        W 5306   4.871   5.635   9.407
 1563W        W 5307   5.113   1.196   3.007
 1564W        W 5308   3.596   3.734   8.936
 1565W        W 5309   7.485   6.761  11.875
 1566W        W 5310   5.670   2.808   1.595
 1567W        W 5311   3.708   5.885   3.163
 1568W        W 5312   6.110   5.935  11.814
 1569W        W 5313   2.837   0.736  11.501
 1570W        W 5314   7.362   2.359  11.762
 1571W        W 5315   5.298   9.314   2.945
 1572W        W 5316   9.658   5.447   9.358
 1573W        W 5317   2.185   8.038  10.142
 1574W        W 5318   8.071   4.366   3.905
 1575W        W 5319   9.582   0.461   0.599
 1576W        W 5320   4.596   0.740   0.830
 1577W        W 5321   2.202   4.072   0.864
 1578W        W 5322   1.351   9.388  11.627
 1579W        W 5323   1.047   8.385  10.709
 1580W        W 5324   1.603   0.765   0.796
 1581W        W 5325   7.837   1.155   2.474
 1582W        W 5326   9.181   5.619   3.631
 1583W        W 5327   1.854   9.243   0.349
 1584W        W 5328   9.954   0.219   2.691
 1585W        W 5329   1.363   8.425   9.253
 1586W        W 5330   8.844   0.789   9.024
 1587W        W 5331   6.543   5.028  11.060
 1588W        W 5332   8.950   7.930   3.364
 1589W        W 5333   5.422   7.111   8.767
 1590W        W 5334   1.854   8.068   9.152
 1591W        W 5335   6.359   2.426  11.933
 1592W        W 5336   1.231   1.144   0.030
 1593W        W 5337   3.358   8.735   0.446
 1594W        W 5338   5.707   0.191  11.452
 1595W        W 5339   7.104   6.595   1.517
 1596W        W 5340   7.994   7.689  10.630
 1597W        W 5341   9.284   2.375  10.458
 1598W        W 5342   9.826   6.139   2.308
 1599W        W 5343   7.256   2.929   0.903
 1600W        W 5344   0.952   5.161   0.576
 1601W        W 5345  10.367   4.531   1.266
 1602W        W 5346   3.565   3.656   9.818
 1603W        W 5347   8.960   3.583   0.284
 1604W        W 5348   6.016   5.202  10.127
 1605W        W 5349   9.766   8.167  10.748
 1606W        W 5350   8.874   4.383   2.573
 1607W        W 5351   7.403   6.594   1.970
 1608W        W 5352   1.295   5.743   9.924
 1609W        W 5353  10.480   8.723   2.216
 1610W        W 5354   7.610   8.116   1.451
 1611W        W 5355   6.945   4.538  11.813
 1612W        W 5356   5.474   6.230   2.806
 1613W        W 5357   8.215   0.683   9.702
 1614W        W 5358   6.013   9.177   1.742
 1615W        W 5359   5.319   9.874   0.896
 1616W        W 5360   7.654   9.551  11.024
 1617W        W 5361   7.104   3.593   2.062
 1618W        W 5362   4.717   3.637   0.928
 1619W        W 5363   8.509   1.501   9.956
 1620W        W 5364   8.444   3.813   2.452
 1621W        W 5365   2.522   1.655   0.884
 1622W        W 5366   4.120   6.584   9.382
 1623W        W 5367   3.352   2.295   9.621
 1624W        W 5368   9.632   3.462  11.550
 1625W        W 5369   6.132   0.312   1.351
 1626W        W 5370   5.211   3.923   9.514
 1627W        W 5371   4.894   9.039   2.879
 1628W        W 5372   3.330   7.377   3.765
 1629W        W 5373   9.424   9.753   1.757
 1630W        W 5374   1.637  10.429   2.958
 1631W        W 5375   8.456   2.780   9.468
 1632W        W 5376   4.139   4.118   1.951
 1633W        W 5377   1.299   9.443   9.237
 1634W        W 5378   2.820   7.349   0.500
 1635W        W 5379   8.934   3.159  11.029
 1636W        W 5380   5.065  10.489   0.283
 1637W        W 5381   1.229   2.749   1.481
 1638W        W 5382   8.535   5.533  10.562
 1639W        W 5383   2.657   6.049   2.891
 1640W        W 5384   0.207   2.715   9.116
 1641W        W 5385   6.982   6.046   3.576
 1642W        W 5386   4.454   5.672  10.234
 1643W        W 5387   4.280   1.392   3.563
 1644W        W 5388   4.069   6.152   2.894
 1645W        W 5389   7.176   3.205  11.698
 1646W        W 5390   5.931   5.632  10.414
 1647W        W 5391   1.416   6.876   2.841
 1648W        W 5392   0.926   2.694  10.187
 1649W        W 5393   7.227   3.698   2.895
 1650W        W 5394   4.982   5.181   0.340
 1651W        W 5395   7.047   0.382   1.676
 1652W        W 5396   6.031   2.451   2.207
 1653W        W 5397   5.586   2.449   1.956
 1654W        W 5398   7.849   5.667   8.872
 1655W        W 5399   2.169   7.778  11.468
 1656W        W 5400   8.517   0.664   1.546
 1657W        W 5401   5.512  10.230  11.452
 1658W        W 5402   4.776   8.079  11.699
 1659W        W 5403   4.587   5.925   1.197
 1660W        W 5404  10.350   3.081   2.971
 1661W        W 5405   1.930   1.374   9.246
 1662W        W 5406   4.753   3.652  10.495
 1663W        W 5407   0.507   5.228   0.898
 1664W        W 5408   0.546   9.355   0.710
 1665W        W 5409   9.870   2.351   9.786
 1666W        W 5410   2.773   7.872   2.818
 1667W        W 5411   1.244   6.563   2.244
 1668W        W 5412   0.994   9.341   8.397
 1669W        W 5413   6.135   1.057  11.453
 1670W        W 5414   2.233   6.816   2.413
 1671W        W 5415   2.121   4.311   0.133
 1672W        W 5416   0.383   6.529   8.947
 1673W        W 5417   3.905   3.180   3.553
 1674W        W 5418   5.467   3.400   3.694
 1675W        W 5419   4.717   1.264   2.642
 1676W        W 5420   5.173   1.217   1.489
 1677W        W 5421   3.934   8.978   3.019
 1678W        W 5422   1.593   9.174  10.468
 1679W        W 5423   1.107   8.485   1.409
 1680W        W 5424   6.205   1.403   2.310
 1681W        W 5425   3.821   2.831   0.539
 1682W        W 5426   7.557   3.084   9.166
 1683W        W 5427   1.354   2.469  11.583
 1684W        W 5428   5.107   2.234   0.621
 1685W        W 5429   6.356   7.309  10.429
 1686W        W 5430   9.816   1.797  11.463
 1687W        W 5431   1.004   1.427   1.413
 1688W        W 5432   6.384   1.989   1.553
 1689W        W 5433   5.683   8.507   3.168
 1690W        W 5434   4.220   6.724   2.396
 1691W        W 5435   2.298   0.808   2.963
 1692W        W 5436   5.643   3.281   1.783
 1693W        W 5437   7.357   6.861   0.703
 1694W        W 5438   4.467   2.195   0.067
 1695W        W 5439   2.706   5.677  11.248
 1696W        W 5440   7.594   4.105   3.040
 1697W        W 5441  10.243   5.730  11.792
 1698W        W 5442   8.056   1.663  11.802
 1699W        W 5443   5.614   3.183   3.259
 1700W        W 5444   7.901   1.948  10.746
 1701W        W 5445   2.088   4.214   1.854
 1702W        W 5446   5.536  10.263   0.382
 1703W        W 5447   2.236  10.396   9.771
 1704W        W 5448   5.237   2.057   2.684
 1705W        W 5449   2.307   5.147   0.380
 1706W        W 5450   4.793   7.155   9.004
 1707W        W 5451   2.870   9.034   8.983
 1708W        W 5452  10.040   9.459   1.674
 1709W        W 5453   6.950   6.567   0.029
 1710W        W 5454   5.654   2.201   0.493
 1711W        W 5455   9.677   1.799  10.969
 1712W        W 5456   5.549   7.299   1.239
 1713W        W 5457   0.284   4.712   0.954
 1714W        W 5458   9.884   8.060  11.227
 1715W        W 5459   7.342   9.677  11.503
 1716W        W 5460   4.158   9.128   0.716
 1717W        W 5461   9.261   5.470   0.090
 1718W        W 5462   4.604   8.234   2.703
 1719W        W 5463   0.254   2.861  10.892
 1720W        W 5464   6.405   2.474   0.854
 1721W        W 5465   3.315   0.736  10.025
 1722W        W 5466   2.797   1.419  11.867
 1723W        W 5467   0.666   5.072   2.773
 1724W        W 5468  10.258   3.167   0.339
 1725W        W 5469   2.717   7.223   9.795
 1726W        W 5470   2.917   9.027  10.484
 1727W        W 5471   2.852   6.967   0.141
 1728W        W 5472   7.676   7.979   0.963
 1729W        W 5473   0.762  10.063   2.055
 1730W        W 5474   3.949   5.203  11.458
 1731W        W 5475   6.178   2.405   1.343
 1732W        W 5476  10.261   6.495  10.621
 1733W        W 5477   6.259   8.551   0.336
 1734W        W 5478   4.154   6.875   0.254
 1735W        W 5479   2.151   6.099  10.771
 1736W        W 5480   2.635   5.529   2.208
 1737W        W 5481   0.016   6.988  10.744
 1738W        W 5482   5.099   3.121  10.881
 1739W        W 5483   3.063   1.880   1.724
 1740W        W 5484   7.431   7.159   2.720
 1741W        W 5485   6.091   3.385   2.419
 1742W        W 5486   0.258   6.202  11.451
 1743W        W 5487   7.544   8.621   1.456
 1744W        W 5488   9.126   7.097   2.384
 1745W        W 5489   8.696   4.815   0.379
 1746W        W 5490   1.153   7.555   9.359
 1747W        W 5491   4.343   9.991   0.939
 1748W        W 5492   2.489   9.904  11.938
 1749W        W 5493   4.122   2.247   1.411
 1750W        W 5494   7.710   4.821  11.778
 1751W        W 5495   9.167   3.489   2.962
 1752W        W 5496   2.753   6.112   9.011
 1753W        W 5497   0.491   7.351   0.350
 1754W        W 5498   1.513   1.949   9.734
 1755W        W 5499   9.132   7.525   0.803
 1756W        W 5500  10.398   0.766   2.892
 1757W        W 5501   4.962   3.337   1.331
 1758W        W 5502   2.320   3.493  11.609
 1759W        W 5503   9.835   1.321   2.616
 1760W        W 5504   4.986   1.242   9.004
 1761W        W 5505   4.303   3.699   2.192
 1762W        W 5506   9.849   8.361  11.838
 1763W        W 5507   7.434   4.048   1.646
 1764W        W 5508   2.684   3.589   2.437
 1765W        W 5509   4.605   7.249   3.427
 1766W        W 5510   3.254   1.367   9.571
 1767W        W 5511   0.390   8.070   9.028
 1768W        W 5512   8.340   7.046   3.114
 1769W        W 5513   5.856   8.925   8.827
 1770W        W 5514   3.540   6.422  11.926
 1771W        W 5515   2.437   5.220  11.157
 1772W        W 5516   2.916   9.904   1.287
 1773W        W 5517   3.522   4.536   1.399
 1774W        W 5518   7.001  10.463  11.354
 1775W        W 5519   2.874   7.665  10.051
 1776W        W 5520   9.452   2.630   2.012
 1777W        W 5521   5.139   8.309  10.564
 1778W        W 5522   2.702   8.614   8.661
 1779W        W 5523   0.588   3.513   1.619
 1780W        W 5524   5.486   4.701  10.135
 1781W        W 5525   2.283   7.314   2.730
 1782W        W 5526   4.089   6.712   8.867
 1783W        W 5527   5.353   7.993   1.258
 1784W        W 5528   0.067   5.721  11.410
 1785W        W 5529   7.525   0.665   9.026
 1786W        W 5530   5.507   2.658   9.141
 1787W        W 5531   5.719   9.553   0.939
 1788W        W 5532   3.040   2.233   1.364
 1789W        W 5533   8.888   8.565  11.846
 1790W        W 5534   3.291   1.482  11.099
 1791W        W 5535   2.855   6.251  10.485
 1792W        W 5536   7.990   2.279   3.793
 1793W        W 5537   1.150   6.976   0.418
 1794W        W 5538   5.962   6.964   1.361
 1795W        W 5539   2.119   4.292   2.854
 1796W        W 5540   7.139   8.175   1.260
 1797W        W 5541   5.717   5.592  10.917
 1798W        W 5542   4.203   2.820   0.178
 1799W        W 5543   5.958   1.188   1.899
 1800W        W 5544   6.146   6.156   0.264
 1801W        W 5545   5.203   2.870   0.254
 1802W        W 5546   0.002   2.120  11.072
 1803W        W 5547   3.114   2.742  11.301
 1804W        W 5548   6.574   1.883   2.540
 1805W        W 5549   9.855   9.874   1.400
 1806W        W 5550   4.854   9.859  11.692
 1807W        W 5551   7.421   7.296  11.771
 1808W        W 5552   6.035   1.623   9.293
 1809W        W 5553   9.458   8.491   2.274
 1810W        W 5554   3.885   3.641  10.541
 1811W        W 5555   4.916   7.497  11.101
 1812W        W 5556   3.700   9.534   1.498
 1813W        W 5557   3.596   2.625   2.884
 1814W        W 5558   5.157   3.412   9.408
 1815W        W 5559   4.578   6.907   1.189
 1816W        W 5560  10.497   9.122  11.902
 1817W        W 5561   1.920   0.392   9.428
 1818W        W 5562   3.583   9.031   1.389
 1819W        W 5563   6.159   0.632   9.517
 1820W        W 5564   2.050   3.777   1.266
 1821W        W 5565   3.555   2.238   1.358
 1822W        W 5566   5.557   6.058   9.728
 1823W        W 5567   4.206   9.142   9.835
 1824W        W 5568   5.757  10.076   0.818
 1825W        W 5569   8.582   8.569   2.297
 1826W        W 5570   7.056   0.984  11.400
 1827W        W 5571   9.556   2.669   2.511
 1828W        W 5572   0.125   4.077   2.328
 1829W        W 5573   1.693   2.371   9.977
 1830W        W 5574   6.195   7.485   9.982
 1831W        W 5575   6.570   4.534   0.138
 1832W        W 5576   7.669   7.513   2.241
 1833W        W 5577  10.199   2.341   2.376
 1834W        W 5578   6.496   2.822   9.480
 1835W        W 5579   7.547   3.944   0.738
 1836W        W 5580   4.718   0.248   2.899
 1837W        W 5581   8.667   1.736   2.825
 1838W        W 5582   4.072   6.477  11.946
 1839W        W 5583   8.834   7.078   3.263
 1840W        W 5584   6.876   6.803   0.553
 1841W        W 5585   2.771   9.420   1.413
 1842W        W 5586   4.435   4.565   2.807
 1843W        W 5587   7.905   2.800   0.364
 1844W        W 5588   6.141   8.958   2.457
 1845W        W 5589   5.043  10.415  11.421
 1846W        W 5590   1.713   3.773   0.769
 1847W        W 5591   2.175   2.617   9.750
 1848W        W 5592   5.636   7.040   3.272
 1849W        W 5593   0.682   4.877   9.538
 1850W        W 5594   1.281   9.554   2.138
 1851W        W 5595   3.844   7.090   3.249
 1852W        W 5596   6.954   3.284   0.687
 1853W        W 5597   4.334   4.695   1.325
 1854W        W 5598  10.203   8.303  10.497
 1855W        W 5599   8.844   5.093   9.011
 1856W        W 5600   1.006   7.938   8.638
 1857W        W 5601   3.704   4.925   2.339
 1858W        W 5602   1.396   4.098  11.488
 1859W        W 5603   7.916   9.062  11.874
 1860W        W 5604   7.164   9.789   1.755
 1861W        W 5605  10.273   9.811   3.289
 1862W        W 5606   8.471   4.755   2.629
 1863W        W 5607   0.273   2.740   1.681
 1864W        W 5608  10.390   1.131   1.890
 1865W        W 5609   9.704   8.763   1.024
 1866W        W 5610   7.017   1.670   3.427
 1867W        W 5611   2.087   2.719  10.957
 1868W        W 5612   0.404   0.383   3.406
 1869W        W 5613   4.544   6.769  11.279
 1870W        W 5614   5.177   3.507   2.725
 1871W        W 5615   3.659   6.247   9.446
 1872W        W 5616   1.747   2.760   2.248
 1873W        W 5617   9.510   5.608   3.177
 1874W        W 5618   5.841   3.798   8.642
 1875W        W 5619   3.051   0.948   1.146
 1876W        W 5620   5.163   9.269  10.762
 1877W        W 5621   8.548   8.135   2.561
 1878W        W 5622   5.908   2.976   9.781
 1879W        W 5623   0.176   5.607   2.796
 1880W        W 5624   2.318   4.209   1.371
 1881W        W 5625   6.597   2.004   0.816
 1882W        W 5626   1.817   9.881  10.974
 1883W        W 5627   0.694   8.044   1.024
 1884W        W 5628  10.355   2.687   9.785
 1885W        W 5629   1.715   1.783  11.588
 1886W        W 5630   0.949   7.808   1.922
 1887W        W 5631   1.244   3.760   0.530
 1888W        W 5632   6.290   2.621   9.903
 1889W        W 5633   0.809   1.873  10.271
 1890W        W 5634   8.305   6.106   0.864
 1891W        W 5635   1.846   8.116   1.255
 1892W        W 5636   4.854   4.024   9.889
 1893W        W 5637   9.304   0.695   1.825
 1894W        W 5638  10.394   7.050   3.162
 1895W        W 5639   3.186   5.657   0.005
 1896W        W 5640   5.747   7.725   2.871
 1897W        W 5641   1.740   3.994   8.908
 1898W        W 5642   9.314  10.061   3.252
 1899W        W 5643   7.491   8.686   9.980
 1900W        W 5644   3.800   7.348   0.796
 1901W        W 5645   8.543   0.448   9.275
 1902W        W 5646   3.603   6.036   0.690
 1903W        W 5647   2.825   7.188   8.955
 1904W        W 5648   6.105   4.433   9.459
 1905W        W 5649   3.433   2.758   8.504
 1906W        W 5650   3.208   1.834  11.459
 1907W        W 5651   9.479   5.246   1.729
 1908W        W 5652  10.266   7.659   9.180
 1909W        W 5653   3.843   6.118   0.231
 1910W        W 5654   6.445   2.353   2.466
 1911W        W 5655   4.968   6.256   9.058
 1912W        W 5656   5.695   4.063   0.701
 1913W        W 5657   1.198   7.900   0.285
 1914W        W 5658   4.449   0.044   9.563
 1915W        W 5659   0.523   8.323  10.813
 1916W        W 5660   4.193   4.868   1.795
 1917W        W 5661   1.751   6.612   2.470
 1918W        W 5662  10.216   5.652   1.364
 1919W        W 5663   6.298   3.624   0.197
 1920W        W 5664   7.638   9.462   2.194
 1921W        W 5665   8.127   6.528   9.272
 1922W        W 5666   7.032   5.792   0.474
 1923W        W 5667   6.508   4.906   2.935
 1924W        W 5668   6.448   6.365  10.311
 1925W        W 5669  10.385   2.625   0.417
 1926W        W 5670   6.036   1.130   9.509
 1927W        W 5671   1.348   8.955   9.604
 1928W        W 5672  10.440   4.545   3.157
 1929W        W 5673   9.527   5.862   0.324
 1930W        W 5674   3.718   9.983  11.050
 1931W        W 5675   5.204   0.363   3.018
 1932W        W 5676   6.374   1.896   9.595
 1933W        W 5677   3.255   2.077   3.644
 1934W        W 5678   4.545   3.630   9.994
 1935W        W 5679   8.330   8.063  10.501
 1936W        W 5680   2.898   3.651  11.053
 1937W        W 5681   9.901   6.193   0.524
 1938W        W 5682   0.815   2.694   1.943
 1939W        W 5683   0.194   1.933   0.500
 1940W        W 5684   8.001   4.222   0.283
 1941W        W 5685   8.052   4.362   8.604
 1942W        W 5686   9.878   3.540   8.932
 1943W        W 5687   9.439   4.597   0.982
 1944W        W 5688   0.061  10.492   3.557
 1945W        W 5689   3.117   7.837   9.054
 1946W        W 5690   3.386   0.897   0.357
 1947W        W 5691  10.347   0.018   8.867
 1948W        W 5692  10.046   1.203   8.604
 1949W        W 5693   6.097   7.455   9.093
 1950W        W 5694   7.453   3.114   0.410
 1951W        W 5695   6.185   1.252   0.969
 1952W        W 5696   5.095   1.607   1.799
 1953W        W 5697  10.470   2.179   2.777
 1954W        W 5698   5.680   3.698   1.474
 1955W        W 5699   6.618   2.543  10.351
 1956W        W 5700   1.584   9.087   3.329
 1957W        W 5701   8.052   0.256   1.467
 1958W        W 5702   0.762   0.203   2.821
 1959W        W 5703   1.362   3.696  11.078
 1960W        W 5704   6.889   2.884   9.040
 1961W        W 5705   4.791   9.433  10.460
 1962W        W 5706   0.218   6.949   0.491
 1963W        W 5707   0.965   5.632   1.690
 1964W        W 5708   2.333   5.553   1.004
 1965W        W 5709   4.763   6.594   8.600
 1966W        W 5710   8.566   3.731   1.575
 1967W        W 5711   2.637   0.803  11.059
 1968W        W 5712   5.566   7.433   0.167
 1969W        W 5713   0.742   5.092   9.024
 1970W        W 5714   1.316   1.468   9.829
 1971W        W 5715   1.763  10.253   9.033
 1972W        W 5716   5.764   5.417   0.629
 1973W        W 5717   4.950   6.994  10.326
 1974W        W 5718   9.831   6.063   2.851
 1975W        W 5719   7.167   4.118   9.745
 1976W        W 5720  10.495   5.496   3.256
 1977W        W 5721   5.417   8.056   3.218
 1978W        W 5722   7.969   7.377   0.389
 1979W        W 5723   4.785   4.964   9.397
 1980W        W 5724   5.372   6.213   8.743
 1981W        W 5725   6.649   4.958   0.383
 1982W        W 5726  10.250   4.537   2.138
 1983W        W 5727   8.346   1.340   0.794
 1984W        W 5728   0.060   6.677  11.572
 1985W        W 5729   8.234   4.154   0.741
 1986W        W 5730   2.616   4.479   9.248
 1987W        W 5731   4.595   2.614   9.330
 1988W        W 5732   1.790   5.651   1.675
 1989W        W 5733   4.276   7.970   1.943
 1990W        W 5734  10.466   4.569  11.932
 1991W        W 5735   3.649   5.415  11.813
 1992W        W 5736   1.712   3.797   9.806
 1993W        W 5737   2.949   0.740   0.661
 1994W        W 5738   6.003   1.594   9.787
 1995W        W 5739   0.469   4.286   8.711
 1996W        W 5740  10.415   2.318   9.021
 1997W        W 5741   4.520   3.606   8.104
 1998W        W 5742   9.489  10.362   0.773
 1999W        W 5743   9.302   8.787   1.887
 2000W        W 5744   8.829   5.323   3.316
 2001W        W 5745   8.924  10.315   2.758
 2002W        W 5746  10.190   7.878  10.834
 2003W        W 5747   9.707   9.145   8.413
 2004W        W 5748   0.520   6.992   2.433
 2005W        W 5749   3.063   7.669   1.885
 2006W        W 5750  10.251   5.846   2.644
 2007W        W 5751   2.332   9.934   2.449
 2008W        W 5752   4.616   7.632   9.782
 2009W        W 5753   7.821   4.630   9.884
 2010W        W 5754   5.085   5.177   1.904
 2011W        W 5755   0.530   6.353  11.053
 2012W        W 5756   6.811   3.122   3.119
 2013W        W 5757   2.108   2.553  11.492
 2014W        W 5758   5.459   6.892   0.943
 2015W        W 5759   2.358  10.430   3.169
 2016W        W 5760   8.511   3.592   0.994
 2017W        W 5761   6.001   6.991   9.969
 2018W        W 5762   3.739   3.081  11.989
 2019W        W 5763   0.336  10.480   9.098
 2020W        W 5764   6.559  10.125   1.903
 2021W        W 5765   0.861   9.854   9.051
 2022W        W 5766   6.005   4.213   8.910
 2023W        W 5767   2.124   9.858  11.506
 2024W        W 5768   6.591   9.511   1.099
 2025W        W 5769   8.750   6.444   0.313
 2026W        W 5770   1.268   3.422  10.409
 2027W        W 5771   8.075   0.020  10.983
 2028W        W 5772   0.867   8.638   0.094
 2029W        W 5773   1.454   5.376   8.908
 2030W        W 5774   6.634   8.627   0.767
 2031W        W 5775   3.141   8.041   8.573
 2032W        W 5776   3.479   3.106   2.229
 2033W        W 5777   0.717   5.196   1.759
 2034W        W 5778   0.974   9.494   1.377
 2035W        W 5779   8.812   5.561  11.299
 2036W        W 5780   2.255   0.770   1.416
 2037W        W 5781   3.307   1.729   8.755
 2038W        W 5782   2.292   4.712   2.152
 2039W        W 5783   1.687   6.678   9.317
 2040W        W 5784  10.335  10.342  11.391
 2041W        W 5785   0.290   1.788   1.379
 2042W        W 5786   0.291   2.398   3.934
 2043W        W 5787   5.327   8.539   8.444
 2044W        W 5788   8.608   0.773   1.046
 2045W        W 5789   1.974   0.393   3.043
 2046W        W 5790   9.855   5.171  11.384
 2047W        W 5791   6.677   4.440   2.770
 2048W        W 5792   5.197   0.997   0.172
 2049W        W 5793   1.919   2.291   3.173
 2050W        W 5794   0.269   6.116   1.779
 2051W        W 5795   2.303   6.105   9.287
 2052W        W 5796   3.410   9.628   3.668
 2053W        W 5797   3.185   4.569  10.062
 2054W        W 5798   1.785   2.285  10.837
 2055W        W 5799   9.244   5.422  11.563
 2056W        W 5800  10.449   1.262   3.210
 2057W        W 5801   8.648   3.570   2.899
 2058W        W 5802   4.538   6.685  10.348
 2059W        W 5803   6.981   3.241   0.174
 2060W        W 5804   4.244  10.289   9.174
 2061W        W 5805   3.092   1.188  11.492
 2062W        W 5806   2.157   6.996   0.507
 2063W        W 5807   7.509   2.602  11.338
 2064W        W 5808   6.120   3.986   9.715
 2065W        W 5809   7.001   8.696  11.884
 2066W        W 5810   4.639   3.627   3.444
 2067W        W 5811   2.698   5.254  10.298
 2068W        W 5812   8.488   7.192  10.955
 2069W        W 5813   3.831   3.598   0.066
 2070W        W 5814   5.174   3.508   3.240
 2071W        W 5815   0.151  10.048  10.006
 2072W        W 5816   1.648   5.157   2.727
 2073W        W 5817   1.800   1.930   8.678
 2074W        W 5818   4.313   7.056   9.188
 2075W        W 5819   9.867  10.015   1.886
 2076W        W 5820   7.002   2.215   2.200
 2077W        W 5821   5.706   6.823  10.879
 2078W        W 5822   2.042   4.845   0.036
 2079W        W 5823   7.912   1.660   2.450
 2080W        W 5824   5.967   5.544   1.480
 2081W        W 5825   1.125   4.534  11.466
 2082W        W 5826   2.733   5.615  11.749
 2083W        W 5827   2.769   8.472  11.194
 2084W        W 5828   7.084   1.739   1.968
 2085W        W 5829   1.360   1.166   1.184
 2086W        W 5830   4.333   2.276   3.262
 2087W        W 5831   0.535   7.800   9.519
 2088W        W 5832   2.976  10.007  11.832
 2089W        W 5833   1.334   0.910  11.057
 2090W        W 5834   5.620   4.647   9.637
 2091W        W 5835   7.952   3.649   2.427
 2092W        W 5836   8.957   5.368   0.976
 2093W        W 5837   7.943   2.169  11.922
 2094W        W 5838   0.788   5.947   3.313
 2095W        W 5839   3.864   7.116   2.710
 2096W        W 5840   3.611   4.165   8.591
 2097W        W 5841   8.886   2.675   9.214
 2098W        W 5842   7.750   2.810   0.854
 2099W        W 5843   4.710   4.024  11.906
 2100W        W 5844   0.899  10.144   9.497
 2101W        W 5845   8.789   7.912  10.636
 2102W        W 5846   5.253   2.332   3.150
 2103W        W 5847   1.755   3.043   3.704
 2104W        W 5848   3.314   9.679  10.884
 2105W        W 5849   8.626   0.916  11.837
 2106W        W 5850  10.426   4.648  10.830
 2107W        W 5851   7.103   7.973   2.636
 2108W        W 5852   4.301   9.259   3.313
 2109W        W 5853   2.218   3.264   3.357
 2110W        W 5854   7.686   1.292  11.000
 2111W        W 5855   9.404   3.097   1.793
 2112W        W 5856   7.441   7.023   3.226
 2113W        W 5857   5.474   9.381   2.015
 2114W        W 5858   4.764   0.782   0.301
 2115W        W 5859   6.091   6.064   1.558
 2116W        W 5860   5.594   4.072   8.245
 2117W        W 5861   7.635   1.524  10.025
 2118W        W 5862   3.295   7.240   1.685
 2119W        W 5863   0.320   2.848   0.281
 2120W        W 5864   4.689   1.444  10.782
 2121W        W 5865   2.246   6.471   2.813
 2122W        W 5866   1.197   7.978  10.964
 2123W        W 5867   7.444  10.065  10.283
 2124W        W 5868   8.147   0.503   1.011
 2125W        W 5869   8.443   4.054   8.705
 2126W        W 5870   7.055   3.851   3.338
 2127W        W 5871   1.632   9.714   0.355
 2128W        W 5872   8.367   8.408   9.062
 2129W        W 5873   1.368   9.296   1.677
 2130W        W 5874   1.635   4.133   1.634
 2131W        W 5875   7.512   8.088  10.579
 2132W        W 5876   9.024   6.643   1.150
 2133W        W 5877   1.488   1.456   3.662
 2134W        W 5878   2.798   2.174   0.884
 2135W        W 5879   8.929   6.170   1.334
 2136W        W 5880   1.276   3.816  10.083
 2137W        W 5881   0.353   0.504   2.925
 2138W        W 5882   0.447   8.781   9.567
 2139W        W 5883   8.005   0.697   3.300
 2140W        W 5884   9.101   0.794   9.904
 2141W        W 5885   8.084   2.864  10.216
 2142W        W 5886   1.027   6.289   3.623
 2143W        W 5887   8.503   1.890   9.623
 2144W        W 5888   9.366  10.497   2.984
 2145W        W 5889   7.044   2.394   0.200
 2146W        W 5890   8.819   0.187   2.360
 2147W        W 5891   1.819   8.739   0.424
 2148W        W 5892  10.329   8.956   2.692
 2149W        W 5893   1.004   5.317  11.238
 2150W        W 5894   3.177   2.813   9.873
 2151W        W 5895   0.742   1.747   2.999
 2152W        W 5896   7.476   7.404   0.270
 2153W        W 5897   9.998   4.681   2.899
 2154W        W 5898   4.711   3.732   0.410
 2155W        W 5899   9.936   1.231   0.792
 2156W        W 5900   9.274   0.299  11.407
 2157W        W 5901   1.365   9.892   9.487
 2158W        W 5902   2.912   4.819   8.564
 2159W        W 5903   9.068   6.699   0.638
 2160W        W 5904   8.958   8.421   3.111
 2161W        W 5905   8.088   3.536  11.801
 2162W        W 5906   6.816   8.983   0.252
 2163W        W 5907   6.118   9.528   1.372
 2164W        W 5908   7.920   6.045   2.384
 2165W        W 5909   7.767   7.638  11.970
 2166W        W 5910   4.362   2.819   3.249
 2167W        W 5911   4.128   5.002   0.922
 2168W        W 5912   3.393   9.944   1.464
 2169W        W 5913   7.707   9.252   9.006
 2170W        W 5914  10.316   8.415   2.585
 2171W        W 5915   5.255   1.464   0.000
 2172W        W 5916   7.056   0.408  10.467
 2173W        W 5917   2.580   2.057   1.601
 2174W        W 5918   4.458   2.759   0.609
 2175W        W 5919   1.358   6.858  11.956
 2176W        W 5920   2.641   1.152   2.744
 2177W        W 5921   4.228   4.813   2.354
 2178W        W 5922   0.007   4.715   1.731
 2179W        W 5923   7.198  10.269   2.841
 2180W        W 5924   4.624   8.956  10.619
 2181W        W 5925   9.297   5.734   1.725
 2182W        W 5926   8.460   2.340   0.337
 2183W        W 5927   3.449   9.081   2.919
 2184W        W 5928   3.094   2.783   2.067
 2185W        W 5929  10.332   2.553   3.087
 2186W        W 5930   5.099   9.794   2.034
 2187W        W 5931  10.275   9.700  10.005
 2188W        W 5932   5.577   9.296   0.256
 2189W        W 5933   1.795   8.661   2.625
 2190W        W 5934   7.001   2.828   0.465
 2191W        W 5935   9.898   8.588   9.549
 2192W        W 5936   5.614   9.993   2.720
 2193W        W 5937   7.056   4.933   9.127
 2194W        W 5938   1.810   6.682  11.737
 2195W        W 5939   8.055   5.045  10.061
 2196W        W 5940   2.588   8.082   9.847
 2197W        W 5941   0.330   6.880   1.364
 2198W        W 5942   5.052   4.933  11.023
 2199W        W 5943   8.585   1.459  11.862
 2200W        W 5944   5.863   9.864  11.467
 2201W        W 5945   8.224   7.795   1.813
 2202W        W 5946   9.661   1.369   2.148
 2203W        W 5947   8.321   0.759   0.218
 2204W        W 5948   7.077  10.159   0.755
 2205W        W 5949   9.254   5.100   3.163
 2206W        W 5950   7.026   9.869  10.527
 2207W        W 5951   2.787   0.670   2.868
 2208W        W 5952   9.970   9.381  11.307
 2209W        W 5953   4.154   0.507   0.692
 2210W        W 5954   5.100   7.080  11.514
 2211W        W 5955   8.024   2.303   9.014
 2212W        W 5956   9.781   1.818   0.501
 2213W        W 5957   4.428   7.059   8.663
 2214W        W 5958   8.498   0.106   2.791
 2215W        W 5959   8.141   7.317   2.195
 2216W        W 5960   4.642   2.573  10.265
 2217W        W 5961   2.830   1.759   1.283
 2218W        W 5962   0.336   1.761  11.549
 2219W        W 5963   1.580   2.783  10.794
 2220W        W 5964   4.126   5.275   2.578
 2221W        W 5965   4.124   4.383  10.376
 2222W        W 5966   4.162   8.362   9.567
 2223W        W 5967   1.999   1.502   8.478
 2224W        W 5968   6.018   2.447  11.509
 2225W        W 5969   9.063   3.841   1.755
 2226W        W 5970  10.339  10.452   0.688
 2227W        W 5971   8.386   5.197   0.270
 2228W        W 5972   8.438   7.437   2.737
 2229W        W 5973   7.614   2.744   2.781
 2230W        W 5974   5.613   8.482   1.919
 2231W        W 5975   3.744   9.365   1.015
 2232W        W 5976   0.698   2.566  10.997
 2233W        W 5977   6.175   9.860   0.997
 2234W        W 5978   6.054  10.332   1.189
 2235W        W 5979   8.340   8.553  10.616
 2236W        W 5980   2.418   1.234  10.936
 2237W        W 5981   8.291  10.293   1.315
 2238W        W 5982  10.119   7.490   0.928
 2239W        W 5983   7.114   5.115   1.628
 2240W        W 5984   8.544   3.738  10.506
 2241W        W 5985   6.934   7.453  11.199
 2242W        W 5986   1.025   5.694  11.652
 2243W        W 5987   7.473   4.302   1.158
 2244W        W 5988   3.087   3.241  10.505
 2245W        W 5989   8.403   8.802  11.837
 2246W        W 5990   2.496   2.787  10.600
 2247W        W 5991   9.915   6.049  11.496
 2248W        W 5992   1.006   7.122   9.108
 2249W        W 5993   5.681   1.788  11.505
 2250W        W 5994   6.491   7.098   3.199
 2251W        W 5995   8.441   7.909   3.566
 2252W        W 5996   1.865   5.600   0.759
 2253W        W 5997   2.682   6.517   3.641
 2254W        W 5998   9.501   0.413   3.304
 2255W        W 5999   3.686   4.774   1.840
 2256W        W 6000   8.418   0.985   1.934
 2257W        W 6001   3.214   6.055   3.258
 2258W        W 6002   1.174   2.253  10.068
 2259W        W 6003   4.335   9.905   1.477
 2260W        W 6004   3.275   5.654   0.907
 2261W        W 6005   5.444   0.854  10.075
 2262W        W 6006   6.373   4.983   9.398
 2263W        W 6007   3.611   5.369  11.124
 2264W        W 6008   0.282   5.078   3.373
 2265W        W 6009   2.350   6.059   1.892
 2266W        W 6010   3.085   8.132   9.931
 2267W        W 6011   7.949   3.330   9.404
 2268W        W 6012   7.388   4.042  11.338
 2269W        W 6013   2.350   6.489   0.848
 2270W        W 6014   4.438   4.615   9.555
 2271W        W 6015   8.462   7.702  11.001
 2272W        W 6016   5.726   1.218   2.338
 2273W        W 6017   9.187   0.295  10.065
 2274W        W 6018   9.976   6.963   0.267
 2275W        W 6019   6.284   6.200  11.392
 2276W        W 6020   5.480   5.864  11.293
 2277W        W 6021   5.040   6.964   9.808
 2278W        W 6022   2.846   7.483  11.986
 2279W        W 6023   8.067   4.528   1.891
 2280W        W 6024   8.949   6.085   9.450
 2281W        W 6025   7.174   1.695   1.476
 2282W        W 6026  10.317   9.899   2.213
 2283W        W 6027   5.556   7.077   9.679
 2284W        W 6028   1.397   7.534   9.797
 2285W        W 6029   6.589   6.214  11.813
 2286W        W 6030   7.161   9.237  11.323
 2287W        W 6031   5.256   7.894  11.852
 2288W        W 6032   2.905   1.070   0.283
 2289W        W 6033   3.395   0.382  11.744
 2290W        W 6034   4.927   4.401   9.532
 2291W        W 6035  10.169   1.465   2.220
 2292W        W 6036   9.385   8.119  11.112
 2293W        W 6037   8.057   0.282   2.487
 2294W        W 6038   1.579   3.354  10.013
 2295W        W 6039   1.520   8.265   0.526
 2296W        W 6040   7.070   3.082   2.178
 2297W        W 6041   0.069   4.005  10.129
 2298W        W 6042   9.254   1.355   2.549
 2299W        W 6043   6.476   2.431   1.896
 2300W        W 6044   0.275   6.454   0.400
 2301W        W 6045   1.255   6.892   3.358
 2302W        W 6046   1.956  10.445   0.742
 2303W        W 6047   2.777   6.398   8.574
 2304W        W 6048   0.456   2.285   8.958
 2305W        W 6049   7.990   4.176   2.660
 2306W        W 6050   7.015   8.892   9.095
 2307W        W 6051   1.157   5.104   1.526
 2308W        W 6052   9.607  10.340  10.896
 2309W        W 6053   8.375  10.438   2.301
 2310W        W 6054   1.588   5.184   0.883
 2311W        W 6055   9.517   0.917   3.005
 2312W        W 6056   0.714   3.389   2.738
 2313W        W 6057   2.804   8.541   1.354
 2314W        W 6058   0.096   2.207   3.436
 2315W        W 6059   1.274   3.193  10.860
 2316W        W 6060   0.300   2.355  10.751
 2317W        W 6061   3.580   4.141   0.895
 2318W        W 6062   5.079   8.408  11.051
 2319W        W 6063   0.452   1.829   9.820
 2320W        W 6064   0.868   0.916  11.282
 2321W        W 6065   1.985   7.092   9.316
 2322W        W 6066   5.218   6.652  10.782
 2323W        W 6067   0.906   6.345   1.379
 2324W        W 6068   2.247  10.207  10.764
 2325W        W 6069   7.383   5.697   3.519
 2326W        W 6070   6.253   2.883  11.704
 2327W        W 6071   3.369   7.089   9.538
 2328W        W 6072   8.104   8.140   0.774
 2329W        W 6073   3.742   6.887  11.913
 2330W        W 6074   1.387   9.304   0.134
 2331W        W 6075   5.446   6.072   1.095
 2332W        W 6076   3.675   7.162  10.569
 2333W        W 6077  10.106   6.556  11.342
 2334W        W 6078   7.473   3.281  10.198
 2335W        W 6079   6.678   3.709   0.625
 2336W        W 6080   7.089   4.541   1.581
 2337W        W 6081   0.534   1.885  10.719
 2338W        W 6082   3.853   8.918   3.508
 2339W        W 6083   9.720   2.763   9.057
 2340W        W 6084   5.582   7.960   0.228
 2341W        W 6085   9.285   9.866   9.959
 2342W        W 6086   7.198   2.731   8.624
 2343W        W 6087   5.256   7.596   3.081
 2344W        W 6088   3.742   3.795  11.539
 2345W        W 6089   5.580   1.728   9.532
 2346W        W 6090   8.728   1.315   2.523
 2347W        W 6091   8.003   3.668   0.784
 2348W        W 6092   9.118   2.652   2.831
 2349W        W 6093  10.025   7.164   3.509
 2350W        W 6094   8.894   5.721  11.815
 2351W        W 6095   4.211   3.791   9.610
 2352W        W 6096   7.506   4.990   8.900
 2353W        W 6097   0.470   4.589   0.095
 2354W        W 6098   3.194   5.419  10.207
 2355W        W 6099   3.275   1.235   0.759
 2356W        W 6100   1.709   9.777   9.858
 2357W        W 6101   6.162   1.259   8.963
 2358W        W 6102   1.662   9.668  10.356
 2359W        W 6103   0.483   2.119  11.201
 2360W        W 6104   1.498  10.404   1.802
 2361W        W 6105   7.176   5.055   1.139
 2362W        W 6106   7.360   3.180   2.818
 2363W        W 6107   6.474   4.515  11.605
 2364W        W 6108   0.735   1.245  10.934
 2365W        W 6109   4.317   2.728   1.465
 2366W        W 6110   5.559   8.949   1.681
 2367W        W 6111   6.533   0.038   9.635
 2368W        W 6112   3.164   3.665   3.523
 2369W        W 6113   2.306   9.450  11.779
 2370W        W 6114  10.301   9.130   8.922
 2371W        W 6115   4.626   3.723   1.422
 2372W        W 6116   1.937   9.567   8.531
 2373W        W 6117   9.089   4.586   0.610
 2374W        W 6118   8.085   6.603   9.762
 2375W        W 6119   2.850   3.941   1.498
 2376W        W 6120  10.124   5.643   9.453
 2377W        W 6121   2.949   8.596  10.160
 2378W        W 6122   3.653   7.970  11.824
 2379W        W 6123   6.820   5.509   1.770
 2380W        W 6124   3.807   8.366   2.149
 2381W        W 6125   0.278   1.314  10.729
 2382W        W 6126   3.287   1.305  10.079
 2383W        W 6127   9.091   8.275   8.521
 2384W        W 6128   5.285   3.026   2.558
 2385W        W 6129  10.345   9.175  10.093
 2386W        W 6130   2.072   2.836   8.835
 2387W        W 6131   2.676   5.027   2.361
 2388W        W 6132   8.944   9.817   1.264
 2389W        W 6133   3.171   6.138   1.009
 2390W        W 6134   8.740   0.451   0.121
 2391W        W 6135   1.247   8.169   2.726
 2392W        W 6136   4.599   1.624   9.902
 2393W        W 6137   6.593   2.238   0.358
 2394W        W 6138   3.020   4.101   9.420
 2395W        W 6139   8.979   9.325  10.778
 2396W        W 6140   8.604   4.588   9.412
 2397W        W 6141   4.504  10.447   0.293
 2398W        W 6142   0.155   9.808  10.490
 2399W        W 6143   7.907   4.739  10.774
 2400W        W 6144   1.433   9.077   2.178
 2401W        W 6145   5.936   7.638  10.396
 2402W        W 6146   5.100   8.151   3.644
 2403W        W 6147   0.837   3.571   2.266
 2404W        W 6148   9.759   6.150  10.453
 2405W        W 6149   5.994   8.681  11.884
 2406W        W 6150   3.336   6.832  10.406
 2407W        W 6151   4.651   2.633  11.764
 2408W        W 6152   4.245   1.770   8.753
 2409W        W 6153   3.684   7.730   3.898
 2410W        W 6154   8.923   7.528   2.585
 2411W        W 6155   7.725   0.382   8.445
 2412W        W 6156  10.060   9.466   1.175
 2413W        W 6157   1.600   4.545   3.629
 2414W        W 6158   8.552   9.369  10.070
 2415W        W 6159   5.321   4.788   2.148
 2416W        W 6160   8.847  10.447  11.363
 2417W        W 6161   3.031   0.306   3.663
 2418W        W 6162   7.579   2.687   9.538
 2419W        W 6163   5.542   8.301  11.756
 2420W        W 6164  10.432   7.910   3.345
 2421W        W 6165   6.517   0.465  11.953
 2422W        W 6166   2.400   6.827   9.620
 2423W        W 6167   2.854   8.097   9.399
 2424W        W 6168   8.411   4.191   1.253
 2425W        W 6169   5.569   5.146  10.370
 2426W        W 6170   9.967   1.868   9.920
 2427W        W 6171   4.758   3.665   2.453
 2428W        W 6172  10.115   8.385   0.293
 2429W        W 6173   5.062   9.243   0.232
 2430W        W 6174   4.671   1.221  10.312
 2431W        W 6175   0.671   2.293   9.959
 2432W        W 6176   2.229   4.774   9.081
 2433W        W 6177   8.878   9.541   1.729
 2434W        W 6178   7.249   6.497   9.905
 2435W        W 6179   0.401   4.318   0.548
 2436W        W 6180   9.220   5.760   1.211
 2437W        W 6181   2.813   9.458   2.981
 2438W        W 6182   2.702   7.825   0.688
 2439W        W 6183   2.554   0.316  11.305
 2440W        W 6184   6.148   4.735  11.272
 2441W        W 6185   2.910   0.275   9.259
 2442W        W 6186   0.929   0.527   8.418
 2443W        W 6187   9.886   3.729   1.263
 2444W        W 6188   4.949   3.986   4.105
 2445W        W 6189   7.168   7.719  10.819
 2446W        W 6190   9.006   5.953   8.962
 2447W        W 6191   1.655   4.210  10.767
 2448W        W 6192   7.087   4.594   9.524
 2449W        W 6193   0.764   1.439   9.994
 2450W        W 6194   8.891   0.278   0.900
 2451W        W 6195  10.339   7.182   8.987
 2452W        W 6196   2.131   1.847  10.773
 2453W        W 6197   3.735   0.986   9.115
 2454W        W 6198   2.266   8.552   9.429
 2455W        W 6199   4.144   1.353   1.845
 2456W        W 6200   7.568   8.032   3.534
 2457W        W 6201   6.911   0.788   9.562
 2458W        W 6202   1.829   1.400   2.018
 2459W        W 6203   7.452   8.424  11.665
 2460W        W 6204   2.678   2.090   2.913
 2461W        W 6205  10.457  10.046  10.945
 2462W        W 6206   3.174   7.839   3.600
 2463W        W 6207   8.041   0.718   2.771
 2464W        W 6208   2.359   7.690   3.065
 2465W        W 6209   2.592   2.269   2.452
 2466W        W 6210  10.398   3.721   0.016
 2467W        W 6211   6.489   6.983   1.832
 2468W        W 6212   6.114  10.471   1.731
 2469W        W 6213   3.891   0.083   8.954
 2470W        W 6214   3.758   0.537   9.343
 2471W        W 6215   7.195   7.846   0.870
 2472W        W 6216   5.064   3.566   9.882
 2473W        W 6217   8.099   9.305  10.348
 2474W        W 6218   1.762   0.875   1.289
 2475W        W 6219   1.875   2.101  10.371
 2476W        W 6220   6.675   2.889   0.860
 2477W        W 6221   4.608   8.560  11.899
 2478W        W 6222   9.998   9.543   8.566
 2479W        W 6223   6.257   8.842  11.456
 2480W        W 6224   0.399   4.182   1.044
 2481W        W 6225   6.068   6.300   3.401
 2482W        W 6226   8.279   7.990   8.774
 2483W        W 6227   4.157   7.712   0.811
 2484W        W 6228   5.230  10.158  11.906
 2485W        W 6229  10.143   8.544   1.176
 2486W        W 6230   5.128   2.529  10.017
 2487W        W 6231   3.194  10.430   1.298
 2488W        W 6232   5.017   6.017  11.902
 2489W        W 6233   7.570   8.794   8.747
 2490W        W 6234   8.942   3.174   9.043
 2491W        W 6235   0.866   7.479  10.292
 2492W        W 6236   0.379   1.597  10.304
 2493W        W 6237   0.929   8.980   1.439
 2494W        W 6238  10.097   8.126   9.445
 2495W        W 6239   7.165   2.883  11.076
 2496W        W 6240   2.901   0.226   1.589
 2497W        W 6241   2.476   7.244   9.315
 2498W        W 6242   3.901   8.099   1.617
 2499W        W 6243   5.431   4.271   3.142
 2500W        W 6244   9.930   2.441  11.664
 2501W        W 6245   3.379   0.272   1.761
 2502W        W 6246   7.556   3.802  10.429
 2503W        W 6247   4.258   3.880  11.288
 2504W        W 6248   0.032   5.926   2.212
 2505W        W 6249   0.660   6.568  10.263
 2506W        W 6250   7.892   2.331   2.786
 2507W        W 6251   9.395   3.159   1.286
 2508W        W 6252   3.735   1.287   0.999
 2509W        W 6253   4.610   7.995   3.624
 2510W        W 6254   1.199   5.326  10.292
 2511W        W 6255   5.722   9.898   1.301
 2512W        W 6256   0.731   7.453   2.258
 2513W        W 6257   7.930  10.025  11.049
 2514W        W 6258   9.412   7.676  10.173
 2515W        W 6259   5.669   4.505   9.153
 2516W        W 6260   8.038   1.773   1.949
 2517W        W 6261   7.819   7.053   0.865
 2518W        W 6262   8.019   0.249   2.984
 2519W        W 6263   9.356   2.817   0.492
 2520W        W 6264   2.140   7.433   1.731
 2521W        W 6265   4.145   8.634   0.864
 2522W        W 6266   8.905   5.966  10.965
 2523W        W 6267   9.600  10.049   3.725
 2524W        W 6268  10.014   4.463   1.670
 2525W        W 6269   2.396   5.330   1.455
 2526W        W 6270  10.053   4.878  11.816
 2527W        W 6271   8.122   2.463   1.436
 2528W        W 6272   9.184   3.658   9.167
 2529W        W 6273   6.267   2.885   1.168
 2530W        W 6274  10.289   1.285   9.978
 2531W        W 6275  10.439   2.430   1.927
 2532W        W 6276   6.498   2.786   2.779
 2533W        W 6277   8.461   7.200   8.816
 2534W        W 6278   9.855  10.230   2.787
 2535W        W 6279   0.822   6.813   1.164
 2536W        W 6280   3.254   0.225  10.041
 2537W        W 6281   2.050   2.747   3.382
 2538W        W 6282   4.062   5.279   0.478
 2539W        W 6283   6.216   6.935   9.081
 2540W        W 6284   2.867   4.169   9.903
 2541W        W 6285   3.189   9.696   9.939
 2542W        W 6286   5.951   6.639  11.311
 2543W        W 6287   8.161   4.038  11.833
 2544W        W 6288   7.234   5.583   1.188
 2545W        W 6289   0.912   9.157   9.427
 2546W        W 6290   5.235   0.276   1.935
 2547W        W 6291   6.236   1.234  10.044
 2548W        W 6292   7.859   5.444   1.763
 2549W        W 6293   7.414   8.075   3.048
 2550W        W 6294   5.473   7.825   3.742
 2551W        W 6295   7.046   6.077   0.040
 2552W        W 6296   1.891   4.261   9.856
 2553W        W 6297   5.002   2.924   8.556
 2554W        W 6298   2.995   3.482   3.040
 2555W        W 6299   9.279   9.282   3.373
 2556W        W 6300   6.242   4.982   2.156
 2557W        W 6301   4.510   7.704  11.446
 2558W        W 6302   9.006   4.502  11.041
 2559W        W 6303   8.567   9.286  11.126
 2560W        W 6304   5.969   3.504   9.866
 2561W        W 6305  10.448   0.313   3.156
 2562W        W 6306   3.564   2.247   8.738
 2563W        W 6307   8.141   9.322  11.507
 2564W        W 6308   4.727   8.366   0.416
 2565W        W 6309   8.940   1.484   1.542
 2566W        W 6310   6.931   0.817  10.930
 2567W        W 6311   4.596   6.657   9.078
 2568W        W 6312   9.156   3.452   2.066
 2569W        W 6313   8.480   7.401   0.340
 2570W        W 6314   4.679   9.063  10.107
 2571W        W 6315   1.833   6.499   3.541
 2572W        W 6316   5.208   1.312   2.495
 2573W        W 6317   3.625   8.403  10.877
 2574W        W 6318   5.616   1.705   0.549
 2575W        W 6319   3.820   7.472   9.785
 2576W        W 6320   5.659   5.150   1.299
 2577W        W 6321   9.414   7.902   2.068
 2578W        W 6322   7.216   1.376   9.762
 2579W        W 6323   8.510   6.755   9.990
 2580W        W 6324   9.855   9.707   2.817
 2581W        W 6325   4.064   1.526  11.561
 2582W        W 6326   0.744   6.123   9.892
 2583W        W 6327   1.389   8.481  11.072
 2584W        W 6328   3.317   1.462  10.592
 2585W        W 6329  10.487   0.008   9.700
 2586W        W 6330   2.596   4.901   3.617
 2587W        W 6331   5.767   0.781  10.501
 2588W        W 6332   0.782   4.346   1.756
 2589W        W 6333   6.001   7.312   9.560
 2590W        W 6334   0.853   4.676   8.684
 2591W        W 6335   4.589   8.466  11.364
 2592W        W 6336   2.223   3.204  10.695
 2593W        W 6337   6.667   8.388   1.843
 2594W        W 6338   0.378   5.717   9.983
 2595W        W 6339   9.631   5.370   0.450
 2596W        W 6340   9.798   3.064   0.070
 2597W        W 6341   4.312   9.525  11.840
 2598W        W 6342   1.722   3.663  10.404
 2599W        W 6343   0.457   0.489   0.355
 2600W        W 6344   1.767   5.818   8.814
 2601W        W 6345  10.204   2.799  11.956
 2602W        W 6346   5.797   2.498   9.971
 2603W        W 6347   6.584   2.943   1.908
 2604W        W 6348   6.485   3.920  10.342
 2605W        W 6349   7.464   2.270   8.776
 2606W        W 6350   6.497  10.396  10.126
 2607W        W 6351   2.260   9.537   9.285
 2608W        W 6352   4.690   6.416   1.312
 2609W        W 6353   3.602  10.413  10.308
 2610W        W 6354   2.923   5.665   3.110
 2611W        W 6355   6.350  10.256   3.274
 2612W        W 6356   9.403   3.076   2.796
 2613W        W 6357   8.058   1.807   8.819
 2614W        W 6358   8.951   9.521   9.801
 2615W        W 6359   9.460   2.197   1.722
 2616W        W 6360   8.417   0.222   8.824
 2617W        W 6361   5.384   9.566   9.825
 2618W        W 6362   6.974   2.192   3.271
 2619W        W 6363   7.884   3.882  11.348
 2620W        W 6364   1.135   1.410  11.205
 2621W        W 6365   7.088   5.026  11.802
 2622W        W 6366   8.308   7.103   1.240
 2623W        W 6367   4.227   6.549   1.100
 2624W        W 6368   2.726   9.908  10.011
 2625W        W 6369   5.457   7.618   1.600
 2626W        W 6370   7.129   5.742  10.212
 2627W        W 6371   8.418   0.737   8.748
 2628W        W 6372   7.286   9.266   9.295
 2629W        W 6373   6.053   1.981  11.216
 2630W        W 6374   7.357   5.195  10.242
 2631W        W 6375   2.043   9.927   0.668
 2632W        W 6376   9.959   9.313  11.867
 2633W        W 6377   4.593   0.673  10.651
 2634W        W 6378   9.851   9.487  10.792
 2635W        W 6379   9.495   1.787   2.418
 2636W        W 6380   9.570   0.467   9.167
 2637W        W 6381   5.208   1.941  10.271
 2638W        W 6382   2.778   9.304   2.494
 2639W        W 6383   1.148   0.986   0.744
 2640W        W 6384   5.928   3.009   9.017
 2641W        W 6385   6.512  10.168  11.594
 2642W        W 6386   6.980   8.523  10.691
 2643W        W 6387   0.326   2.678  10.050
 2644W        W 6388   2.440   9.544   0.617
 2645W        W 6389   0.517   7.390  10.969
 2646W        W 6390   3.771   0.419   2.522
 2647W        W 6391   5.229   5.045  11.865
 2648W        W 6392   3.707   6.704   9.694
 2649W        W 6393   9.770   6.615   9.525
 2650W        W 6394   0.034   3.395   0.821
 2651W        W 6395   9.466   9.862  10.727
 2652W        W 6396   2.217  10.431  10.283
 2653W        W 6397   0.208   3.343  11.015
 2654W        W 6398   6.137   1.118   2.735
 2655W        W 6399   2.822   6.059   1.427
 2656W        W 6400   5.672   0.075   0.902
 2657W        W 6401   8.941   4.755   2.924
 2658W        W 6402   8.493   4.170   2.842
 2659W        W 6403   3.643   7.078  10.054
 2660W        W 6404   5.248   6.491   9.841
 2661W        W 6405   6.139   7.710   0.082
 2662W        W 6406   7.542   3.924   2.562
 2663W        W 6407   6.078   1.481   0.520
 2664W        W 6408   4.601   8.375   2.160
 2665W        W 6409   7.056   4.827   2.033
 2666W        W 6410   7.997   7.636   3.617
 2667W        W 6411   8.504   3.398   0.505
 2668W        W 6412   5.562   6.471  10.477
 2669W        W 6413   6.339   8.195   8.698
 2670W        W 6414   9.301   4.282   1.871
 2671W        W 6415   4.482   3.224   1.409
 2672W        W 6416   4.217   8.046  10.777
 2673W        W 6417   9.507   6.728   3.038
 2674W        W 6418   1.466   1.946   0.743
 2675W        W 6419   9.731   9.064   1.826
 2676W        W 6420   6.833   8.254   8.393
 2677W        W 6421  10.304   2.748  11.453
 2678W        W 6422   1.834   0.387   0.497
 2679W        W 6423   8.876   5.492   1.898
 2680W        W 6424   0.257   1.312  11.767
 2681W        W 6425   1.621   4.223   2.673
 2682W        W 6426   8.493   4.580   1.628
 2683W        W 6427   6.671   4.458  10.563
 2684W        W 6428   6.683   3.137  11.543
 2685W        W 6429   7.652   0.460   1.221
 2686W        W 6430   9.875   9.129  10.414
 2687W        W 6431  10.349   2.587  10.978
 2688W        W 6432   4.487   5.590   0.381
 2689W        W 6433   1.409   6.014   1.645
 2690W        W 6434   2.216   1.308   0.692
 2691W        W 6435   3.730   1.883   9.560
 2692W        W 6436   9.694   1.887   2.925
 2693W        W 6437   8.388   5.709  11.578
 2694W        W 6438   9.810   1.645   8.763
 2695W        W 6439   0.274   5.126   8.812
 2696W        W 6440   0.301   4.905  10.569
 2697W        W 6441   5.891   7.554   3.863
 2698W        W 6442   8.490   7.577   1.356
 2699W        W 6443   9.233   8.114   9.724
 2700W        W 6444   1.078   7.665   2.673
 2701W        W 6445   4.207   8.924   1.697
 2702W        W 6446   8.844   0.509   1.930
 2703W        W 6447   0.820   9.482  10.019
 2704W        W 6448   4.993   3.988   3.225
 2705W        W 6449   7.441   5.538  11.483
 2706W        W 6450   1.157   4.318  10.355
 2707W        W 6451   2.319   2.705  11.947
 2708W        W 6452   4.524   6.560   0.292
 2709W        W 6453   0.392   9.811   1.249
 2710W        W 6454   2.253   7.211   3.259
 2711W        W 6455   9.740   6.462  11.718
 2712W        W 6456   7.907   8.422   9.303
 2713W        W 6457   7.509   4.749   2.267
 2714W        W 6458   4.362   4.192   9.921
 2715W        W 6459   5.810   9.306   9.630
 2716W        W 6460   8.621   9.374  11.626
 2717W        W 6461   3.108   1.521   0.347
 2718W        W 6462   9.474   6.229  11.277
 2719W        W 6463   9.184   0.709   9.409
 2720W        W 6464   8.372   3.307  10.263
 2721W        W 6465   1.835   0.668  10.328
 2722W        W 6466   3.508   6.923   0.715
 2723W        W 6467   1.389   5.607  11.985
 2724W        W 6468   8.833   7.143   0.631
 2725W        W 6469   0.360   0.240  10.405
 2726W        W 6470   8.612   4.786  11.867
 2727W        W 6471   2.651   9.804   1.746
 2728W        W 6472   7.822   5.245   8.566
 2729W        W 6473  10.337   5.246  11.604
 2730W        W 6474   7.458   6.960   9.186
 2731W        W 6475   2.093  10.296   2.154
 2732W        W 6476   8.580   7.817  10.147
 2733W        W 6477   1.916   6.198   1.586
 2734W        W 6478   6.382   0.681   2.724
 2735W        W 6479   3.230   9.549   2.640
 2736W        W 6480   5.831   4.526   0.870
 2737W        W 6481   0.407  10.372   0.250
 2738W        W 6482   6.190   1.642   1.859
 2739W        W 6483   1.844   8.595   9.129
 2740W        W 6484   6.585  10.295  11.119
 2741W        W 6485   9.242   2.357   0.861
 2742W        W 6486   3.202   0.971  10.468
 2743W        W 6487   1.515   0.995   2.085
 2744W        W 6488   8.724   8.195   9.838
 2745W        W 6489   6.116   4.285  10.988
 2746W        W 6490   3.790   7.672  11.439
 2747W        W 6491   0.484   1.861   0.040
 2748W        W 6492   8.017   3.150   8.875
 2749W        W 6493   7.020   9.173   1.029
 2750W        W 6494   7.571   0.514   2.876
 2751W        W 6495  10.460   4.653   9.987
 2752W        W 6496   9.411   9.376   9.954
 2753W        W 6497   7.477   0.137  11.313
 2754W        W 6498   7.835   6.976   1.395
 2755W        W 6499  10.321   1.221  10.953
 2756W        W 6500   5.156   1.331  10.509
 2757W        W 6501   3.045  10.248   9.161
 2758W        W 6502   0.973   7.050   8.584
 2759W        W 6503   7.104   8.843   0.642
 2760W        W 6504   2.291   8.852   1.536
 2761W        W 6505  10.350   5.964   3.435
 2762W        W 6506   0.358   0.920   0.090
 2763W        W 6507  10.353   4.130  10.588
 2764W        W 6508   8.595   2.645   1.192
 2765W        W 6509   8.401   0.223   9.716
 2766W        W 6510   0.651   7.353   9.351
 2767W        W 6511   8.370   5.532   1.732
 2768W        W 6512   8.730   4.204   9.093
 2769W        W 6513   0.831   3.697   9.344
 2770W        W 6514   6.183   4.438   2.131
 2771W        W 6515   8.384   6.539  11.475
 2772W        W 6516   2.580   4.759  11.267
 2773W        W 6517   9.941   6.943   1.875
 2774W        W 6518   8.290   9.629   0.400
 2775W        W 6519   3.426   3.229  10.104
 2776W        W 6520   0.077   5.995   1.299
 2777W        W 6521   2.010   8.263   0.377
 2778W        W 6522  10.426   6.440   1.522
 2779W        W 6523   6.868   5.307  10.166
 2780W        W 6524   2.658   5.981   0.949
 2781W        W 6525   7.465   5.890  10.790
 2782W        W 6526   6.155   9.997   1.555
 2783W        W 6527   9.184   1.791   2.840
 2784W        W 6528   8.607   5.068   1.739
 2785W        W 6529   0.203   8.619   2.848
 2786W        W 6530   8.340   9.725  11.297
 2787W        W 6531   5.716   7.092   9.172
 2788W        W 6532   7.239   1.854   9.997
 2789W        W 6533   6.167   8.667  10.541
 2790W        W 6534   1.803   6.007   3.487
 2791W        W 6535   5.929   4.096   3.112
 2792W        W 6536   7.019   0.701   0.714
 2793W        W 6537   2.504   8.275   0.543
 2794W        W 6538   9.768   5.922   1.828
 2795W        W 6539   8.358   9.009   3.505
 2796W        W 6540   8.543   2.856  10.473
 2797W        W 6541   3.289   3.269   8.586
 2798W        W 6542   3.108   2.257  11.110
 2799W        W 6543   9.061   1.257   8.733
 2800W        W 6544   8.900   7.016   1.898
 2801W        W 6545   0.209   3.096  10.411
 2802W        W 6546  10.410   8.212   2.098
 2803W        W 6547   2.209   6.396  11.601
 2804W        W 6548  10.447   6.035   9.435
 2805W        W 6549   3.095   2.376   0.117
 2806W        W 6550   3.879   3.343   0.508
 2807W        W 6551   5.575   3.306  11.611
 2808W        W 6552   8.564   8.577   2.820
 2809W        W 6553   8.775  10.347   8.951
 2810W        W 6554   1.929   8.056   1.798
 2811W        W 6555   5.317   9.566   3.391
 2812W        W 6556   3.872   2.326   9.803
 2813W        W 6557   4.537   7.928   0.572
 2814W        W 6558   8.160   1.723  10.334
 2815W        W 6559   9.833   0.529  10.332
 2816W        W 6560   9.871   0.964  10.056
 2817W        W 6561   6.032   2.764   8.420
 2818W        W 6562   7.968   8.880   1.215
 2819W        W 6563   1.198   4.306   3.456
 2820W        W 6564   6.043   0.012   0.224
 2821W        W 6565   9.980   7.415  10.044
 2822W        W 6566   1.123   9.004   0.979
 2823W        W 6567   8.341   0.034   0.827
 2824W        W 6568   3.139   5.235   1.464
 2825W        W 6569   1.902   3.729   1.820
 2826W        W 6570   8.463   6.076   1.691
 2827W        W 6571   0.024   0.204   0.278
 2828W        W 6572   0.229   1.189   8.508
 2829W        W 6573   7.637   1.079  10.354
 2830W        W 6574   7.810   6.194   1.013
 2831W        W 6575   4.077   9.020   1.216
 2832W        W 6576  10.090   2.654   0.842
 2833W        W 6577   9.495   8.902   0.507
 2834W        W 6578   1.041   5.210   9.418
 2835W        W 6579   5.961   8.809   9.844
 2836W        W 6580   9.381   2.326   0.371
 2837W        W 6581   8.056   6.141   8.920
 2838W        W 6582   7.184   5.475  10.636
 2839W        W 6583   8.369   5.448   3.482
 2840W        W 6584   0.311   9.955  11.921
 2841W        W 6585   9.302   5.361   9.709
 2842W        W 6586   3.307   1.318   9.059
 2843W        W 6587   1.026   4.809   1.967
 2844W        W 6588   8.600   6.206   3.196
 2845W        W 6589   9.403   6.310   9.302
 2846W        W 6590   6.941  10.441   0.297
 2847W        W 6591   0.003   0.768   2.311
 2848W        W 6592   6.682   7.821  11.946
 2849W        W 6593   5.297   1.432  11.506
 2850W        W 6594   6.235   8.895   2.973
 2851W        W 6595   1.412   0.962  10.021
 2852W        W 6596   7.950   2.139   2.317
 2853W        W 6597   1.016   5.851   0.317
 2854W        W 6598   8.681   0.038   0.460
 2855W        W 6599   4.647   8.926   9.610
 2856W        W 6600   5.552   3.216   0.162
 2857W        W 6601   1.848   6.759  11.219
 2858W        W 6602   4.151   6.380   0.606
 2859W        W 6603   3.459  10.047  11.999
 2860W        W 6604   2.605   4.109  10.391
 2861W        W 6605   5.239   8.665   3.784
 2862W        W 6606   0.466   8.907   2.072
 2863W        W 6607   1.321   2.028  11.846
 2864W        W 6608   0.406   7.209   2.879
 2865W        W 6609   3.217   1.827   9.853
 2866W        W 6610   7.250   0.387  10.002
 2867W        W 6611   4.737   3.135  10.250
 2868W        W 6612   4.556   9.424   9.575
 2869W        W 6613   8.439   4.348   3.529
 2870W        W 6614   8.603   3.869   0.048
 2871W        W 6615   9.402   1.810   3.355
 2872W        W 6616   3.046   2.655   1.069
 2873W        W 6617   1.307  10.356   9.264
 2874W        W 6618   6.637   5.663   0.926
 2875W        W 6619   4.420   5.831  11.406
 2876W        W 6620   7.963   8.158  10.835
 2877W        W 6621   1.403   4.747  11.836
 2878W        W 6622   1.838   9.932   1.130
 2879W        W 6623   3.004   9.162  11.872
 2880W        W 6624   8.809   9.517   0.283
 2881W        W 6625   4.177   7.409  10.133
 2882W        W 6626   8.508   1.330  10.452
 2883W        W 6627   3.030   0.056   2.091
 2884W        W 6628   0.442   7.112   1.940
 2885W        W 6629   9.263   9.292   1.961
 2886W        W 6630   7.382   0.083   1.456
 2887W        W 6631   1.131   8.290   1.919
 2888W        W 6632   5.049   8.741   9.301
 2889W        W 6633   4.585   9.095  11.981
 2890W        W 6634   1.482   9.330   1.154
 2891W        W 6635   2.787   9.472   9.235
 2892W        W 6636   5.921   8.006   8.948
 2893W        W 6637   7.859   9.763  10.435
 2894W        W 6638   6.188   4.224   0.707
 2895W        W 6639   3.333   0.461  10.483
 2896W        W 6640   8.299   2.339   1.969
 2897W        W 6641   4.628   2.662   1.907
 2898W        W 6642  10.157   5.219   0.503
 2899W        W 6643   6.753   1.666  10.559
 2900W        W 6644   2.109   2.153   1.421
 2901W        W 6645   8.349   6.949  11.792
 2902W        W 6646   6.914   6.596  10.311
 2903W        W 6647   8.059   5.224  10.963
 2904W        W 6648   8.780   5.711   1.465
 2905W        W 6649   4.048   4.673  11.650
 2906W        W 6650   6.012   5.294   9.624
 2907W        W 6651   9.868   4.175  11.394
 2908W        W 6652   4.309   3.098   9.975
 2909W        W 6653   1.595   4.563  11.148
 2910W        W 6654   2.427   4.314   3.327
 2911W        W 6655   7.148   6.940  11.226
 2912W        W 6656   5.650   4.226   2.671
 2913W        W 6657   2.824   9.326   0.878
 2914W        W 6658   3.045   4.736   1.175
 2915W        W 6659  10.328   3.477   1.289
 2916W        W 6660   4.883   8.657   2.528
 2917W        W 6661   5.206   0.491   0.259
 2918W        W 6662   8.205   3.698   7.976
 2919W        W 6663   7.892   6.906   3.521
 2920W        W 6664   2.698   9.451   9.741
 2921W        W 6665  10.150   5.987  10.727
 2922W        W 6666   9.790   5.604   2.649
 2923W        W 6667   5.123   7.544   9.562
 2924W        W 6668   3.575   4.003   9.396
 2925W        W 6669   1.111   0.112  11.714
 2926W        W 6670   1.663  10.235   0.370
 2927W        W 6671  10.479   7.375  10.076
 2928W        W 6672   7.690   6.533   9.043
 2929W        W 6673   8.317   5.811   1.272
 2930W        W 6674   4.591   6.287  11.866
 2931W        W 6675   3.395   4.535  11.096
 2932W        W 6676   9.998   1.367   9.150
 2933W        W 6677   0.189   5.262  10.228
 2934W        W 6678   0.985   1.622  10.697
 2935W        W 6679   1.689   7.413   1.978
 2936W        W 6680   0.202   0.392  10.879
 2937W        W 6681   7.018   4.870   0.705
 2938W        W 6682   6.823   8.906   1.854
 2939W        W 6683   4.561   8.537   9.266
 2940W        W 6684   7.520   4.768   1.392
 2941W        W 6685   4.184   8.286   0.505
 2942W        W 6686   5.131   3.207  11.865
 2943W        W 6687   4.695   5.959   1.753
 2944W        W 6688   8.657   8.078   9.336
 2945W        W 6689   0.174   4.454  10.403
 2946W        W 6690   6.380   2.036  10.528
 2947W        W 6691   0.225   7.986   0.752
 2948W        W 6692   9.816   0.379  11.305
 2949W        W 6693   8.465   7.517  10.537
 2950W        W 6694   1.186   5.198  11.749
 2951W        W 6695   6.550   3.744   2.324
 2952W        W 6696   5.184   7.416   2.620
 2953W        W 6697   3.860   1.274  11.959
 2954W        W 6698   2.533   6.667   0.404
 2955W        W 6699   5.537   8.075   2.219
 2956W        W 6700   5.096   8.361   0.024
 2957W        W 6701   0.449   1.379   3.216
 2958W        W 6702   6.272   2.123  10.033
 2959W        W 6703   8.130   5.515   2.203
 2960W        W 6704   4.261   4.813   0.373
 2961W        W 6705   1.311   2.808   1.975
 2962W        W 6706   0.238   4.123   3.312
 2963W        W 6707   5.277   3.503  11.209
 2964W        W 6708   1.963   8.273  10.621
 2965W        W 6709   5.720   2.100  10.284
 2966W        W 6710   9.036   1.207   9.263
 2967W        W 6711   9.294   7.925  10.652
 2968W        W 6712   7.781   6.028   3.636
 2969W        W 6713   4.230   2.092  10.227
 2970W        W 6714   0.575   8.523   1.304
 2971W        W 6715   8.548   5.101   0.781
 2972W        W 6716   8.882   1.953   8.311
 2973W        W 6717   4.069   3.229  10.789
 2974W        W 6718   4.167   6.093  10.149
 2975W        W 6719   2.240   7.918   8.793
 2976W        W 6720   0.361   4.582   3.495
 2977W        W 6721   1.696   9.461   2.465
 2978W        W 6722   3.772   1.391   9.858
 2979W        W 6723   9.752   8.482   3.313
 2980W        W 6724   0.938   3.209   9.478
 2981W        W 6725   7.036   4.068   1.320
 2982W        W 6726   0.711   2.822   9.202
 2983W        W 6727   5.157   4.042   2.743
 2984W        W 6728   3.002   6.892   0.652
 2985W        W 6729   4.021   6.873   0.745
 2986W        W 6730   9.093   4.621   9.328
 2987W        W 6731   3.779   5.743   9.464
 2988W        W 6732   5.527   4.302   8.699
 2989W        W 6733   7.873   2.621   3.234
 2990W        W 6734   1.710   1.666  10.550
 2991W        W 6735   3.673   7.150  11.459
 2992W        W 6736   8.431   2.354   3.519
 2993W        W 6737   6.976   0.466  11.370
 2994W        W 6738   2.388   8.422  10.394
 2995W        W 6739   1.653   3.559   0.303
 2996W        W 6740   3.139   6.452   8.964
 2997W        W 6741  10.356   4.201  11.217
 2998W        W 6742   5.235   2.315   3.716
 2999W        W 6743   4.250   3.351   3.184
 3000W        W 6744   3.607   5.912  11.831
 3001W        W 6745   9.506   4.111   0.821
 3002W        W 6746   6.203   5.718   0.543
 3003W        W 6747   0.933   3.324  11.811
 3004W        W 6748   2.714   4.948   1.501
 3005W        W 6749   0.907   7.101  11.114
 3006W        W 6750   3.258   5.942  10.143
 3007W        W 6751   8.542   1.853   1.887
 3008W        W 6752   6.631   9.814   1.505
 3009W        W 6753   7.052  10.402   9.939
 3010W        W 6754   5.006   9.351  11.740
 3011W        W 6755   4.247   7.058   1.976
 3012W        W 6756   7.827   9.648   0.771
 3013W        W 6757   7.106   8.535   8.721
 3014W        W 6758  10.035   5.716   0.404
 3015W        W 6759  10.067   3.534   8.440
 3016W        W 6760   1.455   3.344   3.090
 3017W        W 6761   4.238   6.168   1.479
 3018W        W 6762   4.728   7.479   0.468
 3019W        W 6763   0.995   5.555   9.029
 3020W        W 6764   5.698   0.395  10.975
 3021W        W 6765   5.535   0.988  11.808
 3022W        W 6766   8.023   8.849   9.025
 3023W        W 6767   6.019  10.334   8.982
 3024W        W 6768   1.445   0.227   0.198
 3025W        W 6769   9.756   1.380   1.262
 3026W        W 6770   8.565   5.232   2.249
 3027W        W 6771   2.712   6.050   3.417
 3028W        W 6772   4.652   3.112   9.220
 3029W        W 6773   9.911   5.244   1.260
 3030W        W 6774   5.205   0.272   0.738
 3031W        W 6775   2.845   1.758   9.027
 3032W        W 6776   5.190   5.567  10.981
 3033W        W 6777   2.629   3.110   2.598
 3034W        W 6778   9.712   2.212   3.332
 3035W        W 6779   8.953   6.567   9.280
 3036W        W 6780   1.014   9.554   0.359
 3037W        W 6781   6.474   9.967   0.107
 3038W        W 6782   4.516   4.482  11.681
 3039W        W 6783   1.777   5.890   1.211
 3040W        W 6784   5.985   8.872   9.340
 3041W        W 6785   7.583   9.607   9.519
 3042W        W 6786   3.728   6.988   1.185
 3043W        W 6787   7.028   4.056   0.791
 3044W        W 6788   8.044   5.033   2.072
 3045W        W 6789   8.449   0.282  10.463
 3046W        W 6790   6.543   4.042  10.845
 3047W        W 6791   4.601   0.856   8.611
 3048W        W 6792   8.920   1.789  11.663
 3049W        W 6793  10.179   7.524   3.111
 3050W        W 6794   3.209   4.950   3.149
 3051W        W 6795   5.932   3.583   3.285
 3052W        W 6796   1.496   7.577  10.805
 3053W        W 6797   0.440   2.250  11.697
 3054W        W 6798   4.708   9.582   1.348
 3055W        W 6799   8.052   3.408  11.321
 3056W        W 6800   5.183   7.492   9.038
 3057W        W 6801   2.180  10.331   1.198
 3058W        W 6802   1.954   5.156   1.738
 3059W        W 6803   9.078   5.018  10.956
 3060W        W 6804   4.615   2.525   1.044
 3061W        W 6805   1.924   3.175  11.511
 3062W        W 6806   3.788   6.249  11.480
 3063W        W 6807  10.383   1.750   9.628
 3064W        W 6808   1.280   3.894  10.610
 3065W        W 6809   9.456   5.523  10.166
 3066W        W 6810  10.017   5.680   3.144
 3067W        W 6811   6.633   6.153   2.292
 3068W        W 6812   3.738   7.091   8.849
 3069W        W 6813   3.114   6.377  11.313
 3070W        W 6814   1.848   5.036   8.869
 3071W        W 6815   2.595   3.702  10.091
 3072W        W 6816   7.934   9.824   8.782
 3073W        W 6817   4.284   8.425  10.427
 3074W        W 6818   0.708   7.867  10.976
 3075W        W 6819  10.489   6.949   9.794
 3076W        W 6820   4.215   9.418   1.573
 3077W        W 6821   2.038   0.280  11.392
 3078W        W 6822   8.160   2.912   1.184
 3079W        W 6823   2.043   8.535   1.832
 3080W        W 6824   1.182   1.315  10.314
 3081W        W 6825   7.462   6.628   2.469
 3082W        W 6826   7.465   0.847   8.540
 3083W        W 6827   6.743   1.792   1.255
 3084W        W 6828   0.200   7.044   9.331
 3085W        W 6829   2.795   1.266   9.319
 3086W        W 6830   7.493   4.086   0.256
 3087W        W 6831   2.574   2.773   8.930
 3088W        W 6832   4.337   0.925   3.255
 3089W        W 6833   7.482   5.530   0.374
 3090W        W 6834   3.323   7.490   9.875
 3091W        W 6835   4.842   0.366   8.641
 3092W        W 6836   0.514   9.462   9.189
 3093W        W 6837   3.537   8.662  11.304
 3094W        W 6838   6.502   0.019   0.969
 3095W        W 6839  10.256   5.168   9.276
 3096W        W 6840   2.572   1.442   0.355
 3097W        W 6841   7.202   7.466   9.900
 3098W        W 6842   3.823   6.595   2.692
 3099W        W 6843   3.335   1.781   1.265
 3100W        W 6844   7.509   0.150   0.318
 3101W        W 6845   6.453   5.530   9.481
 3102W        W 6846   9.179   5.860   2.244
 3103W        W 6847   4.565   9.887   3.177
 3104W        W 6848   5.933   7.594  11.300
 3105W        W 6849   6.698   3.415  10.274
 3106W        W 6850   9.753   1.224   3.433
 3107W        W 6851   6.748   2.773  11.944
 3108W        W 6852   3.134   6.084  10.892
 3109W        W 6853   7.473   0.140   9.279
 3110W        W 6854   1.937   4.469   2.385
 3111W        W 6855   5.710   5.604   9.959
 3112W        W 6856   6.483   6.355   2.733
 3113W        W 6857   3.457   0.050   9.265
 3114W        W 6858   8.534   9.047   3.032
 3115W        W 6859   0.744   0.576   3.719
 3116W        W 6860   9.458   4.668   8.972
 3117W        W 6861   3.894   3.011   3.075
 3118W        W 6862   2.221   9.065   0.768
 3119W        W 6863   2.205   1.972   9.120
 3120W        W 6864   2.882   9.513  10.637
 3121W        W 6865   1.356   9.922   8.967
 3122W        W 6866   9.042   7.497   2.085
 3123W        W 6867   7.484   1.462   3.139
 3124W        W 6868   9.010   2.193   9.024
 3125W        W 6869   0.764   6.362   9.396
 3126W        W 6870   0.044  10.451  10.687
 3127W        W 6871   9.751   7.246   2.226
 3128W        W 6872   2.560   7.650   1.963
 3129W        W 6873   5.939   2.525   8.863
 3130W        W 6874   2.727   9.521   0.174
 3131W        W 6875   4.184   8.166   2.412
 3132W        W 6876   9.870   3.305   2.906
 3133W        W 6877   3.789   9.461  10.801
 3134W        W 6878   0.246   4.445  11.492
 3135W        W 6879   6.572   4.599   9.672
 3136W        W 6880   7.514  10.452   1.909
 3137W        W 6881   0.138   0.441  11.839
 3138W        W 6882   6.474   3.098  11.061
 3139W        W 6883   0.047   9.464   0.875
 3140W        W 6884   8.335   8.412   9.576
 3141W        W 6885   3.778   6.474  10.159
 3142W        W 6886   7.332   5.609   1.692
 3143W        W 6887   1.460   8.922   8.468
 3144W        W 6888   8.444   1.660  11.424
 3145W        W 6889   1.760   3.659  11.437
 3146W        W 6890   6.244   1.512   0.022
 3147W        W 6891   2.747   6.982   2.452
 3148W        W 6892   0.039   1.846  10.618
 3149W        W 6893   7.205   6.198   8.535
 3150W        W 6894   8.883   6.935  10.270
 3151W        W 6895   0.799   6.828   1.661
 3152W        W 6896   7.583  10.213   0.610
 3153W        W 6897   5.334   3.830   8.632
 3154W        W 6898   9.467   0.065  10.455
 3155W        W 6899   2.323   8.155   2.602
 3156W        W 6900   1.637   8.599   2.130
 3157W        W 6901   8.200   2.612  11.993
 3158W        W 6902   4.685   5.222  10.328
 3159W        W 6903   0.045   0.845  10.681
 3160W        W 6904   9.905   4.475   0.785
 3161W        W 6905   0.962   6.612   0.728
 3162W        W 6906   7.402   9.495  10.575
 3163W        W 6907   5.170  10.277   2.032
 3164W        W 6908  10.434   6.416   2.036
 3165W        W 6909   3.027   1.883  11.956
 3166W        W 6910   4.830   3.353   8.824
 3167W        W 6911   7.678   0.928   1.479
 3168W        W 6912   5.742   2.678  10.910
 3169W        W 6913   3.124   6.268   2.830
 3170W        W 6914   6.329   9.066   0.355
 3171W        W 6915   6.170   4.302  10.495
 3172W        W 6916   2.358   8.119   2.088
 3173W        W 6917   7.631   9.923  11.858
 3174W        W 6918   5.166   5.637   1.155
 3175W        W 6919   4.168   1.579  10.178
 3176W        W 6920   3.591   5.208   2.755
 3177W        W 6921   6.133   0.161   9.350
 3178W        W 6922   4.136   1.352   9.069
 3179W        W 6923   4.974   2.734   0.696
 3180W        W 6924   1.008   8.439   9.935
 3181W        W 6925  10.360   8.228   9.019
 3182W        W 6926   2.276   5.633   9.505
 3183W        W 6927   0.937   0.985   9.238
 3184W        W 6928   2.501   4.250   0.469
 3185W        W 6929   5.581   8.052  10.369
 3186W        W 6930   6.919   3.012   2.648
 3187W        W 6931   3.309   4.526  10.604
 3188W        W 6932   6.917   5.394  11.487
 3189W        W 6933   0.478   3.776  11.004
 3190W        W 6934   9.878   1.379   9.677
 3191W        W 6935   6.255   5.634   9.983
 3192W        W 6936   5.975   5.074   1.700
 3193W        W 6937   8.925   8.085  11.691
 3194W        W 6938   8.524   8.551   1.761
 3195W        W 6939   6.666   1.279   8.858
 3196W        W 6940   2.141   9.669   0.231
 3197W        W 6941   5.214   7.570   0.988
 3198W        W 6942   4.133   6.204   8.874
 3199W        W 6943   8.051   0.487   9.082
 3200W        W 6944   2.776   4.442   1.484
 3201W        W 6945   2.635   4.526   8.240
 3202W        W 6946   2.216   1.494  11.704
 3203W        W 6947   6.012   6.120  10.528
 3204W        W 6948   3.146   4.127  10.321
 3205W        W 6949   3.198   0.384   0.245
 3206W        W 6950   9.918  10.258   0.481
 3207W        W 6951   8.863   8.836   1.256
 3208W        W 6952   7.243   3.570   3.744
 3209W        W 6953   9.345   6.919  10.471
 3210W        W 6954   0.635   8.432  11.647
 3211W        W 6955   4.585   7.137   9.995
 3212W        W 6956   8.131   9.533  10.852
 3213W        W 6957   9.443   7.567   0.371
 3214W        W 6958   3.172   8.338   9.022
 3215W        W 6959   1.915   8.535  11.952
 3216W        W 6960   6.056   9.507   0.338
 3217W        W 6961   4.036   4.899  10.466
 3218W        W 6962   4.674   9.110   1.835
 3219W        W 6963   8.409   5.119   3.010
 3220W        W 6964   0.237   5.522   1.438
 3221W        W 6965   4.043   9.704  11.437
 3222W        W 6966   1.501   3.486   3.599
 3223W        W 6967   0.727   7.478   8.734
 3224W        W 6968   1.351   5.626  10.979
 3225W        W 6969   9.448   6.173   1.457
 3226W        W 6970   4.764  10.373  11.846
 3227W        W 6971   0.912   6.101   1.862
 3228W        W 6972   0.452  10.000  10.882
 3229W        W 6973   7.843   0.126   0.854
 3230W        W 6974   5.630   8.017   9.555
 3231W        W 6975   6.311   5.438   1.845
 3232W        W 6976   9.894   3.763   2.694
 3233W        W 6977   2.830   5.175  11.481
 3234W        W 6978   8.453   9.719   9.696
 3235W        W 6979   9.974   0.365   1.380
 3236W        W 6980   6.366   9.458  10.824
 3237W        W 6981   9.295   4.943   0.268
 3238W        W 6982   0.790   3.630   0.268
 3239W        W 6983   4.996   4.830  10.286
 3240W        W 6984  10.405   8.004  11.336
 3241W        W 6985   6.776   1.222  10.008
 3242W        W 6986   0.623   1.647   0.485
 3243W        W 6987   1.967   6.351   9.592
 3244W        W 6988   6.060   9.357  11.429
 3245W        W 6989  10.173   7.313   9.567
 3246W        W 6990   6.142   3.483   8.922
 3247W        W 6991   3.791   6.300   8.445
 3248W        W 6992   2.858   6.101   1.937
 3249W        W 6993   5.227   6.988   2.334
 3250W        W 6994   7.791   4.392   0.734
 3251W        W 6995   8.074   9.806   2.951
 3252W        W 6996   6.784   6.499   8.580
 3253W        W 6997  10.201   9.050   0.927
 3254W        W 6998   9.071   8.051  10.210
 3255W        W 6999   5.212   0.394   9.001
 3256W        W 7000   0.424   1.946   2.653
 3257W        W 7001   5.993   5.099   2.770
 3258W        W 7002   3.582   7.901   3.038
 3259W        W 7003   2.710   0.300   3.246
 3260W        W 7004   9.363   1.208   1.588
 3261W        W 7005   7.941   3.316   9.982
 3262W        W 7006   8.164   0.945   1.300
 3263W        W 7007   3.183   5.024   2.354
 3264W        W 7008   6.692   0.998   2.954
 3265W        W 7009   6.095   8.125  10.560
 3266W        W 7010   1.929   5.586   3.200
 3267W        W 7011   7.227   5.465   9.780
 3268W        W 7012  10.493   5.301   1.033
 3269W        W 7013   0.700   5.285  11.661
 3270W        W 7014   9.116  10.319   0.405
 3271W        W 7015   8.658   4.656  10.294
 3272W        W 7016   9.969   0.302   3.542
 3273W        W 7017   5.298   8.392   9.571
 3274W        W 7018   9.621   6.718  11.301
 3275W        W 7019   7.857   4.229  10.468
 3276W        W 7020   8.378   6.974   9.515
 3277W        W 7021   7.360   6.291   3.791
 3278W        W 7022   5.548   3.785   2.957
 3279W        W 7023   5.784   5.790   0.263
 3280W        W 7024   3.089   2.742   1.556
 3281W        W 7025   5.116   6.739   8.952
 3282W        W 7026   7.872   4.235   9.582
 3283W        W 7027   2.684   6.677   8.998
 3284W        W 7028   3.583   9.494  11.294
 3285W        W 7029   7.912   0.385  11.495
 3286W        W 7030   7.815   5.598   8.163
 3287W        W 7031   8.552   5.403   9.326
 3288W        W 7032   8.312   0.475   3.690
 3289W        W 7033   2.734   6.509   2.630
 3290W        W 7034   5.323   5.606   3.137
 3291W        W 7035   7.512   0.503   3.376
 3292W        W 7036   3.769   9.180   1.852
 3293W        W 7037   6.612   6.034   9.279
 3294W        W 7038   6.443   8.636   2.212
 3295W        W 7039   0.122   8.445  11.556
 3296W        W 7040   5.928   7.122   8.172
 3297W        W 7041   1.422   2.413  10.474
 3298W        W 7042   7.440   3.423   0.823
 3299W        W 7043   1.006   1.833   2.070
 3300W        W 7044   7.360  10.329  11.699
 3301W        W 7045   6.178   3.246   1.936
 3302W        W 7046   7.962   4.739   8.948
 3303W        W 7047   4.236   9.624   0.320
 3304W        W 7048  10.043   5.486  10.826
 3305W        W 7049   6.434   8.091   2.215
 3306W        W 7050   0.007   7.457  10.974
 3307W        W 7051   1.178   0.456   9.941
 3308W        W 7052   1.705   1.839   9.214
 3309W        W 7053   5.726   1.805   2.017
 3310W        W 7054   3.008   2.801  10.788
 3311W        W 7055   9.923   5.227   2.349
 3312W        W 7056   8.563   9.763   2.101
 3313W        W 7057  10.378   9.873   1.179
 3314W        W 7058   4.319   7.149   2.989
 3315W        W 7059   4.029   6.361   3.363
 3316W        W 7060   4.334   1.412   2.331
 3317W        W 7061   9.994   9.790   0.223
 3318W        W 7062   5.234   4.760   9.282
 3319W        W 7063   2.220  10.286   8.570
 3320W        W 7064   4.728   7.497   8.611
 3321W        W 7065   3.660   7.850   0.737
 3322W        W 7066   7.415   7.648   1.275
 3323W        W 7067   8.424   9.745   3.488
 3324W        W 7068   2.705   4.970   9.029
 3325W        W 7069   6.487   9.252  11.686
 3326W        W 7070   1.900   2.625  10.423
 3327W        W 7071   8.454   0.915   3.429
 3328W        W 7072   8.194   1.224   0.048
 3329W        W 7073   5.553   3.628   0.456
 3330W        W 7074   7.019   4.504   1.052
 3331W        W 7075   2.338   0.427  10.464
 3332W        W 7076   2.946   9.408   3.474
 3333W        W 7077   0.668   0.430  10.030
 3334W        W 7078   9.336   7.460   1.252
 3335W        W 7079  10.263   7.063   0.681
 3336W        W 7080   4.736   7.673   9.215
 3337W        W 7081   0.161   8.051   9.929
 3338W        W 7082   8.130   7.556  10.135
 3339W        W 7083   9.119   0.342   0.437
 3340W        W 7084   8.985   9.457   8.776
 3341W        W 7085   1.771   1.235   0.904
 3342W        W 7086   5.683   3.630   0.949
 3343W        W 7087   7.329   1.785   9.454
 3344W        W 7088   4.009  10.306   3.205
 3345W        W 7089   1.817   2.331   8.988
 3346W        W 7090   3.635   0.521  10.953
 3347W        W 7091   3.405   4.538   0.018
 3348W        W 7092   2.413   1.926  10.353
 3349W        W 7093   1.275   5.113   2.387
 3350W        W 7094   1.061   5.191   8.624
 3351W        W 7095   4.346   3.669  10.827
 3352W        W 7096   0.279   3.357   2.408
 3353W        W 7097   8.962   7.954   2.314
 3354W        W 7098   4.579   8.331   0.911
 3355W        W 7099   3.925   4.604   8.668
 3356W        W 7100   2.982  10.309   0.850
 3357W        W 7101   8.376   4.955   9.165
 3358W        W 7102   2.340   8.611   3.380
 3359W        W 7103   5.353   0.755   1.656
 3360W        W 7104   8.413   6.078   0.365
 3361W        W 7105   5.127   3.331   0.852
 3362W        W 7106   6.977   9.976   2.168
 3363W        W 7107   2.108   8.944  10.018
 3364W        W 7108   0.792   5.186   2.260
 3365W        W 7109   5.688   9.898  11.956
 3366W        W 7110   8.134   3.647   1.340
 3367W        W 7111   5.698   7.571   3.356
 3368W        W 7112   6.764   2.845   9.937
 3369W        W 7113   5.836   4.473   0.259
 3370W        W 7114   0.004   9.462   8.515
 3371W        W 7115   5.421   2.147   9.840
 3372W        W 7116   9.006   2.710   3.340
 3373W        W 7117   4.212   8.448   1.824
 3374W        W 7118  10.095  10.468   3.147
 3375W        W 7119   4.957   7.684   1.418
 3376W        W 7120   1.808   2.823   0.745
 3377W        W 7121   5.730   7.842  10.834
 3378W        W 7122   3.819   0.538  11.499
 3379W        W 7123   6.624   8.575   8.945
 3380W        W 7124   9.599   2.784   0.942
 3381W        W 7125   9.457   8.913  10.173
 3382W        W 7126   6.214   2.551   3.646
 3383W        W 7127   3.582   8.922  10.795
 3384W        W 7128   3.130   7.759   0.405
 3385W        W 7129   4.075   4.020   0.960
 3386W        W 7130   1.359   5.492   0.487
 3387W        W 7131   7.716   8.144   2.645
 3388W        W 7132   5.102   9.918   1.353
 3389W        W 7133   3.251   6.927   9.061
 3390W        W 7134   8.104   5.519   3.048
 3391W        W 7135   9.370   0.451   1.052
 3392W        W 7136   8.840   3.224  10.044
 3393W        W 7137   9.035   9.348  11.334
 3394W        W 7138   5.732   2.715   3.758
 3395W        W 7139   1.774   5.521  10.718
 3396W        W 7140   6.931   4.267  11.397
 3397W        W 7141   4.281   3.876   0.171
 3398W        W 7142   2.194   8.086  11.061
 3399W        W 7143   6.170   7.670   8.623
 3400W        W 7144   1.782   1.239   9.735
 3401W        W 7145   5.414   6.486   0.013
 3402W        W 7146   1.307   7.148  10.127
 3403W        W 7147   8.929   3.574  11.776
 3404W        W 7148   6.040   5.176  11.625
 3405W        W 7149   0.523   7.851  10.478
 3406W        W 7150   7.435   6.523  11.372
 3407W        W 7151   8.158   7.870   2.746
 3408W        W 7152   2.530   0.174   1.941
 3409W        W 7153  10.179   0.548  10.942
 3410W        W 7154   6.375  10.487   2.242
 3411W        W 7155   2.749   5.107   4.055
 3412W        W 7156   8.353  10.312  10.309
 3413W        W 7157   9.026   3.525   8.680
 3414W        W 7158   7.180   3.693   0.466
 3415W        W 7159   8.219   7.976   9.823
 3416W        W 7160   0.693   1.203  10.437
 3417W        W 7161   6.791   9.255   9.442
 3418W        W 7162   1.147   0.465   1.896
 3419W        W 7163   4.208   9.348  11.125
 3420W        W 7164   4.973   7.423  10.598
 3421W        W 7165   8.180   6.929   0.280
 3422W        W 7166   4.720   5.450   9.853
 3423W        W 7167   4.015   6.585  11.082
 3424W        W 7168   7.054   8.284   3.455
 3425W        W 7169   3.850   2.049   3.466
 3426W        W 7170   7.380   6.315   0.768
 3427W        W 7171   4.249   3.196   8.904
 3428W        W 7172   0.944   0.410   2.372
 3429W        W 7173   4.294   0.921   0.388
 3430W        W 7174   5.231   1.267   0.986
 3431W        W 7175   7.492   4.761   0.896
 3432W        W 7176   6.942   3.738  10.923
 3433W        W 7177   7.127   1.701   0.940
 3434W        W 7178   5.487   4.890   0.900
 3435W        W 7179   7.249   0.346   8.695
 3436W        W 7180   1.852   6.258   9.065
 3437W        W 7181   6.092   6.778   3.234
 3438W        W 7182   6.463   4.820  10.247
 3439W        W 7183   2.126   9.906   8.903
 3440W        W 7184   3.598   0.842  11.859
 3441W        W 7185   6.545   6.288   3.535
 3442W        W 7186   3.628   9.951  10.544
 3443W        W 7187   7.576   9.060   2.994
 3444W        W 7188   6.463   8.278   9.348
 3445W        W 7189   0.295   1.552   9.368
 3446W        W 7190   9.375   4.862   9.661
 3447W        W 7191   6.091   2.861   0.684
 3448W        W 7192   1.150   4.275   2.452
 3449W        W 7193   8.930   4.880   2.424
 3450W        W 7194   9.501   3.573   1.614
 3451W        W 7195   4.346   2.756   2.341
 3452W        W 7196   0.696   9.205  10.441
 3453W        W 7197   3.833   8.536   1.279
 3454W        W 7198   1.047   2.874   8.803
 3455W        W 7199   4.735   3.058   4.066
 3456W        W 7200   7.046   1.905   0.002
 3457W        W 7201   0.626   6.655   8.507
 3458W        W 7202   1.736   6.075   2.520
 3459W        W 7203   6.945   7.921   3.128
 3460W        W 7204   5.167   8.332   2.845
 3461W        W 7205   5.362   8.839   0.407
 3462W        W 7206   8.640   5.599   8.861
 3463W        W 7207   6.997   9.249  11.832
 3464W        W 7208  10.392  10.207   0.235
 3465W        W 7209   1.474   3.282   0.695
 3466W        W 7210   7.056   6.617   1.022
 3467W        W 7211  10.354   0.674   0.213
 3468W        W 7212   9.924   4.182   9.612
 3469W        W 7213   3.311   5.007  11.315
 3470W        W 7214   7.870   6.905   2.944
 3471W        W 7215   4.706   3.037   1.000
 3472W        W 7216   4.120   4.137  11.739
 3473W        W 7217   9.442   8.322   1.788
 3474W        W 7218   0.882   2.856   0.964
 3475W        W 7219   2.920   5.190   1.927
 3476W        W 7220   0.940   2.345   9.091
 3477W        W 7221   9.897   7.120  11.405
 3478W        W 7222   5.700   7.124  11.343
 3479W        W 7223  10.119   4.560   0.340
 3480W        W 7224   5.546  10.033   3.306
 3481W        W 7225   5.157   1.245   9.514
 3482W        W 7226   1.201   4.230   2.957
 3483W        W 7227   9.709   3.949   9.202
 3484W        W 7228   3.736   8.205  11.373
 3485W        W 7229   0.426   8.637  11.198
 3486W        W 7230  10.216   2.159   0.585
 3487W        W 7231   5.105   0.686  11.774
 3488W        W 7232   7.223   1.887  10.528
 3489W        W 7233   3.820   8.819   9.943
 3490W        W 7234   8.078   3.237   0.204
 3491W        W 7235   1.853   7.887   0.762
 3492W        W 7236   5.529   8.820   1.177
 3493W        W 7237   1.282   8.130  11.445
 3494W        W 7238   9.923   4.690   3.429
 3495W        W 7239   2.672   2.957   1.265
 3496W        W 7240   6.523   8.986   1.126
 3497W        W 7241   1.964   3.518   2.814
 3498W        W 7242   8.684   0.538  10.102
 3499W        W 7243   6.621   6.735   1.379
 3500W        W 7244   5.626   9.967  10.080
 3501W        W 7245   8.783   3.632  10.960
 3502W        W 7246  10.012   0.276   0.311
 3503W        W 7247   9.859   8.317   2.838
 3504W        W 7248   3.175   1.350   1.488
 3505W        W 7249   5.654   6.302   3.719
 3506W        W 7250   4.491   7.662   8.077
 3507W        W 7251   2.779   8.101  10.345
 3508W        W 7252   6.708   5.938  11.272
 3509W        W 7253   2.709  10.366   3.581
 3510W        W 7254   1.377  10.085  11.131
 3511W        W 7255   1.900   6.950   1.992
 3512W        W 7256   3.183   4.768   1.698
 3513W        W 7257   7.124   0.278   3.140
 3514W        W 7258   7.935   0.811  10.700
 3515W        W 7259   2.314   2.889   0.434
 3516W        W 7260   3.060   1.875  10.775
 3517W        W 7261   1.173   3.135   3.455
 3518W        W 7262   8.057   3.521   3.339
 3519W        W 7263  10.247   9.391   2.972
 3520W        W 7264   2.935   1.187  10.842
 3521W        W 7265   0.267   4.290   1.903
 3522W        W 7266   9.653  10.312   9.590
 3523W        W 7267   1.334   1.803  10.229
 3524W        W 7268   7.267   7.897   9.631
 3525W        W 7269   4.494   0.784   2.744
 3526W        W 7270   5.759   8.073   1.613
 3527W        W 7271   1.199   4.292  11.929
 3528W        W 7272   3.115   9.921  10.445
 3529W        W 7273   6.599   0.173   1.833
 3530W        W 7274   5.387   0.469   3.490
 3531W        W 7275   5.110   9.991   2.502
 3532W        W 7276   0.605   0.233  11.932
 3533W        W 7277   6.576   4.493  11.095
 3534W        W 7278   0.741   0.416  11.058
 3535W        W 7279   2.918   1.645  10.288
 3536W        W 7280   3.168   7.859   0.938
 3537W        W 7281   2.642   4.264  11.954
 3538W        W 7282   2.276   1.655  11.226
 3539W        W 7283   4.671   9.626   9.083
 3540W        W 7284   3.719   0.324   0.986
 3541W        W 7285   4.988   6.071   0.877
 3542W        W 7286   3.345   2.686  11.766
 3543W        W 7287   0.480   4.008   1.535
 3544W        W 7288   7.591   7.425  10.760
 3545W        W 7289   7.112   6.225  11.067
 3546W        W 7290   8.427   8.951   0.979
 3547W        W 7291   0.566   2.486   3.496
 3548W        W 7292   0.389   7.447  11.857
 3549W        W 7293   3.557   4.969  10.738
 3550W        W 7294   7.139   8.832   9.614
 3551W        W 7295   9.749   4.296   3.160
 3552W        W 7296   3.640   8.506  11.801
 3553W        W 7297   3.987   0.058   2.190
 3554W        W 7298   6.910   7.898   2.073
 3555W        W 7299   1.376   4.974  11.354
 3556W        W 7300   0.329   5.295  11.319
 3557W        W 7301   7.539   3.185   9.692
 3558W        W 7302  10.011   9.104   9.405
 3559W        W 7303   7.120   0.400   1.160
 3560W        W 7304   0.564   1.297   9.032
 3561W        W 7305   5.712   6.404   1.435
 3562W        W 7306   8.853   0.538  10.637
 3563W        W 7307   0.813   7.018  10.092
 3564W        W 7308   4.550   7.649  10.773
 3565W        W 7309   2.356   6.887   8.125
 3566W        W 7310   4.731   6.839   3.147
 3567W        W 7311   2.854   3.186  11.406
 3568W        W 7312  10.355   2.962   1.297
 3569W        W 7313   0.530   7.036   8.917
 3570W        W 7314   9.977   9.507   9.067
 3571W        W 7315   4.270   3.644   2.705
 3572W        W 7316   8.553   6.673   3.437
 3573W        W 7317   0.817   7.811   9.100
 3574W        W 7318   1.918   2.201   9.503
 3575W        W 7319   7.280   9.425   2.772
 3576W        W 7320   1.507   7.961   9.544
 3577W        W 7321   6.703   7.003  10.930
 3578W        W 7322   4.595   0.759  11.797
 3579W        W 7323   1.291   1.027  11.550
 3580W        W 7324   5.199   4.273   9.129
 3581W        W 7325   6.692   7.386  10.007
 3582W        W 7326   3.998   3.121   1.365
 3583W        W 7327   4.724   6.957   2.144
 3584W        W 7328   5.563   2.552  10.457
 3585W        W 7329   6.273   8.718   8.602
 3586W        W 7330   4.033   8.025   8.696
 3587W        W 7331   2.211   6.606   9.208
 3588W        W 7332  10.276   7.998   2.870
 3589W        W 7333   3.152   1.842   3.210
 3590W        W 7334  10.433   0.901  11.762
 3591W        W 7335   7.498  10.088   1.543
 3592W        W 7336   1.201   3.338   2.644
 3593W        W 7337   3.362   6.114   1.887
 3594W        W 7338   0.869   4.706   2.455
 3595W        W 7339   6.061   2.006  11.750
 3596W        W 7340   8.604   9.395   1.284
 3597W        W 7341   6.544   2.315   2.979
 3598W        W 7342   6.929   6.466  11.491
 3599W        W 7343   4.555   1.095   9.248
 3600W        W 7344   0.775   8.457   2.744
 3601W        W 7345  10.051   0.819   3.507
 3602W        W 7346   4.290   9.422  10.610
 3603W        W 7347   0.530   2.840   8.716
 3604W        W 7348   4.196   4.203   3.596
 3605W        W 7349   4.571   9.973   0.474
 3606W        W 7350   2.216   3.763   9.761
 3607W        W 7351   5.593   5.111   9.846
 3608W        W 7352   5.491   9.873  11.065
 3609W        W 7353   9.286   9.024   8.725
 3610W        W 7354   1.415   9.262   0.635
 3611W        W 7355   9.372   8.090  11.963
 3612W        W 7356   1.402   9.967   2.842
 3613W        W 7357   2.474   1.809   0.018
 3614W        W 7358   5.937   7.927   9.968
 3615W        W 7359   0.754  10.188   2.847
 3616W        W 7360   1.179   2.909   2.965
 3617W        W 7361   5.675   3.550   4.243
 3618W        W 7362   0.382   8.961  11.582
 3619W        W 7363   2.647   7.539  11.503
 3620W        W 7364   7.464  10.106  11.254
 3621W        W 7365   1.778   2.800   1.743
 3622W        W 7366   1.712   9.289   9.986
 3623W        W 7367  10.388   6.033   8.596
 3624W        W 7368   2.052   7.134   8.474
 3625W        W 7369  10.033   7.875  10.261
 3626W        W 7370   1.243   3.634  11.566
 3627W        W 7371   7.247   0.201   3.682
 3628W        W 7372   3.988   0.902  10.934
 3629W        W 7373   7.779   6.126  10.469
 3630W        W 7374   7.682   1.995   9.750
 3631W        W 7375   7.856   7.828   3.148
 3632W        W 7376   1.704   5.205  11.870
 3633W        W 7377   5.072   4.078   8.179
 3634W        W 7378   8.073   2.000  11.411
 3635W        W 7379   5.347   4.431   0.686
 3636W        W 7380   8.736   2.609   0.695
 3637W        W 7381   6.857   1.746   9.647
 3638W        W 7382   6.952   4.025  10.491
 3639W        W 7383   1.359   4.338   9.886
 3640W        W 7384   5.304   6.659   8.480
 3641W        W 7385  10.041   2.206  11.206
 3642W        W 7386   2.381   1.232   3.406
 3643W        W 7387   5.738   5.103   2.147
 3644W        W 7388   6.951   0.171   0.741
 3645W        W 7389  10.383   8.963   3.246
 3646W        W 7390   9.983   2.821   2.747
 3647W        W 7391   4.706   3.109  11.577
 3648W        W 7392   2.293   9.950   2.990
 3649W        W 7393  10.282   3.078  10.857
 3650W        W 7394   9.502   1.103  11.947
 3651W        W 7395   4.422   8.888  11.125
 3652W        W 7396   0.891   6.676   2.590
 3653W        W 7397   7.963   4.105   2.161
 3654W        W 7398   6.479   9.068   9.060
 3655W        W 7399   5.204   8.377   8.907
 3656W        W 7400   4.994  10.439   9.735
 3657W        W 7401   4.498   9.591   2.342
 3658W        W 7402   1.141   0.479   0.739
 3659W        W 7403   4.872   0.271  10.516
 3660W        W 7404   3.892   9.876   1.179
 3661W        W 7405   4.173   7.898  10.295
 3662W        W 7406   3.740   1.930  11.500
 3663W        W 7407  10.270   8.458   1.663
 3664W        W 7408   7.621   1.807   1.664
 3665W        W 7409   7.509   9.966  10.764
 3666W        W 7410   8.849   8.981   1.744
 3667W        W 7411   1.780   8.087  11.479
 3668W        W 7412   1.038   5.497   3.267
 3669W        W 7413   9.445   7.904   3.476
 3670W        W 7414   9.397   8.597  11.864
 3671W        W 7415   8.604   4.295  11.775
 3672W        W 7416   3.524  10.348   3.065
 3673W        W 7417   4.176   4.381  11.253
 3674W        W 7418   9.754   0.997   1.822
 3675W        W 7419   7.497   8.890   4.019
 3676W        W 7420   2.595   2.364   0.421
 3677W        W 7421   9.854   9.793  11.699
 3678W        W 7422   4.445   3.606   9.132
 3679W        W 7423   9.390   2.228   2.668
 3680W        W 7424   4.227   6.553   9.924
 3681W        W 7425   1.004   2.382   0.775
 3682W        W 7426   6.248   0.769   1.139
 3683W        W 7427   5.988   5.685  11.377
 3684W        W 7428   4.227   8.935  10.302
 3685W        W 7429   8.505   8.005   1.034
 3686W        W 7430   0.492   5.104   0.126
 3687W        W 7431   7.815   9.350   0.339
 3688W        W 7432   2.608   9.032   3.515
 3689W        W 7433   2.194   1.217   1.187
 3690W        W 7434   9.922   2.316   2.795
 3691W        W 7435   1.809   1.427   1.440
 3692W        W 7436   0.295   4.921  11.680
 3693W        W 7437   8.947   7.987   2.838
 3694W        W 7438   8.944   1.734   9.315
 3695W        W 7439   4.587   9.074   2.405
 3696W        W 7440   8.356   2.347   2.514
 3697W        W 7441   3.618   1.387   0.409
 3698W        W 7442   8.287   6.313   3.760
 3699W        W 7443   1.829   4.806  11.567
 3700W        W 7444   6.735   6.728   9.042
 3701W        W 7445   7.634   0.906   0.709
 3702W        W 7446   8.574   1.461  10.970
 3703W        W 7447   2.077   9.304  10.357
 3704W        W 7448   9.828   4.624   9.905
 3705W        W 7449   3.785   9.147  10.375
 3706W        W 7450   0.650   9.352   2.282
 3707W        W 7451   2.644   2.280  11.910
 3708W        W 7452   2.714   3.110   3.301
 3709W        W 7453   9.960   6.405   1.856
 3710W        W 7454   1.443   3.625   8.682
 3711W        W 7455   9.433   3.939  11.540
 3712W        W 7456   8.300   9.994  10.724
 3713W        W 7457   2.007   4.888   3.683
 3714W        W 7458   0.755   6.526   2.095
 3715W        W 7459   0.636   0.354   1.956
 3716W        W 7460   9.632   4.250   8.779
 3717W        W 7461   0.869   2.752  11.868
 3718W        W 7462   8.106   7.953  11.785
 3719W        W 7463   6.496   8.488  10.882
 3720W        W 7464   3.648   7.601   9.338
 3721W        W 7465   3.218   3.765   2.653
 3722W        W 7466   6.007   6.096  10.016
 3723W        W 7467  10.406   8.175  11.933
 3724W        W 7468   9.780   4.997   0.789
 3725W        W 7469   7.466   4.583  11.015
 3726W        W 7470   5.179   8.365  10.071
 3727W        W 7471  10.320   5.114  10.566
 3728W        W 7472  10.293   7.041   1.193
 3729W        W 7473   7.148   7.210  10.794
 3730W        W 7474   7.626   9.125   9.720
 3731W        W 7475   8.601   9.254   9.557
 3732W        W 7476   9.597   3.464   9.406
 3733W        W 7477   0.044   0.882   9.738
 3734W        W 7478   9.911   9.316   9.897
 3735W        W 7479   9.883   6.118   9.476
 3736W        W 7480   6.916  10.161  11.876
 3737W        W 7481   5.447   9.979   1.716
 3738W        W 7482   5.500   3.323   9.841
 3739W        W 7483   9.560   6.648   1.677
 3740W        W 7484   5.060   8.508  11.547
 3741W        W 7485   3.736  10.490  10.823
 3742W        W 7486   9.341   9.507   0.503
 3743W        W 7487   4.797   8.703   8.840
 3744W        W 7488   9.338  10.312  11.871
 3745W        W 7489   3.736   8.676   1.761
 3746W        W 7490  10.344   5.526   9.982
 3747W        W 7491   1.508   3.736   2.759
 3748W        W 7492   6.619   8.480   1.315
 3749W        W 7493   2.897   7.443   2.321
 3750W        W 7494   3.081   5.097  10.872
 3751W        W 7495   5.255   9.666   0.054
 3752W        W 7496   0.041   3.170   9.935
 3753W        W 7497   9.386   3.279   0.284
 3754W        W 7498   8.905   8.352   1.068
 3755W        W 7499   4.272   6.837   3.402
 3756W        W 7500   9.986   8.820   0.545
 3757W        W 7501   2.423   3.406   0.372
 3758W        W 7502   7.405   2.439   0.937
 3759W        W 7503   6.675   0.288   8.746
 3760W        W 7504   2.679   6.941   8.531
 3761W        W 7505   0.255   3.350   0.332
 3762W        W 7506   9.403   6.240   3.091
 3763W        W 7507   7.549   0.037   9.789
 3764W        W 7508   2.972   6.864   2.928
 3765W        W 7509   1.464   8.191   3.199
 3766W        W 7510   2.791   2.777   0.214
 3767W        W 7511   1.237   9.798   8.470
 3768W        W 7512   5.793   4.222   3.615
 3769W        W 7513   0.223   4.154   2.822
 3770W        W 7514   9.771   5.881  11.037
 3771W        W 7515   6.002  10.401   9.922
 3772W        W 7516   4.222   7.338   0.466
 3773W        W 7517   7.338   9.021   0.218
 3774W        W 7518  10.269   9.476   2.472
 3775W        W 7519   3.266   7.085  11.758
 3776W        W 7520   2.470   7.826  11.877
 3777W        W 7521   5.700   0.707  11.425
 3778W        W 7522   9.204   2.239   3.149
 3779W        W 7523   3.745   3.167  11.169
 3780W        W 7524   4.725   3.174   3.207
 3781W        W 7525   7.390   6.983   1.643
 3782W        W 7526   2.385   9.907   9.616
 3783W        W 7527   8.316   3.773  11.058
 3784W        W 7528   5.654   9.092   0.757
 3785W        W 7529   3.783   9.475   2.865
 3786W        W 7530   1.728   9.460  11.295
 3787W        W 7531   1.776   6.495   3.019
 3788W        W 7532   3.347   7.405   8.976
 3789W        W 7533   0.259   1.675   8.339
 3790W        W 7534   6.540   0.179  11.492
 3791W        W 7535   4.713   4.578  11.196
 3792W        W 7536   8.230   2.648   0.744
 3793W        W 7537   6.196   8.207   1.381
 3794W        W 7538   0.806   9.301  11.544
 3795W        W 7539   5.126   6.057   2.434
 3796W        W 7540   2.686   8.099  10.857
 3797W        W 7541   6.139   4.252   1.236
 3798W        W 7542   4.754   8.563  10.276
 3799W        W 7543   5.607   9.026  10.538
 3800W        W 7544   7.558   0.075  10.300
 3801W        W 7545   4.501   4.739  10.358
 3802W        W 7546   7.157   4.919   3.355
 3803W        W 7547   4.930   7.370   8.137
 3804W        W 7548   8.016   3.197   1.592
 3805W        W 7549   5.476  10.444   9.927
 3806W        W 7550   9.172   6.699   0.133
 3807W        W 7551   9.596   8.967   9.699
 3808W        W 7552   2.249   0.746   9.633
 3809W        W 7553   8.060   6.671  10.258
 3810W        W 7554   5.226   7.087   4.218
 3811W        W 7555   7.349   7.134  10.314
 3812W        W 7556   3.065   6.632  11.763
 3813W        W 7557   0.312   2.906   9.577
 3814W        W 7558   6.218   7.079   3.995
 3815W        W 7559   1.823   6.722   1.526
 3816W        W 7560   1.127   5.272   1.042
 3817W        W 7561   8.724   7.463   3.570
 3818W        W 7562   1.310   7.072  10.656
 3819W        W 7563   8.805  10.279   0.913
 3820W        W 7564   7.061   7.100   8.903
 3821W        W 7565   1.811   4.954   2.299
 3822W        W 7566   4.241   5.204  10.089
 3823W        W 7567   6.183   8.379   2.899
 3824W        W 7568   5.079   3.354   0.354
 3825W        W 7569   3.181   0.998   2.856
 3826W        W 7570  10.438   0.631   1.375
 3827W        W 7571   1.532   7.825   2.426
 3828W        W 7572   6.926   6.277   8.112
 3829W        W 7573   5.948   9.645  11.021
 3830W        W 7574   4.477   1.700   2.817
 3831W        W 7575   8.136   2.781   2.817
 3832W        W 7576   8.589   6.778   0.940
 3833W        W 7577   4.818   1.343   2.126
 3834W        W 7578   9.383  10.139   2.147
 3835W        W 7579   9.990  10.156   0.977
 3836W        W 7580   7.658   8.145   0.035
 3837W        W 7581   3.230   6.009   9.181
 3838W        W 7582   2.282   5.978  11.888
 3839W        W 7583   8.388   7.042  10.413
 3840W        W 7584   0.226   7.155   0.953
 3841W        W 7585   8.544   2.831   9.966
 3842W        W 7586   5.154   6.505   2.157
 3843W        W 7587   1.369   6.877   8.880
 3844W        W 7588   5.651   3.324   2.774
 3845W        W 7589   8.137   6.497   3.170
 3846W        W 7590   4.677   9.853  10.816
 3847W        W 7591   9.007   4.732   1.546
 3848W        W 7592   1.760   2.879   9.986
 3849W        W 7593   7.044   8.969   2.838
 3850W        W 7594   6.124   6.504  10.846
 3851W        W 7595   1.349   3.299   2.166
 3852W        W 7596   7.054   2.736  11.543
 3853W        W 7597   9.859  10.235  11.972
 3854W        W 7598   3.736   8.098   9.499
 3855W        W 7599   3.127   1.456   2.010
 3856W        W 7600   6.474   0.217   0.457
 3857W        W 7601   5.079   1.783  10.757
 3858W        W 7602   2.280   5.566  11.501
 3859W        W 7603   5.367   5.707   8.585
 3860W        W 7604   2.208   7.301   9.740
 3861W        W 7605   6.148   8.086  11.083
 3862W        W 7606   2.093   7.676   9.425
 3863W        W 7607   6.956   3.492   2.538
 3864W        W 7608   1.889   4.515   1.406
 3865W        W 7609   0.333   0.959   2.690
 3866W        W 7610   0.913   5.081   9.947
 3867W        W 7611   0.457   4.831  10.087
 3868W        W 7612   4.628   5.367  11.203
 3869W        W 7613   5.123   3.799   0.134
 3870W        W 7614   4.313   4.608  10.823
 3871W        W 7615   5.572   3.328   2.272
 3872W        W 7616   2.115   9.759  10.566
 3873W        W 7617   7.639   9.606   1.657
 3874W        W 7618   4.089   6.058   1.003
 3875W        W 7619  10.323   1.789  11.457
 3876W        W 7620   8.966   2.880   1.463
 3877W        W 7621   0.588   5.917   1.447
 3878W        W 7622   7.407   0.570   9.538
 3879W        W 7623   8.495   3.893   3.283
 3880W        W 7624   9.073   2.243  11.460
 3881W        W 7625   9.344   4.604  10.108
 3882W        W 7626   1.967   9.100   2.842
 3883W        W 7627   1.801   0.894   9.341
 3884W        W 7628   9.436   1.267  10.923
 3885W        W 7629   8.574   4.591  11.313
 3886W        W 7630   8.428   2.730   8.948
 3887W        W 7631   8.917   1.744   3.275
 3888W        W 7632   7.200   7.909   8.585
 3889W        W 7633   1.986   7.742   2.675
 3890W        W 7634   9.899   0.672   0.982
 3891W        W 7635   1.177   4.032   1.445
 3892W        W 7636   5.747   1.275  10.762
 3893W        W 7637   8.051   7.843  11.262
 3894W        W 7638   2.271   5.270   3.449
 3895W        W 7639   8.017   9.800   9.304
 3896W        W 7640   2.687   8.963  10.984
 3897W        W 7641  10.493   1.841  11.953
 3898W        W 7642   9.447   8.615   2.764
 3899W        W 7643   3.232   4.699   3.597
 3900W        W 7644   9.748   0.854  11.011
 3901W        W 7645   7.155   6.689  10.761
 3902W        W 7646   9.048   0.734   0.766
 3903W        W 7647   9.969   9.985  10.811
 3904W        W 7648   5.250   9.707  10.367
 3905W        W 7649   7.507   8.564   3.141
 3906W        W 7650   5.713   6.458   0.937
 3907W        W 7651   1.396   9.545  10.892
 3908W        W 7652   9.803   3.713   9.824
 3909W        W 7653   7.006   0.050   9.060
 3910W        W 7654   6.470   6.648  11.219
 3911W        W 7655   1.751   6.182  11.855
 3912W        W 7656   5.258   4.466  11.021
 3913W        W 7657   5.686   4.223   2.155
 3914W        W 7658   5.577   5.124   3.118
 3915W        W 7659   1.953   3.226   9.665
 3916W        W 7660   6.154   3.335  11.428
 3917W        W 7661   6.371   7.740   1.281
 3918W        W 7662   5.640   0.267   0.413
 3919W        W 7663   3.262   4.984   4.029
 3920W        W 7664   8.197   6.683   2.223
 3921W        W 7665   1.078   3.524   1.474
 3922W        W 7666   4.843   9.455   3.191
 3923W        W 7667  10.460  10.486  10.197
 3924W        W 7668   9.284   4.045   2.491
 3925W        W 7669   8.416   1.858   2.379
 3926W        W 7670   3.665   4.041   1.374
 3927W        W 7671   1.061   7.102   9.650
 3928W        W 7672   9.660   4.741  10.478
 3929W        W 7673   2.768   1.224   0.780
 3930W        W 7674   2.232   8.311  11.557
 3931W        W 7675   8.034   8.459  11.770
 3932W        W 7676   1.792  10.023   1.643
 3933W        W 7677   6.542   9.349  10.347
 3934W        W 7678   9.619   3.784  10.590
 3935W        W 7679  10.494   0.819  11.243
 3936W        W 7680   1.259   1.411   2.259
 3937W        W 7681   9.447   2.683   1.492
 3938W        W 7682   4.895  10.248   2.965
 3939W        W 7683   4.133   2.695   9.076
 3940W        W 7684   9.396  10.058   2.671
 3941W        W 7685   5.629   6.643   8.915
 3942W        W 7686   8.076   2.868  10.713
 3943W        W 7687   1.776   2.787  11.803
 3944W        W 7688   3.605   0.902   2.590
 3945W        W 7689   8.482   8.915  10.293
 3946W        W 7690   0.274   4.204   9.244
 3947W        W 7691   1.567   1.483   8.875
 3948W        W 7692   4.946   2.237  11.881
 3949W        W 7693   8.593  10.479  10.880
 3950W        W 7694   2.143   1.066  10.056
 3951W        W 7695   0.963   6.998   2.113
 3952W        W 7696   8.043   0.690   1.751
 3953W        W 7697   7.299   6.225  10.354
 3954W        W 7698   9.403   0.865   3.506
 3955W        W 7699  10.473   5.088   9.729
 3956W        W 7700   8.818   5.090  10.512
 3957W        W 7701   8.974   4.603   8.841
 3958W        W 7702   4.896   3.676   8.443
 3959W        W 7703   4.974   5.686   0.291
 3960W        W 7704   2.419   0.317   2.808
 3961W        W 7705   9.738   8.982   3.485
 3962W        W 7706  10.464   8.599  10.097
 3963W        W 7707   6.346  10.325   2.753
 3964W        W 7708   4.262   5.345  10.582
 3965W        W 7709   7.072   3.355  11.233
 3966W        W 7710   1.451   1.670   0.211
 3967W        W 7711   7.425   5.226   9.355
 3968W        W 7712   3.265   0.472   1.279
 3969W        W 7713   1.238   3.653   1.011
 3970W        W 7714   7.086   6.114   9.083
 3971W        W 7715   5.983   2.115   9.151
 3972W        W 7716   9.880   1.819   9.403
 3973W        W 7717   0.861   1.699   2.524
 3974W        W 7718   3.322   9.572  11.802
 3975W        W 7719   6.581   0.503   0.868
 3976W        W 7720   3.358   3.901   3.119
 3977W        W 7721   3.385   5.426   3.223
 3978W        W 7722   7.228   4.113  11.817
 3979W        W 7723   1.219   6.119  11.879
 3980W        W 7724   0.854   9.649   9.535
 3981W        W 7725   7.163   7.510   2.374
 3982W        W 7726   9.410   3.664   1.110
 3983W        W 7727   3.928   9.719   0.698
 3984W        W 7728   5.584   1.701   3.024
 3985W        W 7729   3.282   4.899   0.523
 3986W        W 7730   5.073   4.076  10.747
 3987W        W 7731   8.043   5.392   1.264
 3988W        W 7732   4.509   4.140   9.404
 3989W        W 7733   5.342   9.760  11.553
 3990W        W 7734   7.512   9.596  10.062
 3991W        W 7735   6.876   9.388  10.728
 3992W        W 7736   0.197   6.183   0.827
 3993W        W 7737   2.629   5.652   9.935
 3994W        W 7738   3.176   4.218   1.233
 3995W        W 7739  10.204   6.851   9.361
 3996W        W 7740   9.626   7.428   0.835
 3997W        W 7741   7.068   5.238   0.282
 3998W        W 7742   5.941   0.811   9.956
 3999W        W 7743   8.134   8.435   2.602
 4000W        W 7744   6.591   6.681   2.253
 4001W        W 7745   6.910   4.855   9.943
 4002W        W 7746   3.857   3.075   9.244
 4003W        W 7747   1.734   2.232  11.345
 4004W        W 7748   6.837  10.342   2.494
 4005W        W 7749   1.389  10.375  10.270
 4006W        W 7750   5.949   4.741  10.339
 4007W        W 7751   4.946   7.877   8.272
 4008W        W 7752   8.425   3.622   8.453
 4009W        W 7753  10.343   0.791   8.703
 4010W        W 7754   8.979   2.500   1.829
 4011W        W 7755   2.893   4.611   4.116
 4012W        W 7756   4.660   6.478   2.318
 4013W        W 7757   5.059   7.164   1.341
 4014W        W 7758   0.706   6.175   0.925
 4015W        W 7759   9.549   0.064   0.270
 4016W        W 7760   2.904   3.713  10.532
 4017W        W 7761   3.228   8.328  11.516
 4018W        W 7762   7.864   2.413  10.509
 4019W        W 7763   0.854   1.370   0.921
 4020W        W 7764   9.488   1.839   0.929
 4021W        W 7765   7.198   2.603   2.528
 4022W        W 7766   1.457   8.436   1.042
 4023W        W 7767   3.059   2.515   0.592
 4024W        W 7768   7.545   6.126   2.728
 4025W        W 7769   5.631   1.140   1.272
 4026W        W 7770   7.019   9.648   0.817
 4027W        W 7771   9.544   7.202  10.104
 4028W        W 7772   5.977   6.717   4.277
 4029W        W 7773   4.605   3.228  10.815
 4030W        W 7774  10.062   0.983   1.410
 4031W        W 7775   0.429   8.941   1.557
 4032W        W 7776   2.692   7.900   1.208
 4033W        W 7777  10.366   8.520   0.739
 4034W        W 7778   9.952   5.443   1.766
 4035W        W 7779   6.669   5.281  11.976
 4036W        W 7780   5.070   7.885  10.295
 4037W        W 7781   9.934   4.967  10.877
 4038W        W 7782   9.846   1.443  10.188
 4039W        W 7783   4.241   4.439   9.082
 4040W        W 7784   5.604   9.495  10.705
 4041W        W 7785   4.500   6.002   0.707
 4042W        W 7786   7.682   5.600   3.955
 4043W        W 7787   2.161   0.367   9.975
 4044W        W 7788   6.480  10.006   2.389
 4045W        W 7789   5.237   9.433   0.654
 4046W        W 7790   9.666   9.817  11.211
 4047W        W 7791   7.955   0.294  10.555
 4048W        W 7792   0.811   7.910  11.504
 4049W        W 7793  10.282  10.330   1.967
 4050W        W 7794   5.698   3.584  10.926
 4051W        W 7795   2.303   5.057  11.630
 4052W        W 7796  10.065   5.701   2.190
 4053W        W 7797   4.700   2.761   9.799
 4054W        W 7798   6.058   7.199   3.529
 4055W        W 7799   7.585   6.661  10.461
 4056W        W 7800   1.637   8.564  11.529
 4057W        W 7801   5.994   7.125   1.882
 4058W        W 7802   8.632   1.688   3.675
 4059W        W 7803   4.493   7.927   8.510
 4060W        W 7804   8.538   6.192   9.135
 4061W        W 7805   3.394   4.626   8.644
 4062W        W 7806   8.375   9.260   0.055
 4063W        W 7807   1.354   6.372   2.705
 4064W        W 7808  10.198   4.125   2.916
 4065W        W 7809   7.464   5.821   0.805
 4066W        W 7810  10.479   1.727   2.519
 4067W        W 7811   2.920   2.050   9.468
 4068W        W 7812   0.085   1.593   1.813
 4069W        W 7813   4.071   6.913  10.305
 4070W        W 7814   6.754   4.589   3.259
 4071W        W 7815   7.180   2.671   1.360
 4072W        W 7816   4.867   2.826   2.325
 4073W        W 7817   4.895   9.506   2.672
 4074W        W 7818   5.141   4.683  11.483
 4075W        W 7819   8.969   0.428   1.427
 4076W        W 7820   4.001   7.540   3.060
 4077W        W 7821   1.838   3.235   2.028
 4078W        W 7822   1.655   9.510   2.980
 4079W        W 7823   7.120   7.873  11.468
 4080W        W 7824   1.275   4.266   0.437
 4081W        W 7825   9.359   8.574   8.969
 4082W        W 7826   0.814   3.843  11.781
 4083W        W 7827   0.729   7.102   0.746
 4084W        W 7828   2.989   9.006   3.144
 4085W        W 7829   9.634  10.434   3.398
 4086W        W 7830   1.199   2.880   0.541
 4087W        W 7831   6.936   9.964  11.372
 4088W        W 7832   2.275   3.856   2.625
 4089W        W 7833   4.937   4.235   0.916
 4090W        W 7834   4.652   4.956   9.897
 4091W        W 7835   2.839   1.150   3.234
 4092W        W 7836   9.009   8.413   2.572
 4093W        W 7837   3.300   2.382  10.119
 4094W        W 7838   1.803   6.261  11.319
 4095W        W 7839   4.623   7.628  10.276
 4096W        W 7840   6.488   3.033  10.505
 4097W        W 7841   7.346   1.044   9.397
 4098W        W 7842   7.048   7.464   9.388
 4099W        W 7843   4.080  10.103   0.351
 4100W        W 7844   8.377   1.983  10.984
 4101W        W 7845   5.655   1.137   0.735
 4102W        W 7846   8.180   6.627   1.616
 4103W        W 7847   9.394   3.115  11.248
 4104W        W 7848   0.284   7.812   0.257
 4105W        W 7849   0.315   1.720   8.881
 4106W        W 7850   4.467   1.030  10.986
 4107W        W 7851   7.478   2.721   1.801
 4108W        W 7852   8.328   0.920   9.228
 4109W        W 7853   4.694   3.021   0.105
 4110W        W 7854   5.865   2.388   0.048
 4111W        W 7855   7.374   5.024  11.359
 4112W        W 7856   7.458   3.245   1.876
 4113W        W 7857   1.231   7.462   2.188
 4114W        W 7858   4.170   0.785  10.397
 4115W        W 7859   6.745   1.466  11.950
 4116W        W 7860   2.604   3.870  11.418
 4117W        W 7861   6.948   0.975   0.275
 4118W        W 7862   1.437   8.660  10.530
 4119W        W 7863   8.324   9.811  10.211
 4120W        W 7864   8.041   6.021   0.008
 4121W        W 7865   1.908   8.521  11.099
 4122W        W 7866   9.768   9.856   9.820
 4123W        W 7867   3.786   1.810   9.022
 4124W        W 7868   4.445   8.096   0.088
 4125W        W 7869   5.201   9.434   1.159
 4126W        W 7870   1.323  10.327   9.771
 4127W        W 7871   6.558   3.647   3.212
 4128W        W 7872   2.808   8.552  10.646
 4129W        W 7873   5.535   6.404  11.111
 4130W        W 7874   7.042   8.657   1.109
 4131W        W 7875   5.133   8.957   0.870
 4132W        W 7876  10.164  10.295   1.440
 4133W        W 7877   1.464   9.080   2.735
 4134W        W 7878   4.639   5.443   1.831
 4135W        W 7879   1.273   8.460   8.737
 4136W        W 7880   4.485  10.448  11.418
 4137W        W 7881  10.412   3.625   2.146
 4138W        W 7882   8.067   7.495   9.609
 4139W        W 7883   4.056   6.822  11.526
 4140W        W 7884   7.406   7.565   3.190
 4141W        W 7885  10.073   6.864   2.396
 4142W        W 7886   2.822   4.552  10.473
 4143W        W 7887   6.105   0.199  11.763
 4144W        W 7888   0.440   0.399   2.448
 4145W        W 7889   2.769   5.516   0.748
 4146W        W 7890   4.593  10.344  10.539
 4147W        W 7891   6.137   0.341   8.864
 4148W        W 7892   5.612  10.385   1.438
 4149W        W 7893   6.921   3.800  10.040
 4150W        W 7894   2.778   8.823   2.696
 4151W        W 7895   7.573   5.262   1.391
 4152W        W 7896   2.307   5.654   0.499
 4153W        W 7897   9.396   7.608  11.055
 4154W        W 7898   7.415   9.056   2.440
 4155W        W 7899   8.651   2.414  11.869
 4156W        W 7900   8.930   5.950   9.936
 4157W        W 7901   8.971  10.019   1.791
 4158W        W 7902   3.725   8.099  10.457
 4159W        W 7903   3.298   2.173   0.909
 4160W        W 7904   0.026   2.901   0.808
 4161W        W 7905   0.736   2.926   1.484
 4162W        W 7906   4.176   8.854   9.410
 4163W        W 7907   3.601   8.029   9.011
 4164W        W 7908   1.605   2.275   2.288
 4165W        W 7909   0.288   5.977   3.165
 4166W        W 7910   4.782  10.358  10.997
 4167W        W 7911   0.216   6.106   2.666
 4168W        W 7912   0.856   5.553   9.759
 4169W        W 7913   5.048   6.514   2.656
 4170W        W 7914   1.893   9.904   9.402
 4171W        W 7915   8.024   8.832   9.573
 4172W        W 7916   5.133   1.281  10.016
 4173W        W 7917   4.795   2.039   1.006
 4174W        W 7918   6.627   4.247   2.308
 4175W        W 7919   2.754   0.691   1.483
 4176W        W 7920   3.200   8.625   2.868
 4177W        W 7921   6.125   0.454  11.292
 4178W        W 7922   7.758   0.425  10.996
 4179W        W 7923   2.525   6.976   0.865
 4180W        W 7924   9.979   5.502   8.973
 4181W        W 7925   8.103   3.035  11.705
 4182W        W 7926   5.495   0.795   2.482
 4183W        W 7927   5.552   7.304   0.674
 4184W        W 7928   2.273   8.630   2.830
 4185W        W 7929   3.288   3.712   1.193
 4186W        W 7930   7.234   3.879   8.960
 4187W        W 7931   2.830   8.528   9.680
 4188W        W 7932   6.079   3.839  10.696
 4189W        W 7933   7.675   4.228   3.536
 4190W        W 7934   2.417   4.791   3.146
 4191W        W 7935   0.327   1.238  11.259
 4192W        W 7936   8.016   7.389  11.040
 4193W        W 7937   6.487   5.860  10.386
 4194W        W 7938   0.283   9.525  10.075
 4195W        W 7939   5.047   6.646  11.245
 4196W        W 7940   2.160   5.980   2.813
 4197W        W 7941   9.237   9.041   0.931
 4198W        W 7942   0.072   3.748   9.427
 4199W        W 7943   2.217   3.358   2.378
 4200W        W 7944   7.106   1.169   3.372
 4201W        W 7945   3.242   7.701   2.644
 4202W        W 7946   9.439   5.053   2.342
 4203W        W 7947   8.702   1.787  10.618
 4204W        W 7948   3.156   5.587  11.030
 4205W        W 7949   1.760   0.276   2.603
 4206W        W 7950   9.967   2.750   2.215
 4207W        W 7951   6.737   4.833   1.303
 4208W        W 7952   3.035   8.806  11.460
 4209W        W 7953   8.799   8.908  11.476
 4210W        W 7954   2.145   8.971  10.929
 4211W        W 7955   5.880   7.663   0.535
 4212W        W 7956   8.506   8.095   3.085
 4213W        W 7957   3.629   5.643   0.312
 4214W        W 7958   4.971   6.882   0.874
 4215W        W 7959   2.288   9.372   1.650
 4216W        W 7960   2.585   2.382  11.417
 4217W        W 7961   2.880   5.091   9.861
 4218W        W 7962   8.030   2.372   9.540
 4219W        W 7963   6.718   2.326   9.767
 4220W        W 7964   0.987   8.408   3.229
 4221W        W 7965   8.909   4.606   9.830
 4222W        W 7966   1.923   6.527   0.572
 4223W        W 7967   3.446   8.220   1.798
 4224W        W 7968   4.293  10.296   1.854
 4225W        W 7969   3.346   5.730  10.585
 4226W        W 7970   6.035   1.708  10.268
 4227W        W 7971   1.392   3.708   1.846
 4228W        W 7972   3.424   9.584   0.672
 4229W        W 7973   7.106   6.563   3.307
 4230W        W 7974   5.403   2.042   1.698
 4231W        W 7975   2.115   4.668   0.529
 4232W        W 7976   4.981   1.471   3.439
 4233W        W 7977   9.261   8.498  10.416
 4234W        W 7978   8.563   8.075   1.527
 4235W        W 7979   3.786   3.223   1.830
 4236W        W 7980   0.245   6.460   9.422
 4237W        W 7981   6.001   1.739  10.767
 4238W        W 7982   3.706   4.852   3.125
 4239W        W 7983   2.096   1.332   0.201
 4240W        W 7984   2.746   2.364  10.772
 4241W        W 7985   7.936   1.336   0.472
 4242W        W 7986   6.977   4.193   0.264
 4243W        W 7987   5.628   0.475  11.909
 4244W        W 7988   2.290   6.715   1.300
 4245W        W 7989   9.788   9.284   0.345
 4246W        W 7990   4.078   8.994  10.775
 4247W        W 7991   7.199   1.857   2.972
 4248W        W 7992   7.014   8.403   9.258
 4249W        W 7993   8.864   4.065  11.391
 4250W        W 7994   2.242   4.451  10.323
 4251W        W 7995  10.040   5.548   0.882
 4252W        W 7996   6.929   7.137   1.469
 4253W        W 7997   3.099   5.011   9.368
 4254W        W 7998   8.077   8.896   2.838
 4255W        W 7999   9.184   0.544   2.336
 4256W        W 8000   5.696   0.390   9.196
 4257W        W 8001   2.701   3.606   9.125
 4258W        W 8002   8.939   1.464  10.222
 4259W        W 8003   0.724   9.364   2.792
 4260W        W 8004   7.906   5.071   3.220
 4261W        W 8005   0.787   1.882   1.265
 4262W        W 8006   6.629   8.552   3.204
 4263W        W 8007   7.462   3.428   2.397
 4264W        W 8008  10.489   5.569   0.218
 4265W        W 8009   4.727   5.465   1.331
 4266W        W 8010   3.168   5.126  11.949
 4267W        W 8011   3.279   0.474   9.566
 4268W        W 8012   7.624   4.747  10.339
 4269W        W 8013   4.344   4.909  11.296
 4270W        W 8014   1.582   8.818  10.065
 4271W        W 8015   6.009   6.603  10.311
 4272W        W 8016   4.300   1.764  10.643
 4273W        W 8017   8.462   6.683  10.985
 4274W        W 8018   0.315   8.647  11.987
 4275W        W 8019   7.383  10.484   0.976
 4276W        W 8020   6.603   9.891   9.254
 4277W        W 8021   7.203   0.899   9.977
 4278W        W 8022   6.256   2.877   2.345
 4279W        W 8023   3.721   8.224   0.269
 4280W        W 8024   8.427   3.220   9.203
 4281W        W 8025  10.444   0.349   2.605
 4282W        W 8026   4.015   4.276   9.536
 4283W        W 8027   4.191   3.541   1.709
 4284W        W 8028   6.756   3.714   9.034
 4285W        W 8029   9.598   7.605  11.887
 4286W        W 8030   3.843   2.826   2.472
 4287W        W 8031   0.504   9.316   1.227
 4288W        W 8032   6.295   3.200   3.252
 4289W        W 8033   9.861   4.258  10.511
 4290W        W 8034   7.716   2.742  11.880
 4291W        W 8035   3.651   6.883   2.287
 4292W        W 8036   1.269   8.770   1.812
 4293W        W 8037   4.158   3.974   1.466
 4294W        W 8038   4.107   9.900   2.881
 4295W        W 8039   2.623   5.948  10.822
 4296W        W 8040   8.589   0.576   2.609
 4297W        W 8041   5.698   0.333   1.694
 4298W        W 8042   0.997   7.490  10.781
 4299W        W 8043   6.654   0.517   3.151
 4300W        W 8044   6.119   8.145   3.666
 4301W        W 8045   2.848   8.786   0.801
 4302W        W 8046   2.203   7.606   3.590
 4303W        W 8047   5.963   7.195   0.354
 4304W        W 8048   6.817   9.608   3.476
 4305W        W 8049   4.281   9.932  10.488
 4306W        W 8050   9.397   7.791   9.000
 4307W        W 8051   4.212   3.087  11.745
 4308W        W 8052   6.471   4.057   1.844
 4309W        W 8053   6.248   7.915  11.594
 4310W        W 8054   3.212   0.219   3.174
 4311W        W 8055   4.228   8.118  11.290
 4312W        W 8056   1.343   5.797  10.473
 4313W        W 8057   5.836   1.867   1.432
 4314W        W 8058   2.124   5.145  10.764
 4315W        W 8059   7.946   2.296   0.454
 4316W        W 8060   5.685   9.328   3.631
 4317W        W 8061   8.504   2.747   1.685
 4318W        W 8062   4.129  10.420  11.935
 4319W        W 8063   8.765   6.601  11.799
 4320W        W 8064   6.922   0.442   0.279
 4321W        W 8065   0.364   1.460   2.711
 4322W        W 8066   0.224   6.032   9.006
 4323W        W 8067   2.787   0.332   1.067
 4324W        W 8068   3.883   3.910   0.485
 4325W        W 8069   2.960   7.917  11.708
 4326W        W 8070   3.972   8.305  10.035
 4327W        W 8071   2.732   6.895  10.742
 4328W        W 8072   4.084   0.075   9.956
 4329W        W 8073   3.781   9.546   8.980
 4330W        W 8074   2.785   8.046   0.192
 4331W        W 8075   4.668   2.038   9.514
 4332W        W 8076   6.006   5.001   0.940
 4333W        W 8077   2.660   6.620  11.415
 4334W        W 8078   6.616   0.256   2.642
 4335W        W 8079   2.649   2.256   9.060
 4336W        W 8080   0.426   1.712   2.201
 4337W        W 8081   9.816   7.961   0.200
 4338W        W 8082   2.609   8.027  11.366
 4339W        W 8083   9.913   8.005   3.254
 4340W        W 8084   4.450   2.387  11.039
 4341W        W 8085  10.451   8.968   1.763
 4342W        W 8086   2.717   5.935   3.918
 4343W        W 8087   8.859   8.758   0.746
 4344W        W 8088   4.059   8.008   2.878
 4345W        W 8089   5.693   6.236   1.911
 4346W        W 8090  10.479   6.566  10.142
 4347W        W 8091   9.907   3.631   2.215
 4348W        W 8092   3.865   5.076   9.786
 4349W        W 8093   0.811   4.168   9.077
 4350W        W 8094   3.313   8.939   1.944
 4351W        W 8095   8.524   6.739   9.074
 4352W        W 8096   9.424   9.383  11.020
 4353W        W 8097   6.023  10.016   0.349
 4354W        W 8098   3.175  10.459  11.895
 4355W        W 8099   9.793   7.441   8.926
 4356W        W 8100   6.046   9.338   9.157
 4357W        W 8101   1.949   1.786   0.039
 4358W        W 8102   2.543   8.540   1.864
 4359W        W 8103   7.607   5.662  10.349
 4360W        W 8104   5.159   5.242  10.073
 4361W        W 8105  10.337   0.929   0.960
 4362W        W 8106   8.089   3.161   0.704
 4363W        W 8107   9.119   8.611   0.303
 4364W        W 8108   3.608   4.182   2.753
 4365W        W 8109   0.524   1.334   1.367
 4366W        W 8110   0.992   6.187  10.356
 4367W        W 8111   9.346   4.934  11.404
 4368W        W 8112   0.851   9.603   1.866
 4369W        W 8113   0.466   9.803   3.100
 4370W        W 8114   2.757   4.734  11.739
 4371W        W 8115   5.248   7.674   0.497
 4372W        W 8116   9.343   9.550   1.017
 4373W        W 8117   2.790   3.653   9.618
 4374W        W 8118   1.744   2.932   1.253
 4375W        W 8119   1.372   2.677   1.007
 4376W        W 8120   4.648   0.086   9.038
 4377W        W 8121   9.839   3.547   0.229
 4378W        W 8122   2.802   7.207   1.854
 4379W        W 8123   1.158   2.833  11.218
 4380W        W 8124   1.832   9.543   1.476
 4381W        W 8125   7.605   2.322   1.393
 4382W        W 8126   4.942   2.235  10.970
 4383W        W 8127  10.246   8.052   0.937
 4384W        W 8128   8.358   7.131   3.613
 4385W        W 8129   5.926   3.950   0.269
 4386W        W 8130   7.495   8.454   0.970
 4387W        W 8131   3.721   4.527   3.569
 4388W        W 8132   9.028   5.506  10.771
 4389W        W 8133   0.545   5.766  11.535
 4390W        W 8134   6.076   2.866   0.171
 4391W        W 8135   1.631   4.137  10.271
 4392W        W 8136   4.313   2.258   1.928
 4393W        W 8137   3.388  10.062   9.540
 4394W        W 8138   3.821   2.652   1.432
 4395W        W 8139   9.691   0.178  11.764
 4396W        W 8140   9.908   8.855   3.003
 4397W        W 8141   5.498   7.248   1.950
 4398W        W 8142   2.117   3.956  10.227
 4399W        W 8143   7.988   5.618   0.338
 4400W        W 8144   2.339   7.871  10.582
 4401W        W 8145   2.296   5.535  10.457
 4402W        W 8146   8.606   5.772   2.213
 4403W        W 8147   4.836   0.755   3.124
 4404W        W 8148   0.433   2.211   3.077
 4405W        W 8149   8.174   4.733   0.681
 4406W        W 8150   3.646   1.437   2.008
 4407W        W 8151   0.885   0.045   3.523
 4408W        W 8152   8.119   8.501   2.110
 4409W        W 8153   2.881   4.544   2.421
 4410W        W 8154   0.755   3.113   0.287
 4411W        W 8155   2.739   3.879   2.841
 4412W        W 8156   9.511   9.019   2.322
 4413W        W 8157   8.687   6.716   2.385
 4414W        W 8158   6.437   4.131   9.193
 4415W        W 8159   7.238   9.215   8.756
 4416W        W 8160   9.873   5.048   9.602
 4417W        W 8161   3.161  10.476   2.697
 4418W        W 8162   6.893   5.522   2.531
 4419W        W 8163   3.699   1.266   2.959
 4420W        W 8164   3.834   9.020   9.045
 4421W        W 8165   6.990   3.141   1.689
 4422W        W 8166   0.812   8.935   9.887
 4423W        W 8167   3.413   3.133  11.539
 4424W        W 8168   4.039   7.533   1.779
 4425W        W 8169   0.338   6.624   1.807
 4426W        W 8170   9.390   4.399  11.363
 4427W        W 8171   3.195   5.411   0.451
 4428W        W 8172   6.242   3.935   3.524
 4429W        W 8173   4.715   7.080   0.139
 4430W        W 8174   4.715   3.507  11.958
 4431W        W 8175   5.627   1.767   9.006
 4432W        W 8176   8.850   4.782   3.423
 4433W        W 8177   1.388   5.224   9.816
 4434W        W 8178   8.381   3.259   9.727
 4435W        W 8179   7.937   9.120  11.072
 4436W        W 8180   0.783   1.217   2.830
 4437W        W 8181   3.263   8.796   9.255
 4438W        W 8182   7.551   2.011   0.678
 4439W        W 8183   7.535   8.290   8.530
 4440W        W 8184   7.447   7.882   0.432
 4441W        W 8185   8.512   6.553  10.469
 4442W        W 8186   0.667   6.848   9.406
 4443W        W 8187   5.636   5.073   9.332
 4444W        W 8188   5.958   1.318   3.207
 4445W        W 8189   5.101   0.812   8.709
 4446W        W 8190   5.655   0.030   3.449
 4447W        W 8191   5.946   7.340   0.969
 4448W        W 8192   1.237   9.968   1.839
 4449W        W 8193   6.938   5.200   2.945
 4450W        W 8194   7.956   9.765   9.835
 4451W        W 8195   6.392   6.946   0.516
 4452W        W 8196   9.442   9.973   8.943
 4453W        W 8197   9.799   4.677  11.424
 4454W        W 8198   5.954   2.801   3.281
 4455W        W 8199   4.641  10.090   8.878
 4456W        W 8200   4.406   3.644   8.625
 4457W        W 8201   9.010   6.620   3.167
 4458W        W 8202   4.677   6.901   2.646
 4459W        W 8203   2.704   7.469   3.404
 4460W        W 8204   5.642   0.790   0.331
 4461W        W 8205   3.345   5.956   4.065
 4462W        W 8206   9.697   5.693   1.382
 4463W        W 8207   1.777   4.619  10.210
 4464W        W 8208   9.171   9.808  11.158
 4465W        W 8209   7.930   8.953   2.324
 4466W        W 8210   7.006   2.177   9.331
 4467W        W 8211   4.790   1.771   0.495
 4468W        W 8212   4.791   7.338   2.952
 4469W        W 8213   1.404   1.271   9.356
 4470W        W 8214   9.845   0.015   1.766
 4471W        W 8215  10.266   5.140   8.746
 4472W        W 8216   7.628   6.568   9.547
 4473W        W 8217   2.198   2.235   0.127
 4474W        W 8218   8.475   2.902   0.343
 4475W        W 8219   8.308   6.538   0.582
 4476W        W 8220   5.648   5.647   2.739
 4477W        W 8221   5.166   4.362  10.341
 4478W        W 8222   6.409   2.208   8.854
 4479W        W 8223   3.271   9.110   0.782
 4480W        W 8224   4.330   3.397  10.394
 4481W        W 8225   4.872   1.545   1.205
 4482W        W 8226   7.545   1.851  11.808
 4483W        W 8227   8.096   3.959   3.594
 4484W        W 8228   3.651   2.715   9.528
 4485W        W 8229   2.773   4.329  11.444
 4486W        W 8230   9.431   1.897   9.142
 4487W        W 8231   3.411   4.447   4.005
 4488W        W 8232   9.267   3.264  10.356
 4489W        W 8233   7.768   3.218  10.972
 4490W        W 8234   1.374   5.587   1.964
 4491W        W 8235   1.882   8.180   2.305
 4492W        W 8236   7.910   3.696  10.793
 4493W        W 8237   5.280   4.690   2.663
 4494W        W 8238   1.864   7.098   0.045
 4495W        W 8239   6.936   1.294   1.269
 4496W        W 8240   5.437   7.421  11.681
 4497W        W 8241   1.745   4.618   9.185
 4498W        W 8242   8.631   4.186  10.030
 4499W        W 8243   5.156   8.011  11.357
 4500W        W 8244  10.215   6.692   2.874
 4501W        W 8245   4.709  10.238   1.205
 4502W        W 8246  10.253   7.293   2.142
 4503W        W 8247   4.621   3.252   0.560
 4504W        W 8248   1.862   4.725   2.827
 4505W        W 8249   0.182   7.434   3.293
 4506W        W 8250   3.943   9.916  11.890
 4507W        W 8251   8.097   8.257   1.665
 4508W        W 8252   9.372   7.193   8.701
 4509W        W 8253   3.167   0.901   9.306
 4510W        W 8254   1.972   3.263   0.548
 4511W        W 8255   5.911   2.108   9.659
 4512W        W 8256   5.238   7.537   8.532
 4513W        W 8257   6.781   8.891  11.459
 4514W        W 8258   9.066   3.219   3.393
 4515W        W 8259  10.096   2.210   1.118
 4516W        W 8260   1.332   7.115   0.892
 4517W        W 8261   8.535   2.174   8.758
 4518W        W 8262   7.323   2.203   1.793
 4519W        W 8263   8.526   0.248   1.247
 4520W        W 8264  10.372   0.859   9.209
 4521W        W 8265   0.719   2.970   3.634
 4522W        W 8266   9.950   6.693   3.328
 4523W        W 8267   3.820   5.675   2.693
 4524W        W 8268   8.484  10.208   1.867
 4525W        W 8269   8.624   4.163  10.941
 4526W        W 8270   4.160   9.879   8.871
 4527W        W 8271   1.124   2.332   2.199
 4528W        W 8272   6.905   7.599   8.900
 4529W        W 8273   1.450   3.118   9.578
 4530W        W 8274   2.805  10.415  11.073
 4531W        W 8275   8.249   5.968  10.461
 4532W        W 8276   6.682   1.551   1.696
 4533W        W 8277   3.808   8.620  10.436
 4534W        W 8278   4.370   0.020   0.818
 4535W        W 8279   2.467   7.651  11.024
 4536W        W 8280   3.122   2.978   2.995
 4537W        W 8281   1.761   0.200   2.105
 4538W        W 8282   8.497   6.102   8.624
 4539W        W 8283   7.504   2.166   0.203
 4540W        W 8284   6.938   7.440  11.707
 4541W        W 8285   3.292   6.494   9.993
 4542W        W 8286   6.053   3.792  11.743
 4543W        W 8287   2.097   4.795  11.148
 4544W        W 8288   2.432   5.110   1.906
 4545W        W 8289   3.256   7.884  10.347
 4546W        W 8290   0.733   7.894   0.529
 4547W        W 8291  10.239   6.978  10.322
 4548W        W 8292   2.024   5.032   9.483
 4549W        W 8293   4.640   5.031   1.105
 4550W        W 8294   2.316   0.703  11.519
 4551W        W 8295   4.077   9.139   2.551
 4552W        W 8296   7.166   9.338   9.781
 4553W        W 8297   9.899   6.189   3.348
 4554W        W 8298   9.679  10.451   9.077
 4555W        W 8299   7.442   7.459   8.951
 4556W        W 8300   5.713   4.163  11.849
 4557W        W 8301   6.582   7.585   3.174
 4558W        W 8302  10.098   5.606  11.309
 4559W        W 8303   8.981   8.866   2.823
 4560W        W 8304   2.386   3.668  10.566
 4561W        W 8305   5.668   0.317   2.241
 4562W        W 8306   0.240  10.429  11.707
 4563W        W 8307  10.413   1.702   3.505
 4564W        W 8308   0.309   0.139   0.703
 4565W        W 8309   3.307   3.795   1.702
 4566W        W 8310   7.116   9.014  10.470
 4567W        W 8311   7.368   7.149   1.143
 4568W        W 8312   4.576   6.222   2.748
 4569W        W 8313   8.674   6.969  11.394
 4570W        W 8314   5.974   8.609  11.031
 4571W        W 8315   1.265   3.162   1.156
 4572W        W 8316   8.202   9.403   2.265
 4573W        W 8317   6.483   4.074   0.337
 4574W        W 8318   3.146   9.814   1.889
 4575W        W 8319   2.625   7.665   9.061
 4576W        W 8320   0.716   4.341  11.721
 4577W        W 8321   4.232   9.087  11.587
 4578W        W 8322   7.958   7.529   9.101
 4579W        W 8323   3.310   1.258  11.967
 4580W        W 8324   8.136   6.609   8.732
 4581W        W 8325   3.554   1.435  11.542
 4582W        W 8326   3.924   9.621  10.290
 4583W        W 8327   1.671   2.761  11.295
 4584W        W 8328   5.377   9.564   2.494
 4585W        W 8329   9.208  10.316   9.268
 4586W        W 8330   7.280   8.489   0.284
 4587W        W 8331   8.029  10.117   0.865
 4588W        W 8332   9.521   2.800  10.380
 4589W        W 8333   5.164   0.344  10.093
 4590W        W 8334   7.332   8.535   2.281
 4591W        W 8335   7.136   5.038   2.501
 4592W        W 8336   3.123  10.448  10.460
 4593W        W 8337   2.445   3.303   9.781
 4594W        W 8338   2.456   5.539   2.715
 4595W        W 8339   7.876   5.541   3.492
 4596W        W 8340  10.483   6.566   3.355
 4597W        W 8341   7.799   8.782  11.441
 4598W        W 8342   7.861   3.169   2.617
 4599W        W 8343   2.311   0.231   0.357
 4600W        W 8344   0.806   3.971   0.682
 4601W        W 8345   3.864   4.084  10.013
 4602W        W 8346   1.354   6.510  11.547
 4603W        W 8347   6.676   2.300   1.232
 4604W        W 8348   1.233   1.541  11.693
 4605W        W 8349   2.251   9.991   3.503
 4606W        W 8350   9.512   7.055   0.478
 4607W        W 8351   1.355   2.319   1.752
 4608W        W 8352  10.297   9.229   0.409
 4609W        W 8353   0.134   1.775   3.051
 4610W        W 8354   4.661   3.604  11.468
 4611W        W 8355   5.088   1.746   9.759
 4612W        W 8356   7.701   3.591   1.597
 4613W        W 8357   1.168   0.583  11.908
 4614W        W 8358   5.414   7.957   9.106
 4615W        W 8359   9.519   2.298   8.835
 4616W        W 8360   2.232   6.700   3.297
 4617W        W 8361   2.737   7.063  11.655
 4618W        W 8362   6.114   6.570   2.401
 4619W        W 8363   4.448   4.367   0.194
 4620W        W 8364   6.898   0.679   2.601
 4621W        W 8365   5.228   3.027   1.617
 4622W        W 8366   1.305   2.404   2.748
 4623W        W 8367   0.156   5.189   0.545
 4624W        W 8368   7.012   2.688   9.517
 4625W        W 8369   3.580   6.390   3.118
 4626W        W 8370   0.080   7.969   9.417
 4627W        W 8371   1.451   8.867   1.353
 4628W        W 8372   1.667   4.056   0.173
 4629W        W 8373   6.692   7.496  10.758
 4630W        W 8374  10.067   2.593   8.725
 4631W        W 8375   9.919  10.044   8.744
 4632W        W 8376   8.965   9.626  10.314
 4633W        W 8377   3.687   3.138   0.937
 4634W        W 8378   0.860   4.084   9.956
 4635W        W 8379   2.308   4.303  11.233
 4636W        W 8380   1.893   6.397   1.112
 4637W        W 8381   9.081   5.020   1.960
 4638W        W 8382   0.740   1.370  11.550
 4639W        W 8383   3.357   9.251   9.063
 4640W        W 8384   5.418   7.585  11.197
 4641W        W 8385   6.976   2.359  11.187
 4642W        W 8386   5.405   8.548   2.426
 4643W        W 8387   9.336  10.284  11.331
 4644W        W 8388   3.827   1.367   2.473
 4645W        W 8389   5.344   3.621   8.160
 4646W        W 8390   6.469   9.520   2.380
 4647W        W 8391   2.831   3.229   2.111
 4648W        W 8392   5.709   8.818   3.565
 4649W        W 8393   8.542   6.095  11.312
 4650W        W 8394   1.019   1.352   0.417
 4651W        W 8395  10.480   9.609   0.116
 4652W        W 8396   0.208   1.112  10.264
 4653W        W 8397   3.969   6.623   1.970
 4654W        W 8398   3.420   5.210   1.921
 4655W        W 8399   2.770   7.221  10.327
 4656W        W 8400   6.259   1.732   1.131
 4657W        W 8401   6.655   9.076   3.246
 4658W        W 8402   4.102   9.166   0.176
 4659W        W 8403   2.328   1.249   9.575
 4660W        W 8404   4.292   0.339  11.698
 4661W        W 8405   7.481   4.979   4.090
 4662W        W 8406   7.852  10.256   9.072
 4663W        W 8407   0.677   6.800   0.322
 4664W        W 8408   8.053   6.130  11.514
 4665W        W 8409   6.236   7.014  11.978
 4666W        W 8410   7.173   1.410  10.284
 4667W        W 8411   0.822   2.608   0.343
 4668W        W 8412   0.936   4.801  10.449
 4669W        W 8413   9.418   8.982  10.664
 4670W        W 8414   6.060   2.871  11.241
 4671W        W 8415   3.101   1.904   2.638
 4672W        W 8416   6.446   5.473  11.286
 4673W        W 8417   3.900   3.160  10.276
 4674W        W 8418   2.858   8.280   0.908
 4675W        W 8419   4.546   3.177   8.437
 4676W        W 8420   4.574   4.080   8.390
 4677W        W 8421   8.008   6.070  11.006
 4678W        W 8422   8.221   7.450  11.914
 4679W        W 8423   8.146   1.174   9.639
 4680W        W 8424   9.363   6.292   2.482
 4681W        W 8425   7.444   3.593   9.376
 4682W        W 8426   1.192   8.887   9.081
 4683W        W 8427   0.709   4.350  11.217
 4684W        W 8428   8.355   8.954   2.018
 4685W        W 8429   7.835   0.902   0.234
 4686W        W 8430  10.469   7.089   2.649
 4687W        W 8431   4.014   1.664   0.816
 4688W        W 8432   4.399   4.018   4.053
 4689W        W 8433   8.688   9.957   0.524
 4690W        W 8434   9.450   3.257   8.939
 4691W        W 8435   0.202   1.436   0.282
 4692W        W 8436   8.403   4.784   1.171
 4693W        W 8437   3.229   9.351   1.647
 4694W        W 8438   2.516   9.097   8.600
 4695W        W 8439   5.149   6.975   2.852
 4696W        W 8440   9.549   1.051   9.455
 4697W        W 8441   4.099   8.720  11.941
 4698W        W 8442   7.637   3.072  11.456
 4699W        W 8443   6.341   6.931   1.013
 4700W        W 8444   5.271   8.042   1.776
 4701W        W 8445   0.057   6.889   2.189
 4702W        W 8446   9.695   5.947   0.930
 4703W        W 8447   3.671   4.334  11.510
 4704W        W 8448   9.874   3.874  11.825
 4705W        W 8449   4.623   2.669   8.308
 4706W        W 8450   7.717   5.418   9.928
 4707W        W 8451   7.615   7.894  11.571
 4708W        W 8452   8.377  10.220  11.298
 4709W        W 8453   0.931   2.098  10.977
 4710W        W 8454   7.564   6.057   1.744
 4711W        W 8455   4.886   8.185   1.363
 4712W        W 8456   4.069   1.654   3.156
 4713W        W 8457   1.621   0.321  11.717
 4714W        W 8458   4.215   5.758   1.835
 4715W        W 8459   7.478   1.763  10.985
 4716W        W 8460   7.729   6.336  10.011
 4717W        W 8461   7.065   3.248   8.439
 4718W        W 8462   3.707   6.015   9.916
 4719W        W 8463   1.368   2.906  10.320
 4720W        W 8464   2.396   8.353   0.048
 4721W        W 8465   8.136   7.639   0.813
 4722W        W 8466   3.595   6.389   2.249
 4723W        W 8467   2.674   6.486   3.135
 4724W        W 8468   5.271   0.424  11.360
 4725W        W 8469   0.376   8.448   2.371
 4726W        W 8470   3.743   2.338  10.854
 4727W        W 8471   5.094   8.462   1.983
 4728W        W 8472   5.230   0.360   2.504
 4729W        W 8473   4.207   5.620   9.770
 4730W        W 8474   3.774   5.444  10.652
 4731W        W 8475   0.460   2.950   2.664
 4732W        W 8476   9.281   4.364   2.915
 4733W        W 8477   2.233   6.189   3.266
 4734W        W 8478   8.994   4.574  11.592
 4735W        W 8479   7.028   5.202  11.039
 4736W        W 8480   7.995   5.505  11.826
 4737W        W 8481   2.633   9.967  11.411
 4738W        W 8482  10.061  10.289   3.613
 4739W        W 8483   8.953   9.874   9.078
 4740W        W 8484   4.675  10.061   2.193
 4741W        W 8485   5.564   9.379  11.238
 4742W        W 8486   3.170   8.680  10.960
 4743W        W 8487   9.563   6.568   0.651
 4744W        W 8488   2.638  10.440  10.563
 4745W        W 8489   2.122   2.578   1.126
 4746W        W 8490   7.018   1.391   2.911
 4747W        W 8491   8.401   9.397   1.765
 4748W        W 8492   4.766   4.491  10.001
 4749W        W 8493   9.399   7.925   1.492
 4750W        W 8494   3.593   7.943   9.952
 4751W        W 8495   5.959   4.178   1.712
 4752W        W 8496   9.865   2.981  11.575
 4753W        W 8497   6.881   3.218  10.785
 4754W        W 8498   8.928   9.973   8.580
 4755W        W 8499  10.403   6.089  10.301
 4756W        W 8500   2.274   0.328   0.918
 4757W        W 8501   0.701   6.009  11.957
 4758W        W 8502   6.013   5.209  11.131
 4759W        W 8503  10.325   3.637   9.875
 4760W        W 8504   5.767   8.942  11.458
 4761W        W 8505   9.895   6.406  10.013
 4762W        W 8506   4.896   1.176  11.740
 4763W        W 8507   9.916   4.392  11.899
 4764W        W 8508   8.855   7.191   9.422
 4765W        W 8509   4.723   0.330   0.548
 4766W        W 8510   7.437   5.287   3.106
 4767W        W 8511   3.917  10.084   9.580
 4768W        W 8512   8.753   0.926  10.976
 4769W        W 8513   1.399   5.527   1.403
 4770W        W 8514   6.655   1.498   0.838
 4771W        W 8515   0.971   7.691   1.368
 4772W        W 8516  10.275   7.512  11.428
 4773W        W 8517   3.638   9.944   2.660
 4774W        W 8518   5.910   2.421   0.914
 4775W        W 8519   2.180   4.045  11.658
 4776W        W 8520   3.122   8.115   1.400
 4777W        W 8521   1.298   2.846   2.476
 4778W        W 8522   7.052   8.428   2.902
 4779W        W 8523   2.222   3.042   0.961
 4780W        W 8524   7.891   9.933   0.299
 4781W        W 8525   7.004   8.588  10.181
 4782W        W 8526   6.139   8.844   0.779
 4783W        W 8527   9.471   3.772   8.737
 4784W        W 8528   3.224   3.587   2.165
 4785W        W 8529   8.521   9.761  11.943
 4786W        W 8530   5.692   8.532  10.438
 4787W        W 8531   9.080   9.295   2.500
 4788W        W 8532   2.560   0.948  11.923
 4789W        W 8533   1.177  10.209   3.236
 4790W        W 8534   5.636   5.983   2.351
 4791W        W 8535   1.471   8.137  10.547
 4792W        W 8536   9.508   4.570   1.493
 4793W        W 8537   5.945   8.446   2.335
 4794W        W 8538   5.868   8.894   0.338
 4795W        W 8539   4.291   1.893   0.459
 4796W        W 8540   6.067   9.840   9.124
 4797W        W 8541   8.863   1.213   0.807
 4798W        W 8542   4.659   4.995   2.133
 4799W        W 8543   6.724   1.154  10.565
 4800W        W 8544   3.378   3.174   9.084
 4801W        W 8545   8.155   9.323   8.745
 4802W        W 8546   3.754   2.313  10.327
 4803W        W 8547   7.401   7.075   2.165
 4804W        W 8548   8.969   3.742   3.366
 4805W        W 8549   5.070   9.437  11.241
 4806W        W 8550   7.483  10.412   8.328
 4807W        W 8551   0.783   3.828   1.171
 4808W        W 8552   5.450   6.855  10.133
 4809W        W 8553   2.943   7.719  11.112
 4810W        W 8554   9.870   0.305   9.547
 4811W        W 8555   6.795   3.711   0.133
 4812W        W 8556   5.015   7.402   1.837
 4813W        W 8557   9.472   5.998   3.530
 4814W        W 8558   7.434   9.823   2.507
 4815W        W 8559  10.133   8.450  11.405
 4816W        W 8560   5.504   2.192   9.334
 4817W        W 8561   3.337   5.516   2.397
 4818W        W 8562   1.465   4.632   3.156
 4819W        W 8563   7.753   5.635   9.459
 4820W        W 8564   0.714   8.308  10.349
 4821W        W 8565  10.290   1.147   0.417
 4822W        W 8566   4.739   9.619   0.130
 4823W        W 8567   8.881   6.404  10.158
 4824W        W 8568   0.243  10.170   0.897
 4825W        W 8569   6.387   2.731   8.989
 4826W        W 8570   4.969   6.627  11.765
 4827W        W 8571   2.581   7.665   9.582
 4828W        W 8572   5.602   0.787   9.529
 4829W        W 8573   9.996   7.394  10.985
 4830W        W 8574   6.796   4.211   8.812
 4831W        W 8575  10.345   9.540  11.626
 4832W        W 8576   3.174   8.191   3.168
 4833W        W 8577   8.493   9.755   8.827
 4834W        W 8578   3.233   5.486  11.527
 4835W        W 8579   0.562   7.657   2.690
 4836W        W 8580   9.355   5.353   2.744
 4837W        W 8581   3.359   9.434  10.426
 4838W        W 8582   7.707   1.941   8.471
 4839W        W 8583   5.472   6.708  11.535
 4840W        W 8584   6.904   6.973   9.456
 4841W        W 8585   0.397   1.592   0.925
 4842W        W 8586  10.223   0.675   1.834
 4843W        W 8587   1.894   8.628   1.306
 4844W        W 8588   3.061   5.186   3.596
 4845W        W 8589   3.809   1.871  10.587
 4846W        W 8590   0.871   9.448  10.874
 4847W        W 8591   0.153   0.445   9.986
 4848W        W 8592   4.289   1.701  11.987
 4849W        W 8593   5.436   7.777   9.955
 4850W        W 8594   0.420   8.739  10.477
 4851W        W 8595   7.135   5.966  11.556
 4852W        W 8596   0.354   9.488  10.828
 4853W        W 8597   3.569   0.781   3.108
 4854W        W 8598   0.096   8.300   1.249
 4855W        W 8599   4.154   5.550  11.049
 4856W        W 8600   9.894   1.710   3.392
 4857W        W 8601   7.618   2.737  10.867
 4858W        W 8602   5.572   3.140   0.705
 4859W        W 8603   3.239   2.987   0.721
 4860W        W 8604   3.600   4.905  11.722
 4861W        W 8605   2.394   9.493   3.299
 4862W        W 8606   5.709   3.418  10.301
 4863W        W 8607   0.795   9.744  11.786
 4864W        W 8608   8.528   2.852  10.977
 4865W        W 8609   4.817   2.549   0.247
 4866W        W 8610   9.913   3.808   3.191
 4867W        W 8611   5.469   1.338   3.385
 4868W        W 8612   4.186   4.983   2.981
 4869W        W 8613   3.637   8.137   2.577
 4870W        W 8614   0.856  10.444   9.047
 4871W        W 8615   7.490   0.903   1.986
 4872W        W 8616   9.337   8.787   3.227
 4873W        W 8617  10.153   9.880  11.303
 4874W        W 8618   0.474   3.920   9.667
 4875W        W 8619   1.232   1.439   2.771
 4876W        W 8620   0.990   7.517   0.906
 4877W        W 8621   5.624   3.828  11.446
 4878W        W 8622   7.068   8.321   0.720
 4879W        W 8623   3.846   0.369  11.997
 4880W        W 8624   6.048   0.182  10.391
 4881W        W 8625   6.311   5.144   1.332
 4882W        W 8626   7.921   2.369  11.045
 4883W        W 8627   8.915   0.954  10.340
 4884W        W 8628   3.603   5.258   0.722
 4885W        W 8629   3.743   7.910  10.954
 4886W        W 8630   4.947   9.359   2.190
 4887W        W 8631   1.101   4.103   9.508
 4888W        W 8632   4.219   9.270   2.075
 4889W        W 8633   6.517   6.501   0.279
 4890W        W 8634   7.018   3.024  10.337
 4891W        W 8635   3.117  10.279   0.365
 4892W        W 8636   4.929   4.227   0.373
 4893W        W 8637   5.172  10.438   9.230
 4894W        W 8638   0.843   2.442   1.269
 4895W        W 8639   0.511   3.467  11.430
 4896W        W 8640   2.477   9.061   3.022
 4897W        W 8641   0.650   2.184   2.244
 4898W        W 8642   5.379   0.305   1.255
 4899W        W 8643   0.162   2.247   9.811
 4900W        W 8644   0.051   3.184   3.422
 4901W        W 8645   6.273   4.740  10.745
 4902W        W 8646   4.378   5.371  11.652
 4903W        W 8647   2.407   0.256   1.427
 4904W        W 8648   3.803   2.171   0.882
 4905W        W 8649   2.883   8.538   0.328
 4906W        W 8650   6.594   3.239   2.300
 4907W        W 8651   2.354   7.910   1.596
 4908W        W 8652   9.697   7.514   3.252
 4909W        W 8653   8.111   5.492  10.278
 4910W        W 8654   2.394   2.084   3.358
 4911W        W 8655   1.921   1.158   2.981
 4912W        W 8656   4.390   0.310  10.317
 4913W        W 8657   9.405   6.241   1.968
 4914W        W 8658   4.804   1.753  11.975
 4915W        W 8659   9.148   9.932   0.744
 4916W        W 8660   6.423   7.243   1.396
 4917W        W 8661   3.791   5.654   0.950
 4918W        W 8662   8.387   5.689  11.026
 4919W        W 8663   6.654   8.753   9.436
 4920W        W 8664   0.493   3.096  11.851
 4921W        W 8665   3.737   6.473   0.937
 4922W        W 8666   0.901   5.818  11.166
 4923W        W 8667   9.558   3.129   3.278
 4924W        W 8668   7.576   4.512   1.803
 4925W        W 8669   9.575   0.626   9.817
 4926W        W 8670   0.316   8.983  10.033
 4927W        W 8671   7.532   8.439  10.954
 4928W        W 8672   1.866   5.448   9.182
 4929W        W 8673   1.781   3.645   2.329
 4930W        W 8674   5.210   0.182  11.819
 4931W        W 8675   1.891   5.585   2.686
 4932W        W 8676   7.648   6.982  11.430
 4933W        W 8677   8.428   1.909   3.266
 4934W        W 8678  10.346   5.149  11.107
 4935W        W 8679   2.348   7.338  10.625
 4936W        W 8680   8.996   1.979   1.699
 4937W        W 8681   5.994   3.307  11.912
 4938W        W 8682   7.152   2.134   1.238
 4939W        W 8683   4.565   2.217   9.016
 4940W        W 8684   6.112  10.374  11.341
 4941W        W 8685   2.636  10.212   2.136
 4942W        W 8686   3.351   7.871  11.351
 4943W        W 8687   4.342   6.266   1.970
 4944W        W 8688   1.537   7.913   3.609
 4945W        W 8689   9.868   0.885   9.055
 4946W        W 8690   4.585   8.864   0.840
 4947W        W 8691   2.771   8.397  11.717
 4948W        W 8692   7.989   0.223   1.978
 4949W        W 8693   3.201   5.716   3.617
 4950W        W 8694   0.247   6.691   2.869
 4951W        W 8695   7.313   2.620   9.112
 4952W        W 8696   5.455   3.915   3.960
 4953W        W 8697   1.911   0.378   1.319
 4954W        W 8698   4.279   6.371  11.475
 4955W        W 8699   9.068   2.679  11.758
 4956W        W 8700   0.488   4.652   9.092
 4957W        W 8701   0.040   7.508   0.619
 4958W        W 8702   7.716   1.612  11.409
 4959W        W 8703   3.519   4.864   9.068
 4960W        W 8704   8.965   1.325   2.983
 4961W        W 8705   1.873   3.378   8.865
 4962W        W 8706   2.693   0.732   9.382
 4963W        W 8707   7.161   9.809   3.123
 4964W        W 8708   4.187  10.352   1.303
 4965W        W 8709   8.380   0.517   2.149
 4966W        W 8710   2.377   7.244   2.185
 4967W        W 8711   9.238   6.527  11.620
 4968W        W 8712  10.397   8.883  11.371
 4969W        W 8713   4.100   0.803  11.851
 4970W        W 8714   2.302   3.813   2.130
 4971W        W 8715   3.127   5.717   8.759
 4972W        W 8716   0.464   5.956   9.481
 4973W        W 8717   0.804   6.630   3.343
 4974W        W 8718   5.642   2.363   1.367
 4975W        W 8719   2.105   0.163   8.978
 4976W        W 8720   9.007   9.948   0.060
 4977W        W 8721   0.934   6.609   9.813
 4978W        W 8722  10.483   6.601   1.040
 4979W        W 8723   9.460   4.631  11.847
 4980W        W 8724   5.940   6.059  11.041
 4981W        W 8725   6.595   5.025   1.738
 4982W        W 8726   8.509   7.916  11.473
 4983W        W 8727   5.675   0.243   2.767
 4984W        W 8728   6.188   1.783   3.203
 4985W        W 8729   0.720   3.080   3.139
 4986W        W 8730   6.608  10.247  10.606
 4987W        W 8731   5.549   3.834   9.945
 4988W        W 8732   9.902   8.218   2.341
 4989W        W 8733   5.981   6.403   2.876
 4990W        W 8734   5.223  10.349   1.059
 4991W        W 8735   5.562   1.756  11.029
 4992W        W 8736   5.292   8.883   8.847
 4993W        W 8737   8.302   0.504  10.913
 4994W        W 8738   5.072   8.834   9.868
 4995W        W 8739   8.849   1.866  11.149
 4996W        W 8740   3.215  10.063   2.357
 4997W        W 8741   9.568   0.993  10.486
 4998W        W 8742   1.660   7.190   1.375
 4999W        W 8743   5.722   7.564   8.357
 5000W        W 8744   4.713   4.107  11.397
 5001W        W 8745   1.220  10.251   1.406
 5002W        W 8746   3.483  10.444   0.731
 5003W        W 8747   6.587   9.118   2.643
 5004W        W 8748   5.892  10.348   3.026
 5005W        W 8749   4.851   8.302   8.541
 5006W        W 8750   2.671   1.574   1.772
 5007W        W 8751   1.881   2.610   0.258
 5008W        W 8752   1.698   8.913   0.893
 5009W        W 8753   2.380   8.532   9.912
 5010W        W 8754   7.573   6.024  11.293
 5011W        W 8755   8.879   3.721  10.059
 5012W        W 8756   0.883   6.549  10.712
 5013W        W 8757   5.183   8.529   3.311
 5014W        W 8758   4.543   3.239   2.266
 5015W        W 8759   7.647   6.493   8.540
 5016W        W 8760   0.274   4.262  10.942
 5017W        W 8761   0.432   3.406   9.580
 5018W        W 8762   5.513   8.529  11.318
 5019W        W 8763   5.313   1.157   2.004
 5020W        W 8764   6.435   6.800   3.620
 5021W        W 8765   4.219   3.841   3.226
 5022W        W 8766   5.242   1.882  11.728
 5023W        W 8767   1.798   8.196   2.821
 5024W        W 8768   6.444   7.821   9.063
 5025W        W 8769   8.846   5.251   2.797
 5026W        W 8770  10.295   8.823  10.515
 5027W        W 8771   0.639   9.849   0.767
 5028W        W 8772   1.187  10.435   2.714
 5029W        W 8773   7.980   2.490  11.534
 5030W        W 8774   5.126   7.728   2.201
 5031W        W 8775   2.691   6.399   9.429
 5032W        W 8776   2.845   0.343   2.476
 5033W        W 8777   7.426   2.129   2.589
 5034W        W 8778   5.121   9.378   9.008
 5035W        W 8779   1.358   4.844   8.888
 5036W        W 8780   9.473   3.842   2.072
 5037W        W 8781   1.384   7.624  10.307
 5038W        W 8782   9.465   8.548  10.888
 5039W        W 8783   5.109   3.025   9.909
 5040W        W 8784   9.811   5.025   9.062
 5041W        W 8785   0.680   4.377   9.522
 5042W        W 8786   7.833   0.855   9.386
 5043W        W 8787   8.920   7.996   0.728
 5044W        W 8788   9.875   1.343  11.693
 5045W        W 8789   0.022   7.818  10.366
 5046W        W 8790   3.046   1.473   2.898
 5047W        W 8791   8.639   8.700  11.019
 5048W        W 8792  10.434   7.664  11.906
 5049W        W 8793   4.255   7.250  11.955
 5050W        W 8794   5.347   2.394   0.144
 5051W        W 8795   0.270   2.554  11.297
 5052W        W 8796   6.210   8.363   0.904
 5053W        W 8797   6.972   6.871   1.944
 5054W        W 8798   4.790   1.311   0.233
 5055W        W 8799   3.248   8.197   0.040
 5056W        W 8800   0.423   4.634   2.970
 5057W        W 8801   4.787   0.254   1.065
 5058W        W 8802   2.157   0.671  11.035
 5059W        W 8803   9.784   3.118   0.563
 5060W        W 8804   0.553   8.901   2.577
 5061W        W 8805   6.125   2.415   0.454
 5062W        W 8806   2.629   9.118  11.517
 5063W        W 8807   5.699   6.354   0.430
 5064W        W 8808   0.196   7.919  10.863
 5065W        W 8809   0.947   9.940  10.891
 5066W        W 8810   6.157   9.385   2.777
 5067W        W 8811   6.980   6.989   3.001
 5068W        W 8812  10.313   6.263  11.750
 5069W        W 8813   3.254   7.371  11.298
 5070W        W 8814   1.703   1.264   2.502
 5071W        W 8815   0.378   2.645   2.193
 5072W        W 8816   7.443   0.431   0.754
 5073W        W 8817  10.062   7.392   2.617
 5074W        W 8818   8.936   3.802   1.251
 5075W        W 8819   6.921   9.527   9.026
 5076W        W 8820   1.218   0.424  10.895
 5077W        W 8821   6.731   4.168   3.568
 5078W        W 8822   9.807   6.675  10.446
 5079W        W 8823   9.760   3.164   2.433
 5080W        W 8824   1.890   9.454   0.834
 5081W        W 8825   9.979   2.726  10.613
 5082W        W 8826   0.927  10.482  10.057
 5083W        W 8827   6.167   0.152   3.501
 5084W        W 8828   9.359   8.051   0.480
 5085W        W 8829   1.804  10.247  10.005
 5086W        W 8830   3.139   4.956  10.377
 5087W        W 8831   2.567   9.430  10.242
 5088W        W 8832   3.642   4.120  10.496
 5089W        W 8833   2.395   8.592   0.944
 5090W        W 8834   6.100   3.915   2.171
 5091W        W 8835   3.182   8.159  10.966
 5092W        W 8836  10.140   9.355   3.482
 5093W        W 8837   3.727   1.362   8.751
 5094W        W 8838   5.997   5.482   2.390
 5095W        W 8839   5.985   3.244   1.429
 5096W        W 8840   4.108   6.085  11.086
 5097W        W 8841   4.741   8.948  11.517
 5098W        W 8842   2.148   4.439   9.455
 5099W        W 8843   7.441   3.719   8.506
 5100W        W 8844   4.750   7.400   2.403
 5101W        W 8845   8.404   5.531   2.632
 5102W        W 8846   5.037   8.852  11.925
 5103W        W 8847   7.104   3.184   9.410
 5104W        W 8848   0.388   7.849   3.162
 5105W        W 8849   4.354   2.777  11.372
 5106W        W 8850   9.894   3.202   1.446
 5107W        W 8851   3.752   3.673   3.448
 5108W        W 8852   2.973   9.800   0.779
 5109W        W 8853   2.518   4.888   9.522
 5110W        W 8854   2.685   1.259   2.237
 5111W        W 8855   6.186   1.365  11.053
 5112W        W 8856   2.602   3.243  10.335
 5113W        W 8857   4.339   7.516   8.945
 5114W        W 8858   6.535   7.355   3.667
 5115W        W 8859   1.349   6.070   2.163
 5116W        W 8860   9.259   5.953  10.324
 5117W        W 8861   5.100   9.455   1.667
 5118W        W 8862   3.857   1.123   3.429
 5119W        W 8863   3.649   9.630   9.476
 5120W        W 8864   9.690   0.458   2.321
 5121W        W 8865   5.173   2.316  11.405
 5122W        W 8866   1.947   1.720   1.027
 5123W        W 8867   7.002   9.409   2.353
 5124W        W 8868   9.251  10.408   8.732
 5125W        W 8869   5.101   5.616   1.653
 5126W        W 8870   1.468   7.133   9.346
 5127W        W 8871   8.825   0.898   0.345
 5128W        W 8872   9.399   7.576   9.663
 5129W        W 8873   9.085   0.910   1.246
 5130W        W 8874   6.579   6.213   1.332
 5131W        W 8875   0.848   4.826  11.825
 5132W        W 8876   6.584   3.560  11.232
 5133W        W 8877   8.838   7.195   1.144
 5134W        W 8878   6.472   8.380  11.373
 5135W        W 8879   4.325   0.404   8.740
 5136W        W 8880   9.395   3.652  11.954
 5137W        W 8881   2.458   0.911   0.496
 5138W        W 8882   1.245   0.040   2.215
 5139W        W 8883   8.265   0.002   9.272
 5140W        W 8884   8.271   1.420   2.727
 5141W        W 8885   4.151   7.493   8.466
 5142W        W 8886   2.405   6.509  10.579
 5143W        W 8887   5.741   6.527   9.880
 5144W        W 8888   3.328   6.452   0.606
 5145W        W 8889   4.703   1.143   9.757
 5146W        W 8890   6.702   6.469  10.780
 5147W        W 8891   2.286   6.946  10.968
 5148W        W 8892   3.601   7.686   0.257
 5149W        W 8893   5.196   4.174  11.759
 5150W        W 8894   0.382   6.947   3.313
 5151W        W 8895   6.540   0.713  11.489
 5152W        W 8896   2.738   5.558   0.255
 5153W        W 8897   3.815   0.568   8.816
 5154W        W 8898   4.588   7.836   1.070
 5155W        W 8899   8.586   2.908  11.823
 5156W        W 8900   8.874   7.212   8.473
 5157W        W 8901   4.580   6.291   9.441
 5158W        W 8902  10.074  10.270   9.921
 5159W        W 8903   1.913   5.256  11.341
 5160W        W 8904  10.082   3.998   0.863
 5161W        W 8905   8.031   5.903   1.900
 5162W        W 8906   1.986   0.005   1.681
 5163W        W 8907   6.131   0.787   1.641
 5164W        W 8908   4.302   7.205   2.474
 5165W        W 8909   2.168   1.118   2.288
 5166W        W 8910   7.835   6.024   8.442
 5167W        W 8911   7.663   4.610   0.264
 5168W        W 8912   2.719   8.133   8.877
 5169W        W 8913   6.943   5.887   1.453
 5170W        W 8914   9.087   9.428   9.310
 5171W        W 8915   7.453   2.595   0.463
 5172W        W 8916   5.615   1.215   2.833
 5173W        W 8917   0.154   6.088  10.770
 5174W        W 8918   4.183   2.411  10.616
 5175W        W 8919   3.198  10.076   3.474
 5176W        W 8920   6.092   7.853   9.442
 5177W        W 8921   1.444   7.570   0.627
 5178W        W 8922   8.150   6.984  11.324
 5179W        W 8923   5.161   2.694  11.760
 5180W        W 8924   0.380   3.606  11.897
 5181W        W 8925   4.597   7.537   3.858
 5182W        W 8926   9.009   2.620   2.336
 5183W        W 8927   2.711   5.453  10.782
 5184W        W 8928   6.960   2.632   2.990
 5185W        W 8929   0.355   7.977  11.764
 5186W        W 8930  10.255   1.669   0.406
 5187W        W 8931   1.392   6.242   1.178
 5188W        W 8932   2.459   3.787   0.026
 5189W        W 8933   2.679   3.223   0.820
 5190W        W 8934   8.535   8.129   2.040
 5191W        W 8935   6.559   0.430   9.251
 5192W        W 8936   3.094   3.131  11.920
 5193W        W 8937   2.388   2.983  11.510
 5194W        W 8938   0.302   2.342   0.194
 5195W        W 8939   4.868   8.834   0.421
 5196W        W 8940   6.679   7.719   2.486
 5197W        W 8941   4.783   0.805  11.317
 5198W        W 8942   1.934   1.378  10.897
 5199W        W 8943   9.571   4.201  10.941
 5200W        W 8944   3.761   1.871  10.063
 5201W        W 8945   0.950  10.296  10.530
 5202W        W 8946   7.439   1.343   1.193
 5203W        W 8947   5.133   8.809  10.539
 5204W        W 8948   5.809   8.440   8.627
 5205W        W 8949   8.158   0.893   0.685
 5206W        W 8950   4.532   4.236   3.196
 5207W        W 8951   8.471   9.990   2.574
 5208W        W 8952  10.444   8.771   0.299
 5209W        W 8953   1.913   9.025   2.289
 5210W        W 8954   5.749   6.900  11.912
 5211W        W 8955   4.627   2.324   1.514
 5212W        W 8956   5.133   4.794   9.787
 5213W        W 8957   3.369   8.872  10.298
 5214W        W 8958   2.918   0.951   9.788
 5215W        W 8959   6.972   3.759  11.536
 5216W        W 8960   1.354   2.470   8.835
 5217W        W 8961   3.759   7.061   1.777
 5218W        W 8962  10.329   9.948   0.667
 5219W        W 8963   2.681  10.358   1.252
 5220W        W 8964   3.623   9.644   2.001
 5221W        W 8965   5.468   4.599  11.883
 5222W        W 8966   1.675   4.108   2.150
 5223W        W 8967  10.441   5.558   1.852
 5224W        W 8968   0.461   7.163   9.779
 5225W        W 8969   2.467   7.416   8.626
 5226W        W 8970   2.615   4.965  10.720
 5227W        W 8971   5.341   0.327   9.591
 5228W        W 8972   0.779   8.780  10.850
 5229W        W 8973   9.519   0.929   2.446
 5230W        W 8974   4.252   0.407   9.247
 5231W        W 8975   9.757   1.836   1.953
 5232W        W 8976   8.090   6.643   1.081
 5233W        W 8977   6.546   6.706  11.734
 5234W        W 8978   0.498   5.596   8.837
 5235W        W 8979   3.274   1.989   0.415
 5236W        W 8980   5.449   8.898  10.992
 5237W        W 8981   0.957   8.868   8.623
 5238W        W 8982   9.327   8.941  11.510
 5239W        W 8983   6.086   0.867   0.650
 5240W        W 8984   6.108   6.606   1.740
 5241W        W 8985   1.202   1.775   9.348
 5242W        W 8986   5.472   8.014   8.594
 5243W        W 8987   4.789   3.159   1.816
 5244W        W 8988   0.018   1.297   8.983
 5245W        W 8989   2.904   5.716   2.589
 5246W        W 8990   9.399   7.031   1.953
 5247W        W 8991   0.073   7.590   2.800
 5248W        W 8992   0.290  10.499   2.736
 5249W        W 8993   2.425   8.925  10.477
 5250W        W 8994   9.621   9.437   9.470
 5251W        W 8995   7.681   7.969   9.338
 5252W        W 8996   6.379   3.900   8.718
 5253W        W 8997   8.942   2.310  10.036
 5254W        W 8998   2.941   3.719   0.213
 5255W        W 8999   3.494   3.039   1.388
 5256W        W 9000   7.565   0.007   3.183
 5257W        W 9001   1.358   3.828   3.224
 5258W        W 9002   8.710   0.869   9.556
 5259W        W 9003   4.625   5.963   2.287
 5260W        W 9004   2.710   5.362   9.478
 5261W        W 9005   6.470   1.793  10.991
 5262W        W 9006   5.678   9.981  10.598
 5263W        W 9007   1.685   9.901   2.145
 5264W        W 9008   4.245   5.279   2.084
 5265W        W 9009   5.518   8.840  10.084
 5266W        W 9010   5.408   7.137   8.250
 5267W        W 9011   5.538   8.898  11.917
 5268W        W 9012   3.083   4.243   1.869
 5269W        W 9013   1.658   6.003   3.008
 5270W        W 9014   3.006   7.439   9.387
 5271W        W 9015   3.587   6.130   3.606
 5272W        W 9016   9.392   8.896   1.407
 5273W        W 9017   0.398  10.244   9.541
 5274W        W 9018   1.495   7.361   2.638
 5275W        W 9019   8.854   2.212   2.694
 5276W        W 9020   6.583   1.026   2.410
 5277W        W 9021   6.190  10.171   9.489
 5278W        W 9022   8.339   9.043  10.760
 5279W        W 9023   0.586   8.222   0.155
 5280W        W 9024   2.328   1.680   1.365
 5281W        W 9025  10.484   6.741   0.082
 5282W        W 9026   4.341   6.076   0.238
 5283W        W 9027   2.914   9.882   9.537
 5284W        W 9028   7.024   5.815   2.132
 5285W        W 9029   9.057   5.054  10.050
 5286W        W 9030  10.281   4.860   0.852
 5287W        W 9031   2.499   9.929   0.971
 5288W        W 9032   4.290   2.101   0.953
 5289W        W 9033   0.810   1.874   8.889
 5290W        W 9034   6.484   3.233   1.491
 5291W        W 9035   5.303   3.328   8.583
 5292W        W 9036   5.402   9.838   3.819
 5293W        W 9037   5.103   9.001   1.451
 5294W        W 9038   5.173   2.813   3.887
 5295W        W 9039   7.895   1.809   0.284
 5296W        W 9040   7.872   6.382   1.998
 5297W        W 9041   1.656   6.040  10.859
 5298W        W 9042   0.310   0.876   8.912
 5299W        W 9043   5.756   2.868   1.101
 5300W        W 9044   8.681   5.689   8.352
 5301W        W 9045   0.549   5.497   0.459
 5302W        W 9046   7.489   4.675   3.663
 5303W        W 9047   7.968   5.712   0.864
 5304W        W 9048   7.891   2.292   0.981
 5305W        W 9049   0.278  10.394  11.178
 5306W        W 9050   8.201   5.940   3.359
 5307W        W 9051   7.011   8.070  10.448
 5308W        W 9052   7.971  10.257   1.743
 5309W        W 9053   6.113  10.389   0.691
 5310W        W 9054   7.318   4.528   9.990
 5311W        W 9055   3.558   2.631   0.973
 5312W        W 9056   4.818   2.243   3.442
 5313W        W 9057   3.924   3.966   2.410
 5314W        W 9058   2.375   7.006  10.114
 5315W        W 9059   7.483  10.030   9.788
 5316W        W 9060   1.345   1.880   2.476
 5317W        W 9061   5.787   4.653   1.895
 5318W        W 9062   9.483   2.660  11.465
 5319W        W 9063   3.163   3.492   0.733
 5320W        W 9064   9.473   3.894   2.953
 5321W        W 9065   5.742   4.670   2.414
 5322W        W 9066   0.485   3.807   2.555
 5323W        W 9067   4.147   7.320  11.472
 5324W        W 9068   8.407   4.311   2.353
 5325W        W 9069   0.013   5.695   0.698
 5326W        W 9070   0.913   0.143   9.556
 5327W        W 9071   8.496   5.740  10.081
 5328W        W 9072  10.478   2.643  10.453
 5329W        W 9073   5.587   1.458   1.685
 5330W        W 9074   8.912   6.429   8.799
 5331W        W 9075   7.916   4.939   1.089
 5332W        W 9076   7.591   4.369   4.055
 5333W        W 9077   3.786   5.407   2.214
 5334W        W 9078  10.295   1.373  11.966
 5335W        W 9079   8.995   8.388   2.055
 5336W        W 9080   5.557   3.937   9.069
 5337W        W 9081   8.071   9.373   1.354
 5338W        W 9082   8.912   4.167   9.565
 5339W        W 9083   9.045   8.595   9.952
 5340W        W 9084   3.766   3.107   8.730
 5341W        W 9085   7.018   6.942   2.479
 5342W        W 9086   5.420  10.036   8.603
 5343W        W 9087   7.646   9.272  11.451
 5344W        W 9088   9.220   7.000   1.468
 5345W        W 9089   0.156   5.086   2.875
 5346W        W 9090   6.754   6.546   9.773
 5347W        W 9091   9.765   9.336   3.136
 5348W        W 9092   9.572   6.975   2.598
 5349W        W 9093   4.206   6.372  10.619
 5350W        W 9094   3.780   0.509   2.009
 5351W        W 9095   5.839   3.266   8.555
 5352W        W 9096   8.546   4.324   0.294
 5353W        W 9097   8.590   5.193  10.949
 5354W        W 9098   0.272   5.104   9.314
 5355W        W 9099   5.516   6.176   9.233
 5356W        W 9100   9.315   0.050   2.487
 5357W        W 9101   7.158   8.958   1.491
 5358W        W 9102   9.373   4.643   3.357
 5359W        W 9103   5.069   6.040  10.568
 5360W        W 9104   1.386   4.605   1.655
 5361W        W 9105   9.191  10.484   1.195
 5362W        W 9106   0.281   3.191   1.405
 5363W        W 9107   6.994   0.704  11.834
 5364W        W 9108   0.297   3.665   1.198
 5365W        W 9109   0.887   6.526  11.922
 5366W        W 9110   0.508   3.580   0.743
 5367W        W 9111   0.557   9.625  11.263
 5368W        W 9112   3.320   1.796   9.275
 5369W        W 9113   1.422  10.477  10.762
 5370W        W 9114   4.957   1.961   1.480
 5371W        W 9115   4.890   8.073   3.192
 5372W        W 9116   3.200   2.285   9.112
 5373W        W 9117   5.413   5.610  10.493
 5374W        W 9118  10.387   4.009   1.288
 5375W        W 9119   7.581   5.319   0.885
 5376W        W 9120   1.986   6.384  10.274
 5377W        W 9121   6.983   4.711  10.886
 5378W        W 9122   0.804   9.982   1.527
 5379W        W 9123   5.633   3.622   9.472
 5380W        W 9124  10.323   0.349  11.402
 5381W        W 9125   6.476   1.140   1.415
 5382W        W 9126   3.727   8.612   9.450
 5383W        W 9127   6.436   0.933  10.985
 5384W        W 9128   0.976   1.856   0.788
 5385W        W 9129   1.296   2.695   9.830
 5386W        W 9130   6.149   6.415   0.699
 5387W        W 9131   2.787   6.527   1.196
 5388W        W 9132   3.142   3.162   3.594
 5389W        W 9133  10.341   1.289  11.451
 5390W        W 9134   9.172   6.213   0.480
 5391W        W 9135  10.010   1.078   3.035
 5392W        W 9136   8.544   5.223  10.105
 5393W        W 9137   3.726   7.392  11.015
 5394W        W 9138   7.998   0.860  11.741
 5395W        W 9139   8.861   4.047   2.181
 5396W        W 9140   8.006  10.227   3.291
 5397W        W 9141   3.595  10.428   9.807
 5398W        W 9142   0.887   7.189   0.003
 5399W        W 9143   7.450   8.388   9.553
 5400W        W 9144   3.679   4.579   9.777
 5401W        W 9145   9.022   1.362  11.205
 5402W        W 9146   7.658   8.655   2.662
 5403W        W 9147   1.885   6.879   0.973
 5404W        W 9148   3.843   0.379  10.326
 5405W        W 9149   9.133   3.989  10.967
 5406W        W 9150   9.817   9.644  10.284
 5407W        W 9151   5.021   6.021   2.937
 5408W        W 9152   3.711   9.197   0.517
 5409W        W 9153   8.475   7.924   0.474
 5410W        W 9154   9.731   4.610   9.383
 5411W        W 9155   7.538   2.422   2.202
 5412W        W 9156   7.816   4.385  11.331
 5413W        W 9157   8.460   4.755   2.122
 5414W        W 9158   8.940   1.771   2.371
 5415W        W 9159   1.589   4.198   9.439
 5416W        W 9160   5.549   5.379   1.751
 5417W        W 9161   5.433   4.161   0.266
 5418W        W 9162   8.973   1.295  10.701
 5419W        W 9163   3.092   6.889  11.287
 5420W        W 9164   9.800   7.796   2.794
 5421W        W 9165   4.180   3.561   1.165
 5422W        W 9166   1.329   4.817  10.124
 5423W        W 9167   2.344   9.193   0.228
 5424W        W 9168   5.665   2.715   0.419
 5425W        W 9169   3.111   5.176   0.931
 5426W        W 9170   8.775   6.314   0.817
 5427W        W 9171   7.652  10.067   2.898
 5428W        W 9172   1.818   5.468   9.685
 5429W        W 9173   8.745   8.341   3.580
 5430W        W 9174   9.218   0.298  11.932
 5431W        W 9175   4.207   1.244   2.821
 5432W        W 9176   0.749   9.991   0.271
 5433W        W 9177   7.917   0.478   0.511
 5434W        W 9178   1.846  10.396  11.017
 5435W        W 9179   0.393   2.451   2.655
 5436W        W 9180   4.304   5.516   0.939
 5437W        W 9181   5.509   8.855   9.582
 5438W        W 9182   5.628   5.446   8.966
 5439W        W 9183   3.423   4.059   2.278
 5440W        W 9184   6.650   7.900  11.268
 5441W        W 9185   7.791   5.199  10.521
 5442W        W 9186   3.251   9.510   1.157
 5443W        W 9187   1.661   0.232   9.998
 5444W        W 9188   4.938   5.771  11.399
 5445W        W 9189   6.456   8.082   3.272
 5446W        W 9190   2.330   4.635   1.659
 5447W        W 9191   9.986   0.959   0.001
 5448W        W 9192   4.971   7.586  11.586
 5449W        W 9193   5.357   1.684   1.302
 5450W        W 9194   2.811   3.388   1.575
 5451W        W 9195   1.387   0.376  10.411
 5452W        W 9196   4.668   8.086  10.528
 5453W        W 9197   1.609   3.025   0.245
 5454W        W 9198   5.556   8.310  10.867
 5455W        W 9199   7.622   7.418   1.695
 5456W        W 9200   2.705   8.433   2.375
 5457W        W 9201   1.808   2.219   0.964
 5458W        W 9202   3.402   3.827   0.390
 5459W        W 9203   8.496   2.295   9.261
 5460W        W 9204   1.625   1.340  11.322
 5461W        W 9205   3.547   1.752   2.908
 5462W        W 9206   1.149   9.543  10.439
 5463W        W 9207   1.773   0.069   8.573
 5464W        W 9208   0.174   9.200  10.470
 5465W        W 9209   3.895  10.408   2.688
 5466W        W 9210   4.402   7.629   2.751
 5467W        W 9211   0.717   3.317   1.150
 5468W        W 9212   3.636   5.696   1.750
 5469W        W 9213   4.090   9.357   9.359
 5470W        W 9214   4.071   7.508  10.627
 5471W        W 9215   1.914   1.391   3.420
 5472W        W 9216   5.002   9.977   3.464
 5473W        W 9217   0.218   7.413   2.324
 5474W        W 9218   1.802   5.462   2.186
 5475W        W 9219   4.680   0.626   9.052
 5476W        W 9220   0.540   3.799   3.054
 5477W        W 9221   4.319   5.141   9.560
 5478W        W 9222   1.873   2.907   8.363
 5479W        W 9223   8.180   5.037  11.799
 5480W        W 9224   8.065   8.641   0.766
 5481W        W 9225   3.248   7.366  10.363
 5482W        W 9226   7.140   0.770   3.041
 5483W        W 9227   0.707   3.088  10.918
 5484W        W 9228  10.428   9.440   1.985
 5485W        W 9229   6.138   9.125   3.423
 5486W        W 9230   1.125   0.437   9.153
 5487W        W 9231   6.183   6.189   2.051
 5488W        W 9232   4.111   9.853   3.399
 5489W        W 9233   6.986   4.593   3.733
 5490W        W 9234   9.216   3.407   9.753
 5491W        W 9235   4.573   4.154  10.901
 5492W        W 9236   5.045   2.387   9.510
 5493W        W 9237   1.217   4.226  11.029
 5494W        W 9238   8.614   6.765   8.575
 5495W        W 9239   9.350   0.891   8.958
 5496W        W 9240   8.831   1.735   8.801
 5497W        W 9241   5.070   6.104   9.539
 5498W        W 9242   6.115   1.958   0.246
 5499W        W 9243   0.816   6.319   2.946
 5500W        W 9244   4.219   3.607  11.727
 5501W        W 9245   3.261   6.186   8.543
 5502W        W 9246   0.663   8.872   9.083
 5503W        W 9247   6.296   1.421   8.424
 5504W        W 9248   4.573   9.258   0.457
 5505W        W 9249   0.968   1.752   0.101
 5506W        W 9250  10.397   4.474   2.622
 5507W        W 9251   8.630   7.559   0.835
 5508W        W 9252   9.377   1.542   9.545
 5509W        W 9253   9.884   1.349  11.190
 5510W        W 9254   4.277   3.103   2.727
 5511W        W 9255   2.882   2.159  10.328
 5512W        W 9256   4.285   5.224   1.415
 5513W        W 9257   7.614   8.804   0.580
 5514W        W 9258   4.752   1.722  10.366
 5515W        W 9259   6.166   7.583   8.083
 5516W        W 9260   9.277   6.231   0.966
 5517W        W 9261   8.483   6.078   2.674
 5518W        W 9262   3.206   7.138   1.174
 5519W        W 9263   2.796   9.752   2.264
 5520W        W 9264   9.446   3.549   2.522
 5521W        W 9265   6.433   2.302  10.976
 5522W        W 9266   6.170   9.665  11.835
 5523W        W 9267   6.460   2.156  11.457
 5524W        W 9268   5.959   4.655  11.748
 5525W        W 9269   7.208   6.719   8.377
 5526W        W 9270   7.140   1.966  11.495
 5527W        W 9271   1.471   7.909   1.930
 5528W        W 9272   9.074   7.003  11.733
 5529W        W 9273   9.191   2.237  10.933
 5530W        W 9274   0.439   6.934  11.886
 5531W        W 9275   7.414   8.003   2.236
 5532W        W 9276   1.201  10.004   0.510
 5533W        W 9277   0.446   7.649   1.887
 5534W        W 9278   3.394   3.652  10.886
 5535W        W 9279   5.751  10.338  10.974
 5536W        W 9280   2.634   8.822  11.962
 5537W        W 9281   1.322   0.944   2.653
 5538W        W 9282   4.628  10.355   3.378
 5539W        W 9283   9.112   8.899  11.058
 5540W        W 9284   2.213   2.523   9.225
 5541W        W 9285   9.408   8.189   3.063
 5542W        W 9286   6.409   5.358  10.407
 5543W        W 9287   6.550   1.737   0.387
 5544W        W 9288   3.272   2.360  10.637
 5545W        W 9289   5.659   8.365   9.937
 5546W        W 9290   7.467   1.536   2.648
 5547W        W 9291   7.902   7.998  10.239
 5548W        W 9292  10.199   2.703   9.286
 5549W        W 9293   1.665   5.040  10.954
 5550W        W 9294   7.096   9.715   3.903
 5551W        W 9295   1.241   4.158   0.935
 5552W        W 9296   9.762   2.795   9.567
 5553W        W 9297   0.857   0.421   1.452
 5554W        W 9298   6.463   0.769   8.828
 5555W        W 9299   4.767  10.095   1.699
 5556W        W 9300   7.481   9.007   3.502
 5557W        W 9301   9.242   1.336   3.420
 5558W        W 9302   8.049   8.012   2.259
 5559W        W 9303   5.603   2.650   2.449
 5560W        W 9304   2.088   9.070   3.341
 5561W        W 9305   7.155   9.733  11.964
 5562W        W 9306   0.688   0.055  11.431
 5563W        W 9307   8.520   3.217   1.404
 5564W        W 9308   9.025   6.060  11.467
 5565W        W 9309   8.324   2.432  10.747
 5566W        W 9310   3.262   7.300   0.225
 5567W        W 9311   8.303   7.141   0.733
 5568W        W 9312   4.201   0.365   1.740
 5569W        W 9313   0.794   4.770   1.501
 5570W        W 9314   0.905  10.195   8.547
 5571W        W 9315   3.415  10.000   0.968
 5572W        W 9316   5.649   4.119   1.208
 5573W        W 9317   7.373   3.154  10.684
 5574W        W 9318   3.643   3.554   2.445
 5575W        W 9319   7.935   9.716   3.484
 5576W        W 9320   9.842   4.720   2.404
 5577W        W 9321   6.532   6.078   0.655
 5578W        W 9322   9.983   4.479  10.982
 5579W        W 9323  10.315   6.109  11.190
 5580W        W 9324   4.212   0.856   8.962
 5581W        W 9325   1.831   7.377   0.913
 5582W        W 9326   4.269   9.495   1.064
 5583W        W 9327   0.873   2.254  11.970
 5584W        W 9328   5.616   7.244   2.811
 5585W        W 9329   4.736   6.461  10.799
 5586W        W 9330   5.554   2.694  11.393
 5587W        W 9331   7.480   8.953   1.052
 5588W        W 9332   2.824   9.062   0.384
 5589W        W 9333   8.088   4.205   3.156
 5590W        W 9334   8.088   5.115   2.598
 5591W        W 9335   6.561   2.656  11.357
 5592W        W 9336   8.102   4.978   1.573
 5593W        W 9337   1.384   1.678   1.184
 5594W        W 9338   9.722   2.254   2.246
 5595W        W 9339   8.364   2.434  10.250
 5596W        W 9340   3.703   0.429   9.840
 5597W        W 9341   8.816   3.128   2.450
 5598W        W 9342   4.038   9.441   8.438
 5599W        W 9343   7.534   1.888   2.160
 5600W        W 9344   8.941   2.628   0.243
 5601W        W 9345   7.052   6.940  11.719
 5602W        W 9346   5.060   2.366  10.491
 5603W        W 9347   5.987   7.918   2.409
 5604W        W 9348   0.045   2.404   0.930
 5605W        W 9349   6.249   4.649   1.589
 5606W        W 9350   2.464   3.447   2.929
 5607W        W 9351   1.983   4.571   3.293
 5608W        W 9352   7.671   6.468   3.405
 5609W        W 9353   7.076  10.179  10.927
 5610W        W 9354   2.213  10.272   9.275
 5611W        W 9355   7.913   0.287   9.532
 5612W        W 9356   2.894   8.573   3.404
 5613W        W 9357   3.123   0.689  10.922
 5614W        W 9358   2.411  10.253   1.678
 5615W        W 9359   8.578   9.308   9.053
 5616W        W 9360   0.725  10.077  11.335
 5617W        W 9361   7.597   2.818  10.364
 5618W        W 9362   8.549   6.450   9.578
 5619W        W 9363   6.951  10.415   1.214
 5620W        W 9364   4.546   0.315  11.042
 5621W        W 9365   0.368   4.504   1.438
 5622W        W 9366   0.715  10.249  11.831
 5623W        W 9367   2.746   8.561   9.183
 5624W        W 9368   3.038   4.214   0.334
 5625W        W 9369   4.583   0.117   1.522
 5626W        W 9370   0.401   9.369   1.817
 5627W        W 9371   0.988   4.650   9.186
 5628W        W 9372  10.206   2.244  10.653
 5629W        W 9373   7.037   9.886   9.991
 5630W        W 9374   4.625   7.211  11.599
 5631W        W 9375   5.550   3.070  10.633
 5632W        W 9376  10.303   1.556   1.324
 5633W        W 9377   4.093   2.610   0.974
 5634W        W 9378   0.909   2.175   3.241
 5635W        W 9379   1.751   0.742  11.402
 5636W        W 9380   3.184   8.696  11.940
 5637W        W 9381   5.826   8.074   4.071
 5638W        W 9382   8.440   8.499   1.241
 5639W        W 9383   8.632   5.292  11.805
 5640W        W 9384   2.281   4.547  11.686
 5641W        W 9385   9.361   4.217  10.482
 5642W        W 9386   2.399   2.963   8.461
 5643W        W 9387   5.594   7.542   9.371
 5644W        W 9388   6.519   3.433   1.022
 5645W        W 9389   8.064   1.647   9.777
 5646W        W 9390   3.248   3.234   1.785
 5647W        W 9391   4.840  10.341   0.717
 5648W        W 9392   1.779   4.697   0.934
 5649W        W 9393   2.615   4.371   2.852
 5650W        W 9394   1.319   1.960   8.882
 5651W        W 9395   4.735   0.435   2.424
 5652W        W 9396   5.774   5.974   3.130
 5653W        W 9397   1.755   4.347  11.763
 5654W        W 9398   4.708   8.029  11.081
 5655W        W 9399   0.855   5.720  10.232
 5656W        W 9400   0.443  10.221  10.398
 5657W        W 9401   2.366   6.974   1.731
 5658W        W 9402   9.775   8.605  10.449
 5659W        W 9403   3.854  10.030   1.663
 5660W        W 9404   5.113   2.580   2.728
 5661W        W 9405   5.198   1.644   8.716
 5662W        W 9406   8.572   0.539   3.112
 5663W        W 9407   7.001   1.206   1.939
 5664W        W 9408   9.082   2.188  11.982
 5665W        W 9409   2.276   9.449   2.245
 5666W        W 9410   3.422   0.926   8.731
 5667W        W 9411   5.305   8.486   1.497
 5668W        W 9412   2.484   6.150   0.461
 5669W        W 9413   3.102   0.791  11.918
 5670W        W 9414   7.455   0.643  11.379
 5671W        W 9415   0.527   6.045   2.224
 5672W        W 9416   7.342   6.126   3.209
 5673W        W 9417   5.635   4.096  10.974
 5674W        W 9418   4.353   8.573   1.322
 5675W        W 9419  10.373   7.026  11.239
 5676W        W 9420   5.906   7.077  10.469
 5677W        W 9421   4.997   8.008   0.820
 5678W        W 9422   6.445   3.651   9.917
 5679W        W 9423   1.707   3.536   9.334
 5680W        W 9424   2.772   1.902   0.428
 5681W        W 9425   2.875   6.934   9.399
 5682W        W 9426   0.887   6.640   8.952
 5683W        W 9427   7.978   2.667   2.349
 5684W        W 9428   4.109   2.616   2.846
 5685W        W 9429   0.949   6.171   2.464
 5686W        W 9430  10.290   7.911   0.415
 5687W        W 9431   8.396   0.122   3.307
 5688W        W 9432   0.052   0.765   3.377
 5689W        W 9433   3.488   0.499   3.511
 5690W        W 9434   4.627   4.109   7.879
 5691W        W 9435   7.360   6.539   0.317
 5692W        W 9436   3.207   9.974   2.938
 5693W        W 9437   6.940   9.851   2.647
 5694W        W 9438   7.697   1.885   2.926
 5695W        W 9439  10.403   8.895   9.684
 5696W        W 9440   3.824   2.761  10.551
 5697W        W 9441   9.373   9.096   0.025
 5698W        W 9442   0.075   2.618   8.591
 5699W        W 9443   8.863   5.825   0.323
 5700W        W 9444   5.010   0.828   2.645
 5701W        W 9445   6.622   6.457   1.806
 5702W        W 9446   8.957   7.437   1.572
 5703W        W 9447   5.357   2.755   3.416
 5704W        W 9448  10.018   0.848   9.579
 5705W        W 9449   2.414   5.700   3.184
 5706W        W 9450   6.460   1.135   1.931
 5707W        W 9451   2.715   8.373   2.945
 5708W        W 9452   7.880   7.436  11.522
 5709W        W 9453   6.155   2.064   2.773
 5710W        W 9454   4.154   7.114   1.466
 5711W        W 9455   8.852   8.832   3.400
 5712W        W 9456   3.239   2.767   2.550
 5713W        W 9457   2.937   1.081   8.323
 5714W        W 9458   9.320   3.011   9.382
 5715W        W 9459   8.816   7.541   3.068
 5716W        W 9460   5.150   5.252   9.062
 5717W        W 9461   9.735   5.595  11.680
 5718W        W 9462  10.179   2.063   3.176
 5719W        W 9463  10.470   2.723   2.606
 5720W        W 9464   6.426   6.060  10.863
 5721W        W 9465   7.365   9.956   8.594
 5722W        W 9466   8.614   4.496   0.792
 5723W        W 9467   4.205   3.129   0.874
 5724W        W 9468   4.392   9.467   2.836
 5725W        W 9469   6.149   8.580   3.399
 5726W        W 9470   7.429  10.386   8.839
 5727W        W 9471   9.397   7.942   0.982
 5728W        W 9472   4.750   4.529   9.073
 5729W        W 9473   2.849   6.711  10.298
 5730W        W 9474   3.555   2.395   0.493
 5731W        W 9475   1.403   8.631   0.138
 5732W        W 9476  10.043   6.482   0.131
 5733W        W 9477   6.209  10.036  10.877
 5734W        W 9478   1.866   8.288   3.496
 5735W        W 9479   4.577   9.072   1.331
 5736W        W 9480   9.043   9.105   0.442
 5737W        W 9481   7.381   3.245   1.345
 5738W        W 9482   5.952   2.602   9.413
 5739W        W 9483   3.616   6.224   8.925
 5740W        W 9484   8.018   2.879   9.725
 5741W        W 9485   0.231   3.037  11.419
 5742W        W 9486   2.112   3.436  10.155
 5743W        W 9487   0.879   2.378  11.439
 5744W        W 9488   1.830   3.369   1.041
 5745W        W 9489   1.716   4.140   1.122
 5746W        W 9490   9.752   4.290   2.128
 5747W        W 9491   0.890   0.467   3.231
 5748W        W 9492   2.644   5.853   8.587
 5749W        W 9493   6.134   1.759   8.796
 5750W        W 9494   9.450   5.466   8.879
 5751W        W 9495   4.096   0.939   2.390
 5752W        W 9496   2.423   4.277   2.383
 5753W        W 9497   8.899   9.967   9.562
 5754W        W 9498   8.720   2.366  11.046
 5755W        W 9499   6.013   3.845   9.244
 5756W        W 9500   1.576   0.766   3.108
 5757W        W 9501   1.448   4.605   2.184
 5758W        W 9502   2.260   2.330  10.640
 5759W        W 9503   6.161   9.392  10.012
 5760W        W 9504   9.005   8.849   2.291
 5761W        W 9505   9.401   7.297  11.490
 5762W        W 9506   1.154   7.942   9.977
 5763W        W 9507   9.278   5.054   0.750
 5764W        W 9508   3.714   3.646   0.903
 5765W        W 9509   9.857   9.500   2.137
 5766W        W 9510   9.579   4.804   3.818
 5767W        W 9511   6.903   6.563   3.773
 5768W        W 9512   9.489   4.810   2.801
 5769W        W 9513   3.342   3.219   9.592
 5770W        W 9514   7.436   2.334   3.066
 5771W        W 9515   4.086   8.243  11.771
 5772W        W 9516   8.974   7.505   8.870
 5773W        W 9517   2.531   0.728  10.078
 5774W        W 9518   9.418   9.128   2.841
 5775W        W 9519   0.206   9.518   2.761
 5776W        W 9520   8.375   6.250  10.037
 5777W        W 9521  10.020   4.530   8.976
 5778W        W 9522   8.399   6.985   1.889
 5779W        W 9523  10.277   4.074   1.888
 5780W        W 9524   1.832   0.776   2.670
 5781W        W 9525   1.044   9.998   1.018
 5782W        W 9526   5.818   0.330   9.709
 5783W        W 9527   3.554   2.158   2.591
 5784W        W 9528   2.359   6.230   1.291
 5785W        W 9529   2.317   2.998   9.360
 5786W        W 9530   9.750   7.677  10.629
 5787W        W 9531   4.606   1.344   1.589
 5788W        W 9532   2.410   9.369  10.750
 5789W        W 9533   9.362   5.863   2.743
 5790W        W 9534   9.445   0.287   1.523
 5791W        W 9535   5.921   6.879   0.747
 5792W        W 9536   7.597   4.575   8.622
 5793W        W 9537   3.137   7.025   9.987
 5794W        W 9538   1.819   9.427   1.969
 5795W        W 9539   5.583   9.935   2.207
 5796W        W 9540   9.112   7.210   0.197
 5797W        W 9541   5.134   5.583   2.653
 5798W        W 9542   6.543   0.301  10.475
 5799W        W 9543   2.261   4.964  10.314
 5800W        W 9544   8.528   8.392   0.700
 5801W        W 9545   9.862   2.658   0.385
 5802W        W 9546   9.586   0.773   1.390
 5803W        W 9547   8.334   0.488  11.786
 5804W        W 9548   7.545   0.575  10.441
 5805W        W 9549   8.175   7.964   9.305
 5806W        W 9550   2.252   0.192  10.903
 5807W        W 9551   2.320   1.613   2.183
 5808W        W 9552   1.899   9.561   3.444
 5809W        W 9553   1.156   9.076  10.684
 5810W        W 9554   6.465   7.808  10.308
 5811W        W 9555   3.613   5.125   0.221
 5812W        W 9556   8.063   6.946  10.801
 5813W        W 9557   6.530   3.234   9.137
 5814W        W 9558   9.047   4.102   8.673
 5815W        W 9559   4.167   5.737   2.327
 5816W        W 9560   0.755   7.491   3.156
 5817W        W 9561   0.692   2.133   0.443
 5818W        W 9562   7.595   1.839   1.155
 5819W        W 9563   3.301   4.175   3.572
 5820W        W 9564   5.944   8.039   8.336
 5821W        W 9565   9.592   5.056  10.056
 5822W        W 9566   8.689   5.829   3.551
 5823W        W 9567   4.894   9.506   9.956
 5824W        W 9568   9.755   3.355  10.210
 5825W        W 9569   4.462   1.840   1.375
 5826W        W 9570   4.278   0.675  11.315
 5827W        W 9571   4.141   7.744  11.803
 5828W        W 9572   2.539   1.705   9.452
 5829W        W 9573   8.098   4.649   9.441
 5830W        W 9574   0.467   5.550   2.392
 5831W        W 9575   6.431   7.425  11.744
 5832W        W 9576   3.313   9.518   3.146
 5833W        W 9577   0.865   8.335   9.055
 5834W        W 9578   8.483   9.901   1.020
 5835W        W 9579   9.069   5.023  11.841
 5836W        W 9580   8.168   4.254   9.106
 5837W        W 9581   3.478   8.438  10.032
 5838W        W 9582   9.397   5.847   9.548
 5839W        W 9583   9.603   9.376   1.423
 5840W        W 9584   6.061   3.048   2.822
 5841W        W 9585   5.755   7.831  11.753
 5842W        W 9586   1.457   3.241  11.338
 5843W        W 9587   9.132   6.630   2.154
 5844W        W 9588   5.223   1.901   0.263
 5845W        W 9589   0.717   4.261   2.731
 5846W        W 9590  10.153   9.085  10.928
 5847W        W 9591   0.391   0.304   9.536
 5848W        W 9592   3.230   7.178   2.608
 5849W        W 9593   7.848   6.927   1.909
 5850W        W 9594   8.992   0.376   3.392
 5851W        W 9595   8.939   3.633   2.488
 5852W        W 9596   4.092   0.923   9.497
 5853W        W 9597   4.480   7.189  10.518
 5854W        W 9598   3.350   3.610  11.896
 5855W        W 9599   2.748   9.902   2.752
 5856W        W 9600   3.654   9.882   3.198
 5857W        W 9601   6.428   9.579   8.858
 5858W        W 9602   3.149   9.774   0.283
 5859W        W 9603   0.223   8.048   1.671
 5860W        W 9604   4.367   5.730   2.790
 5861W        W 9605   6.245   1.438   3.621
 5862W        W 9606   1.848   7.793  10.433
 5863W        W 9607   9.355   2.495   9.340
 5864W        W 9608   8.033   7.585   8.591
 5865W        W 9609   2.586   6.414   4.143
 5866W        W 9610   5.469   5.519   2.246
 5867W        W 9611   5.988  10.162   3.614
 5868W        W 9612   3.172   9.385   2.159
 5869W        W 9613   0.251   5.438  11.816
 5870W        W 9614   0.057   2.704   3.580
 5871W        W 9615   5.434  10.396   2.435
 5872W        W 9616   1.032   0.897   2.226
 5873W        W 9617   0.829   3.578   9.867
 5874W        W 9618   8.294   1.408   2.203
 5875W        W 9619   3.792   4.133   3.249
 5876W        W 9620   8.775  10.319   1.433
 5877W        W 9621   4.063   6.232   2.392
 5878W        W 9622   7.527   3.147   8.644
 5879W        W 9623   4.126   4.123   8.666
 5880W        W 9624   6.924   8.945  10.968
 5881W        W 9625   5.463   2.675   9.651
 5882W        W 9626   3.206   9.363   9.548
 5883W        W 9627   8.914   7.938  11.154
 5884W        W 9628   6.469   5.172   9.872
 5885W        W 9629   1.198  10.029   2.363
 5886W        W 9630   1.176   6.691   9.365
 5887W        W 9631   6.492   7.544   9.551
 5888W        W 9632   8.551   3.054   0.889
 5889W        W 9633   7.383   4.998  10.733
 5890W        W 9634  10.120   2.440   3.556
 5891W        W 9635   3.187   7.160   3.303
 5892W        W 9636   7.125   4.706   2.894
 5893W        W 9637  10.302   6.558   0.560
 5894W        W 9638   0.366   8.461   0.849
 5895W        W 9639   1.918   8.732   3.712
 5896W        W 9640   7.000   7.484   2.859
 5897W        W 9641   6.074  10.076   2.058
 5898W        W 9642   1.645   8.984  11.841
 5899W        W 9643   4.824   6.974  10.842
 5900W        W 9644   0.570   3.129  10.007
 5901W        W 9645   0.254   8.528   1.811
 5902W        W 9646   5.137   3.676  11.653
 5903W        W 9647   5.656   2.819  11.871
 5904W        W 9648   2.277   6.009  11.271
 5905W        W 9649   4.714   5.553  10.723
 5906W        W 9650   4.279   3.350   0.190
 5907W        W 9651   5.446   9.613   9.325
 5908W        W 9652   3.888   5.271   1.725
 5909W        W 9653   4.143   7.455   3.566
 5910W        W 9654   4.110   7.897   9.216
 5911W        W 9655   0.834   1.886  11.615
 5912W        W 9656   5.539   2.920  10.130
 5913W        W 9657   3.478   2.189  11.854
 5914W        W 9658   9.102   7.196   9.874
 5915W        W 9659   3.840   7.121   9.359
 5916W        W 9660   6.735   8.002   1.533
 5917W        W 9661   6.181   9.350   0.826
 5918W        W 9662   0.983   7.458   0.415
 5919W        W 9663   8.605   8.682   0.287
 5920W        W 9664   2.677  10.417   0.098
 5921W        W 9665   8.802   3.291  10.560
 5922W        W 9666   1.255   7.753  11.793
 5923W        W 9667   7.376   5.573   2.637
 5924W        W 9668   8.370  10.215   9.788
 5925W        W 9669   6.748  10.461   3.024
 5926W        W 9670   5.562   9.147   9.183
 5927W        W 9671   3.989   0.594   3.396
 5928W        W 9672   2.081   1.123  11.308
 5929W        W 9673   3.929  10.247   0.820
 5930W        W 9674   6.812   7.928   9.418
 5931W        W 9675   8.821   5.037  11.397
 5932W        W 9676   6.115   0.843   2.295
 5933W        W 9677  10.452   3.713   2.674
 5934W        W 9678  10.034   0.976   2.235
 5935W        W 9679   9.312   1.729   8.658
 5936W        W 9680   2.748   4.087   8.961
 5937W        W 9681   2.801   5.088   0.484
 5938W        W 9682   0.854   3.149  10.435
 5939W        W 9683   8.951   6.413  10.687
 5940W        W 9684   4.757   8.979   3.389
 5941W        W 9685   0.835   2.308  10.521
 5942W        W 9686   0.969   9.766   3.051
 5943W        W 9687   7.501  10.481  10.820
 5944W        W 9688   2.574   0.810   1.013
 5945W        W 9689   0.928   8.893   2.955
 5946W        W 9690   1.840   7.383   3.009
 5947W        W 9691  10.363   0.456   9.524
 5948W        W 9692   2.836   0.360  10.305
 5949W        W 9693   8.960   9.805   2.717
 5950W        W 9694   6.110   8.488   9.042
 5951W        W 9695   5.575   5.371  11.377
 5952W        W 9696   2.260   2.374   8.711
 5953W        W 9697   0.427  10.491   9.966
 5954W        W 9698   2.827   3.157   9.435
 5955W        W 9699   5.051   1.813  11.263
 5956W        W 9700   5.759   5.541  11.824
 5957W        W 9701   2.223   0.271   2.338
 5958W        W 9702   7.476   6.584   2.960
 5959W        W 9703   5.206   9.213  10.226
 5960W        W 9704   5.558   5.587   9.457
 5961W        W 9705   6.966   8.389  11.471
 5962W        W 9706   7.040   1.682   9.033
 5963W        W 9707   5.610   1.239   9.769
 5964W        W 9708   2.347   6.919  11.997
 5965W        W 9709   7.524   9.406  11.927
 5966W        W 9710   0.952   3.534   3.214
 5967W        W 9711   4.024   3.577  10.024
 5968W        W 9712   3.646   5.151  10.249
 5969W        W 9713   8.862   9.461   0.820
 5970W        W 9714   4.962   8.148   9.280
 5971W        W 9715   0.909   5.567  10.717
 5972W        W 9716   1.870   6.526  10.755
 5973W        W 9717   9.796   7.659   1.299
 5974W        W 9718   6.605   7.260   9.143
 5975W        W 9719   2.658   5.149  11.987
 5976W        W 9720   7.543   7.541   8.438
 5977W        W 9721   3.565   0.002   0.226
 5978W        W 9722  10.265   8.669  11.845
 5979W        W 9723   4.256   7.253   0.996
 5980W        W 9724   0.967   3.325  11.278
 5981W        W 9725   2.140   4.936   1.301
 5982W        W 9726   4.301   8.833   8.905
 5983W        W 9727   9.552   2.204  11.281
 5984W        W 9728   1.845   5.983   2.039
 5985W        W 9729   5.605  10.045   9.091
 5986W        W 9730   0.207   8.279  10.417
 5987W        W 9731   0.781   7.395  11.537
 5988W        W 9732   9.227   2.159   2.172
 5989W        W 9733   8.589   1.966  10.148
 5990W        W 9734   7.895   1.425   1.461
 5991W        W 9735   3.375   4.698   2.705
 5992W        W 9736   7.870   7.092  11.897
 5993W        W 9737   8.617   3.888   0.564
 5994W        W 9738   5.557   5.875   1.556
 5995W        W 9739   0.456   6.655   0.843
 5996W        W 9740   6.092   4.788   9.835
 5997W        W 9741   6.419   7.016   9.594
 5998W        W 9742   8.815   3.660   9.550
 5999W        W 9743   7.113   3.627   1.564
 6000W        W 9744   2.479   0.725   2.439
 6001W        W 9745   9.893   8.717   2.509
 6002W        W 9746   8.745   8.394  10.361
 6003W        W 9747   4.084   5.582   0.058
 6004W        W 9748   1.400   0.874   9.000
 6005W        W 9749   8.333   3.292   2.434
 6006W        W 9750   2.744   2.651   2.797
 6007W        W 9751   4.716   8.494   3.567
 6008W        W 9752   4.795   2.118  10.035
 6009W        W 9753   9.968   7.468   0.403
 6010W        W 9754   7.539  10.018   3.394
 6011W        W 9755   0.684  10.412   1.286
 6012W        W 9756   3.944   4.767   9.371
 6013W        W 9757   0.726   5.428   1.301
 6014W        W 9758   0.335   3.853   0.348
 6015W        W 9759   6.610   1.004   0.826
 6016W        W 9760   9.523   9.404  11.546
 6017W        W 9761   7.440   9.070  10.887
 6018W        W 9762   3.339   6.081   0.243
 6019W        W 9763   8.957   1.276   9.760
 6020W        W 9764   3.237   0.185  10.890
 6021W        W 9765   4.699   4.964   1.621
 6022W        W 9766   0.431   5.734   0.987
 6023W        W 9767   4.934   8.896  11.044
 6024W        W 9768   9.991   6.896   9.895
 6025W        W 9769   8.593   7.790  11.982
 6026W        W 9770   5.818   4.335   9.997
 6027W        W 9771   8.105   4.263  10.921
 6028W        W 9772   0.361   9.037   3.528
 6029W        W 9773  10.268   2.273  10.131
 6030W        W 9774   0.923   9.053   0.472
 6031W        W 9775   8.396   8.967   1.489
 6032W        W 9776   3.929   4.511   1.049
 6033W        W 9777   1.182   1.811   3.478
 6034W        W 9778  10.247   3.673   0.495
 6035W        W 9779   6.812   0.795   1.231
 6036W        W 9780   3.025   1.700   0.823
 6037W        W 9781   4.299   8.721   3.312
 6038W        W 9782   3.072   9.218  10.037
 6039W        W 9783   0.071   5.533   8.523
 6040W        W 9784   1.570   3.363  11.845
 6041W        W 9785   7.572   1.282   9.003
 6042W        W 9786   5.228   3.591  10.719
 6043W        W 9787   4.824   3.707  11.010
 6044W        W 9788   1.039   5.868   1.237
 6045W        W 9789   1.968   1.759   3.766
 6046W        W 9790   7.872   5.607   2.622
 6047W        W 9791   1.350   6.012  11.350
 6048W        W 9792   0.679   3.884   3.537
 6049W        W 9793   0.963   3.336   0.703
 6050W        W 9794   5.254   8.427   0.979
 6051W        W 9795   4.409   1.145  11.476
 6052W        W 9796   3.100   3.979   0.785
 6053W        W 9797   2.797   8.953   1.661
 6054W        W 9798   0.328   1.085   0.982
 6055W        W 9799   7.659   6.838   9.994
 6056W        W 9800   6.924   3.762   8.553
 6057W        W 9801   8.325   7.570   3.212
 6058W        W 9802   5.703   9.204   2.626
 6059W        W 9803   1.114   0.042   1.010
 6060W        W 9804   0.057   1.133   1.416
 6061W        W 9805   0.681   5.235  10.378
 6062W        W 9806   6.209   5.604  10.843
 6063W        W 9807   3.168   9.190  10.902
 6064W        W 9808   9.154   6.923  11.236
 6065W        W 9809   9.801  10.437   2.278
 6066W        W 9810   3.192   7.105   8.577
 6067W        W 9811   4.977   6.618   9.431
 6068W        W 9812  10.134   4.079   2.389
 6069W        W 9813   0.084   3.714   1.665
 6070W        W 9814   7.880   7.323   3.222
 6071W        W 9815   1.300   6.393   3.206
 6072W        W 9816   0.881   4.460   0.716
 6073W        W 9817   7.967   2.128   3.294
 6074W        W 9818   7.705   7.911   8.831
 6075W        W 9819   3.594   8.072   1.204
 6076W        W 9820   7.658   5.235   2.332
 6077W        W 9821   6.100   2.321   3.203
 6078W        W 9822   2.445   2.438  10.169
 6079W        W 9823   8.593   7.294   9.981
 6080W        W 9824   4.530   8.041   9.499
 6081W        W 9825   3.637   4.068  11.979
 6082W        W 9826   2.611   2.774  11.106
 6083W        W 9827   3.377   4.152   9.838
 6084W        W 9828   0.403   8.135  11.278
 6085W        W 9829   6.621   4.336   1.421
 6086W        W 9830   3.032   6.779   1.650
 6087W        W 9831   1.214   9.899  10.057
 6088W        W 9832   0.724   1.446   8.587
 6089W        W 9833   1.495  10.239   0.860
 6090W        W 9834   8.925   4.838   1.052
 6091W        W 9835   5.305   4.294   9.862
 6092W        W 9836   4.598   2.266   0.589
 6093W        W 9837   3.143   6.583   3.322
 6094W        W 9838   8.944   2.222   9.527
 6095W        W 9839  10.176   1.729  10.959
 6096W        W 9840   1.233   7.401   3.598
 6097W        W 9841   8.365   4.208  10.482
 6098W        W 9842   0.353   9.957   9.120
 6099W        W 9843   6.203   7.642  10.816
 6100W        W 9844   0.271   7.552   9.087
 6101W        W 9845   6.248   7.817   2.851
 6102W        W 9846   8.845   1.773   0.177
 6103W        W 9847   2.595   5.075   1.004
 6104W        W 9848   8.849   6.235   2.334
 6105W        W 9849   2.719   7.211  11.132
 6106W        W 9850   4.508   0.667   1.435
 6107W        W 9851   1.929   4.655  10.693
 6108W        W 9852   0.786   5.053   3.285
 6109W        W 9853   9.321   4.123   3.409
 6110W        W 9854   0.905   5.660   0.785
 6111W        W 9855   8.631   2.711   2.714
 6112W        W 9856   1.667   6.465   1.973
 6113W        W 9857   3.755   6.598   0.379
 6114W        W 9858   8.856   4.307   3.210
 6115W        W 9859   2.383   3.377   1.309
 6116W        W 9860   7.628   9.581   3.097
 6117W        W 9861   9.671   9.577   3.573
 6118W        W 9862   6.594  10.022   9.768
 6119W        W 9863   3.121   4.085  11.833
 6120W        W 9864   8.883   0.990   1.710
 6121W        W 9865   7.861  10.326   2.274
 6122W        W 9866   6.224   0.261   2.997
 6123W        W 9867   5.946   3.182   3.658
 6124W        W 9868   9.922   0.808   0.485
 6125W        W 9869   3.288   8.840   9.769
 6126W        W 9870   7.587   9.956   2.036
 6127W        W 9871   8.763   2.210   1.008
 6128W        W 9872   0.448   8.492   9.973
 6129W        W 9873   3.268   3.594  11.392
 6130W        W 9874   1.420   4.660  10.632
 6131W        W 9875   3.856   1.831   1.262
 6132W        W 9876   5.885   3.689   3.790
 6133W        W 9877   1.320   5.064   0.221
 6134W        W 9878   1.316   3.279   9.088
 6135W        W 9879   7.644   7.524   0.765
 6136W        W 9880   3.847   4.448   2.224
 6137W        W 9881   6.189   7.687   3.470
 6138W        W 9882   6.576   9.461   0.157
 6139W        W 9883   8.091   0.719  10.214
 6140W        W 9884   4.160   7.654  11.095
 6141W        W 9885   6.643   0.703   1.720
 6142W        W 9886   7.710   8.660   0.096
 6143W        W 9887   7.478   8.361   9.035
 6144W        W 9888   8.465   2.835   3.231
 6145W        W 9889   9.309   5.725  11.160
 6146W        W 9890   3.739   4.358   9.065
 6147W        W 9891   3.330   8.511   2.290
 6148W        W 9892   1.786   8.965   1.742
 6149W        W 9893   9.810   8.992   8.910
 6150W        W 9894   5.606   0.606   0.815
 6151W        W 9895   3.716   8.360   0.775
 6152W        W 9896   8.511   2.371   9.768
 6153W        W 9897   2.330   9.795  11.034
 6154W        W 9898   8.605   1.189  11.412
 6155W        W 9899   4.009   0.762   2.883
 6156W        W 9900   6.948   7.459   0.224
 6157W        W 9901   6.522   8.302  11.874
 6158W        W 9902   4.125   4.148   2.846
 6159W        W 9903   3.339   4.569   2.176
 6160W        W 9904   7.336  10.303   2.354
 6161W        W 9905   6.029   6.681   0.280
 6162W        W 9906   3.375   4.486   9.393
 6163W        W 9907   6.533   1.677   9.161
 6164W        W 9908   5.790   5.964   0.736
 6165W        W 9909   0.270   3.357   2.967
 6166W        W 9910  10.002   1.730   0.943
 6167W        W 9911   8.479   1.403   3.231
 6168W        W 9912   6.756   0.757  10.251
 6169W        W 9913   8.746   9.335   3.434
 6170W        W 9914   4.882   2.676   3.184
 6171W        W 9915   0.538   9.548   0.186
 6172W        W 9916   4.814   2.803   1.438
 6173W        W 9917   7.582   3.744   3.390
 6174W        W 9918   6.081   0.699  11.785
 6175W        W 9919   5.967   9.372   2.216
 6176W        W 9920   8.777   2.295  10.532
 6177W        W 9921   7.611   4.102  10.892
 6178W        W 9922   9.062   8.463  11.348
 6179W        W 9923   7.430   6.155   2.233
 6180W        W 9924   2.577   7.476   1.472
 6181W        W 9925   5.260   6.459   0.676
 6182W        W 9926   1.607   9.876  11.537
 6183W        W 9927   0.873   7.547   9.793
 6184W        W 9928  10.014   5.348   0.033
 6185W        W 9929  10.305   2.302   0.043
 6186W        W 9930   6.848   6.140  10.098
 6187W        W 9931   2.463  10.374   0.741
 6188W        W 9932   3.352   2.818  10.415
 6189W        W 9933   0.348   0.288   1.453
 6190W        W 9934   5.253   6.254  11.529
 6191W        W 9935   1.701   1.624   2.861
 6192W        W 9936   3.273   7.860   9.542
 6193W        W 9937   5.324   6.051   0.335
 6194W        W 9938   1.097   3.158   9.968
 6195W        W 9939   7.343  10.174   0.178
 6196W        W 9940   7.390   0.734   2.453
 6197W        W 9941   3.666  10.430  11.725
 6198W        W 9942   0.420   6.128  10.306
 6199W        W 9943   2.729   0.797  10.556
 6200W        W 9944   4.046   5.073  11.963
 6201W        W 9945   1.080   9.819   3.778
 6202W        W 9946  10.062   9.004   1.418
 6203W        W 9947   5.774   1.564   1.011
 6204W        W 9948   1.500   5.993   0.296
 6205W        W 9949   9.594   8.131  10.283
 6206W        W 9950   4.708   4.098   3.654
 6207W        W 9951   7.291   2.803   9.954
 6208W        W 9952   5.738   7.342  10.870
 6209W        W 9953   1.168   6.131   0.715
 6210W        W 9954   2.725   5.554   3.553
 6211W        W 9955  10.245   4.131   3.427
 6212W        W 9956   2.344   5.228   9.866
 6213W        W 9957   6.755   0.332   9.988
 6214W        W 9958   5.149   3.866  10.273
 6215W        W 9959   3.799   3.700   2.923
 6216W        W 9960   0.329   6.505   2.375
 6217W        W 9961   8.775   1.399   2.020
 6218W        W 9962  10.140   1.605   2.936
 6219W        W 9963   6.993   6.522   2.783
 6220W        W 9964   9.477   1.386   9.054
 6221W        W 9965   3.912   2.566   3.353
 6222W        W 9966   6.485   8.805  11.922
 6223W        W 9967   2.045   1.717   9.591
 6224W        W 9968   3.282   8.575   0.951
 6225W        W 9969  10.412   7.708   1.890
 6226W        W 9970   1.201   2.127   0.348
 6227W        W 9971   6.220   4.151   2.626
 6228W        W 9972   9.606   8.502  11.385
 6229W        W 9973   8.467   2.634  11.426
 6230W        W 9974   9.339   7.396  10.599
 6231W        W 9975   3.805   9.417   3.384
 6232W        W 9976   5.929   8.055   3.210
 6233W        W 9977   3.517   4.842   0.996
 6234W        W 9978   4.305   9.826   9.370
 6235W        W 9979   2.240   3.501   9.327
 6236W        W 9980   7.502   1.903   3.415
 6237W        W 9981   2.385   8.893   9.068
 6238W        W 9982   9.464   1.741  10.015
 6239W        W 9983   5.924   7.359  11.781
 6240W        W 9984   7.889  10.362  11.447
 6241W        W 9985   0.606   8.194   1.997
 6242W        W 9986  10.326   7.793   2.399
 6243W        W 9987   9.017   4.526   0.099
 6244W        W 9988   3.859   6.153   1.819
 6245W        W 9989   0.838   2.616   2.492
 6246W        W 9990  10.342   9.560  10.960
 6247W        W 9991   2.851   1.085   1.786
 6248W        W 9992   9.654   5.961   9.973
 6249W        W 9993   9.455   1.188  11.431
 6250W        W 9994   1.526   5.442   3.470
 6251W        W 9995   1.450   3.206   1.651
 6252W        W 9996   6.014   9.796   2.478
 6253W        W 9997   5.803   8.722   2.733
 6254W        W 9998   7.163   0.874   1.591
 6255W        W 9999   6.956   5.646   9.366
 6256W        W10000   7.611   1.556  10.539
 6257W        W10001   2.354   2.938   2.991
 6258W        W10002   8.857  10.177   2.270
 6259W        W10003   1.017   7.924  10.487
 6260W        W10004   0.416   6.657   9.842
 6261W        W10005   4.085   7.025  10.836
 6262W        W10006  10.006   0.883  11.455
 6263W        W10007   5.178   1.667   9.239
 6264W        W10008   5.059   6.086  10.058
 6265W        W10009   2.829   7.644  10.608
 6266W        W10010   3.455   7.621   8.516
 6267W        W10011   6.446   4.166   3.123
 6268W        W10012   5.926  10.339   2.472
 6269W        W10013  10.242   4.104   9.205
 6270W        W10014   9.778   5.187   2.996
 6271W        W10015   9.904   3.196   1.953
 6272W        W10016   1.782   9.399   9.497
 6273W        W10017   0.401   0.847  11.564
 6274W        W10018  10.257   3.252   2.490
 6275W        W10019   9.402   6.578   3.526
 6276W        W10020  10.481   4.742   9.080
 6277W        W10021   0.801   1.455   9.472
 6278W        W10022   8.078   7.896   1.302
 6279W        W10023   6.264   7.877   1.761
 6280W        W10024   9.243   0.747  10.962
 6281W        W10025   6.498   6.907  10.086
 6282W        W10026   7.127  10.311   3.328
 6283W        W10027   4.310   4.300   2.397
 6284W        W10028   0.906   0.807  10.749
 6285W        W10029   0.854   4.657   3.590
 6286W        W10030   8.480   7.702   2.308
 6287W        W10031   0.464   2.558   0.689
 6288W        W10032   8.574   7.457   1.872
 6289W        W10033   2.177   1.459   2.664
 6290W        W10034   9.566   1.932  10.493
 6291W        W10035   9.090   7.633  11.901
 6292W        W10036   9.380   8.401   1.262
 6293W        W10037   1.343   8.021   1.423
 6294W        W10038   4.415   8.949   2.875
 6295W        W10039   6.743   1.360  11.036
 6296W        W10040   0.412   3.752   2.044
 6297W        W10041   9.358   6.696   8.960
 6298W        W10042  10.440   2.267  11.561
 6299W        W10043   1.611   0.827  11.903
 6300W        W10044   5.214   3.333  10.300
 6301W        W10045   3.777   7.398  11.883
 6302W        W10046  10.484   3.585  10.450
 6303W        W10047   1.922   0.049   0.046
 6304W        W10048   7.416   1.668   0.262
 6305W        W10049   7.418   9.288   0.679
 6306W        W10050   0.013   9.565   9.069
 6307W        W10051   7.822   6.976   2.424
 6308W        W10052   2.647   1.642   3.184
 6309W        W10053   7.018   0.707   2.091
 6310W        W10054  10.213   4.653   9.526
 6311W        W10055   7.945   5.652  11.296
 6312W        W10056   5.704   0.764   2.007
 6313W        W10057  10.070   5.614   8.491
 6314W        W10058   1.736   1.193  10.358
 6315W        W10059   9.437   1.593  11.808
 6316W        W10060   8.163   4.542  11.686
 6317W        W10061   1.612   8.949  10.934
 6318W        W10062   7.361   4.318  10.478
 6319W        W10063  10.487   1.906   0.981
 6320W        W10064   2.333   9.080   9.554
 6321W        W10065   6.778   5.079  10.606
 6322W        W10066   7.431   3.616  10.949
 6323W        W10067   8.916   7.479  11.411
 6324W        W10068   7.874   5.078   9.590
 6325W        W10069   7.436   4.231   2.181
 6326W        W10070   1.922   8.435   0.836
 6327W        W10071   4.556   0.693   9.565
 6328W        W10072   9.964   1.778  11.958
 6329W        W10073   3.666   9.109   9.519
 6330W        W10074   2.204   9.938  10.100
 6331W        W10075   4.834   1.769   2.450
 6332W        W10076   9.041   3.704   0.766
 6333W        W10077   0.438   3.147   1.956
 6334W        W10078  10.462   5.068   0.079
 6335W        W10079   8.885   6.483  11.208
 6336W        W10080   8.841   8.499   8.922
 6337W        W10081   1.469   7.009   2.285
 6338W        W10082   2.634   7.339   8.159
 6339W        W10083   0.299   7.638  11.374
 6340W        W10084   2.223  10.218   0.292
 6341W        W10085   4.078   1.836   1.723
 6342W        W10086   5.661   2.156   2.395
 6343W        W10087   7.561   7.477   9.453
 6344W        W10088   5.078   2.113   9.043
 6345W        W10089   9.046   6.197  11.982
 6346W        W10090   5.329   6.773   3.599
 6347W        W10091   9.345   3.870   9.615
 6348W        W10092   5.354   4.755  10.626
 6349W        W10093   2.173   9.835   1.935
 6350W        W10094   3.479   6.637   1.828
 6351W        W10095   6.649   3.273   9.631
 6352W        W10096   6.002   0.793   9.080
 6353W        W10097   1.677   1.849   3.332
 6354W        W10098   4.298  10.401   8.664
 6355W        W10099   4.604   7.617  11.965
 6356W        W10100   2.254   6.475  11.101
 6357W        W10101   1.005  10.441  11.052
 6358W        W10102   2.191   2.042  11.632
 6359W        W10103   2.361   3.332   1.863
 6360W        W10104   6.500   2.111   3.453
 6361W        W10105   5.120   6.906   1.823
 6362W        W10106   5.435   2.542   0.845
 6363W        W10107   1.870   6.724   8.827
 6364W        W10108   5.586   9.758   0.456
 6365W        W10109   1.871   2.286   1.861
 6366W        W10110   6.490   4.038  11.367
 6367W        W10111   5.061  10.364  10.270
 6368W        W10112   8.000   4.608   3.435
 6369W        W10113   8.546   3.197   8.703
 6370W        W10114   1.320  10.408   8.750
 6371W        W10115  10.392  10.028   9.563
 6372W        W10116   0.792   0.720   2.734
 6373W        W10117   5.980   9.062   1.224
 6374W        W10118   4.314   0.447   0.203
 6375W        W10119   1.075   4.722  10.997
 6376W        W10120   7.569   6.379  10.883
 6377W        W10121   0.429   5.657  10.504
 6378W        W10122   7.651   5.750   3.075
 6379W        W10123   3.985   9.631   2.418
 6380W        W10124   1.787   5.077   0.424
 6381W        W10125   1.646   7.587   9.213
 6382W        W10126   6.165   2.792   1.677
 6383W        W10127   3.186  10.194  10.021
 6384W        W10128   6.636   8.874  10.535
 6385W        W10129   8.897  10.388   3.261
 6386W        W10130   6.275   7.063   2.313
 6387W        W10131   1.410   2.296   3.268
 6388W        W10132   8.776  10.008  10.037
 6389W        W10133   1.579   1.194   0.388
 6390W        W10134   3.637   8.965   0.068
 6391W        W10135   5.933   7.176   8.688
 6392W        W10136   8.318   4.165  11.370
 6393W        W10137   7.578   6.921  10.928
 6394W        W10138   0.026   8.424   9.605
 6395W        W10139   8.318   0.968   2.434
 6396W        W10140   9.777   7.606  11.396
 6397W        W10141  10.259   2.224   9.502
 6398W        W10142   3.984   0.926   8.475
 6399W        W10143   6.566   0.446  11.045
 6400W        W10144   7.557   1.801   8.980
 6401W        W10145   8.453   1.786   9.134
 6402W        W10146   2.689   6.117  11.545
 6403W        W10147   0.854   6.995   3.014
 6404W        W10148  10.219   5.357   2.792
 6405W        W10149   3.571   0.955   9.608
 6406W        W10150   9.895   4.949   1.678
 6407W        W10151   8.128   7.083   9.958
 6408W        W10152   7.290   8.744  11.278
 6409W        W10153   1.890  10.007  11.953
 6410W        W10154   8.128   7.467   8.097
 6411W        W10155   4.623   8.492  10.833
 6412W        W10156   3.041   8.525   1.860
 6413W        W10157   9.788   6.521   2.669
 6414W        W10158   0.825   3.769  10.356
 6415W        W10159   1.364   6.746   1.281
 6416W        W10160   5.220   1.382   0.499
 6417W        W10161  10.421   4.156   0.304
 6418W        W10162   0.701   1.680  11.161
 6419W        W10163   3.668   4.618  10.271
 6420W        W10164   4.409   2.361   9.824
 6421W        W10165   3.874   2.182   2.985
 6422W        W10166   1.155   6.678  10.284
 6423W        W10167   8.798   7.982   8.834
 6424W        W10168   0.670   8.031   9.938
 6425W        W10169   8.478  10.033   9.273
 6426W        W10170   1.312   8.726   0.616
 6427W        W10171   5.541   2.858   8.675
 6428W        W10172   4.396   8.073   1.470
 6429W        W10173   8.267   3.247   2.954
 6430W        W10174  10.355   5.158   1.509
 6431W        W10175   3.563   1.848   1.716
 6432W        W10176   0.972   6.905  11.590
 6433W        W10177   8.326   2.147   0.790
 6434W        W10178   4.607   5.990  10.949
 6435W        W10179   8.303   8.883  11.349
 6436W        W10180   1.879   9.894   2.677
 6437W        W10181   7.196   1.353  10.800
 6438W        W10182   4.634   9.622   1.851
 6439W        W10183   7.640   0.039   2.690
 6440W        W10184   6.949   6.302   0.495
 6441W        W10185   2.980   6.446   0.237
 6442W        W10186   5.123   7.161   3.316
 6443W        W10187   4.259  10.317  10.940
 6444W        W10188   0.699  10.452   2.368
 6445W        W10189   5.339   8.804   2.911
 6446W        W10190   6.069   4.212   8.402
 6447W        W10191   3.341   0.503   9.036
 6448W        W10192   0.841   4.349   1.223
 6449W        W10193   1.685   1.349  11.866
 6450W        W10194   0.554   6.639  11.473
 6451W        W10195   0.506   2.431   9.467
 6452W        W10196   8.135  10.035  11.751
 6453W        W10197   5.123   2.854  10.431
 6454W        W10198  10.467   3.775  10.950
 6455W        W10199   8.050   1.948   1.404
 6456W        W10200   6.730   2.708  10.854
 6457W        W10201   2.294   8.088   0.948
 6458W        W10202   3.174   6.631  10.843
 6459W        W10203   1.878   8.984  11.373
 6460W        W10204   6.689   9.835  10.920
 6461W        W10205   4.244   2.011  11.579
 6462W        W10206   1.650   7.016   0.510
 6463W        W10207   8.960   3.132  11.537
 6464W        W10208   1.340   0.238   1.452
 6465W        W10209   4.664   3.569   3.948
 6466W        W10210   2.344   8.748  11.343
 6467W        W10211   2.783   2.390   1.916
 6468W        W10212   1.400   5.710   0.930
 6469W        W10213   9.131   4.152  10.032
 6470W        W10214   9.823   2.309   9.260
 6471W        W10215   0.554   2.735  10.515
 6472W        W10216   0.869   2.166   2.724
 6473W        W10217   0.939   5.703   2.229
 6474W        W10218   4.859   8.654   1.199
 6475W        W10219   7.575   0.459   1.749
 6476W        W10220   2.157   6.015   0.860
 6477W        W10221   9.322   6.866   9.447
 6478W        W10222   7.069   9.744   9.480
 6479W        W10223   3.247   5.771   1.428
 6480W        W10224   8.430   4.122   1.877
 6481W        W10225   2.283   0.946   9.148
 6482W        W10226   2.416   4.525  10.799
 6483W        W10227   1.796   9.501  11.867
 6484W        W10228   4.347   8.429   8.555
 6485W        W10229   6.031   2.551   2.728
 6486W        W10230   7.254   0.414  10.939
 6487W        W10231   0.169  10.262   1.408
 6488W        W10232   0.244  10.209   2.198
 6489W        W10233   1.323   4.774   0.660
 6490W        W10234   8.070   9.772   1.902
 6491W        W10235   8.895   3.002   1.956
 6492W        W10236   7.429   9.485   1.168
 6493W        W10237   6.267   9.625   9.550
 6494W        W10238   3.595   9.372   9.949
 6495W        W10239   1.681   2.454   1.388
 6496W        W10240   7.360   7.047   9.657
 6497W        W10241   4.237   7.468   9.474
 6498W        W10242   1.916   7.249   2.405
 6499W        W10243   6.407   7.412   0.900
 6500W        W10244   1.405   9.368   8.724
 6501W        W10245   4.611   4.144   1.699
 6502W        W10246   6.662   9.519   9.868
 6503W        W10247   0.531   5.488   3.145
 6504W        W10248   2.274  10.307  11.766
 6505W        W10249   6.039   1.390   1.441
 6506W        W10250   6.205   5.201   0.504
 6507W        W10251   5.288   6.118   8.242
 6508W        W10252   0.906   3.873  11.266
 6509W        W10253   3.073   7.598   1.387
 6510W        W10254   7.515   5.272  11.916
 6511W        W10255   5.718   1.288  11.276
 6512W        W10256   7.834   2.246   1.828
 6513W        W10257   4.487   7.704   3.235
 6514W        W10258   3.808   4.527  10.773
 6515W        W10259   9.546   5.651  10.645
 6516W        W10260   5.989   2.196   1.783
 6517W        W10261   2.129   7.469   8.985
 6518W        W10262   0.199   7.339   1.552
 6519W        W10263   2.000   6.038   0.348
 6520W        W10264   5.656   4.358  10.508
 6521W        W10265   2.238   8.196   3.094
 6522W        W10266   7.465   1.381   2.180
 6523W        W10267   2.379   3.256   8.897
 6524W        W10268   6.443   5.697   1.398
 6525W        W10269   5.090   9.970   0.432
 6526W        W10270   4.680   2.333   2.398
 6527W        W10271  10.051   9.550   0.687
 6528W        W10272   4.187   7.664   2.313
 6529W        W10273   8.965   6.716   9.770
 6530W        W10274   7.890   8.455  10.400
 6531W        W10275   8.146   3.655   1.915
 6532W        W10276   8.345   5.257  11.378
 6533W        W10277   3.287   2.325   1.821
 6534W        W10278   0.347   9.469  11.725
 6535W        W10279   5.967   3.312   0.428
 6536W        W10280   3.833   6.540   1.455
 6537W        W10281   5.587   7.548   2.367
 6538W        W10282   7.466   6.049   0.327
 6539W        W10283   6.564   9.858  10.273
 6540W        W10284   7.383   0.654   0.308
 6541W        W10285   0.838   7.344   1.740
 6542W        W10286   5.072   3.738   3.679
 6543W        W10287   1.012   9.493   0.870
 6544W        W10288   5.049   5.142   2.411
 6545W        W10289   5.154   6.549   3.148
 6546W        W10290   4.753   6.255  11.388
 6547W        W10291   9.157   7.447   3.891
 6548W        W10292  10.315   4.132  11.715
 6549W        W10293   3.588   2.702   9.001
 6550W        W10294   2.098   5.118   0.836
 6551W        W10295   7.030   0.650   3.513
 6552W        W10296   1.793   9.997   3.198
 6553W        W10297   6.712   1.712  11.455
 6554W        W10298   1.202   5.151  10.768
 6555W        W10299   9.941   0.745   2.659
 6556W        W10300   0.696   9.373   3.298
 6557W        W10301   6.090   9.167  10.488
 6558W        W10302   7.410   1.170   0.337
 6559W        W10303   9.921   2.663   1.318
 6560W        W10304   9.730   4.276   2.653
 6561W        W10305   9.075   6.535   1.654
 6562W        W10306   8.836   3.094   2.966
 6563W        W10307   3.702   2.277   9.247
 6564W        W10308   1.287   6.263   9.960
 6565W        W10309   0.307  10.004   2.653
 6566W        W10310   8.982   0.751   8.493
 6567W        W10311   8.494   3.183  11.367
 6568W        W10312  10.358   0.399  10.483
 6569W        W10313   5.087   5.116   2.922
 6570W        W10314   6.477   0.840   9.834
 6571W        W10315   9.424   9.023   9.235
 6572W        W10316   8.953   5.527  10.253
 6573W        W10317  10.487   7.158  11.726
 6574W        W10318   3.847   1.888   2.180
 6575W        W10319   4.400   8.219   3.191
 6576W        W10320   7.948   8.381   1.194
 6577W        W10321   5.577   2.737   2.945
 6578W        W10322   5.189   4.013  11.250
 6579W        W10323   7.978   7.888   0.353
 6580W        W10324   7.167   9.674  11.021
 6581W        W10325   7.602   4.956   2.751
 6582W        W10326   5.693  10.416   9.433
 6583W        W10327   0.053   7.661   1.118
 6584W        W10328   6.218   1.585  11.507
 6585W        W10329   0.482   9.279   9.664
 6586W        W10330   0.471  10.401   1.785
 6587W        W10331   5.670   2.294   3.456
 6588W        W10332   8.363   4.953   3.485
 6589W        W10333   0.826   4.859   1.010
 6590W        W10334   4.613   1.322   3.138
 6591W        W10335   5.508   0.861   9.011
 6592W        W10336   5.119   7.571   4.019
 6593W        W10337   6.127   1.936   2.288
 6594W        W10338   2.273   2.447   2.850
 6595W        W10339   5.276   1.888   3.380
 6596W        W10340   8.682   6.927   0.194
 6597W        W10341   9.487   0.465   2.781
 6598W        W10342   9.394   3.084  11.781
 6599W        W10343   0.919   4.209   8.428
 6600W        W10344   4.792   5.600   0.797
 6601W        W10345   2.367   8.071   9.289
 6602W        W10346   4.989   5.627   2.153
 6603W        W10347  10.025   7.899  11.718
 6604W        W10348  10.215   8.660   8.716
 6605W        W10349   6.699   8.062   0.989
 6606W        W10350   1.285   9.458   9.752
 6607W        W10351   0.658   4.344  10.360
 6608W        W10352   5.564   3.080   4.081
 6609W        W10353   1.491   6.305  10.452
 6610W        W10354   8.217   4.155   8.180
 6611W        W10355   6.913   4.794  11.372
 6612W        W10356   0.071   8.829   1.221
 6613W        W10357   7.675   4.110   8.850
 6614W        W10358   9.029   5.255   1.471
 6615W        W10359   0.920   9.313   8.915
 6616W        W10360   6.926   8.869   2.346
 6617W        W10361   3.076   3.705   8.788
 6618W        W10362   4.135   2.633  10.141
 6619W        W10363   4.355   1.926   2.317
 6620W        W10364   0.338   9.086   3.005
 6621W        W10365   1.841   4.120  11.238
 6622W        W10366   9.298   7.039   0.949
 6623W        W10367   6.120   0.408   1.985
 6624W        W10368   7.466   3.773   1.201
 6625W        W10369   0.776   8.119   1.537
 6626W        W10370   5.594   3.865  10.506
 6627W        W10371  10.283   8.705   9.229
 6628W        W10372   8.086  10.294   2.738
 6629W        W10373   2.328   5.271   9.136
 6630W        W10374   8.558   6.117  11.832
 6631W        W10375   4.776   7.973   1.835
 6632W        W10376   2.342   5.037   8.647
 6633W        W10377   0.318   2.133  10.290
 6634W        W10378   6.418   6.524   9.380
 6635W        W10379   6.111  10.187  10.401
 6636W        W10380   8.884   0.386   9.659
 6637W        W10381   1.900   7.846   3.240
 6638W        W10382   2.616   6.076   2.379
 6639W        W10383   5.207   2.894   1.124
 6640W        W10384   2.800   1.515  11.202
 6641W        W10385   3.486   1.039  10.961
 6642W        W10386   5.512   3.844   3.446
 6643W        W10387  10.067   3.405  11.788
 6644W        W10388   3.086   9.001   1.243
 6645W        W10389   1.692   8.039  10.991
 6646W        W10390   8.765   5.987  10.452
 6647W        W10391   7.981   5.892  10.010
 6648W        W10392   3.519   1.926  11.029
 6649W        W10393   5.274   9.047   3.406
 6650W        W10394   9.340   9.871  11.637
 6651W        W10395   4.971   9.717   9.496
 6652W        W10396   3.389   5.942  11.344
 6653W        W10397   8.506   1.002  10.015
 6654W        W10398   5.250   2.632  10.927
 6655W        W10399   7.972   9.881   1.350
 6656W        W10400   4.871   7.805   2.764
 6657W        W10401   1.422   1.332  10.787
 6658W        W10402   4.212   8.693   2.310
 6659W        W10403   6.511   2.744   0.394
 6660W        W10404   2.233   5.623  10.951
 6661W        W10405   5.992   5.161  10.641
 6662W        W10406   1.464   9.733   0.846
 6663W        W10407   7.364   2.843   3.232
 6664W        W10408   1.906   5.395   1.247
 6665W        W10409   4.599   9.453  11.440
 6666W        W10410  10.098   0.015  10.972
 6667W        W10411   7.418   0.330  11.801
 6668W        W10412   3.687   5.852  10.944
 6669W        W10413   0.775   0.814   1.772
 6670W        W10414   3.996   1.803   2.662
 6671W        W10415  10.080   3.644   9.404
 6672W        W10416   9.450   6.009  11.755
 6673W        W10417   4.014   0.094   0.437
 6674W        W10418   7.942   9.231   1.866
 6675W        W10419   7.491   3.559  11.478
 6676W        W10420   6.210   4.660   2.604
 6677W        W10421  10.228   7.454   1.451
 6678W        W10422   8.037   1.310  10.629
 6679W        W10423   6.703   3.890   2.782
 6680W        W10424   2.584   9.920  10.491
 6681W        W10425   9.447   2.072   9.627
 6682W        W10426   0.228   0.663   1.835
 6683W        W10427   8.932   6.069   1.850
 6684W        W10428   4.610   5.964   9.841
 6685W        W10429   7.045   6.032   2.607
 6686W        W10430   1.451   6.247   9.480
 6687W        W10431   2.806   1.888   2.172
 6688W        W10432   7.321   2.332  10.264
 6689W        W10433   3.358   6.323  10.483
 6690W        W10434   0.806   4.091  10.772
 6691W        W10435   9.640   5.900   9.078
 6692W        W10436   8.565   6.596   2.873
 6693W        W10437   2.131   0.462   1.803
 6694W        W10438   9.392  10.278   1.648
 6695W        W10439   9.818   8.155   1.231
 6696W        W10440   6.336   9.114   9.622
 6697W        W10441   3.210   8.765   8.720
 6698W        W10442   1.760   2.641   2.772
 6699W        W10443   9.325   8.486   0.764
 6700W        W10444   4.301   0.230   3.223
 6701W        W10445   2.217   5.243   2.380
 6702W        W10446   1.777   0.698   9.815
 6703W        W10447   3.048   2.295  11.607
 6704W        W10448   2.549   4.021   8.491
 6705W        W10449   8.011   9.582  11.929
 6706W        W10450   5.047   0.795  10.393
 6707W        W10451   9.293   3.039   2.297
 6708W        W10452   1.516   8.444   9.733
 6709W        W10453   2.695   4.196   1.008
 6710W        W10454  10.370   1.277   9.478
 6711W        W10455   7.169   0.247   2.629
 6712W        W10456   1.385   6.979  11.234
 6713W        W10457   5.891   5.745   1.955
 6714W        W10458   2.717   7.016   1.338
 6715W        W10459   2.189   1.443  10.455
 6716W        W10460   4.945   4.582  11.962
 6717W        W10461   4.251   3.289   9.492
 6718W        W10462   8.049   0.183  10.069
 6719W        W10463   8.972   8.418   1.560
 6720W        W10464   6.670   2.749   1.451
 6721W        W10465   4.377   8.762   0.372
 6722W        W10466   2.360   9.024   2.516
 6723W        W10467   1.259   0.922   1.635
 6724W        W10468   7.129   5.700  11.110
 6725W        W10469   8.367   2.363   3.018
 6726W        W10470  10.133  10.427   9.338
 6727W        W10471   1.204   9.534   2.644
 6728W        W10472   2.635   2.848   9.879
 6729W        W10473   3.337   7.649  10.796
 6730W        W10474   0.995   1.071   9.752
 6731W        W10475   3.878   8.710   0.429
 6732W        W10476   6.080  10.184  11.833
 6733W        W10477   5.234   9.053   2.478
 6734W        W10478   5.179   2.403   2.258
 6735W        W10479   7.075   6.206   1.828
 6736W        W10480   1.333   0.202   3.286
 6737W        W10481   4.988   7.635   3.517
 6738W        W10482   5.208   5.679   9.818
 6739W        W10483   7.671   3.280   3.609
 6740W        W10484  10.152   0.297   2.172
 6741W        W10485   6.514   9.265   1.564
 6742W        W10486   5.097   9.978   9.947
 6743W        W10487   3.764   0.512   1.474
 6744W        W10488   5.724   5.047   0.000
 6745W        W10489   4.198   1.902   9.753
 6746W        W10490   8.057   5.238   0.689
 6747W        W10491   2.171   4.279   8.964
 6748W        W10492   7.059   3.303   9.911
 6749W        W10493   7.031   0.561   9.115
 6750W        W10494   5.648   7.339  10.099
 6751W        W10495   5.928   0.884  11.015
 6752W        W10496   4.973   7.057   8.540
 6753W        W10497   1.724   0.459   3.472
 6754W        W10498   5.534   5.996  11.878
 6755W        W10499   7.477   5.912   9.871
 6756W        W10500   9.257   4.179   9.146
 6757W        W10501   4.717   2.745   3.647
 6758W        W10502   5.160   5.193   3.434
 6759W        W10503   3.410   3.316   0.315
 6760W        W10504   0.884   4.579   9.965
 6761W        W10505   2.819   6.159   9.979
 6762W        W10506   8.295   5.066  10.532
 6763W        W10507   2.339   9.458   1.114
 6764W        W10508   6.222   0.869   3.176
 6765W        W10509   7.956   4.060   1.643
 6766W        W10510   1.734   7.419   3.505
 6767W        W10511   8.936   8.953   9.132
 6768W        W10512   5.135   4.021   1.889
 6769W        W10513  10.254   0.045  11.860
 6770W        W10514   7.926   6.102   0.520
 6771W        W10515   1.850   4.667   1.882
 6772W        W10516   9.911   8.606   2.013
 6773W        W10517   0.594   5.489   9.332
 6774W        W10518   4.035   2.762  10.995
 6775W        W10519   4.719   1.537   9.419
 6776W        W10520   8.738   0.021  10.026
 6777W        W10521   1.355   5.913   9.079
 6778W        W10522   0.423   3.975  11.464
 6779W        W10523   1.313   7.507   1.672
 6780W        W10524   7.997   2.793   9.234
 6781W        W10525   4.946   1.004  10.848
 6782W        W10526   4.091  10.414  10.451
 6783W        W10527   2.659   2.895   1.775
 6784W        W10528   3.214   3.629   9.295
 6785W        W10529   3.552   3.148   2.742
 6786W        W10530   6.597   8.003  10.769
 6787W        W10531   0.315   5.028   2.374
 6788W        W10532   7.029   6.455   2.277
 6789W        W10533   8.314   8.422  10.098
 6790W        W10534   0.426   3.742   9.039
 6791W        W10535   9.715   2.311  10.808
 6792W        W10536   2.227   2.936  10.181
 6793W        W10537   0.729   4.876  11.338
 6794W        W10538   2.233   1.969   2.649
 6795W        W10539   0.996   5.459   2.715
 6796W        W10540   3.596   5.350   1.294
 6797W        W10541   5.651   0.497   8.672
 6798W        W10542   5.659   0.397  10.169
 6799W        W10543   5.543   7.994   0.775
 6800W        W10544   5.238   0.784   1.161
 6801W        W10545   1.276   4.645   1.158
 6802W        W10546   1.467   6.598   0.791
 6803W        W10547   5.607   8.562   9.159
 6804W        W10548   4.336   2.184   2.754
 6805W        W10549   9.582   5.128  11.838
 6806W        W10550   0.696   0.323   0.976
 6807W        W10551   9.477   1.393   0.616
 6808W        W10552   6.442   3.675   9.419
 6809W        W10553   5.027   8.184   2.388
 6810W        W10554   9.519   1.424   3.007
 6811W        W10555   3.287   7.394   0.732
 6812W        W10556   7.968   3.829   8.525
 6813W        W10557   5.772   1.762   3.515
 6814W        W10558   8.447   0.837  10.549
 6815W        W10559   0.205   2.042   9.337
 6816W        W10560   3.836   7.589   8.873
 6817W        W10561   0.979   6.589  11.197
 6818W        W10562   6.359   8.781   1.664
 6819W        W10563   7.063   8.159  11.028
 6820W        W10564   0.326   9.749   9.601
 6821W        W10565   8.365   4.595   9.875
 6822W        W10566   2.106  10.379   2.700
 6823W        W10567   5.552   1.668  10.029
 6824W        W10568   0.493  10.428   3.215
 6825W        W10569   5.069   7.461   0.065
 6826W        W10570   2.661  10.332   9.499
 6827W        W10571   3.743   7.163   0.335
 6828W        W10572   4.039   5.679   1.379
 6829W        W10573   4.057   5.795   0.554
 6830W        W10574   1.390   0.440   8.647
 6831W        W10575   4.743   8.579   3.048
 6832W        W10576   9.051   5.380   2.345
 6833W        W10577   4.742   6.467   9.916
 6834W        W10578   8.483   9.841   1.530
 6835W        W10579   1.368   4.693   2.671
 6836W        W10580   1.669   5.509  10.182
 6837W        W10581   6.371   4.639   1.010
 6838W        W10582   3.016   7.695   8.166
 6839W        W10583   7.356   6.186   1.283
 6840W        W10584   6.897   1.295   9.346
 6841W        W10585   0.865   8.818  11.387
 6842W        W10586   3.065   0.305  11.342
 6843W        W10587   5.105   5.219  10.605
 6844W        W10588   3.499   0.018   2.315
 6845W        W10589   3.682  10.355   1.252
 6846W        W10590   9.013   2.707   9.713
 6847W        W10591   7.048   9.416   0.350
 6848W        W10592   7.662   8.376   1.917
 6849W        W10593   2.840   6.407   0.721
 6850W        W10594   5.762   0.921   3.518
 6851W        W10595   3.165   5.515   9.254
 6852W        W10596   6.198   3.462  10.347
 6853W        W10597   2.155   6.303   2.334
 6854W        W10598   6.483   9.718   0.600
 6855W        W10599   1.859   3.633   3.296
 6856W        W10600   2.668   9.995   0.424
 6857W        W10601   1.778   0.905  10.811
 6858W        W10602   4.178   1.419   1.290
 6859W        W10603   3.468   9.047  11.615
 6860W        W10604   1.067   2.742  10.701
 6861W        W10605   0.761   6.020   9.020
 6862W        W10606   0.529   8.706   0.451
 6863W        W10607   7.736   7.873   1.869
 6864W        W10608   8.953   9.354   2.978
 6865W        W10609   6.306   7.554   2.148
 6866W        W10610   0.402   6.386   1.301
 6867W        W10611   9.800   4.930   0.259
 6868W        W10612  10.233  10.061  10.381
 6869W        W10613   6.484   3.186   0.045
 6870W        W10614   0.688   1.281   2.329
 6871W        W10615   6.938   2.202   2.708
 6872W        W10616   6.721   5.226   2.170
 6873W        W10617   7.947   8.399   8.785
 6874W        W10618   3.208   4.471   0.772
 6875W        W10619   0.762   6.291   0.389
 6876W        W10620   1.498   2.458   0.584
 6877W        W10621   7.092   4.730   8.618
 6878W        W10622   6.822   7.084  10.437
 6879W        W10623   1.361   6.396   8.984
 6880W        W10624   2.332   8.991   2.008
 6881W        W10625   9.822   4.242   1.231
 6882W        W10626   9.570   8.477   9.929
 6883W        W10627   8.813   0.429  11.125
 6884W        W10628   2.089   6.904  10.505
 6885W        W10629   3.865   5.722  11.428
 6886W        W10630   1.990   7.634  10.886
 6887W        W10631   9.855   8.365   0.752
 6888W        W10632   4.501   4.532   1.992
 6889W        W10633   4.924  10.453   2.494
 6890W        W10634   9.734   7.933   9.828
 6891W        W10635   7.696   1.331  11.938
 6892W        W10636   7.572   9.123  10.248
 6893W        W10637  10.400   2.488   1.418
 6894W        W10638   0.491   0.722  10.453
 6895W        W10639   2.125   6.469   0.107
 6896W        W10640   4.172   9.792   1.973
 6897W        W10641   7.997   8.848  10.087
 6898W        W10642   2.248   6.900  11.500
 6899W        W10643   7.076   4.492   2.428
 6900W        W10644   4.647   4.093   2.720
 6901W        W10645   8.987   0.336   2.849
 6902W        W10646   9.040   1.842   1.182
 6903W        W10647   9.436   2.727  10.905
 6904W        W10648   0.370   7.119  11.396
 6905W        W10649   6.997   3.629   1.055
 6906W        W10650   3.012   0.170   8.769
 6907W        W10651   9.836   9.944   2.379
 6908W        W10652   9.602   8.148   9.370
 6909W        W10653   5.030   4.110   1.410
 6910W        W10654   9.706   9.235   0.857
 6911W        W10655   6.512   1.237   0.387
 6912W        W10656   1.423   7.369   0.154
 6913W        W10657  10.114   9.065   2.186
 6914W        W10658  10.417   6.932   1.693
 6915W        W10659   2.529   0.489   8.954
 6916W        W10660   0.415   1.179   1.839
 6917W        W10661   3.323   7.585  11.787
 6918W        W10662   8.801   0.889   2.259
 6919W        W10663   4.103   4.530   3.206
 6920W        W10664   8.806   1.228   3.615
 6921W        W10665   2.812   5.557   1.239
 6922W        W10666   8.483   6.200  10.833
 6923W        W10667   9.429   7.490   1.753
 6924W        W10668   1.659   5.076  10.455
 6925W        W10669   5.568   2.261  11.691
 6926W        W10670   2.714  10.433  10.025
 6927W        W10671   9.067   9.017   9.644
 6928W        W10672   7.233   4.101   3.779
 6929W        W10673   3.881   1.046  11.427
 6930W        W10674   2.619   1.632  10.714
 6931W        W10675   0.654   5.849   2.778
 6932W        W10676   7.626   9.131   1.499
 6933W        W10677   5.939   9.943   8.622
 6934W        W10678   6.828   6.146   3.089
 6935W        W10679   6.405   2.339   9.353
 6936W        W10680   6.329   4.340  10.028
 6937W        W10681   7.172   0.926  10.488
 6938W        W10682   7.900   0.844  11.234
 6939W        W10683   3.089   3.221   1.164
 6940W        W10684   8.355   1.420   1.685
 6941W        W10685   9.113   0.787  11.934
 6942W        W10686   7.891   1.244   0.987
 6943W        W10687   5.329   5.690   0.680
 6944W        W10688   4.557   5.150   0.629
 6945W        W10689   9.672   3.161  10.685
 6946W        W10690   3.869   4.913   1.368
 6947W        W10691   8.809   0.403  11.627
 6948W        W10692   2.591   2.455   1.285
 6949W        W10693   9.417  10.023   1.186
 6950W        W10694   5.261   7.003  11.988
 6951W        W10695   5.844   6.782   3.704
 6952W        W10696   9.443   2.997   9.919
 6953W        W10697   9.046   4.062  11.871
 6954W        W10698   6.918   2.422   0.768
 6955W        W10699   4.850   2.144   1.953
 6956W        W10700   2.471   8.326   8.256
 6957W        W10701  10.006   6.867  10.913
 6958W        W10702   1.755   7.682   1.518
 6959W        W10703   2.837   9.933  10.929
 6960W        W10704   1.119   7.189   1.340
 6961W        W10705   1.925   7.447   0.416
 6962W        W10706  10.200   3.140  10.345
 6963W        W10707   4.587   1.643  11.525
 6964W        W10708   3.562   6.349  11.026
 6965W        W10709   7.217   6.590   8.875
 6966W        W10710   2.350   8.725   0.405
 6967W        W10711   0.285   9.691   2.254
 6968W        W10712   2.330   7.460   0.756
 6969W        W10713   0.182   2.681  11.806
 6970W        W10714   6.030   8.193  11.994
 6971W        W10715   9.319   1.750  11.335
 6972W        W10716   5.009   0.514  10.945
 6973W        W10717   9.754   6.786   8.637
 6974W        W10718   1.695   7.856   0.266
 6975W        W10719   7.961   9.843   2.434
 6976W        W10720   4.794   1.621   8.344
 6977W        W10721  10.006   1.438   1.728
 6978W        W10722   6.426   8.016   9.811
 6979W        W10723  10.429   5.617  10.504
 6980W        W10724   7.086   9.916   1.264
 6981W        W10725   3.049   4.603   9.017
 6982W        W10726   5.318   2.880   2.078
 6983W        W10727   1.199   8.001   0.855
 6984W        W10728   8.965   3.957   2.878
 6985W        W10729   1.270   1.945  11.333
 6986W        W10730   7.081   1.165   2.456
 6987W        W10731   6.014   1.592   2.752
 6988W        W10732   5.732   9.073   3.122
 6989W        W10733   0.490   3.078   0.730
 6990W        W10734   8.599   2.263   1.542
 6991W        W10735   4.382   1.208  11.968
 6992W        W10736   8.947   6.993   8.950
 6993W        W10737   5.181   3.052   3.036
 6994W        W10738   5.822   1.392  11.774
 6995W        W10739   3.267   6.651   1.072
 6996W        W10740   0.421   7.602  10.040
 6997W        W10741   8.948   7.830   1.233
 6998W        W10742   0.564   0.873   3.216
 6999W        W10743   7.060   1.754   2.477
 7000W        W10744   0.173   9.926  11.414
 7001W        W10745   0.776   4.164   0.209
 7002W        W10746  10.464   2.929   2.137
 7003W        W10747   8.051   3.747  10.299
 7004W        W10748   7.088  10.389  10.448
 7005W        W10749   7.941   5.657  10.735
 7006W        W10750   7.679   3.590   0.351
 7007W        W10751   9.826   7.868   0.704
 7008W        W10752   3.275   9.276   0.276
 7009W        W10753   0.014   3.212  11.867
 7010W        W10754   9.500  10.022   0.283
 7011W        W10755   3.159   4.599   8.170
 7012W        W10756   3.398   4.448   3.158
 7013W        W10757   0.986   3.817   2.748
 7014W        W10758   9.167  10.335   9.813
 7015W        W10759   2.614   6.481   1.661
 7016W        W10760   1.394   9.785   1.373
 7017W        W10761   4.258   0.487   2.242
 7018W        W10762   9.997   6.698   1.417
 7019W        W10763   4.948   7.133   3.790
 7020W        W10764   3.836   9.050  11.240
 7021W        W10765   4.614   0.905   2.263
 7022W        W10766   0.673   9.994   9.956
 7023W        W10767   3.170   7.159  10.826
 7024W        W10768   5.776   4.669  10.910
 7025W        W10769   7.326   0.853   1.108
 7026W        W10770   4.667   6.480   0.792
 7027W        W10771   5.423   5.417   0.221
 7028W        W10772  10.324   0.797  10.185
 7029W        W10773   6.934  10.250   9.470
 7030W        W10774   3.791   1.455  10.897
 7031W        W10775   9.893   4.069   0.383
 7032W        W10776   2.848   6.659   9.811
 7033W        W10777   2.366   8.526  10.881
 7034W        W10778   9.794   3.590   0.762
 7035W        W10779   5.186   9.824   2.975
 7036W        W10780   9.203   7.444   3.393
 7037W        W10781   4.724   3.632   2.956
 7038W        W10782   9.841   6.377  10.925
 7039W        W10783   2.649   1.658   2.612
 7040W        W10784   0.361   3.591  10.089
 7041W        W10785   7.546   4.446   2.668
 7042W        W10786   2.201   2.880   2.037
 7043W        W10787   1.575   3.666   1.382
 7044W        W10788   8.981   8.354  10.836
 7045W        W10789   1.783   3.148  10.456
 7046W        W10790   7.262   3.353   3.280
 7047W        W10791   1.851   8.864   9.583
 7048W        W10792   7.358   4.536  11.520
 7049W        W10793   2.222   5.560   1.905
 7050W        W10794   8.086   1.583  11.061
 7051W        W10795   2.645   4.671  10.026
 7052W        W10796   2.926  10.233   1.697
 7053W        W10797   8.979   1.802   9.829
 7054W        W10798   6.079   3.309   9.411
 7055W        W10799  10.083   0.413   9.080
 7056W        W10800   6.209   0.631   3.616
 7057W        W10801  10.329   1.388  10.471
 7058W        W10802   3.581   9.948  11.528
 7059W        W10803   5.007   9.949  11.205
 7060W        W10804   7.570   5.031   1.850
 7061W        W10805   8.686   3.674   9.032
 7062W        W10806   6.270   0.847  10.372
 7063W        W10807   2.503   4.017   9.412
 7064W        W10808   8.523   3.371  11.997
 7065W        W10809   3.772   0.299   3.037
 7066W        W10810   9.718   0.358  10.801
 7067W        W10811   6.935   5.987  10.642
 7068W        W10812   0.890   3.845   1.842
 7069W        W10813   8.134   4.627  10.327
 7070W        W10814   1.277   3.808   2.318
 7071W        W10815   6.991   8.314   9.753
 7072W        W10816  10.052   1.826  10.440
 7073W        W10817  10.266   6.008   1.756
 7074W        W10818   5.876   0.703   2.802
 7075W        W10819   0.990   8.971   3.473
 7076W        W10820   4.077   4.092  10.802
 7077W        W10821   4.704   8.609   1.689
 7078W        W10822  10.452   3.700   3.202
 7079W        W10823   1.659   1.951   1.488
 7080W        W10824   6.631   6.206   4.036
 7081W        W10825   8.624   1.737   0.877
 7082W        W10826   0.164   0.842   0.569
 7083W        W10827   0.994   4.664   0.268
 7084W        W10828   0.155   2.167   2.299
 7085W        W10829   1.797   7.148  10.882
 7086W        W10830   8.931   7.476  10.329
 7087W        W10831   8.559   2.140  11.465
 7088W        W10832   6.543   0.977  11.941
 7089W        W10833   9.681   8.958  11.108
 7090W        W10834   2.792   9.570  11.669
 7091W        W10835   7.802   6.581   0.659
 7092W        W10836   8.496   3.703  11.539
 7093W        W10837   0.358   5.025   1.375
 7094W        W10838   3.632   4.091  11.037
 7095W        W10839   6.169   7.059  10.958
 7096W        W10840   0.808   2.208   1.739
 7097W        W10841   2.391   3.781   1.633
 7098W        W10842   0.519   1.863   3.428
 7099W        W10843   8.395   7.416  11.431
 7100W        W10844   7.601   3.762   2.053
 7101W        W10845   6.611   1.223  11.504
 7102W        W10846   2.783   7.351   2.861
 7103W        W10847   0.622   4.607  10.799
 7104W        W10848   0.807   0.935   8.736
 7105W        W10849   6.255   4.949   0.045
 7106W        W10850   3.958   2.092  11.994
 7107W        W10851   2.870  10.325   3.092
 7108W        W10852   5.840   0.477   3.256
 7109W        W10853   2.192   8.710   8.488
 7110W        W10854   1.466   1.269   3.189
 7111W        W10855   0.147   8.936  10.902
 7112W        W10856   1.089   0.915   3.114
 7113W        W10857   3.276   4.146   8.983
 7114W        W10858   8.614   1.353   0.364
 7115W        W10859   6.596   6.513   0.892
 7116W        W10860   7.413   2.257  10.863
 7117W        W10861   3.410  10.268   1.859
 7118W        W10862   9.350   1.827   0.249
 7119W        W10863   6.262   7.872   0.792
 7120W        W10864   2.699   0.565   0.222
 7121W        W10865   5.769   4.922   0.486
 7122W        W10866   6.408   8.981  10.989
 7123W        W10867   6.254   0.376   9.967
 7124W        W10868   3.116   9.301  11.387
 7125W        W10869   6.525  10.397   9.129
 7126W        W10870   6.844   4.349  10.088
 7127W        W10871  10.013   2.090   8.831
 7128W        W10872   7.573   2.223   9.297
 7129W        W10873   1.318   7.961   9.051
 7130W        W10874   8.590   1.275   8.953
 7131W        W10875   7.879   3.852   9.256
 7132W        W10876   4.283   1.806   9.253
 7133W        W10877  10.411   4.823   3.609
 7134W        W10878   9.991   1.873   2.498
 7135W        W10879   2.575   9.007   1.172
 7136W        W10880   3.703   7.588  10.286
 7137W        W10881   8.395   3.733   9.927
 7138W        W10882   2.867   2.396   9.844
 7139W        W10883  10.348   1.621   8.631
 7140W        W10884   6.574   1.947   2.040
 7141W        W10885   4.083   7.814   0.313
 7142W        W10886   0.806   3.300   8.987
 7143W        W10887   3.581   5.505   9.872
 7144W        W10888   1.773  10.404   9.518
 7145W        W10889   9.912   0.168   0.858
 7146W        W10890   5.997   0.908   8.586
 7147W        W10891   7.269   7.757  11.958
 7148W        W10892   6.754   2.691   2.301
 7149W        W10893   3.682   0.831  10.537
 7150W        W10894   2.330   8.116   3.576
 7151W        W10895   8.326   3.679   9.420
 7152W        W10896   7.913   3.229   2.108
 7153W        W10897   0.956   3.210   1.850
 7154W        W10898   7.435   8.629  10.490
 7155W        W10899   0.811   0.633   9.584
 7156W        W10900   9.093   1.924  10.329
 7157W        W10901   9.090   9.290   1.363
 7158W        W10902   4.334   2.899  10.518
 7159W        W10903   8.586   1.254   1.251
 7160W        W10904   6.965   2.653   3.509
 7161W        W10905   4.131   6.123   9.634
 7162W        W10906   2.308  10.329  11.261
 7163W        W10907   2.936   3.260   9.947
 7164W        W10908   9.035   1.266  11.721
 7165W        W10909   1.856   0.188  10.540
 7166W        W10910   1.064   2.647   3.422
 7167W        W10911   9.538   2.615  11.978
 7168W        W10912   7.120   4.193   2.858
 7169W        W10913   0.688   6.028  10.719
 7170W        W10914   6.538   1.935  11.915
 7171W        W10915   2.639   4.068  10.916
 7172W        W10916   8.286   6.967   2.622
 7173W        W10917   0.940   8.501   0.925
 7174W        W10918   1.426   0.278   9.542
 7175W        W10919   1.534   5.069   9.335
 7176W        W10920   4.080   4.369   0.578
 7177W        W10921   4.214   8.342   3.641
 7178W        W10922   6.452   6.085   9.760
 7179W        W10923   8.121   2.101   9.975
 7180W        W10924   3.219   8.978   2.477
 7181W        W10925   7.919   0.215   3.466
 7182W        W10926   3.101   3.730  10.002
 7183W        W10927   4.026  10.214  11.420
 7184W        W10928   1.152   5.934   2.901
 7185W        W10929   0.931   1.284   1.888
 7186W        W10930   8.834   8.546   9.456
 7187W        W10931   4.293   6.635   2.909
 7188W        W10932   7.553   6.083   8.870
 7189W        W10933   0.703   1.959   9.375
 7190W        W10934   3.792   0.965   1.769
 7191W        W10935   7.033   0.168   2.138
 7192W        W10936   5.829   2.907   2.075
 7193W        W10937   9.829   8.843   0.064
 7194W        W10938   1.811  10.174  10.514
 7195W        W10939   3.081   2.330   2.339
 7196W        W10940   0.665   1.349   0.061
 7197W        W10941   2.142   2.421   0.633
 7198W        W10942   7.456   4.133   9.336
 7199W        W10943   3.362   0.753  11.385
 7200W        W10944   2.626  10.384   2.627
 7201W        W10945   0.004   5.556   9.042
 7202W        W10946   4.980   1.696   2.967
 7203W        W10947   3.928   4.495   0.105
 7204W        W10948   9.331   4.538   2.382
 7205W        W10949   9.208  10.136  10.368
 7206W        W10950   9.369   0.907   0.403
 7207W        W10951   1.231   2.753   9.287
 7208W        W10952   2.583   4.202   1.898
 7209W        W10953   3.096   5.590   9.747
 7210W        W10954   2.844   9.003   9.500
 7211W        W10955   5.531   6.035  10.757
 7212W        W10956   7.724   7.825   9.817
 7213W        W10957   3.083   2.718   8.867
 7214W        W10958   5.041  10.390   8.721
 7215W        W10959   6.506  10.462   0.010
 7216W        W10960   3.827   3.169   9.760
 7217W        W10961   7.831   6.471   0.167
 7218W        W10962   6.063   2.187   8.460
 7219W        W10963   3.215   3.200  11.042
 7220W        W10964   4.742  10.160   9.373
 7221W        W10965   4.113   7.036   9.780
 7222W        W10966  10.308   9.905   2.747
 7223W        W10967   3.999   2.696   1.981
 7224W        W10968   0.519   0.829   2.220
 7225W        W10969   1.354   1.462   0.747
 7226W        W10970   2.043   1.786   1.780
 7227W        W10971   3.764  10.093   2.179
 7228W        W10972   5.638   4.869  11.388
 7229W        W10973   9.847   7.732   2.274
 7230ION    NA+10974   7.972   6.994   9.052
 7231ION    NA+10975   8.828  10.448  11.960
 7232ION    NA+10976   0.417   6.582   3.664
 7233ION    NA+10977   6.682   1.818   3.031
 7234ION    NA+10978  10.487   3.699  11.496
 7235ION    NA+10979   1.383   8.624   2.959
 7236ION    NA+10980   9.974   6.480   0.954
 7237ION    NA+10981   4.886   0.335   9.414
 7238ION    NA+10982   2.953   4.693   0.200
 7239ION    NA+10983   0.108   0.430   9.079
 7240ION    NA+10984   7.351   4.565   8.175
 7241ION    NA+10985   0.188   9.068   9.263
 7242ION    NA+10986   5.279   7.105  11.046
 7243ION    NA+10987   5.218   3.073   9.041
 7244ION    NA+10988   6.371   8.922  10.109
 7245ION    NA+10989   1.446   6.736   9.806
 7246ION    NA+10990   4.062   1.975  11.065
 7247ION    NA+10991   1.578   0.266   0.940
 7248ION    NA+10992   2.745   0.359  10.824
 7249ION    NA+10993   2.311   2.516   1.708
 7250ION    NA+10994   9.404   0.172   2.010
 7251ION    NA+10995   0.481   7.715   1.366
 7252ION    NA+10996   7.694   0.942   3.829
 7253ION    NA+10997   7.906   3.762   9.759
 7254ION    NA+10998   0.224   5.323  10.821
 7255ION    NA+10999   3.810   4.783  11.216
 7256ION    NA+11000   7.046   1.983   0.516
 7257ION    NA+11001   3.616   9.284   2.389
 7258ION    NA+11002   6.637   3.523   1.872
 7259ION    NA+11003   3.237   6.569   9.463
 7260ION    NA+11004   1.626   4.979   1.371
 7261ION    NA+11005   0.087  10.152   3.092
 7262ION    NA+11006   2.672   1.986  11.110
 7263ION    NA+11007   7.063  10.032   9.031
 7264ION    NA+11008   9.360   3.271   0.789
 7265ION    NA+11009   1.691   1.796  11.064
 7266ION    NA+11010   1.738   2.986   9.176
 7267ION    NA+11011   4.531   6.795   9.591
 7268ION    NA+11012   1.781   7.153  11.540
 7269ION    NA+11013   3.847   0.949   0.624
 7270ION    NA+11014   0.294   9.151   0.336
 7271ION    NA+11015   9.395   1.459  10.439
 7272ION    NA+11016   7.592   2.112  11.347
 7273ION    NA+11017   9.631   5.219   3.496
 7274ION    NA+11018   4.532   5.164   0.093
 7275ION    NA+11019   0.919   5.401   0.118
 7276ION    NA+11020  10.103   9.620   9.537
 7277ION    NA+11021   3.306   6.668   2.589
 7278ION    NA+11022   2.706   9.350   1.959
 7279ION    NA+11023   5.916   9.127  10.976
 7280ION    NA+11024   4.941   3.280   8.103
 7281ION    NA+11025   5.390   4.871   1.639
 7282ION    NA+11026   9.640   3.694  11.108
 7283ION    NA+11027   0.238   5.163   1.878
 7284ION    NA+11028   1.151  10.075  11.628
 7285ION    NA+11029   1.714   0.404  10.995
 7286ION    NA+11030   4.106   8.154   1.051
 7287ION    NA+11031   5.112   2.388   1.226
 7288ION    NA+11032   1.073   9.023  11.847
 7289ION    NA+11033   0.364   8.132   2.775
 7290ION    NA+11034   6.299   9.625   1.887
 7291ION    NA+11035   4.987   4.753   0.883
 7292ION    NA+11036   0.673   0.778   0.756
 7293ION    NA+11037   1.381   9.703   3.377
 7294ION    NA+11038   3.800   0.899  10.053
 7295ION    NA+11039   1.896   7.702   9.884
 7296ION    NA+11040   5.257   5.584  11.752
 7297ION    NA+11041   3.921   0.076   9.465
 7298ION    NA+11042   2.805   0.182   0.533
 7299ION    NA+11043   7.894   0.703   2.242
 7300ION    NA+11044   2.016   0.544   0.006
 7301ION    NA+11045   4.742   3.663   1.927
 7302ION    NA+11046   1.017   8.203  11.888
 7303ION    NA+11047   6.806   7.592   0.701
 7304ION    NA+11048   2.799   7.943   2.306
 7305ION    NA+11049   4.370   8.636   9.931
 7306ION    CL-11050   5.134   4.951   1.271
 7307ION    CL-11051   4.867   5.388  11.880
 7308ION    CL-11052   9.020   2.779  10.224
 7309ION    CL-11053   8.564   1.387   9.451
 7310ION    CL-11054  10.405   3.244   1.751
 7311ION    CL-11055   5.468   6.858   1.455
 7312ION    CL-11056   1.679  10.056   8.586
 7313ION    CL-11057   8.561   8.812   9.809
 7314ION    CL-11058   9.225   0.220  10.896
 7315ION    CL-11059   3.482   2.852   3.345
 7316ION    CL-11060   1.981   8.102   9.688
 7317ION    CL-11061   2.785   3.643   1.100
 7318ION    CL-11062   7.411  10.125   9.306
 7319ION    CL-11063   0.626   7.305   1.259
 7320ION    CL-11064   2.684   1.880  11.545
 7321ION    CL-11065   1.173   8.586  11.701
 7322ION    CL-11066   1.302   2.957  11.727
 7323ION    CL-11067   3.721   8.871   2.259
 7324ION    CL-11068   4.664   0.507   1.918
 7325ION    CL-11069   9.265   2.764   8.866
 7326ION    CL-11070   2.856   0.566   2.001
 7327ION    CL-11071   3.937   0.809   1.041
 7328ION    CL-11072   6.786   9.022   9.978
 7329ION    CL-11073   8.536   9.145   0.523
 7330ION    CL-11074   9.397   4.360   9.650
 7331ION    CL-11075   6.744   9.547   1.934
 7332ION    CL-11076   9.313   3.484  10.870
 7333ION    CL-11077   7.867   8.913  10.609
 7334ION    CL-11078   2.899   4.553   3.236
 7335ION    CL-11079   2.678   1.269   1.312
 7336ION    CL-11080   0.632   9.063   0.015
 7337ION    CL-11081   0.156   8.948   0.725
 7338ION    CL-11082   2.086   3.822   0.407
 7339ION    CL-11083   1.565   2.931   8.757
 7340ION    CL-11084   4.437  10.007  11.970
 7341ION    CL-11085   1.293   8.638   2.514
 7342ION    CL-11086   2.467   7.690   2.462
 7343ION    CL-11087   5.105   9.219   9.515
 7344ION    CL-11088   4.754   9.916  10.302
 7345ION    CL-11089   8.286   5.238   8.780
 7346ION    CL-11090   6.580   1.414   3.214
 7347ION    CL-11091  10.058   3.707  11.337
 7348ION    CL-11092   9.894   8.064   1.827
 7349ION    CL-11093   6.832   7.182   0.936
 7350ION    CL-11094   2.256   1.884   0.501
 7351ION    CL-11095   5.066   2.897   9.421
 7352ION    CL-11096  10.473   9.364   9.530
 7353ION    CL-11097   4.197   3.670   3.711
 7354ION    CL-11098   5.858   7.821   1.148
 7355ION    CL-11099   2.509   4.705   0.199
 7356ION    CL-11100   3.132   5.186   8.857
 7357ION    CL-11101   4.850   4.564  10.702
 7358ION    CL-11102   7.173   8.397   1.754
 7359ION    CL-11103   4.013   2.354  11.297
 7360ION    CL-11104   1.201   9.139  10.140
 7361ION    CL-11105   6.860   9.881   8.645
 7362ION    CL-11106   7.983   4.505   1.370
 7363ION    CL-11107   0.264   9.895   0.431
 7364ION    CL-11108   2.599   6.482  11.912
 7365ION    CL-11109   7.996   6.119   9.550
 7366ION    CL-11110   1.385   8.623   3.448
 7367ION    CL-11111   9.259   5.032   8.676
 7368ION    CL-11112   0.633   5.155  10.896
 7369ION    CL-11113   5.156   3.448   4.099
 7370ION    CL-11114   6.922   7.933   0.417
 7371ION    CL-11115   5.852   9.679   1.817
 7372ION    CL-11116   4.020   5.066  10.943
 7373ION    CL-11117   3.474   6.865   2.955
 7374ION    CL-11118   0.562   1.151   0.536
 7375ION    CL-11119   8.469   8.211  10.994
 7376ION    CL-11120   8.905   6.926  10.787
 7377ION    CL-11121   8.460  10.157   3.063
 7378ION    CL-11122   4.189   2.285   9.384
 7379ION    CL-11123   2.975   0.679   8.689
 7380ION    CL-11124   2.224   2.903   1.503
 7381ION    CL-11125   1.305   9.790  11.941
  10.50000  10.50000  12.00000
