Protein in INSANE! Membrane UpperLeaflet>POPC=1.0 LowerLeaflet>POPC=1.0
10365
    1AU     AUC    1   5.889   0.239   6.142  0.0473  0.0106 -0.0579
    1AU     AUC    2   6.211   0.284   6.022  0.0076 -0.0576  0.0369
    1AU     AUC    3   5.985   0.558   6.006  0.0163  0.0549  0.0332
    1AU     AUC    4   5.808  -0.010   6.290 -0.0179  0.1237 -0.0985
    1AU     AUC    5   5.594   0.244   6.227  0.0292  0.0581  0.0313
    1AU     AUC    6   5.686   0.042   5.992 -0.0081  0.0660 -0.0142
    1AU     AUC    7   5.955   0.255   5.804  0.0298 -0.0384 -0.0007
    1AU     AUC    8   5.821   0.266   6.459 -0.0225  0.0489 -0.0272
    1AU     AUC    9   6.113   0.468   6.296  0.0305 -0.0925 -0.0230
    1AU     AUC   10   5.748   0.537   6.251  0.0642 -0.0341 -0.0311
    1AU     AUC   11   5.656   0.389   5.969 -0.0465  0.0329 -0.0745
    1AU     AUC   12   6.132   0.131   6.309 -0.0587  0.0194 -0.0320
    1AU     AUC   13   6.030   0.016   6.030 -0.0784  0.0198 -0.0809
    1AU     AUC   14   6.514   0.330   5.880 -0.0178  0.0051  0.0314
    1AU     AUC   15   6.323   0.617   5.870 -0.0483 -0.1001 -0.0426
    1AU     AUC   16   6.054   0.826   5.878  0.1154 -0.0189  0.0454
    1AU     AUC   17   5.765  -0.291   6.485 -0.0137  0.0480  0.0647
    1AU     AUC   18   5.494  -0.066   6.412 -0.0454 -0.0547 -0.0936
    1AU     AUC   19   5.276   0.171   6.293  0.0130  0.0166 -0.0729
    1AU     AUC   20   5.512  -0.215   5.809  0.0877 -0.0841 -0.0142
    1AU     AUC   21   5.752   0.013   5.635  0.0213  0.1166  0.0069
    1AU     AUC   22   5.990   0.244   5.472 -0.0314 -0.0873  0.0553
    1AU     AUC   23   5.791   0.275   6.766 -0.0203  0.0027  0.0082
    1AU     AUC   24   6.065   0.501   6.659 -0.0190  0.1060 -0.0355
    1AU     AUC   25   6.325   0.670   6.495  0.0262  0.0325 -0.0290
    1AU     AUC   26   5.599   0.806   6.356  0.1007  0.0953  0.0106
    1AU     AUC   27   5.476   0.709   6.057 -0.0058  0.0698 -0.0500
    1AU     AUC   28   5.432   0.513   5.736 -0.0653 -0.0210 -0.0242
    1AU     AUC   29   6.404   0.023   6.486 -0.0221  0.0411 -0.0067
    1AU     AUC   30   6.312  -0.169   6.179  0.0461  0.0020  0.0605
    1AU     AUC   31   6.201  -0.267   5.892 -0.1070  0.0927 -0.0341
    1AU     AUC   32   5.817   0.852   6.131  0.0659  0.0069 -0.1251
    1AU     AUC   33   5.731   0.698   5.792  0.0468 -0.0315  0.0852
    1AU     AUC   34   6.496   0.128   6.166 -0.0368  0.0802 -0.0315
    1AU     AUC   35   6.378   0.016   5.853 -0.0529 -0.0181 -0.0183
    1AU     AUC   36   5.384   0.517   6.346 -0.0681  0.0873 -0.0399
    1AU     AUC   37   5.298   0.316   6.010  0.0742 -0.0626 -0.0566
    1AU     AUC   38   6.074  -0.163   6.508 -0.0257 -0.0542 -0.0419
    1AU     AUC   39   6.010  -0.337   6.252  0.0183  0.0625 -0.0693
    1AU     AUC   40   6.270   0.348   5.645  0.0636  0.0818  0.0893
    1AU     AUC   41   6.022   0.561   5.649 -0.0211  0.0209  0.0938
    1AU     AUC   42   5.632  -0.253   6.156 -0.0616  0.0348 -0.0074
    1AU     AUC   43   5.347  -0.032   6.045 -0.0045 -0.0128 -0.0522
    1AU     AUC   44   6.440   0.531   6.195 -0.0423  0.0495 -0.0480
    1AU     AUC   45   6.189   0.814   6.203 -0.0282 -0.0567  0.0195
    1AU     AUC   46   5.732  -0.024   6.664 -0.0910  0.0816 -0.0957
    1AU     AUC   47   5.491   0.241   6.555  0.0995 -0.0469 -0.0324
    1AU     AUC   48   5.426   0.133   5.720  0.1010 -0.0702 -0.0731
    1AU     AUC   49   5.710   0.355   5.614 -0.1105 -0.0549  0.0367
    1AU     AUC   50   5.688   0.558   6.591  0.0200 -0.0990  0.0601
    1AU     AUC   51   5.969   0.764   6.475  0.0358 -0.0306 -0.0468
    1AU     AUC   52   5.870  -0.244   5.876 -0.0237 -0.0138  0.0272
    1AU     AUC   53   6.096  -0.012   5.643  0.0360 -0.0470 -0.0161
    1AU     AUC   54   6.109   0.141   6.652 -0.0165 -0.0567  0.0059
    1AU     AUC   55   6.377   0.349   6.476 -0.0239  0.0850  0.0185
    1AU    AUSL   56   5.801   1.084   5.880  0.0313  0.0031 -0.0656
    1AU    AUSL   57   5.788   1.121   6.358 -0.0202 -0.0168  0.0341
    1AU     AUL   58   5.866   1.386   6.033  0.0254 -0.0804 -0.0557
    1AU       S   59   5.939   1.451   6.469  0.2472 -0.0242  0.0233
    1AU     LIG   60   5.641   1.608   6.613 -0.0133 -0.4088 -0.1310
    1AU     LIG   61   5.319   1.809   6.903  0.4754 -0.0909 -0.2228
    1AU     LIG   62   5.050   1.943   7.251  0.0685  0.1405 -0.2520
    1AU       S   63   5.490   1.438   5.791  0.2881 -0.0380  0.2899
    1AU     LIG   64   5.508   1.827   6.063  0.1056 -0.3160  0.1513
    1AU     LIG   65   5.893   1.875   6.258  0.2119 -0.2189  0.1287
    1AU     LIG   66   5.970   2.247   6.453 -0.0950  0.2120 -0.3028
    1AU    AUSL   67   5.420   1.041   6.119  0.0207 -0.0832  0.0339
    1AU    AUSL   68   5.158   0.715   5.918  0.0299 -0.1945  0.1051
    1AU     AUL   69   5.073   1.063   5.934  0.0584  0.0160 -0.1047
    1AU       S   70   5.418   1.344   6.124  0.2593  0.2613 -0.2984
    1AU     LIG   71   5.056   1.571   5.936  0.2199 -0.3889  0.1040
    1AU     LIG   72   4.704   1.610   5.692  0.3992  0.1148  0.1700
    1AU     LIG   73   4.227   1.550   5.547  0.1555  0.3157 -0.0353
    1AU       S   74   4.756   0.819   6.215 -0.1271 -0.0927  0.1133
    1AU     LIG   75   4.407   0.510   6.161  0.1104  0.1566 -0.1668
    1AU     LIG   76   3.980   0.530   5.999  0.1871  0.1192 -0.1268
    1AU     LIG   77   3.581   0.311   5.804  0.0552 -0.1806  0.0178
    1AU    AUSL   78   5.451   0.932   5.697  0.0056 -0.0090 -0.0301
    1AU    AUSL   79   5.835   0.882   5.493 -0.0030  0.0313 -0.0586
    1AU     AUL   80   5.810   1.180   5.583  0.0061  0.0760  0.1080
    1AU       S   81   5.370   1.205   5.635  0.2011 -0.4477  0.1238
    1AU     LIG   82   5.035   0.974   5.431  0.2466  0.3577 -0.4224
    1AU     LIG   83   4.757   0.727   5.184 -0.0664  0.1681 -0.3571
    1AU     LIG   84   4.387   0.489   5.213 -0.0383 -0.1764  0.5546
    1AU       S   85   5.616   0.951   5.209  0.4265 -0.1467  0.2004
    1AU     LIG   86   5.451   1.304   5.169  0.1770 -0.1897  0.0904
    1AU     LIG   87   5.642   1.684   5.312 -0.1495  0.0779 -0.1363
    1AU     LIG   88   5.733   1.773   5.547  0.1296  0.0184  0.3579
    1AU    AUSL   89   6.729  -0.031   5.815  0.0041  0.0411  0.0358
    1AU    AUSL   90   6.336  -0.150   5.616  0.0945  0.0153 -0.0163
    1AU     AUL   91   6.607  -0.319   5.518 -0.0495  0.1196  0.0473
    1AU       S   92   6.904  -0.423   5.848 -0.1406  0.0619  0.0568
    1AU     LIG   93   7.020  -0.638   5.548 -0.2680 -0.1172 -0.0999
    1AU     LIG   94   7.269  -0.854   5.307 -0.1529 -0.0010 -0.4579
    1AU     LIG   95   7.333  -0.667   4.869 -0.0140 -0.3791  0.1674
    1AU       S   96   6.624   0.010   5.146  0.0046  0.0357  0.3038
    1AU     LIG   97   6.615  -0.458   5.033  0.2402  0.2131 -0.1623
    1AU     LIG   98   6.846  -0.812   5.036 -0.0729 -0.2524 -0.1249
    1AU     LIG   99   7.082  -1.236   5.001  0.0381 -0.2295  0.2118
    1AU    AUSL  100   6.785  -0.117   6.245 -0.0645  0.0326 -0.1004
    1AU    AUSL  101   6.816   0.298   6.092  0.0905  0.0479 -0.0670
    1AU     AUL  102   7.068   0.002   5.978 -0.0189 -0.0182 -0.0114
    1AU       S  103   7.223   0.338   6.245  0.1979 -0.0946 -0.0526
    1AU     LIG  104   7.609   0.066   6.076 -0.1704  0.0652 -0.1021
    1AU     LIG  105   7.962  -0.315   6.149  0.0824 -0.3380 -0.0879
    1AU     LIG  106   8.105  -0.749   5.938  0.1490 -0.3318 -0.3987
    1AU       S  107   7.005  -0.464   6.018 -0.0367  0.2290  0.0355
    1AU     LIG  108   7.132  -0.636   6.276 -0.2344 -0.0539 -0.1279
    1AU     LIG  109   7.200  -0.921   6.433 -0.0981 -0.2917  0.4567
    1AU     LIG  110   7.626  -1.026   6.680 -0.3208 -0.2965  0.2805
    1AU    AUSL  111   6.453  -0.300   5.998 -0.0094 -0.0260 -0.0627
    1AU    AUSL  112   6.423  -0.268   6.470 -0.0734 -0.0500 -0.0102
    1AU     AUL  113   6.708  -0.325   6.353 -0.0783  0.0897  0.0662
    1AU       S  114   6.597  -0.750   6.527 -0.0549  0.5549  0.2192
    1AU     LIG  115   6.886  -0.606   6.763 -0.2766 -0.0955  0.1385
    1AU     LIG  116   7.232  -0.465   6.858 -0.1189  0.1076  0.3107
    1AU     LIG  117   7.384  -0.130   6.954 -0.0041 -0.3764 -0.3469
    1AU       S  118   6.684  -0.528   5.926  0.1538 -0.0248 -0.2950
    1AU     LIG  119   6.499  -0.784   5.675  0.1700 -0.4367 -0.0416
    1AU     LIG  120   6.397  -0.879   5.211  0.0601 -0.0577  0.6368
    1AU     LIG  121   6.238  -0.973   4.793 -0.1751  0.3635  0.1026
    1AU    AUSL  122   5.005   0.409   6.201 -0.0189  0.0163 -0.0213
    1AU    AUSL  123   5.175   0.327   5.758  0.0575  0.0059  0.0557
    1AU     AUL  124   4.859   0.537   5.863 -0.0625  0.0196 -0.0498
    1AU       S  125   4.820   0.845   6.320  0.3260  0.2212  0.0257
    1AU     LIG  126   4.629   1.265   6.453  0.2441 -0.2128 -0.2461
    1AU     LIG  127   4.657   1.738   6.421 -0.2032 -0.2664 -0.2111
    1AU     LIG  128   4.856   2.041   6.167 -0.1029 -0.3272  0.3833
    1AU       S  129   4.721   0.061   5.723 -0.0792 -0.0658  0.1992
    1AU     LIG  130   4.491   0.408   5.651  0.4024  0.2878  0.1330
    1AU     LIG  131   4.220   0.774   5.580  0.0785 -0.0663 -0.4454
    1AU     LIG  132   4.024   0.845   5.184 -0.2801 -0.4194 -0.4436
    1AU    AUSL  133   5.314   0.670   6.305  0.1138  0.0196  0.0296
    1AU    AUSL  134   5.088   0.463   6.619  0.0892 -0.0211 -0.0428
    1AU     AUL  135   4.851   0.376   6.414 -0.0814 -0.1320 -0.0299
    1AU       S  136   4.936   0.673   6.815  0.4909  0.0797  0.2073
    1AU     LIG  137   4.540   0.866   6.734  0.0031  0.0778 -0.1805
    1AU     LIG  138   4.450   1.293   6.912  0.1885 -0.1973  0.0124
    1AU     LIG  139   4.189   1.452   7.138  0.0526 -0.2254 -0.0186
    1AU       S  140   5.009   0.866   6.365  0.4089  0.2678 -0.0474
    1AU     LIG  141   5.139   1.309   6.493 -0.2683 -0.0814  0.0755
    1AU     LIG  142   5.114   1.688   6.435 -0.2088  0.1239  0.1500
    1AU     LIG  143   5.389   2.068   6.503 -0.0262  0.0551  0.0619
    1AU    AUSL  144   6.108  -0.512   6.605 -0.0580  0.0386  0.0658
    1AU    AUSL  145   6.221  -0.102   6.807 -0.0730 -0.0232  0.0820
    1AU     AUL  146   6.452  -0.362   6.830  0.0608  0.0189 -0.0882
    1AU       S  147   6.479  -0.797   6.612  0.1113 -0.0075 -0.5025
    1AU     LIG  148   6.705  -1.227   6.585 -0.0737  0.2830  0.1049
    1AU     LIG  149   6.879  -1.618   6.562  0.2335 -0.1559  0.0418
    1AU     LIG  150   6.834  -1.886   6.758 -0.1592 -0.2274  0.1340
    1AU       S  151   6.052  -0.363   7.130 -0.1824 -0.0973  0.0055
    1AU     LIG  152   6.344  -0.804   7.207  0.0956 -0.1355  0.0202
    1AU     LIG  153   6.817  -0.848   7.194  0.2372 -0.4424  0.0650
    1AU     LIG  154   7.189  -1.071   6.966 -0.2775 -0.0960  0.0186
    1AU    AUSL  155   6.279  -0.619   6.220 -0.0122  0.0142 -0.0820
    1AU    AUSL  156   5.826  -0.625   6.316  0.0208 -0.0502  0.0398
    1AU     AUL  157   5.966  -0.814   6.516 -0.0027  0.0124 -0.1157
    1AU       S  158   5.792  -1.019   6.152 -0.1138  0.3192  0.3078
    1AU     LIG  159   5.344  -1.176   6.242 -0.3277  0.1699 -0.1855
    1AU     LIG  160   5.394  -1.552   6.446 -0.0426 -0.0760  0.3242
    1AU     LIG  161   5.396  -1.746   6.806 -0.2588 -0.3042  0.2753
    1AU       S  162   6.501  -0.802   6.298  0.1101 -0.1995  0.3280
    1AU     LIG  163   6.763  -0.964   6.097 -0.1806 -0.0866 -0.2573
    1AU     LIG  164   6.861  -1.371   5.989 -0.0570  0.1052  0.0335
    1AU     LIG  165   7.035  -1.763   5.945  0.1624 -0.3478  0.1535
    1AU    AUSL  166   6.221   0.536   5.434  0.0103 -0.0237 -0.0242
    1AU    AUSL  167   6.516   0.257   5.581 -0.0183 -0.0641  0.0002
    1AU     AUL  168   6.520   0.500   5.192 -0.0554 -0.0440  0.0318
    1AU       S  169   6.663   0.082   5.347  0.0539 -0.0940  0.0895
    1AU     LIG  170   7.096  -0.125   5.495  0.1753  0.1381 -0.1449
    1AU     LIG  171   7.393  -0.326   5.620 -0.3365  0.1016 -0.1075
    1AU     LIG  172   7.566  -0.486   5.982  0.0492 -0.2704 -0.7070
    1AU       S  173   6.499   1.056   5.305 -0.0401  0.1539  0.3005
    1AU     LIG  174   6.591   0.984   4.886  0.0065 -0.0130  0.1620
    1AU     LIG  175   6.905   0.823   4.658  0.0561 -0.1174 -0.1406
    1AU     LIG  176   7.195   0.819   4.460 -0.3411  0.1096 -0.1678
    1AU    AUSL  177   6.595   0.677   5.632  0.0174 -0.0181 -0.0235
    1AU    AUSL  178   6.517   1.011   5.925  0.0417 -0.0721  0.0632
    1AU     AUL  179   6.856   0.958   5.773 -0.0486 -0.0511 -0.0289
    1AU       S  180   6.584   0.930   5.421 -0.1397 -0.1315 -0.1075
    1AU     LIG  181   6.985   0.723   5.352 -0.5165 -0.0052 -0.2084
    1AU     LIG  182   7.416   0.707   5.472 -0.1567  0.1783  0.3697
    1AU     LIG  183   7.663   0.733   5.063  0.1396  0.2738 -0.3053
    1AU       S  184   6.787   1.263   6.155 -0.2483 -0.1478 -0.1268
    1AU     LIG  185   7.081   1.545   5.989  0.4612 -0.0619 -0.1349
    1AU     LIG  186   7.511   1.743   5.915  0.0082  0.2237 -0.2129
    1AU     LIG  187   7.934   1.631   5.867  0.4370 -0.0461  0.4594
    1AU    AUSL  188   6.208   0.873   5.688  0.0154  0.0291 -0.0476
    1AU    AUSL  189   5.864   0.524   5.230  0.0067 -0.1052  0.0666
    1AU     AUL  190   6.088   0.809   5.261  0.0787 -0.1289  0.0138
    1AU       S  191   5.685   0.755   4.999  0.2310 -0.1477 -0.5146
    1AU     LIG  192   5.367   0.986   4.711 -0.1061  0.0921  0.2918
    1AU     LIG  193   5.238   1.299   4.502 -0.1590  0.2038  0.0449
    1AU     LIG  194   4.844   1.256   4.291  0.2642 -0.2304 -0.1402
    1AU       S  195   6.298   1.138   5.555 -0.0160 -0.0530 -0.1238
    1AU     LIG  196   6.217   1.544   5.745 -0.0255  0.0412  0.6365
    1AU     LIG  197   6.093   1.986   5.814 -0.1229 -0.3398 -0.1411
    1AU     LIG  198   6.147   2.430   5.883  0.0012 -0.0607 -0.0476
    1AU    AUSL  199   5.232  -0.397   6.004  0.0481 -0.0430 -0.0229
    1AU    AUSL  200   5.054   0.013   6.056  0.0834 -0.0801 -0.0346
    1AU     AUL  201   4.864  -0.382   5.889 -0.0307 -0.0499  0.0031
    1AU       S  202   4.815   0.063   5.992 -0.0097  0.0674 -0.0676
    1AU     LIG  203   4.379  -0.040   6.098 -0.0681  0.0565  0.1437
    1AU     LIG  204   4.029   0.147   6.352 -0.1934  0.1007 -0.1724
    1AU     LIG  205   3.667   0.279   6.328  0.3269  0.0371  0.2355
    1AU       S  206   4.994  -0.681   6.192 -0.1283  0.1221  0.0673
    1AU     LIG  207   4.487  -0.554   6.087 -0.2066  0.2106  0.1162
    1AU     LIG  208   4.198  -0.833   5.947  0.1735  0.1065 -0.1321
    1AU     LIG  209   3.927  -1.258   6.104 -0.1194 -0.1459 -0.4115
    1AU    AUSL  210   5.511  -0.362   6.339  0.0252 -0.0740  0.1123
    1AU    AUSL  211   5.597  -0.597   5.915 -0.0112 -0.0657 -0.0601
    1AU     AUL  212   5.460  -0.690   6.217 -0.0935  0.0300  0.0935
    1AU       S  213   5.013  -0.718   6.340  0.1329  0.0700  0.5070
    1AU     LIG  214   4.935  -1.094   6.609  0.2421 -0.0207  0.3117
    1AU     LIG  215   4.865  -1.147   7.097  0.0731 -0.0401  0.2520
    1AU     LIG  216   4.528  -0.824   7.123  0.1626 -0.3700  0.2867
    1AU       S  217   5.675  -1.079   5.950 -0.1651  0.2057 -0.3749
    1AU     LIG  218   5.815  -1.518   6.158  0.1237  0.2795  0.0189
    1AU     LIG  219   5.961  -1.703   6.573 -0.1659 -0.0378  0.2738
    1AU     LIG  220   6.355  -1.644   6.716  0.0077 -0.2702 -0.0194
    1AU    AUSL  221   5.110  -0.242   6.384  0.0380 -0.0073 -0.0028
    1AU    AUSL  222   5.383  -0.296   6.731  0.0135  0.0580  0.0778
    1AU     AUL  223   5.300  -0.503   6.615  0.0990  0.0309  0.1262
    1AU       S  224   5.025  -0.215   6.868 -0.1550 -0.2457 -0.1809
    1AU     LIG  225   4.814  -0.555   6.788  0.3007  0.0500 -0.0963
    1AU     LIG  226   4.587  -0.776   6.549  0.3807 -0.1576 -0.0703
    1AU     LIG  227   4.181  -0.933   6.427  0.2357 -0.0338  0.1585
    1AU       S  228   4.891  -0.337   6.380  0.1704 -0.0752 -0.3113
    1AU     LIG  229   4.536  -0.212   6.597  0.0976  0.3956  0.4768
    1AU     LIG  230   4.128  -0.093   6.829 -0.0740  0.0863  0.2060
    1AU     LIG  231   3.674  -0.312   6.779  0.0042  0.2793 -0.0646
    1AU    AUSL  232   6.504   0.884   6.356  0.0182  0.0472 -0.0249
    1AU    AUSL  233   6.129   0.997   6.109  0.0085 -0.0147  0.0148
    1AU     AUL  234   6.357   1.210   6.073 -0.0393 -0.0856  0.0119
    1AU       S  235   6.674   1.054   6.403  0.3427  0.1600 -0.2037
    1AU     LIG  236   7.150   0.960   6.612 -0.1923  0.0578  0.0727
    1AU     LIG  237   7.572   0.852   6.565  0.0590 -0.0526 -0.3414
    1AU     LIG  238   7.945   1.005   6.471  0.4154  0.5379 -0.1793
    1AU       S  239   6.158   1.445   6.404 -0.4303 -0.3332 -0.1150
    1AU     LIG  240   6.362   1.909   6.446  0.2362  0.2011  0.1613
    1AU     LIG  241   6.421   2.140   6.164  0.0220  0.1864  0.0381
    1AU     LIG  242   6.619   2.411   5.858  0.4246 -0.0054 -0.0974
    1AU    AUSL  243   6.544   0.596   6.035 -0.0209  0.0402  0.0407
    1AU    AUSL  244   6.768   0.544   6.441 -0.0673  0.0819 -0.0551
    1AU     AUL  245   6.864   0.654   6.128 -0.0685  0.0476 -0.0382
    1AU       S  246   6.924   1.102   6.218  0.3512  0.1020 -0.0075
    1AU     LIG  247   7.366   0.972   6.074  0.3698  0.1314 -0.2506
    1AU     LIG  248   7.619   1.281   6.104  0.2007  0.1832 -0.0969
    1AU     LIG  249   7.493   1.427   6.419  0.1592 -0.5037 -0.3474
    1AU       S  250   7.171   0.431   6.521  0.3418  0.2065 -0.0815
    1AU     LIG  251   7.671   0.322   6.518 -0.1034 -0.2797  0.1878
    1AU     LIG  252   7.897   0.036   6.535  0.6351 -0.1258  0.0449
    1AU     LIG  253   7.894  -0.306   6.837 -0.1431 -0.0508 -0.3324
    1AU    AUSL  254   5.512   0.076   6.906 -0.0499  0.0647 -0.0025
    1AU    AUSL  255   5.811  -0.229   6.727 -0.0110 -0.0128  0.0713
    1AU     AUL  256   5.507  -0.251   7.005  0.0249 -0.0645 -0.0549
    1AU       S  257   5.948  -0.405   7.028  0.0133 -0.1484 -0.3143
    1AU     LIG  258   5.658  -0.667   6.892  0.2227  0.1006  0.1319
    1AU     LIG  259   5.398  -0.987   6.731 -0.0330 -0.1545  0.0558
    1AU     LIG  260   5.718  -1.236   6.624  0.0654  0.2485 -0.0180
    1AU       S  261   5.032  -0.075   7.018  0.4000 -0.4213  0.0820
    1AU     LIG  262   5.064  -0.292   7.450 -0.2203  0.0596  0.2153
    1AU     LIG  263   5.307  -0.685   7.761 -0.0841  0.3359 -0.1735
    1AU     LIG  264   5.184  -0.582   8.212  0.3417  0.1535  0.1708
    1AU    AUSL  265   5.280   0.101   6.547  0.0167  0.0611 -0.0671
    1AU    AUSL  266   5.494   0.476   6.751 -0.0097  0.0084  0.0512
    1AU     AUL  267   5.281   0.319   6.932 -0.0093 -0.0136  0.0087
    1AU       S  268   5.096   0.728   7.022  0.1202  0.3048 -0.0998
    1AU     LIG  269   4.770   1.084   7.244 -0.3325  0.2005 -0.0915
    1AU     LIG  270   4.578   1.017   7.612 -0.0868  0.0327 -0.0070
    1AU     LIG  271   4.378   1.135   7.904  0.1003 -0.0361  0.0354
    1AU       S  272   5.011  -0.017   6.765 -0.2151 -0.1878  0.3885
    1AU     LIG  273   4.632   0.206   6.811 -0.2137 -0.1342 -0.0722
    1AU     LIG  274   4.234   0.485   6.715  0.2189 -0.2502  0.2208
    1AU     LIG  275   3.980   0.664   6.497 -0.0258  0.0522 -0.1337
    1AU    AUSL  276   5.336   0.274   5.362  0.0809 -0.0021  0.0407
    1AU    AUSL  277   5.221  -0.088   5.694  0.0579 -0.0130 -0.0262
    1AU     AUL  278   5.065   0.312   5.468 -0.0112  0.0656 -0.1295
    1AU       S  279   4.947  -0.103   5.567 -0.2487 -0.1171  0.1362
    1AU     LIG  280   5.111  -0.535   5.495  0.3778 -0.5108  0.1766
    1AU     LIG  281   5.177  -0.905   5.787 -0.1404  0.4514 -0.2279
    1AU     LIG  282   5.000  -1.263   5.862  0.1735 -0.2050 -0.1675
    1AU       S  283   5.141   0.178   5.052  0.0583 -0.2480  0.1798
    1AU     LIG  284   4.704   0.100   5.209 -0.0157  0.1573 -0.2730
    1AU     LIG  285   4.281  -0.057   5.237  0.0234 -0.2119  0.0654
    1AU     LIG  286   3.761  -0.099   5.121 -0.2637 -0.2072  0.2121
    1AU    AUSL  287   5.464  -0.144   5.353  0.0435 -0.0248 -0.0198
    1AU    AUSL  288   5.931  -0.185   5.341  0.0837 -0.0171 -0.0361
    1AU     AUL  289   5.761  -0.125   5.027  0.0564 -0.0724  0.0066
    1AU       S  290   5.241  -0.162   5.159  0.2372  0.3332 -0.5279
    1AU     LIG  291   5.260  -0.523   4.995 -0.2765  0.0469 -0.1297
    1AU     LIG  292   5.363  -0.925   4.909 -0.4759  0.0774 -0.1027
    1AU     LIG  293   5.365  -1.375   5.063  0.3283 -0.0099  0.3605
    1AU       S  294   5.800  -0.556   5.231 -0.0600 -0.0050  0.2016
    1AU     LIG  295   5.756  -0.602   4.836  0.0340  0.0144 -0.0986
    1AU     LIG  296   5.890  -0.844   4.475  0.0598 -0.1709  0.3100
    1AU     LIG  297   5.676  -1.082   4.183  0.0443  0.0298  0.0596
    1AU    AUSL  298   5.735   0.166   5.430  0.0270  0.0084 -0.0137
    1AU    AUSL  299   5.562   0.556   5.553 -0.0945 -0.1229  0.1226
    1AU     AUL  300   5.605   0.320   5.177  0.0018  0.0569 -0.0674
    1AU       S  301   5.432   0.770   5.254 -0.0426 -0.3052 -0.3122
    1AU     LIG  302   5.173   0.654   5.023  0.1512  0.2896 -0.2860
    1AU     LIG  303   4.832   0.433   4.708  0.2101  0.1585  0.2240
    1AU     LIG  304   4.833   0.443   4.327 -0.2638 -0.2154 -0.1963
    1AU       S  305   5.317  -0.008   4.919  0.0255 -0.1665 -0.0087
    1AU     LIG  306   4.963  -0.144   4.699 -0.3134  0.1077  0.1735
    1AU     LIG  307   4.582   0.045   4.398  0.3802 -0.0823  0.3144
    1AU     LIG  308   4.260  -0.058   4.010 -0.1598 -0.3276  0.2333
    1AU    AUSL  309   5.765   0.798   6.659  0.0525 -0.1090 -0.0781
    1AU    AUSL  310   6.151   1.015   6.556 -0.0747 -0.0366 -0.0685
    1AU     AUL  311   5.790   1.111   6.737 -0.0566 -0.0370  0.0169
    1AU       S  312   5.828   1.035   7.207 -0.1083 -0.0587  0.1843
    1AU     LIG  313   5.737   1.316   7.547 -0.1585  0.2639 -0.1936
    1AU     LIG  314   5.617   1.601   7.942 -0.1787  0.1634  0.1041
    1AU     LIG  315   5.676   1.805   8.387  0.2470 -0.2079  0.2985
    1AU       S  316   6.232   1.294   6.535  0.0464  0.1591 -0.0698
    1AU     LIG  317   6.605   1.530   6.634  0.0993 -0.0066  0.0653
    1AU     LIG  318   7.026   1.615   6.463  0.3089 -0.1639  0.2197
    1AU     LIG  319   7.342   1.935   6.399  0.0717  0.4352 -0.0759
    1AU    AUSL  320   5.786   0.516   7.029 -0.0001 -0.1013  0.0072
    1AU    AUSL  321   5.349   0.892   6.652 -0.0103 -0.1198 -0.0479
    1AU     AUL  322   5.560   0.754   6.959  0.0000 -0.0868  0.0416
    1AU       S  323   5.840   0.834   7.345  0.2390 -0.0903 -0.2519
    1AU     LIG  324   6.195   1.129   7.539 -0.0606 -0.1284  0.0091
    1AU     LIG  325   6.552   1.389   7.576  0.1705 -0.3633 -0.1889
    1AU     LIG  326   6.986   1.432   7.569  0.1111 -0.1816  0.0367
    1AU       S  327   5.078   0.942   6.843 -0.1555  0.8319  0.1533
    1AU     LIG  328   5.419   1.304   6.975 -0.0531  0.2422 -0.1015
    1AU     LIG  329   5.828   1.531   7.064 -0.1924  0.1343  0.1498
    1AU     LIG  330   6.153   1.702   6.829  0.5014  0.1003 -0.1734
    1AU    AUSL  331   6.113   0.779   6.891 -0.0378 -0.0250  0.0059
    1AU    AUSL  332   6.098   0.341   6.818  0.0837 -0.0859 -0.0467
    1AU     AUL  333   6.044   0.470   7.168 -0.0352 -0.0361 -0.0680
    1AU       S  334   6.467   0.613   7.141  0.6942 -0.2445 -0.0794
    1AU     LIG  335   6.633   0.938   7.352 -0.0083  0.0378  0.1367
    1AU     LIG  336   7.041   1.047   7.247 -0.1491  0.0760  0.2837
    1AU     LIG  337   7.403   1.108   7.051  0.2764 -0.1235  0.1048
    1AU       S  338   6.033   0.942   7.115 -0.2867 -0.1635 -0.2176
    1AU     LIG  339   6.335   1.265   7.064 -0.1217  0.1719 -0.2477
    1AU     LIG  340   6.671   1.673   7.137 -0.2052  0.1695 -0.1194
    1AU     LIG  341   6.458   2.071   7.121 -0.1842  0.1090 -0.0066
    1AU    AUSL  342   6.104  -0.493   5.595 -0.0460  0.0093  0.0244
    1AU    AUSL  343   6.180   0.141   5.294 -0.0403  0.0834 -0.0203
    1AU     AUL  344   6.216  -0.279   5.283 -0.0650  0.0728 -0.0504
    1AU       S  345   5.976  -0.667   5.297  0.4107  0.3669 -0.0658
    1AU     LIG  346   5.992  -1.049   5.535  0.0694  0.2624  0.2884
    1AU     LIG  347   6.393  -1.233   5.808 -0.0226  0.1132  0.1096
    1AU     LIG  348   6.476  -1.689   5.754 -0.3881 -0.0706 -0.1490
    1AU       S  349   6.357   0.102   5.046 -0.0134 -0.1765 -0.3708
    1AU     LIG  350   6.129   0.156   4.742  0.3903 -0.0294  0.0743
    1AU     LIG  351   5.725   0.216   4.698  0.0276 -0.3818 -0.1259
    1AU     LIG  352   5.321   0.457   4.556  0.3907  0.1221  0.1837
    1AU    AUSL  353   5.702  -0.279   5.677  0.0341 -0.0527  0.0095
    1AU    AUSL  354   5.996  -0.414   5.988 -0.1658 -0.0439 -0.0503
    1AU     AUL  355   5.907  -0.659   5.764 -0.0802 -0.0556  0.0897
    1AU       S  356   5.658  -0.575   5.401 -0.0048  0.0914  0.1712
    1AU     LIG  357   5.546  -0.959   5.464 -0.0544  0.1672  0.2124
    1AU     LIG  358   5.452  -1.384   5.549  0.0148  0.4833 -0.0906
    1AU     LIG  359   5.332  -1.656   5.943  0.0312  0.1056  0.1609
    1AU       S  360   6.068  -0.970   6.028 -0.0164 -0.0179  0.1008
    1AU     LIG  361   6.253  -1.227   6.340 -0.3073  0.1200  0.0314
    1AU     LIG  362   6.462  -1.575   6.251  0.2139 -0.0114  0.0361
    1AU     LIG  363   6.647  -1.957   6.279  0.1337  0.1330  0.0619
    1AU    AUSL  364   6.515   0.203   6.839  0.0219  0.0222  0.0273
    1AU    AUSL  365   5.898   0.062   7.073 -0.1095  0.0446  0.1289
    1AU     AUL  366   6.298   0.075   7.071 -0.0612 -0.0428 -0.0552
    1AU       S  367   5.914  -0.161   7.226  0.1533 -0.1247  0.3699
    1AU     LIG  368   6.284  -0.192   7.502  0.2362  0.0249 -0.2470
    1AU     LIG  369   6.579  -0.591   7.661 -0.1099 -0.1736  0.0383
    1AU     LIG  370   6.873  -0.781   7.709 -0.1170 -0.2002  0.2241
    1AU       S  371   6.554   0.503   7.122  0.1647 -0.1824 -0.1509
    1AU     LIG  372   7.002   0.575   7.070  0.0284  0.0176 -0.3412
    1AU     LIG  373   7.459   0.558   6.986  0.4244 -0.0179 -0.1434
    1AU     LIG  374   7.663   0.282   7.054 -0.1476 -0.4606  0.0457
    1AU    AUSL  375   6.422   0.600   6.685  0.0444 -0.0139 -0.0925
    1AU    AUSL  376   6.561   0.181   6.419 -0.0863  0.0110  0.0767
    1AU     AUL  377   6.761   0.341   6.716  0.0304 -0.0401  0.0245
    1AU       S  378   6.576   0.738   6.887  0.3403  0.3903  0.1465
    1AU     LIG  379   6.735   1.088   6.877 -0.1098 -0.2718  0.5619
    1AU     LIG  380   7.060   1.489   6.915  0.1445 -0.3146 -0.3661
    1AU     LIG  381   7.116   1.894   6.886  0.1299  0.1356 -0.1287
    1AU       S  382   7.102   0.162   6.473  0.0786  0.3070 -0.0276
    1AU     LIG  383   7.331  -0.193   6.385 -0.2328 -0.1598 -0.3943
    1AU     LIG  384   7.604  -0.559   6.464  0.1398  0.2124  0.1490
    1AU     LIG  385   7.779  -0.893   6.235 -0.1640 -0.1267  0.1682
    2POPC   NC3  386   0.428   8.219   9.122  0.2423  0.0122 -0.0430
    2POPC   PO4  387   0.037   8.310   8.985 -0.1772 -0.0065 -0.2007
    2POPC   GL1  388  -0.189   8.144   8.593  0.2152  0.0522  0.0715
    2POPC   GL2  389  -0.477   8.055   8.521 -0.0293 -0.0791  0.0912
    2POPC   C1A  390  -0.001   7.821   8.325 -0.3263 -0.0984  0.1805
    2POPC   D2A  391  -0.086   7.474   8.094  0.0821  0.4673 -0.1591
    2POPC   C3A  392   0.191   7.132   8.111 -0.0303  0.2049 -0.1985
    2POPC   C4A  393   0.533   6.843   7.908 -0.0626  0.3606 -0.3009
    2POPC   C1B  394  -0.482   7.940   8.171  0.1041  0.0133  0.0762
    2POPC   C2B  395  -0.439   7.728   7.859 -0.0096  0.1739  0.0251
    2POPC   C3B  396  -0.160   7.618   7.410  0.2850  0.3267 -0.1922
    2POPC   C4B  397  -0.149   7.176   7.182  0.2369  0.2010 -0.0646
    3POPC   NC3  398   8.130   1.543   9.030 -0.2504  0.0860  0.1318
    3POPC   PO4  399   7.731   1.759   8.934 -0.1044 -0.0280  0.0095
    3POPC   GL1  400   7.919   1.937   8.561 -0.2271 -0.0908  0.0211
    3POPC   GL2  401   8.078   2.116   8.399  0.2070  0.1975 -0.2638
    3POPC   C1A  402   7.787   1.781   8.207  0.1626 -0.5392 -0.1198
    3POPC   D2A  403   7.597   1.587   7.890  0.1196  0.0659  0.2329
    3POPC   C3A  404   7.465   1.461   7.426  0.0416 -0.0576 -0.1295
    3POPC   C4A  405   7.516   1.640   6.989  0.2878  0.1435  0.0153
    3POPC   C1B  406   8.108   2.092   7.906 -0.0260 -0.0347  0.1127
    3POPC   C2B  407   8.168   2.168   7.441 -0.2493 -0.0557  0.1927
    3POPC   C3B  408   8.392   2.165   7.019  0.3734  0.1464  0.1760
    3POPC   C4B  409   8.198   2.195   6.652 -0.2330 -0.0942  0.1462
    4POPC   NC3  410   5.969   1.757   9.360 -0.0382 -0.0096 -0.1714
    4POPC   PO4  411   6.021   2.150   9.184 -0.0092  0.0076  0.2439
    4POPC   GL1  412   6.023   1.866   8.812 -0.1545  0.4247  0.2310
    4POPC   GL2  413   6.266   1.742   8.983 -0.0679 -0.3292  0.1082
    4POPC   C1A  414   5.928   1.410   8.712 -0.3003 -0.2013  0.1458
    4POPC   D2A  415   5.959   1.336   8.303  0.3600 -0.3128 -0.0099
    4POPC   C3A  416   6.068   1.543   7.857  0.5112 -0.0675 -0.0898
    4POPC   C4A  417   6.200   1.690   7.428 -0.2327  0.4830  0.0804
    4POPC   C1B  418   6.539   1.852   8.690 -0.0125 -0.2171  0.1018
    4POPC   C2B  419   6.798   1.749   8.290  0.3014 -0.1876  0.2261
    4POPC   C3B  420   6.748   1.440   8.063  0.0699  0.1886 -0.1259
    4POPC   C4B  421   6.841   0.994   7.792 -0.0711 -0.0801  0.1148
    5POPC   NC3  422   2.145   0.208   8.624  0.3722 -0.1407 -0.0322
    5POPC   PO4  423   2.332  -0.211   8.640 -0.0311  0.2216  0.1035
    5POPC   GL1  424   2.264  -0.420   8.240  0.0330 -0.1438 -0.4642
    5POPC   GL2  425   2.106  -0.341   7.961 -0.0242  0.0319 -0.1442
    5POPC   C1A  426   2.556  -0.572   7.867 -0.0119 -0.0411  0.1339
    5POPC   D2A  427   2.966  -0.597   7.860  0.0067  0.2008 -0.0170
    5POPC   C3A  428   3.307  -0.385   7.622 -0.0760 -0.5590  0.2263
    5POPC   C4A  429   3.298  -0.403   7.121 -0.1622  0.1591 -0.1019
    5POPC   C1B  430   2.100  -0.382   7.587 -0.2834 -0.0019  0.0341
    5POPC   C2B  431   2.282  -0.296   7.177 -0.1663 -0.0019  0.0299
    5POPC   C3B  432   2.426   0.048   7.129 -0.0026  0.2997  0.0730
    5POPC   C4B  433   2.793   0.247   7.348  0.2031  0.3805  0.4052
    6POPC   NC3  434   8.233   5.019   8.848 -0.2062  0.3096  0.0558
    6POPC   PO4  435   8.577   5.187   8.554 -0.0311 -0.0107 -0.0289
    6POPC   GL1  436   8.981   5.088   8.334  0.1287  0.0186  0.2319
    6POPC   GL2  437   8.837   5.298   8.145  0.2584  0.4673  0.0137
    6POPC   C1A  438   9.385   5.220   8.208 -0.0851 -0.1348  0.2182
    6POPC   D2A  439   9.855   5.283   7.936 -0.0846  0.2118  0.1720
    6POPC   C3A  440  10.093   5.542   8.108  0.2202  0.2308  0.0763
    6POPC   C4A  441  10.043   6.001   8.242 -0.0974 -0.0550 -0.0017
    6POPC   C1B  442   8.870   5.051   7.770  0.0319  0.0003 -0.0042
    6POPC   C2B  443   8.659   5.088   7.348 -0.1631 -0.1045  0.1393
    6POPC   C3B  444   8.643   5.071   6.954  0.1324 -0.0523  0.1899
    6POPC   C4B  445   8.566   4.794   6.604  0.1486  0.0357  0.2363
    7POPC   NC3  446   7.116   6.106   8.356  0.0630  0.3413 -0.2061
    7POPC   PO4  447   6.808   6.287   8.540  0.0889  0.0908 -0.1634
    7POPC   GL1  448   6.797   6.457   8.149 -0.1138  0.1288 -0.1343
    7POPC   GL2  449   6.879   6.281   7.964 -0.1522  0.0163  0.2618
    7POPC   C1A  450   6.658   6.768   7.826 -0.0254 -0.1193 -0.0611
    7POPC   D2A  451   6.397   7.005   7.539  0.3160  0.0029  0.1205
    7POPC   C3A  452   6.174   7.471   7.487 -0.1909  0.0647 -0.1937
    7POPC   C4A  453   5.874   7.913   7.525  0.0287  0.3216  0.1879
    7POPC   C1B  454   6.872   6.015   7.580 -0.0547  0.1148 -0.1371
    7POPC   C2B  455   6.850   6.016   7.124 -0.1435 -0.1553 -0.1981
    7POPC   C3B  456   6.653   6.176   6.701  0.0427 -0.3505 -0.3376
    7POPC   C4B  457   6.582   5.920   6.332  0.1214  0.0365 -0.0723
    8POPC   NC3  458   0.535   7.062   8.843  0.1448  0.0445 -0.3023
    8POPC   PO4  459   0.566   7.430   8.757  0.0408 -0.0729  0.1099
    8POPC   GL1  460   0.623   7.338   8.354  0.0696  0.2468  0.1324
    8POPC   GL2  461   0.396   7.568   8.226  0.2266 -0.1119 -0.4340
    8POPC   C1A  462   0.650   7.307   7.905 -0.3521  0.0560  0.3514
    8POPC   D2A  463   0.893   7.163   7.613 -0.2017  0.3393 -0.2211
    8POPC   C3A  464   0.741   6.900   7.444 -0.1936  0.0390 -0.1779
    8POPC   C4A  465   0.372   6.618   7.413  0.0587  0.1445 -0.1518
    8POPC   C1B  466   0.268   7.706   7.770 -0.0392  0.3329 -0.2646
    8POPC   C2B  467   0.281   7.591   7.354  0.1044 -0.2118 -0.1103
    8POPC   C3B  468   0.397   7.498   6.933 -0.0794  0.3577 -0.0147
    8POPC   C4B  469   0.458   7.776   6.706 -0.0520 -0.0488  0.0380
    9POPC   NC3  470   5.104   4.011   8.301  0.1467 -0.0680  0.3299
    9POPC   PO4  471   5.339   3.706   8.262  0.0508 -0.0531 -0.2203
    9POPC   GL1  472   5.328   3.696   7.901  0.0768  0.4054 -0.1865
    9POPC   GL2  473   5.080   3.407   7.881  0.0540  0.1688 -0.1862
    9POPC   C1A  474   5.216   3.597   7.401  0.0582 -0.3818  0.2435
    9POPC   D2A  475   5.137   3.540   7.087 -0.1844  0.1831 -0.2748
    9POPC   C3A  476   4.646   3.571   7.130  0.1602  0.0567 -0.1148
    9POPC   C4A  477   4.325   3.342   7.316 -0.2584 -0.2070 -0.1008
    9POPC   C1B  478   4.909   3.130   7.533 -0.0458  0.0817  0.3172
    9POPC   C2B  479   4.739   2.712   7.576 -0.0369  0.2012  0.0315
    9POPC   C3B  480   4.391   2.385   7.428  0.1021 -0.0079  0.1745
    9POPC   C4B  481   4.249   2.339   6.996  0.0425 -0.3350  0.0037
   10POPC   NC3  482   6.374   5.155   8.042  0.1389 -0.2971 -0.0822
   10POPC   PO4  483   6.661   5.478   8.190 -0.2367  0.0145  0.0331
   10POPC   GL1  484   6.572   5.661   7.818 -0.0855 -0.0694 -0.0244
   10POPC   GL2  485   6.165   5.645   7.824 -0.1187 -0.2321 -0.1075
   10POPC   C1A  486   6.402   5.906   7.492 -0.1538 -0.1223  0.4108
   10POPC   D2A  487   5.920   6.111   7.458 -0.1525 -0.0991  0.1308
   10POPC   C3A  488   5.750   6.266   7.054 -0.4685 -0.0957 -0.0813
   10POPC   C4A  489   5.957   6.537   6.786  0.1237 -0.0105 -0.1702
   10POPC   C1B  490   6.491   5.286   7.474  0.2762 -0.0159 -0.0201
   10POPC   C2B  491   6.321   4.859   7.382 -0.2176 -0.0458 -0.2746
   10POPC   C3B  492   6.427   4.507   7.057  0.0718  0.3429  0.0144
   10POPC   C4B  493   6.437   4.569   6.644  0.0688 -0.2358  0.0947
   11POPC   NC3  494   5.562   8.463   8.990  0.2947  0.0697  0.1075
   11POPC   PO4  495   5.332   8.744   8.901  0.0351 -0.0592  0.1193
   11POPC   GL1  496   5.497   8.734   8.506  0.1882 -0.0722  0.2038
   11POPC   GL2  497   5.768   8.801   8.624  0.5174 -0.0411  0.0966
   11POPC   C1A  498   5.674   8.798   8.041 -0.3353 -0.4321 -0.2126
   11POPC   D2A  499   5.725   8.698   7.627  0.2460 -0.1274 -0.0689
   11POPC   C3A  500   5.915   8.684   7.209 -0.1977 -0.1271 -0.2673
   11POPC   C4A  501   6.169   8.571   6.827  0.2031  0.0254  0.1783
   11POPC   C1B  502   5.772   9.179   8.339 -0.1075  0.0178  0.2596
   11POPC   C2B  503   5.792   9.607   8.164  0.1458  0.0742 -0.0173
   11POPC   C3B  504   5.715   9.947   8.305  0.1881  0.2480  0.1893
   11POPC   C4B  505   5.345  10.140   8.332  0.0984 -0.2106 -0.0326
   12POPC   NC3  506   4.304   2.985   8.179  0.2800 -0.1480 -0.2246
   12POPC   PO4  507   3.983   3.375   8.117 -0.0196 -0.5260 -0.0702
   12POPC   GL1  508   4.004   3.332   7.693 -0.0188  0.0022  0.1437
   12POPC   GL2  509   4.055   3.700   7.745  0.0768 -0.0908  0.0155
   12POPC   C1A  510   3.893   2.975   7.457 -0.2584  0.0861  0.3166
   12POPC   D2A  511   3.875   2.930   6.970 -0.0132  0.1365 -0.0714
   12POPC   C3A  512   4.311   2.828   6.693 -0.0170 -0.0299 -0.2447
   12POPC   C4A  513   4.597   3.049   6.544  0.2212 -0.0092 -0.1412
   12POPC   C1B  514   3.755   3.722   7.480  0.1413 -0.3267  0.0544
   12POPC   C2B  515   3.900   3.476   7.168  0.0830 -0.2705 -0.0783
   12POPC   C3B  516   4.128   3.335   6.768 -0.3662 -0.0310 -0.2702
   12POPC   C4B  517   4.423   3.539   6.677  0.0681 -0.2199 -0.1931
   13POPC   NC3  518   3.269   7.105   9.205 -0.0820 -0.1032  0.1023
   13POPC   PO4  519   3.311   7.139   8.718  0.0191 -0.1435  0.1512
   13POPC   GL1  520   3.554   7.048   8.235  0.1997 -0.0179 -0.1482
   13POPC   GL2  521   3.652   7.347   8.129 -0.1013 -0.1277 -0.1693
   13POPC   C1A  522   3.345   6.894   7.958  0.1630 -0.1939 -0.0530
   13POPC   D2A  523   3.255   6.787   7.605  0.2896  0.0916  0.2538
   13POPC   C3A  524   3.355   7.092   7.379 -0.2074  0.1042 -0.0244
   13POPC   C4A  525   3.135   7.144   6.988 -0.0158  0.1674  0.1449
   13POPC   C1B  526   3.651   7.241   7.700  0.1109  0.1499  0.1362
   13POPC   C2B  527   3.801   7.343   7.320 -0.1330  0.0833 -0.1259
   13POPC   C3B  528   3.650   7.088   6.982 -0.3533  0.2180  0.1302
   13POPC   C4B  529   3.533   7.086   6.543 -0.4171  0.0739  0.0333
   14POPC   NC3  530   9.323   0.981   8.036 -0.1546 -0.3759 -0.2035
   14POPC   PO4  531   9.075   0.816   8.307 -0.2528 -0.2512  0.1968
   14POPC   GL1  532   8.769   0.933   8.088  0.3628 -0.1857 -0.3276
   14POPC   GL2  533   8.724   0.690   7.918 -0.0546  0.3645 -0.0320
   14POPC   C1A  534   8.372   1.090   7.843  0.1323 -0.1442 -0.2983
   14POPC   D2A  535   8.352   1.098   7.386 -0.1232  0.0211 -0.0911
   14POPC   C3A  536   8.390   1.444   7.185 -0.1613  0.1339 -0.2937
   14POPC   C4A  537   8.104   1.732   6.949  0.0126  0.1122 -0.1991
   14POPC   C1B  538   8.822   0.889   7.551 -0.1596 -0.0197 -0.0049
   14POPC   C2B  539   8.795   1.021   7.156 -0.0180 -0.0894  0.0407
   14POPC   C3B  540   8.913   1.273   6.839 -0.0678  0.3447  0.4176
   14POPC   C4B  541   9.217   1.351   6.470 -0.0328  0.3780 -0.3157
   15POPC   NC3  542   0.706   3.026   8.721 -0.1405 -0.2057  0.1743
   15POPC   PO4  543   0.555   3.434   8.623  0.0724 -0.0351  0.2261
   15POPC   GL1  544   0.679   3.432   8.189  0.3513  0.0558  0.0307
   15POPC   GL2  545   0.978   3.360   8.093 -0.1625  0.0170 -0.2582
   15POPC   C1A  546   0.527   3.522   7.708 -0.0485 -0.1171 -0.3288
   15POPC   D2A  547   0.834   3.337   7.445 -0.2022 -0.0172 -0.1364
   15POPC   C3A  548   0.726   3.388   7.050  0.1913 -0.1423 -0.4457
   15POPC   C4A  549   0.684   3.342   6.600  0.2834  0.1883 -0.1032
   15POPC   C1B  550   1.268   3.393   7.825 -0.3212  0.4003  0.4064
   15POPC   C2B  551   1.240   3.113   7.393  0.0587  0.1520  0.2413
   15POPC   C3B  552   0.997   2.969   6.950  0.0466 -0.0985  0.0309
   15POPC   C4B  553   0.739   2.827   6.597  0.1548 -0.0953 -0.1365
   16POPC   NC3  554   1.455   8.043   8.395 -0.1399 -0.0979 -0.0095
   16POPC   PO4  555   1.201   8.455   8.611  0.0360  0.1039 -0.2260
   16POPC   GL1  556   0.912   8.087   8.315 -0.1442  0.0762  0.0986
   16POPC   GL2  557   1.140   7.837   8.111 -0.0697  0.4227 -0.1523
   16POPC   C1A  558   0.592   8.091   7.996  0.2026 -0.0042 -0.1305
   16POPC   D2A  559   0.699   8.325   7.593 -0.0787  0.0425  0.0201
   16POPC   C3A  560   0.735   8.104   7.128  0.0453 -0.3720  0.1208
   16POPC   C4A  561   0.929   8.129   6.797 -0.0740  0.3742 -0.0660
   16POPC   C1B  562   1.105   8.038   7.720 -0.1957  0.0329  0.0101
   16POPC   C2B  563   1.211   8.238   7.335 -0.0436  0.2328 -0.0315
   16POPC   C3B  564   0.949   8.600   7.139  0.1936  0.0096  0.1283
   16POPC   C4B  565   0.828   8.983   7.378  0.3097  0.2619 -0.1227
   17POPC   NC3  566   8.855   2.444   8.946 -0.0403 -0.0801 -0.0536
   17POPC   PO4  567   8.916   2.018   8.783 -0.2083  0.4154  0.1122
   17POPC   GL1  568   8.822   1.789   8.383  0.1504  0.0544  0.0607
   17POPC   GL2  569   8.523   1.889   8.145  0.0797 -0.0619 -0.0933
   17POPC   C1A  570   8.973   1.877   7.878  0.0797 -0.3046  0.3059
   17POPC   D2A  571   9.255   2.247   7.699  0.1887 -0.3342  0.2691
   17POPC   C3A  572   9.466   2.247   7.267 -0.1312  0.3047 -0.4355
   17POPC   C4A  573   9.588   2.327   6.920  0.1205  0.3840  0.6057
   17POPC   C1B  574   8.628   2.287   7.784 -0.0000  0.0166  0.2083
   17POPC   C2B  575   8.542   2.612   7.547  0.0179  0.1087  0.0936
   17POPC   C3B  576   8.670   2.666   7.085 -0.0565 -0.1307 -0.1291
   17POPC   C4B  577   8.589   2.512   6.708 -0.0704 -0.0964  0.0984
   18POPC   NC3  578   2.326   1.094   8.336 -0.3411 -0.0494  0.0825
   18POPC   PO4  579   2.320   0.731   8.549  0.0802 -0.0731  0.0338
   18POPC   GL1  580   2.387   0.410   8.215 -0.0450  0.1345  0.3732
   18POPC   GL2  581   2.227   0.081   8.178  0.1270 -0.3167  0.0089
   18POPC   C1A  582   2.651   0.330   8.024  0.1999  0.1012 -0.3374
   18POPC   D2A  583   3.031   0.132   8.026  0.3572  0.1616  0.0405
   18POPC   C3A  584   3.274   0.124   7.677 -0.2185 -0.1377 -0.2596
   18POPC   C4A  585   3.304   0.059   7.265 -0.0250  0.3708  0.4446
   18POPC   C1B  586   2.605  -0.117   8.017  0.2530  0.1263  0.0739
   18POPC   C2B  587   2.863  -0.150   7.585 -0.2813 -0.4068  0.3231
   18POPC   C3B  588   2.835  -0.197   7.090  0.0988 -0.1356  0.1744
   18POPC   C4B  589   2.672  -0.175   6.756 -0.0844  0.2225 -0.3988
   19POPC   NC3  590   5.325   5.555   8.335  0.2890 -0.0407  0.1286
   19POPC   PO4  591   5.692   5.795   8.307 -0.1858  0.2281  0.3829
   19POPC   GL1  592   5.587   5.861   7.859 -0.0223 -0.1343  0.3736
   19POPC   GL2  593   5.267   5.736   7.837  0.1801  0.2294 -0.0905
   19POPC   C1A  594   5.458   5.910   7.350  0.0076  0.0577 -0.0290
   19POPC   D2A  595   5.393   5.842   6.855  0.4122  0.1221 -0.1257
   19POPC   C3A  596   5.810   6.070   6.567  0.1164 -0.1783 -0.0432
   19POPC   C4A  597   6.191   6.167   6.519  0.1190  0.1305  0.0008
   19POPC   C1B  598   5.009   5.577   7.498 -0.0686  0.3140 -0.0120
   19POPC   C2B  599   4.944   5.605   7.040 -0.1283  0.0387 -0.0829
   19POPC   C3B  600   4.798   5.356   6.659  0.3626 -0.0857 -0.0045
   19POPC   C4B  601   4.600   4.938   6.556  0.0598  0.1035 -0.0394
   20POPC   NC3  602   1.811   9.630   8.372 -0.2820 -0.1506  0.0115
   20POPC   PO4  603   1.805   9.332   8.687  0.3399  0.2427 -0.0613
   20POPC   GL1  604   1.739   9.151   8.262  0.2041  0.0431 -0.1060
   20POPC   GL2  605   1.648   9.216   8.086 -0.0926 -0.3385  0.0671
   20POPC   C1A  606   1.613   8.710   8.183 -0.1914 -0.0510 -0.3287
   20POPC   D2A  607   1.231   8.366   8.052 -0.0210  0.0084 -0.1610
   20POPC   C3A  608   0.732   8.507   8.162  0.0774  0.0106 -0.2790
   20POPC   C4A  609   0.382   8.590   7.973  0.0822  0.3403 -0.2191
   20POPC   C1B  610   1.657   9.303   7.630 -0.2349  0.2704 -0.2947
   20POPC   C2B  611   1.680   9.281   7.145  0.0325 -0.2034 -0.3718
   20POPC   C3B  612   1.895   9.078   6.846  0.0709  0.0240  0.0545
   20POPC   C4B  613   2.048   8.712   6.557  0.0031  0.1187 -0.0160
   21POPC   NC3  614   2.518   7.578   8.681  0.0556 -0.0011  0.4073
   21POPC   PO4  615   2.216   7.401   8.395  0.2017  0.4008  0.1703
   21POPC   GL1  616   2.054   7.475   8.094 -0.0503  0.0219  0.2938
   21POPC   GL2  617   1.933   7.816   8.134 -0.0944 -0.1179 -0.5202
   21POPC   C1A  618   1.894   7.212   7.767 -0.1526  0.1254  0.1762
   21POPC   D2A  619   2.108   6.812   7.620  0.0771 -0.0050  0.2327
   21POPC   C3A  620   2.306   6.756   7.219 -0.0129 -0.2968 -0.1651
   21POPC   C4A  621   2.448   6.997   6.958 -0.1129 -0.0312  0.0258
   21POPC   C1B  622   1.985   7.752   7.720 -0.1382  0.0045  0.2525
   21POPC   C2B  623   2.215   7.746   7.474  0.0524 -0.2084 -0.0610
   21POPC   C3B  624   2.354   7.914   7.043  0.1571  0.0380  0.0599
   21POPC   C4B  625   2.465   7.806   6.616 -0.0039  0.0698 -0.0064
   22POPC   NC3  626   4.441   5.853   8.252  0.0765 -0.3206  0.0464
   22POPC   PO4  627   4.658   6.327   8.422  0.2469 -0.1441 -0.0180
   22POPC   GL1  628   4.816   6.377   8.021 -0.0801 -0.3286  0.1358
   22POPC   GL2  629   4.586   6.442   7.780 -0.1895 -0.0362 -0.1402
   22POPC   C1A  630   5.031   6.204   7.625  0.0876  0.1061 -0.1810
   22POPC   D2A  631   5.075   6.161   7.206 -0.2026 -0.1121  0.0773
   22POPC   C3A  632   5.052   6.482   6.818 -0.1666  0.2131  0.1852
   22POPC   C4A  633   5.212   6.840   6.574  0.0774 -0.0577  0.0146
   22POPC   C1B  634   4.243   6.166   7.503 -0.0104  0.0864  0.1389
   22POPC   C2B  635   4.077   6.208   7.068 -0.3294  0.5197  0.2137
   22POPC   C3B  636   3.840   6.539   7.025 -0.0665 -0.1282  0.1630
   22POPC   C4B  637   3.538   6.610   7.178  0.0519 -0.0280 -0.0802
   23POPC   NC3  638   8.612   3.634   8.599 -0.0505  0.2119 -0.0137
   23POPC   PO4  639   8.277   3.897   8.607 -0.1351 -0.0599 -0.3223
   23POPC   GL1  640   8.334   3.872   8.214  0.0209 -0.1117  0.0957
   23POPC   GL2  641   8.496   3.616   8.145 -0.0975 -0.1550  0.1930
   23POPC   C1A  642   8.514   3.907   7.752  0.0603 -0.2885 -0.3272
   23POPC   D2A  643   8.420   4.175   7.487 -0.1622 -0.0262 -0.2049
   23POPC   C3A  644   8.062   4.341   7.457  0.1735 -0.1612  0.2779
   23POPC   C4A  645   7.681   4.467   7.644 -0.1598  0.0051  0.1845
   23POPC   C1B  646   8.318   3.443   7.672  0.4170 -0.6600 -0.2786
   23POPC   C2B  647   8.570   3.537   7.390  0.1622 -0.2864 -0.2982
   23POPC   C3B  648   8.834   3.555   6.938 -0.1792  0.0262  0.1722
   23POPC   C4B  649   9.127   3.487   6.581  0.1936 -0.3153  0.1841
   24POPC   NC3  650   8.681   2.279   8.460 -0.2281 -0.0794  0.0449
   24POPC   PO4  651   8.335   2.398   8.715 -0.0160  0.3440 -0.0314
   24POPC   GL1  652   8.311   2.614   8.434  0.0332 -0.2638 -0.0118
   24POPC   GL2  653   7.919   2.621   8.412  0.0562 -0.1738  0.0266
   24POPC   C1A  654   8.168   2.537   8.040 -0.0459  0.0869  0.0221
   24POPC   D2A  655   7.895   2.492   7.657 -0.0431  0.2305  0.1457
   24POPC   C3A  656   7.678   2.817   7.764  0.1376 -0.0968 -0.0096
   24POPC   C4A  657   7.812   3.085   8.094 -0.0269  0.0718 -0.0316
   24POPC   C1B  658   7.674   2.286   8.169 -0.0384 -0.2377  0.0376
   24POPC   C2B  659   7.622   2.071   7.746 -0.0359 -0.2596  0.2838
   24POPC   C3B  660   7.760   1.852   7.415 -0.3347 -0.0405 -0.1543
   24POPC   C4B  661   7.998   1.611   7.419  0.0278 -0.5476  0.0523
   25POPC   NC3  662   0.731   0.978   8.826 -0.1023 -0.0057 -0.1283
   25POPC   PO4  663   0.976   1.118   8.499 -0.2251 -0.1965  0.2385
   25POPC   GL1  664   1.001   1.188   8.060 -0.2763  0.2745 -0.0690
   25POPC   GL2  665   1.222   1.013   7.943  0.0626 -0.0509 -0.1979
   25POPC   C1A  666   0.933   1.389   7.695 -0.0907  0.1473 -0.0075
   25POPC   D2A  667   0.600   1.560   7.404 -0.0823 -0.2649 -0.0480
   25POPC   C3A  668   0.423   1.363   7.004 -0.3752 -0.1210  0.0004
   25POPC   C4A  669   0.410   1.549   6.578 -0.0259  0.0296  0.1659
   25POPC   C1B  670   0.985   0.891   7.549  0.0287 -0.2506 -0.0707
   25POPC   C2B  671   1.022   0.709   7.135 -0.2414 -0.0428  0.0622
   25POPC   C3B  672   0.983   0.443   6.780  0.1879 -0.3033  0.1289
   25POPC   C4B  673   1.343   0.527   6.527 -0.2988 -0.1332  0.0650
   26POPC   NC3  674   6.025   8.725   9.793 -0.0627 -0.0010  0.1505
   26POPC   PO4  675   6.172   8.731   9.385 -0.0851  0.0247 -0.0428
   26POPC   GL1  676   6.270   9.086   8.984 -0.5614  0.0189 -0.2415
   26POPC   GL2  677   5.903   9.110   8.999  0.0767 -0.1286  0.2259
   26POPC   C1A  678   6.239   9.250   8.527  0.4092 -0.0132  0.0008
   26POPC   D2A  679   6.279   9.678   8.426  0.0922 -0.1085  0.0855
   26POPC   C3A  680   6.255   9.697   7.954 -0.0899  0.1999 -0.0319
   26POPC   C4A  681   5.929   9.809   7.555  0.0056 -0.1891  0.0042
   26POPC   C1B  682   5.974   9.540   8.838 -0.1626  0.2220 -0.0605
   26POPC   C2B  683   6.024   9.950   8.867  0.3261  0.3614 -0.4744
   26POPC   C3B  684   6.149  10.200   8.533 -0.1380 -0.0244 -0.3421
   26POPC   C4B  685   6.306  10.536   8.545  0.0712 -0.1590 -0.2594
   27POPC   NC3  686   6.857   2.998   8.583 -0.2657  0.0286 -0.1185
   27POPC   PO4  687   6.841   3.270   8.206 -0.0431  0.3203 -0.0768
   27POPC   GL1  688   6.787   3.046   7.937  0.0820 -0.1013  0.0324
   27POPC   GL2  689   6.863   2.797   8.063  0.0184  0.0346 -0.0095
   27POPC   C1A  690   6.751   3.170   7.491 -0.1829 -0.1655 -0.0521
   27POPC   D2A  691   6.584   3.112   7.063 -0.0131 -0.3532  0.2083
   27POPC   C3A  692   6.638   2.685   6.901  0.2625  0.2502 -0.1332
   27POPC   C4A  693   6.633   2.310   6.649 -0.3040 -0.0529 -0.2068
   27POPC   C1B  694   6.810   2.674   7.589  0.1127  0.1888 -0.0263
   27POPC   C2B  695   7.006   2.836   7.203 -0.2401  0.0653  0.1389
   27POPC   C3B  696   7.071   2.947   6.810 -0.0296  0.2861  0.2319
   27POPC   C4B  697   7.171   3.053   6.399  0.3165 -0.0112  0.1095
   28POPC   NC3  698   3.888   5.017   8.305 -0.1412 -0.2368  0.0127
   28POPC   PO4  699   4.213   4.860   8.295  0.0119  0.0274  0.2714
   28POPC   GL1  700   4.162   4.757   7.972 -0.2210 -0.2160  0.1789
   28POPC   GL2  701   4.457   4.658   7.819  0.0297 -0.0441  0.0370
   28POPC   C1A  702   4.004   4.751   7.608 -0.0064  0.2272 -0.0438
   28POPC   D2A  703   3.859   4.619   7.318  0.1014 -0.0814 -0.0686
   28POPC   C3A  704   3.902   4.236   7.034 -0.0298 -0.2214 -0.2717
   28POPC   C4A  705   3.695   3.846   6.946 -0.0724  0.1268 -0.0093
   28POPC   C1B  706   4.471   4.749   7.378  0.0850 -0.0134  0.2263
   28POPC   C2B  707   4.660   4.953   7.056 -0.0915  0.0340  0.0371
   28POPC   C3B  708   5.131   5.092   6.944 -0.2094 -0.0390 -0.3078
   28POPC   C4B  709   5.412   5.358   7.001  0.0972 -0.0648 -0.1791
   29POPC   NC3  710   8.363   7.065   8.797 -0.1273 -0.1142 -0.0781
   29POPC   PO4  711   8.291   7.282   8.417  0.0214  0.2492  0.3317
   29POPC   GL1  712   8.215   7.366   7.976 -0.0647 -0.0154  0.0162
   29POPC   GL2  713   8.326   7.074   7.795  0.1982  0.0563  0.0077
   29POPC   C1A  714   7.855   7.487   7.695 -0.0962  0.0395  0.2101
   29POPC   D2A  715   7.781   7.465   7.275 -0.2680 -0.0054 -0.1732
   29POPC   C3A  716   7.606   7.868   7.061  0.2091 -0.2875  0.1133
   29POPC   C4A  717   7.821   8.268   7.003 -0.2431 -0.0685 -0.1146
   29POPC   C1B  718   8.313   6.877   7.356 -0.2210 -0.1752 -0.0527
   29POPC   C2B  719   8.577   6.603   7.045  0.1665  0.2259 -0.1813
   29POPC   C3B  720   8.882   6.569   6.785 -0.0826 -0.0638  0.1677
   29POPC   C4B  721   9.092   6.759   6.411  0.1493 -0.1880  0.1208
   30POPC   NC3  722   2.866   3.220   8.222  0.0127  0.1501 -0.1463
   30POPC   PO4  723   2.540   3.376   8.194 -0.3116  0.0336  0.1002
   30POPC   GL1  724   2.645   3.576   7.806  0.0418  0.4573 -0.1198
   30POPC   GL2  725   2.969   3.624   7.766  0.3819 -0.3025 -0.3056
   30POPC   C1A  726   2.714   3.649   7.322 -0.0002  0.1387  0.0216
   30POPC   D2A  727   2.630   3.568   6.841  0.1153 -0.0612 -0.0798
   30POPC   C3A  728   2.801   3.779   6.592  0.2729 -0.0179 -0.0799
   30POPC   C4A  729   2.837   4.031   6.265  0.2973  0.1164  0.0368
   30POPC   C1B  730   3.191   3.722   7.447  0.1299  0.3651 -0.1661
   30POPC   C2B  731   3.259   3.780   7.072  0.0144  0.1410 -0.0584
   30POPC   C3B  732   3.351   3.840   6.590 -0.1595  0.0180 -0.1347
   30POPC   C4B  733   3.328   4.177   6.318  0.3190 -0.0503  0.0442
   31POPC   NC3  734   1.862   2.234   8.471 -0.1493 -0.0126  0.0947
   31POPC   PO4  735   2.254   2.095   8.316 -0.0965  0.0712  0.0436
   31POPC   GL1  736   1.906   2.006   8.049 -0.1327 -0.1673  0.1397
   31POPC   GL2  737   1.638   2.248   7.984  0.1889 -0.0686  0.0528
   31POPC   C1A  738   1.715   1.852   7.658  0.2587 -0.1020 -0.1075
   31POPC   D2A  739   1.419   1.650   7.339 -0.1791  0.1945  0.0009
   31POPC   C3A  740   1.464   1.564   6.820  0.0521 -0.0130 -0.3797
   31POPC   C4A  741   1.572   1.430   6.364 -0.0417 -0.0007  0.3408
   31POPC   C1B  742   1.810   2.283   7.449  0.1778 -0.0165 -0.0430
   31POPC   C2B  743   2.017   2.286   7.131 -0.2085 -0.5328 -0.0514
   31POPC   C3B  744   2.318   2.103   6.848 -0.2519 -0.4690  0.3915
   31POPC   C4B  745   2.215   1.756   6.568  0.1911 -0.1928 -0.0160
   32POPC   NC3  746   9.615   8.819   9.277 -0.4135  0.0003  0.1643
   32POPC   PO4  747   9.575   8.795   8.901 -0.2845  0.0766  0.2938
   32POPC   GL1  748   9.522   8.772   8.398 -0.1592 -0.1253  0.1561
   32POPC   GL2  749   9.404   8.463   8.220 -0.0622 -0.3743  0.0700
   32POPC   C1A  750   9.601   8.833   7.950  0.0151 -0.1777 -0.1697
   32POPC   D2A  751   9.635   8.673   7.496 -0.0459  0.1573  0.3430
   32POPC   C3A  752   9.462   8.370   7.375  0.0091  0.0591 -0.0916
   32POPC   C4A  753   9.282   8.102   7.503  0.3654  0.0182  0.0635
   32POPC   C1B  754   9.561   8.252   7.940 -0.2501 -0.2069 -0.1648
   32POPC   C2B  755   9.835   8.175   7.643  0.0379  0.1526  0.1322
   32POPC   C3B  756   9.856   8.119   7.217  0.0699  0.0951  0.3620
   32POPC   C4B  757   9.602   7.949   6.850  0.2562  0.1522 -0.0546
   33POPC   NC3  758   6.856   8.909   9.497 -0.0610 -0.1475  0.1587
   33POPC   PO4  759   6.744   8.741   9.071  0.2191  0.0701  0.1450
   33POPC   GL1  760   6.660   8.887   8.627  0.0102  0.1285  0.0786
   33POPC   GL2  761   6.469   8.598   8.449 -0.1851 -0.0685  0.0428
   33POPC   C1A  762   6.696   8.963   8.169  0.0607  0.1362 -0.2432
   33POPC   D2A  763   6.720   9.435   7.996  0.1614 -0.0237  0.1118
   33POPC   C3A  764   6.797   9.620   7.614 -0.0140  0.0548 -0.0101
   33POPC   C4A  765   6.837   9.803   7.227  0.2949 -0.0795 -0.1321
   33POPC   C1B  766   6.483   8.525   7.995  0.2255  0.3533 -0.1134
   33POPC   C2B  767   6.607   8.395   7.444 -0.1651  0.1337 -0.1712
   33POPC   C3B  768   6.830   8.188   7.033 -0.1357 -0.0405  0.0783
   33POPC   C4B  769   7.204   8.137   6.900 -0.2367 -0.0293 -0.1367
   34POPC   NC3  770   8.327   9.245   8.239  0.2254  0.0395  0.1195
   34POPC   PO4  771   8.526   9.612   8.399 -0.3139 -0.1349 -0.1534
   34POPC   GL1  772   8.662   9.583   8.029  0.1014 -0.1428 -0.1101
   34POPC   GL2  773   8.831   9.801   7.854 -0.0804 -0.0055 -0.4703
   34POPC   C1A  774   8.676   9.364   7.665  0.0782 -0.0785  0.1235
   34POPC   D2A  775   8.605   9.296   7.199  0.2170 -0.1816  0.1076
   34POPC   C3A  776   8.417   9.415   6.853  0.0842  0.1068 -0.2604
   34POPC   C4A  777   8.389   9.625   6.386  0.4881  0.0687  0.1630
   34POPC   C1B  778   9.031   9.651   7.426 -0.0451  0.0276  0.1261
   34POPC   C2B  779   8.978   9.657   6.928  0.1071  0.1953 -0.0329
   34POPC   C3B  780   8.849   9.968   6.757  0.3121  0.2532  0.0382
   34POPC   C4B  781   8.775  10.119   6.410  0.1559 -0.0294 -0.2554
   35POPC   NC3  782   6.116   2.400   8.721 -0.3832  0.0108  0.1362
   35POPC   PO4  783   6.403   2.759   8.659  0.1539  0.0488  0.1478
   35POPC   GL1  784   6.566   2.567   8.346  0.2687 -0.1054  0.3937
   35POPC   GL2  785   6.606   2.168   8.342  0.0651  0.0687 -0.0882
   35POPC   C1A  786   6.478   2.474   7.924  0.1237  0.1131 -0.3797
   35POPC   D2A  787   6.318   2.383   7.515 -0.1064  0.2049 -0.2260
   35POPC   C3A  788   5.975   2.247   7.321 -0.0596 -0.0539 -0.1651
   35POPC   C4A  789   5.840   2.062   6.921 -0.0328 -0.4334 -0.2825
   35POPC   C1B  790   6.158   2.081   8.106  0.0915  0.0210 -0.3468
   35POPC   C2B  791   5.941   2.048   7.778 -0.1856 -0.5479  0.0920
   35POPC   C3B  792   5.687   1.827   7.430  0.3960  0.2450  0.4154
   35POPC   C4B  793   5.340   1.558   7.432  0.2358  0.0456  0.0113
   36POPC   NC3  794   3.965   6.765   8.228  0.2309 -0.0107 -0.1403
   36POPC   PO4  795   3.677   6.543   8.554  0.0680 -0.1093 -0.0307
   36POPC   GL1  796   3.676   6.355   8.171  0.2048  0.1954 -0.0237
   36POPC   GL2  797   3.512   6.481   7.966 -0.4759  0.0887  0.2294
   36POPC   C1A  798   3.803   6.097   7.854 -0.0919  0.2253 -0.2130
   36POPC   D2A  799   4.180   5.809   7.816 -0.0594  0.0718 -0.3142
   36POPC   C3A  800   4.153   5.659   7.381 -0.1169  0.2096 -0.1144
   36POPC   C4A  801   3.915   5.609   7.091 -0.1288  0.1459 -0.4769
   36POPC   C1B  802   3.859   6.521   7.651  0.3190 -0.0817  0.0456
   36POPC   C2B  803   4.014   6.757   7.396 -0.0028  0.0423 -0.0991
   36POPC   C3B  804   4.145   6.976   7.083  0.1371  0.2033  0.2365
   36POPC   C4B  805   4.094   6.977   6.746  0.4083 -0.0902  0.2424
   37POPC   NC3  806   6.674   3.655   8.406 -0.0045  0.0942  0.0108
   37POPC   PO4  807   6.644   3.996   8.058 -0.2156  0.0958  0.4354
   37POPC   GL1  808   6.860   4.056   7.755 -0.3344 -0.1445  0.0409
   37POPC   GL2  809   6.652   4.359   7.672  0.2733  0.3096 -0.0584
   37POPC   C1A  810   6.780   3.869   7.404 -0.0835  0.2794  0.0421
   37POPC   D2A  811   6.914   3.458   7.043 -0.0577  0.1118 -0.1631
   37POPC   C3A  812   6.837   3.433   6.708  0.0939 -0.0910  0.2605
   37POPC   C4A  813   6.904   3.825   6.419  0.1683 -0.1501 -0.1252
   37POPC   C1B  814   6.781   4.620   7.358 -0.1584  0.0533  0.0229
   37POPC   C2B  815   6.976   4.700   6.910  0.0154 -0.0805  0.0253
   37POPC   C3B  816   7.261   4.618   6.488  0.1925 -0.3046 -0.2176
   37POPC   C4B  817   7.526   4.543   6.131 -0.0298 -0.2747 -0.2867
   38POPC   NC3  818   5.464   0.504   9.992  0.0685 -0.1177 -0.3023
   38POPC   PO4  819   5.774   0.476   9.604 -0.0655  0.6024 -0.1768
   38POPC   GL1  820   5.908   0.637   9.264  0.0147 -0.0923 -0.0503
   38POPC   GL2  821   6.233   0.854   9.249  0.3039  0.1510  0.1653
   38POPC   C1A  822   5.905   0.789   8.880  0.2044 -0.0109 -0.0293
   38POPC   D2A  823   5.698   0.824   8.511  0.0312  0.2318 -0.2161
   38POPC   C3A  824   5.959   0.843   8.097  0.0200 -0.0787  0.2704
   38POPC   C4A  825   6.342   1.132   8.042 -0.1828  0.3445 -0.0954
   38POPC   C1B  826   6.255   1.157   8.979  0.0164 -0.3125 -0.1125
   38POPC   C2B  827   6.377   1.405   8.538 -0.2033 -0.0251  0.0792
   38POPC   C3B  828   6.308   1.659   8.243 -0.3241 -0.1902 -0.0655
   38POPC   C4B  829   6.490   1.855   7.822  0.1969  0.0722 -0.0884
   39POPC   NC3  830   1.000   0.181   8.213 -0.1221 -0.1681 -0.4076
   39POPC   PO4  831   1.391   0.281   8.344 -0.2560 -0.0971  0.0809
   39POPC   GL1  832   1.525   0.010   7.905 -0.2660  0.3311  0.3310
   39POPC   GL2  833   1.800   0.054   7.850  0.0191  0.3378  0.2121
   39POPC   C1A  834   1.266  -0.178   7.526 -0.0268  0.2055 -0.0393
   39POPC   D2A  835   1.017  -0.291   7.161 -0.2838  0.2986 -0.0436
   39POPC   C3A  836   1.197  -0.535   6.904 -0.2762 -0.2670 -0.3092
   39POPC   C4A  837   1.491  -0.743   6.726  0.0324 -0.3830 -0.3492
   39POPC   C1B  838   1.836   0.049   7.377 -0.0191  0.1832  0.2167
   39POPC   C2B  839   2.055   0.420   7.173 -0.3752  0.2184  0.2677
   39POPC   C3B  840   2.240   0.662   6.846  0.1156  0.1839  0.2746
   39POPC   C4B  841   2.094   0.830   6.577  0.0953  0.0701 -0.2855
   40POPC   NC3  842   7.988   8.370   8.886 -0.3582  0.0596  0.0713
   40POPC   PO4  843   7.968   8.728   8.663 -0.1770 -0.2448  0.2101
   40POPC   GL1  844   7.998   8.759   8.206  0.1987  0.3231  0.0944
   40POPC   GL2  845   7.720   8.639   8.162  0.0809  0.2464  0.0966
   40POPC   C1A  846   8.093   8.789   7.770  0.1411  0.1433 -0.2462
   40POPC   D2A  847   7.853   8.705   7.334  0.0231  0.2754 -0.1289
   40POPC   C3A  848   7.983   8.939   6.998  0.1416  0.0579  0.4434
   40POPC   C4A  849   8.099   9.024   6.558 -0.2690 -0.3411 -0.0881
   40POPC   C1B  850   7.543   8.482   7.725 -0.2273 -0.2051  0.3924
   40POPC   C2B  851   7.406   8.082   7.464  0.3355  0.0615  0.0462
   40POPC   C3B  852   7.363   7.597   7.630 -0.1365  0.3327  0.1803
   40POPC   C4B  853   7.383   7.213   7.536  0.4517  0.1975 -0.1300
   41POPC   NC3  854   5.299   6.066   8.196  0.3047  0.1472  0.1690
   41POPC   PO4  855   4.960   5.901   8.190  0.0801  0.2075 -0.1365
   41POPC   GL1  856   4.723   5.881   7.790  0.2816 -0.2030 -0.1049
   41POPC   GL2  857   4.587   5.614   7.737  0.0180  0.5709  0.0836
   41POPC   C1A  858   4.653   5.913   7.329 -0.0256  0.2103  0.0983
   41POPC   D2A  859   4.407   5.831   6.993  0.0925  0.2439 -0.1292
   41POPC   C3A  860   4.728   5.861   6.659  0.3791  0.1782  0.1384
   41POPC   C4A  861   4.999   5.796   6.308  0.1197  0.1693 -0.3040
   41POPC   C1B  862   4.549   5.424   7.237 -0.3776 -0.0728 -0.0778
   41POPC   C2B  863   4.347   5.331   6.850 -0.1354 -0.2688  0.0780
   41POPC   C3B  864   4.042   5.060   6.647  0.2533  0.0936  0.0716
   41POPC   C4B  865   3.918   4.692   6.385  0.2852 -0.0312 -0.2065
   42POPC   NC3  866   0.499   1.305   8.468  0.1095 -0.0758 -0.2303
   42POPC   PO4  867   0.117   1.211   8.203 -0.0913 -0.4251 -0.2583
   42POPC   GL1  868   0.013   1.374   7.830 -0.2676 -0.1829  0.3603
   42POPC   GL2  869  -0.274   1.334   7.696 -0.1019 -0.1614  0.0466
   42POPC   C1A  870   0.134   1.629   7.525 -0.1365  0.1622  0.0466
   42POPC   D2A  871   0.053   1.710   7.108 -0.3791 -0.0324 -0.3373
   42POPC   C3A  872  -0.222   1.409   7.095  0.4977 -0.1097  0.0047
   42POPC   C4A  873  -0.446   1.135   7.230 -0.1598 -0.1754  0.1873
   42POPC   C1B  874  -0.014   1.083   7.407 -0.0926 -0.0481  0.0080
   42POPC   C2B  875  -0.011   0.985   6.958 -0.1667  0.2135 -0.0852
   42POPC   C3B  876  -0.009   1.138   6.545  0.0428 -0.0408  0.0692
   42POPC   C4B  877  -0.263   1.032   6.186  0.2474  0.1448  0.1747
   43POPC   NC3  878   9.308   6.604   8.807  0.1605  0.0640  0.0288
   43POPC   PO4  879   8.890   6.794   8.759  0.1232  0.2531 -0.0019
   43POPC   GL1  880   9.182   6.871   8.408  0.2114 -0.2708  0.1493
   43POPC   GL2  881   9.443   6.802   8.335 -0.0445  0.0953  0.2129
   43POPC   C1A  882   9.076   6.999   7.997 -0.0992  0.0901  0.1595
   43POPC   D2A  883   9.351   7.111   7.622  0.3723  0.2071 -0.2271
   43POPC   C3A  884   9.023   7.419   7.371 -0.2087 -0.1073 -0.0871
   43POPC   C4A  885   8.678   7.229   7.116  0.2403 -0.0387 -0.0353
   43POPC   C1B  886   9.405   6.339   8.090 -0.2200  0.0662  0.1583
   43POPC   C2B  887   9.298   6.032   7.679 -0.0334  0.3564 -0.2146
   43POPC   C3B  888   9.146   5.812   7.496  0.3707  0.0528  0.1878
   43POPC   C4B  889   9.021   5.427   7.375  0.2749  0.1730  0.2349
   44POPC   NC3  890   1.848   7.072   8.507 -0.2801 -0.4257 -0.2184
   44POPC   PO4  891   1.637   7.458   8.345 -0.1363 -0.1418 -0.0073
   44POPC   GL1  892   1.582   7.508   7.958  0.0583 -0.1802 -0.0580
   44POPC   GL2  893   1.535   7.813   7.833  0.1658 -0.1021 -0.0393
   44POPC   C1A  894   1.154   7.560   7.717  0.1003  0.1090 -0.2066
   44POPC   D2A  895   0.809   7.664   7.598 -0.4699 -0.1235 -0.0902
   44POPC   C3A  896   0.846   7.646   7.203  0.1755  0.0802 -0.0938
   44POPC   C4A  897   1.238   7.614   7.002 -0.0041  0.2368  0.0709
   44POPC   C1B  898   1.567   7.579   7.425 -0.2370  0.2152  0.1365
   44POPC   C2B  899   1.836   7.514   7.085 -0.1131  0.0877  0.3068
   44POPC   C3B  900   1.799   7.711   6.681 -0.1443 -0.1567 -0.0388
   44POPC   C4B  901   1.966   8.086   6.383 -0.1748 -0.0749  0.0717
   45POPC   NC3  902   1.451   4.881   8.622 -0.0530  0.3280  0.0172
   45POPC   PO4  903   1.646   5.298   8.574  0.0490  0.0310  0.0781
   45POPC   GL1  904   1.560   5.087   8.214  0.2663  0.7527  0.0807
   45POPC   GL2  905   1.225   5.091   8.091 -0.0931 -0.4055  0.0412
   45POPC   C1A  906   1.559   4.805   7.887  0.0643 -0.0999 -0.0532
   45POPC   D2A  907   1.569   4.665   7.447 -0.0390 -0.1822  0.0457
   45POPC   C3A  908   1.440   4.525   7.192  0.0489  0.1021  0.0286
   45POPC   C4A  909   1.283   4.385   6.795  0.1067  0.0533 -0.4645
   45POPC   C1B  910   1.101   5.003   7.677 -0.0426  0.1118  0.0624
   45POPC   C2B  911   1.115   4.862   7.325 -0.3650 -0.1809 -0.1843
   45POPC   C3B  912   0.949   4.733   7.023 -0.2136 -0.0682  0.1005
   45POPC   C4B  913   0.675   4.956   6.688  0.1491 -0.1822 -0.2216
   46POPC   NC3  914   1.270   2.714   8.751  0.1486 -0.2115 -0.2628
   46POPC   PO4  915   1.641   2.716   8.351  0.0458  0.2537 -0.3857
   46POPC   GL1  916   1.513   2.783   7.996  0.1038  0.0095  0.1650
   46POPC   GL2  917   1.580   2.797   7.653  0.3499  0.1160  0.4636
   46POPC   C1A  918   1.127   2.864   7.831 -0.0077 -0.0741 -0.0107
   46POPC   D2A  919   0.892   2.720   7.426  0.1861 -0.1308  0.0176
   46POPC   C3A  920   0.484   2.940   7.219  0.0245 -0.0371 -0.0416
   46POPC   C4A  921   0.271   3.282   7.071  0.0971  0.1440  0.0238
   46POPC   C1B  922   1.540   2.676   7.194 -0.0132 -0.1769  0.0785
   46POPC   C2B  923   1.191   2.473   7.047 -0.3500 -0.0607 -0.2175
   46POPC   C3B  924   0.807   2.362   6.921 -0.2505  0.2679 -0.2056
   46POPC   C4B  925   0.392   2.548   6.771 -0.1775 -0.0139 -0.2635
   47POPC   NC3  926   7.206   1.632   9.123  0.3387  0.2965  0.2371
   47POPC   PO4  927   7.549   1.280   9.051 -0.0546  0.0095 -0.2184
   47POPC   GL1  928   7.231   1.110   8.768 -0.2257 -0.3303 -0.1688
   47POPC   GL2  929   7.483   1.085   8.480  0.1360  0.1231 -0.0113
   47POPC   C1A  930   6.844   1.144   8.449 -0.2992 -0.1345  0.0508
   47POPC   D2A  931   6.741   0.724   8.190 -0.1011  0.0405 -0.1850
   47POPC   C3A  932   6.460   0.687   7.842 -0.0239  0.0490 -0.2796
   47POPC   C4A  933   6.074   0.532   7.764  0.1584 -0.0761  0.0590
   47POPC   C1B  934   7.611   1.167   8.143  0.0571  0.1052 -0.0607
   47POPC   C2B  935   7.793   1.097   7.752  0.1662 -0.0832 -0.2573
   47POPC   C3B  936   7.861   1.096   7.333  0.1863  0.1550  0.0338
   47POPC   C4B  937   7.938   1.270   6.882  0.0863 -0.0574  0.1030
   48POPC   NC3  938   6.325   8.057   8.557  0.2505 -0.0704 -0.0223
   48POPC   PO4  939   5.869   8.206   8.714 -0.1606  0.0694 -0.0353
   48POPC   GL1  940   5.955   8.418   8.360  0.0739 -0.0319 -0.0569
   48POPC   GL2  941   5.659   8.339   8.231 -0.3217 -0.1012 -0.0069
   48POPC   C1A  942   6.167   8.858   8.206 -0.1339 -0.2622  0.1069
   48POPC   D2A  943   6.123   9.173   7.987 -0.0728 -0.1731  0.2547
   48POPC   C3A  944   5.776   9.225   7.750  0.0744 -0.4511  0.2795
   48POPC   C4A  945   5.592   9.133   7.364  0.0677  0.1520  0.2355
   48POPC   C1B  946   5.592   8.172   7.795 -0.3627 -0.0695 -0.2820
   48POPC   C2B  947   5.407   8.063   7.399  0.2795  0.0759 -0.0995
   48POPC   C3B  948   4.969   8.015   7.227 -0.0946  0.0570  0.3434
   48POPC   C4B  949   4.567   7.797   7.397  0.0124 -0.0973  0.0334
   49POPC   NC3  950   0.945   9.203   8.500  0.0759  0.0340 -0.1943
   49POPC   PO4  951   1.319   9.457   8.361 -0.1386  0.0947  0.3363
   49POPC   GL1  952   1.161   9.312   8.033 -0.0321 -0.2304 -0.1428
   49POPC   GL2  953   0.932   9.436   7.892  0.1201 -0.0241 -0.1067
   49POPC   C1A  954   1.285   9.038   7.755  0.0380 -0.1499  0.0572
   49POPC   D2A  955   1.365   8.929   7.299 -0.2796 -0.2696  0.2883
   49POPC   C3A  956   1.698   8.503   7.216  0.3293 -0.0013  0.0347
   49POPC   C4A  957   1.994   8.292   6.884  0.1289 -0.1975  0.0460
   49POPC   C1B  958   0.660   9.453   7.520  0.0295 -0.1350  0.0588
   49POPC   C2B  959   0.370   9.396   7.192  0.3089 -0.1878 -0.2292
   49POPC   C3B  960   0.183   9.200   6.801  0.1342 -0.2669  0.0679
   49POPC   C4B  961   0.202   8.829   6.662 -0.1670 -0.1568 -0.0854
   50POPC   NC3  962   7.630   6.627   8.355 -0.3285  0.0776 -0.0431
   50POPC   PO4  963   7.231   6.589   8.392 -0.1013  0.2662  0.1492
   50POPC   GL1  964   7.354   6.540   7.983  0.1969  0.1073 -0.0144
   50POPC   GL2  965   7.453   6.871   7.858  0.5709  0.0751  0.0736
   50POPC   C1A  966   7.186   6.382   7.548 -0.0980  0.0820  0.1284
   50POPC   D2A  967   7.390   6.051   7.346 -0.0908 -0.0017  0.2162
   50POPC   C3A  968   7.278   5.723   7.078  0.0871  0.1401 -0.0086
   50POPC   C4A  969   7.029   5.292   6.849  0.0756  0.2404  0.1274
   50POPC   C1B  970   7.057   6.859   7.453  0.0257 -0.0827  0.0847
   50POPC   C2B  971   6.833   6.980   7.007 -0.0287 -0.1370 -0.2297
   50POPC   C3B  972   6.751   7.305   6.795  0.0012  0.0197  0.2246
   50POPC   C4B  973   6.280   7.451   6.598  0.3589  0.0832 -0.0069
   51POPC   NC3  974   2.978   5.818   9.348 -0.1670 -0.2457  0.3500
   51POPC   PO4  975   3.060   5.779   8.840  0.0668  0.2081  0.2563
   51POPC   GL1  976   2.986   5.766   8.304 -0.0818  0.0087 -0.0723
   51POPC   GL2  977   3.185   5.422   7.988  0.1765 -0.0548  0.0702
   51POPC   C1A  978   2.859   5.859   7.888 -0.2850  0.3052  0.2130
   51POPC   D2A  979   3.012   5.825   7.420  0.1894 -0.1223  0.2494
   51POPC   C3A  980   2.917   5.690   7.062  0.2741  0.4079  0.1192
   51POPC   C4A  981   2.839   5.845   6.780 -0.2173  0.1427  0.2590
   51POPC   C1B  982   3.085   5.312   7.530  0.4266 -0.1233  0.3966
   51POPC   C2B  983   3.175   5.191   7.127  0.2876 -0.2725  0.0504
   51POPC   C3B  984   3.258   5.468   6.808 -0.0888 -0.1155 -0.0701
   51POPC   C4B  985   3.615   5.627   6.699 -0.3061 -0.1167 -0.2971
   52POPC   NC3  986   0.684   4.571   8.686 -0.0839  0.1412 -0.3147
   52POPC   PO4  987   1.039   4.657   8.525  0.1212 -0.2662 -0.2812
   52POPC   GL1  988   1.261   4.518   8.121  0.2582  0.0331 -0.1795
   52POPC   GL2  989   1.363   4.182   8.147 -0.3937  0.0677  0.0231
   52POPC   C1A  990   1.171   4.498   7.650  0.2115  0.1946  0.1198
   52POPC   D2A  991   1.017   4.292   7.295  0.2122 -0.0941  0.1485
   52POPC   C3A  992   0.506   4.147   7.190 -0.1102 -0.2225  0.3164
   52POPC   C4A  993   0.190   4.257   6.863 -0.0258 -0.0946  0.0031
   52POPC   C1B  994   1.619   4.280   7.703 -0.2344  0.2485 -0.1307
   52POPC   C2B  995   1.967   4.358   7.381  0.1616  0.1443  0.3732
   52POPC   C3B  996   1.928   4.370   6.928  0.0303  0.3840  0.1554
   52POPC   C4B  997   1.883   4.518   6.552 -0.0073  0.1175  0.0403
   53POPC   NC3  998   2.595   3.995   8.872  0.2071 -0.2873 -0.0865
   53POPC   PO4  999   2.495   4.146   8.589 -0.0183  0.5017 -0.2075
   53POPC   GL1 1000   2.152   4.389   8.413  0.0616 -0.0825  0.1580
   53POPC   GL2 1001   2.073   4.610   8.145 -0.1569 -0.3019 -0.0705
   53POPC   C1A 1002   1.983   4.169   8.058  0.0853 -0.0583  0.0646
   53POPC   D2A 1003   1.893   3.707   7.825  0.2348  0.1204  0.4160
   53POPC   C3A 1004   1.950   3.762   7.421 -0.1578  0.0969 -0.3166
   53POPC   C4A 1005   2.199   3.616   7.094 -0.1759  0.1967  0.1000
   53POPC   C1B 1006   2.282   4.479   7.759 -0.0006 -0.0915 -0.2745
   53POPC   C2B 1007   2.480   4.485   7.474  0.2329  0.0905  0.3462
   53POPC   C3B 1008   2.492   4.533   7.096 -0.1460 -0.0957 -0.1189
   53POPC   C4B 1009   2.416   4.885   6.869 -0.1273  0.0694 -0.1126
   54POPC   NC3 1010   5.492   5.065   8.506 -0.1288 -0.1450  0.3967
   54POPC   PO4 1011   5.071   5.139   8.435 -0.0102 -0.0231 -0.4548
   54POPC   GL1 1012   5.100   5.265   7.932 -0.0968  0.3824 -0.0451
   54POPC   GL2 1013   4.739   5.144   7.685  0.2397  0.1074  0.0509
   54POPC   C1A 1014   5.370   5.220   7.510  0.3644  0.1797 -0.0001
   54POPC   D2A 1015   5.676   4.999   7.253  0.3021  0.0795 -0.4801
   54POPC   C3A 1016   6.119   5.209   7.136 -0.4286 -0.1186 -0.0132
   54POPC   C4A 1017   6.557   5.031   7.000 -0.1675  0.0330  0.1472
   54POPC   C1B 1018   4.970   4.860   7.498  0.0666 -0.0019 -0.0303
   54POPC   C2B 1019   4.987   4.609   7.180 -0.1717  0.3275 -0.2996
   54POPC   C3B 1020   4.851   4.523   6.892 -0.1257  0.1332 -0.1370
   54POPC   C4B 1021   4.675   4.430   6.572 -0.1236 -0.1539 -0.3257
   55POPC   NC3 1022   1.335   5.692   9.055  0.1969 -0.1524  0.0488
   55POPC   PO4 1023   1.311   5.733   8.625 -0.2393 -0.2980 -0.4049
   55POPC   GL1 1024   1.442   5.598   8.157 -0.1605  0.3728 -0.2554
   55POPC   GL2 1025   1.766   5.516   8.106 -0.1792 -0.5090 -0.3180
   55POPC   C1A 1026   1.497   5.405   7.755  0.1659  0.1284  0.2207
   55POPC   D2A 1027   1.615   5.179   7.381 -0.1828  0.2527  0.1095
   55POPC   C3A 1028   1.567   5.435   6.983  0.1627 -0.1581 -0.1441
   55POPC   C4A 1029   1.604   5.931   6.954  0.2955 -0.2665 -0.0297
   55POPC   C1B 1030   2.100   5.394   7.768  0.2557  0.1764 -0.2789
   55POPC   C2B 1031   2.098   5.311   7.296 -0.1625 -0.0390  0.1803
   55POPC   C3B 1032   2.078   5.295   6.820  0.1363  0.1878 -0.0280
   55POPC   C4B 1033   1.720   5.215   6.575 -0.0895  0.1065 -0.0116
   56POPC   NC3 1034   3.122   0.128   8.511 -0.1492  0.2744  0.1064
   56POPC   PO4 1035   3.089   0.480   8.411 -0.1454  0.2770 -0.3436
   56POPC   GL1 1036   3.272   0.586   8.047 -0.2757 -0.1496  0.2425
   56POPC   GL2 1037   3.538   0.451   7.927  0.2889  0.0533  0.0862
   56POPC   C1A 1038   2.988   0.566   7.611  0.1343 -0.1935 -0.0420
   56POPC   D2A 1039   3.130   0.495   7.083  0.1169  0.0760 -0.1859
   56POPC   C3A 1040   2.744   0.307   6.836 -0.4034  0.0723  0.1467
   56POPC   C4A 1041   2.397   0.210   6.527  0.1468  0.0755  0.1304
   56POPC   C1B 1042   3.505   0.524   7.489  0.1022  0.0491 -0.3124
   56POPC   C2B 1043   3.740   0.868   7.252  0.1900 -0.1461  0.0426
   56POPC   C3B 1044   3.891   1.046   6.871 -0.2760 -0.1487 -0.2098
   56POPC   C4B 1045   3.744   1.068   6.380  0.3242 -0.1315  0.1388
   57POPC   NC3 1046   0.159   0.597   7.991  0.1453  0.0847 -0.1244
   57POPC   PO4 1047   0.131   0.351   8.315  0.0938  0.1833  0.0724
   57POPC   GL1 1048  -0.015   0.094   7.856 -0.2188  0.0499 -0.1580
   57POPC   GL2 1049  -0.305  -0.007   7.781  0.1811  0.3827  0.1852
   57POPC   C1A 1050   0.121  -0.238   7.610  0.0246  0.0264  0.1817
   57POPC   D2A 1051  -0.024  -0.502   7.310  0.2866 -0.2203  0.1671
   57POPC   C3A 1052  -0.277  -0.294   6.949 -0.2753 -0.1765 -0.1059
   57POPC   C4A 1053  -0.253  -0.131   6.499  0.2065 -0.5282 -0.1864
   57POPC   C1B 1054  -0.387  -0.485   7.654 -0.0616  0.0523  0.0768
   57POPC   C2B 1055  -0.585  -0.533   7.294 -0.2421 -0.5526  0.1264
   57POPC   C3B 1056  -0.724  -0.527   6.858  0.3310  0.1433  0.3802
   57POPC   C4B 1057  -0.900  -0.675   6.475  0.0978 -0.1702  0.0800
   58POPC   NC3 1058   9.110   8.537   8.731  0.1091  0.0595 -0.2984
   58POPC   PO4 1059   8.990   8.777   8.451 -0.0216  0.4989 -0.3692
   58POPC   GL1 1060   9.082   8.795   8.052  0.3665 -0.0447 -0.0212
   58POPC   GL2 1061   8.860   8.889   7.752  0.5876  0.0789  0.1850
   58POPC   C1A 1062   9.209   8.571   7.719  0.5814 -0.0973 -0.1176
   58POPC   D2A 1063   9.092   8.682   7.365  0.3597  0.0061  0.3521
   58POPC   C3A 1064   8.754   8.752   7.153 -0.1267  0.1974  0.1333
   58POPC   C4A 1065   8.469   8.867   6.838 -0.3284  0.1229  0.0762
   58POPC   C1B 1066   8.487   8.926   7.509  0.1689 -0.1668 -0.1317
   58POPC   C2B 1067   8.137   9.178   7.439 -0.1059 -0.1145 -0.1627
   58POPC   C3B 1068   7.755   9.567   7.419  0.2254 -0.0032 -0.3665
   58POPC   C4B 1069   7.847   9.914   7.653  0.2193  0.1941 -0.0499
   59POPC   NC3 1070   1.270   1.801   8.947  0.1592 -0.0321 -0.2823
   59POPC   PO4 1071   1.625   1.788   8.544  0.2791  0.4488  0.0873
   59POPC   GL1 1072   1.511   1.728   8.180 -0.0594 -0.0656  0.2766
   59POPC   GL2 1073   1.277   1.904   8.081  0.2963 -0.0222  0.2631
   59POPC   C1A 1074   1.575   1.421   7.920 -0.0080  0.1680 -0.1813
   59POPC   D2A 1075   1.395   1.204   7.541 -0.0191 -0.1068  0.2248
   59POPC   C3A 1076   1.417   0.850   7.397 -0.2771  0.2080  0.3604
   59POPC   C4A 1077   1.641   0.671   7.029  0.0080  0.0485 -0.0138
   59POPC   C1B 1078   0.975   1.939   7.716  0.2656 -0.1804  0.5055
   59POPC   C2B 1079   0.983   1.812   7.262 -0.1104 -0.4555  0.2241
   59POPC   C3B 1080   0.971   1.270   7.130 -0.1949 -0.3584  0.1055
   59POPC   C4B 1081   0.578   0.931   7.041  0.2684  0.0254 -0.0787
   60POPC   NC3 1082   3.697   2.954   8.192  0.1727 -0.1247 -0.0863
   60POPC   PO4 1083   3.479   3.312   8.215  0.4364 -0.1889 -0.2344
   60POPC   GL1 1084   3.356   3.283   7.747 -0.0394 -0.1035  0.2879
   60POPC   GL2 1085   3.529   3.046   7.760  0.0342  0.0235 -0.2214
   60POPC   C1A 1086   3.496   3.313   7.328 -0.1636  0.1710 -0.1563
   60POPC   D2A 1087   3.493   3.352   6.838  0.0444  0.1365 -0.0302
   60POPC   C3A 1088   3.486   2.968   6.635  0.0724 -0.1763  0.1488
   60POPC   C4A 1089   3.559   2.567   6.368 -0.2522 -0.1088  0.2009
   60POPC   C1B 1090   3.295   2.896   7.459 -0.0763 -0.0072  0.0698
   60POPC   C2B 1091   3.389   2.757   7.086 -0.0193  0.2546  0.0055
   60POPC   C3B 1092   3.751   2.446   6.769  0.1763 -0.2998 -0.0457
   60POPC   C4B 1093   4.006   2.338   6.528 -0.2445  0.1858  0.0584
   61POPC   NC3 1094   9.173   1.581   8.672 -0.1267  0.1772  0.0754
   61POPC   PO4 1095   9.384   1.854   8.920 -0.1267 -0.2163 -0.2237
   61POPC   GL1 1096   9.527   1.857   8.381 -0.5504  0.0771  0.1775
   61POPC   GL2 1097   9.891   1.801   8.328  0.0282  0.1747 -0.1995
   61POPC   C1A 1098   9.436   1.790   7.886  0.3358  0.1996  0.4426
   61POPC   D2A 1099   9.260   1.744   7.470  0.4656  0.1295  0.0250
   61POPC   C3A 1100   9.153   1.824   7.074  0.1368 -0.1156 -0.0573
   61POPC   C4A 1101   9.090   1.838   6.675  0.1122  0.5248 -0.1211
   61POPC   C1B 1102   9.962   1.979   7.910 -0.0291 -0.4026 -0.1644
   61POPC   C2B 1103   9.777   2.276   7.722  0.4668 -0.0299 -0.0106
   61POPC   C3B 1104   9.987   2.640   7.669 -0.0794 -0.0692  0.0900
   61POPC   C4B 1105  10.315   2.993   7.827 -0.0767  0.0670  0.3794
   62POPC   NC3 1106   4.450   7.610   8.733 -0.2404 -0.0958 -0.0567
   62POPC   PO4 1107   4.786   7.923   8.784  0.1108 -0.0461 -0.0402
   62POPC   GL1 1108   4.725   8.001   8.383  0.0471  0.0031 -0.1927
   62POPC   GL2 1109   4.556   7.873   8.233  0.1947  0.0150  0.1083
   62POPC   C1A 1110   4.750   8.190   7.958 -0.3009 -0.1576  0.1694
   62POPC   D2A 1111   4.695   8.610   7.685  0.1576  0.2395  0.1183
   62POPC   C3A 1112   4.964   8.883   7.394 -0.2832 -0.1150  0.1343
   62POPC   C4A 1113   5.173   9.023   7.067  0.1349 -0.1832  0.0272
   62POPC   C1B 1114   4.393   7.710   7.854 -0.1286  0.2378  0.3273
   62POPC   C2B 1115   3.952   7.787   7.616 -0.1337  0.1873  0.3723
   62POPC   C3B 1116   3.435   7.648   7.517 -0.0746 -0.3560  0.0711
   62POPC   C4B 1117   3.112   7.543   7.276  0.0834 -0.3805 -0.2212
   63POPC   NC3 1118   2.632   2.530   8.578 -0.1365 -0.1948  0.0292
   63POPC   PO4 1119   2.988   2.403   8.390  0.1610 -0.2658 -0.0729
   63POPC   GL1 1120   3.087   2.321   7.803 -0.1981  0.1642  0.0049
   63POPC   GL2 1121   2.934   2.639   7.670  0.2048 -0.2204  0.1179
   63POPC   C1A 1122   2.879   2.118   7.376 -0.2662  0.0075 -0.1358
   63POPC   D2A 1123   2.809   2.149   6.908 -0.1284 -0.2820 -0.1370
   63POPC   C3A 1124   2.758   1.832   6.676  0.0385 -0.0160  0.0868
   63POPC   C4A 1125   2.729   1.472   6.503 -0.1394  0.3309 -0.0449
   63POPC   C1B 1126   2.879   2.579   7.163 -0.0076  0.1040 -0.0776
   63POPC   C2B 1127   3.172   2.421   6.740  0.0006 -0.1838  0.1900
   63POPC   C3B 1128   3.169   2.179   6.368 -0.2173 -0.3144  0.2927
   63POPC   C4B 1129   2.987   1.876   6.211 -0.1286  0.1581 -0.2392
   64POPC   NC3 1130   1.410   0.766   8.305  0.1138 -0.3445 -0.1970
   64POPC   PO4 1131   0.983   0.646   8.265  0.0099 -0.0273  0.2049
   64POPC   GL1 1132   1.272   0.421   7.882 -0.0494 -0.1102  0.1827
   64POPC   GL2 1133   1.460   0.592   7.890 -0.3322 -0.1811  0.0982
   64POPC   C1A 1134   1.404   0.310   7.428 -0.1114 -0.1322  0.1117
   64POPC   D2A 1135   1.494   0.226   6.946 -0.0011  0.1757  0.0287
   64POPC   C3A 1136   1.862   0.407   6.643  0.1975 -0.0905 -0.2818
   64POPC   C4A 1137   1.993   0.366   6.187  0.1693  0.1457 -0.0389
   64POPC   C1B 1138   1.823   0.607   7.621 -0.1164  0.1312  0.1373
   64POPC   C2B 1139   2.003   0.910   7.381  0.1026 -0.1560  0.1346
   64POPC   C3B 1140   2.331   1.061   7.260 -0.0126 -0.0155 -0.1753
   64POPC   C4B 1141   2.820   1.083   7.230  0.0384  0.0408 -0.0131
   65POPC   NC3 1142   3.786   2.180   8.542  0.0490  0.0991 -0.1135
   65POPC   PO4 1143   3.936   2.533   8.307  0.0901 -0.1196  0.1813
   65POPC   GL1 1144   3.854   2.530   7.875 -0.0721 -0.1327 -0.1044
   65POPC   GL2 1145   3.610   2.494   7.899 -0.0124  0.0142  0.2001
   65POPC   C1A 1146   3.875   2.511   7.374 -0.1429 -0.2018 -0.4113
   65POPC   D2A 1147   3.863   2.067   7.136  0.2048  0.1214  0.3335
   65POPC   C3A 1148   4.030   1.869   6.777 -0.4410 -0.0382 -0.2130
   65POPC   C4A 1149   4.213   1.872   6.435  0.3087 -0.2684 -0.1193
   65POPC   C1B 1150   3.447   2.342   7.499  0.0688 -0.3242  0.1061
   65POPC   C2B 1151   3.350   2.117   7.075  0.0890 -0.0088  0.1291
   65POPC   C3B 1152   3.494   2.001   6.686  0.0870 -0.1379  0.2696
   65POPC   C4B 1153   3.715   1.874   6.353 -0.0599 -0.2342  0.1264
   66POPC   NC3 1154   3.788   7.299   8.599 -0.0089 -0.0369 -0.1107
   66POPC   PO4 1155   4.252   7.232   8.341  0.0050 -0.3608  0.1773
   66POPC   GL1 1156   4.090   7.297   7.894  0.1323 -0.1045  0.1432
   66POPC   GL2 1157   4.296   7.052   7.840 -0.2017 -0.3619  0.0365
   66POPC   C1A 1158   4.289   7.338   7.433 -0.1498  0.1044  0.1136
   66POPC   D2A 1159   4.237   7.468   6.927 -0.0866  0.1214  0.0706
   66POPC   C3A 1160   4.606   7.773   6.796  0.4857 -0.5586  0.0518
   66POPC   C4A 1161   4.900   8.095   6.739  0.0400 -0.2538 -0.1158
   66POPC   C1B 1162   4.499   6.864   7.467  0.5534 -0.0492 -0.0152
   66POPC   C2B 1163   4.619   6.941   7.134 -0.0341  0.2034  0.2012
   66POPC   C3B 1164   4.604   6.804   6.802  0.0826  0.2640 -0.0543
   66POPC   C4B 1165   4.246   6.560   6.601  0.3377  0.3014 -0.4303
   67POPC   NC3 1166   8.877   3.209   8.902 -0.2549  0.2822  0.2072
   67POPC   PO4 1167   9.141   3.645   8.733  0.3024 -0.0441 -0.1395
   67POPC   GL1 1168   9.021   3.704   8.235  0.1203  0.0639 -0.0895
   67POPC   GL2 1169   8.819   4.115   8.178 -0.1427 -0.1076 -0.2698
   67POPC   C1A 1170   8.947   3.497   7.878 -0.3622 -0.1123  0.1473
   67POPC   D2A 1171   9.085   3.403   7.434 -0.1896  0.1861  0.1335
   67POPC   C3A 1172   8.928   3.062   7.245  0.0532 -0.0833  0.0227
   67POPC   C4A 1173   8.745   3.077   6.806 -0.1907  0.1121  0.2033
   67POPC   C1B 1174   8.945   4.117   7.808  0.4513 -0.1303 -0.0135
   67POPC   C2B 1175   8.855   4.096   7.277 -0.1327  0.1920  0.0491
   67POPC   C3B 1176   8.491   3.912   7.032 -0.1376  0.4136 -0.2624
   67POPC   C4B 1177   8.322   3.470   6.919  0.0568 -0.1698 -0.0909
   68POPC   NC3 1178   3.352   3.801   8.736  0.2379 -0.1777 -0.2669
   68POPC   PO4 1179   3.590   4.070   8.428 -0.1096  0.1522  0.4701
   68POPC   GL1 1180   3.605   4.233   8.052 -0.0164  0.3113 -0.2686
   68POPC   GL2 1181   3.943   4.320   7.916 -0.1938 -0.0395 -0.0047
   68POPC   C1A 1182   3.164   4.090   7.810 -0.1707  0.0437  0.0124
   68POPC   D2A 1183   2.849   4.140   7.531  0.1520  0.2318  0.0920
   68POPC   C3A 1184   2.880   4.112   7.081  0.1270  0.0030 -0.4064
   68POPC   C4A 1185   2.899   4.297   6.727  0.2095 -0.0498  0.1503
   68POPC   C1B 1186   3.716   4.172   7.609 -0.3381 -0.0493 -0.3619
   68POPC   C2B 1187   3.440   4.248   7.262 -0.1770 -0.1257  0.0850
   68POPC   C3B 1188   3.390   4.285   6.842 -0.0492 -0.1971  0.4654
   68POPC   C4B 1189   3.388   4.621   6.488 -0.3723  0.0596 -0.1401
   69POPC   NC3 1190   9.294   9.674   8.247 -0.1091  0.0837 -0.0978
   69POPC   PO4 1191   9.360  10.125   8.003  0.4274 -0.3481  0.3561
   69POPC   GL1 1192   9.462  10.362   7.683  0.0818 -0.2098  0.0330
   69POPC   GL2 1193   9.115  10.107   7.548 -0.1726 -0.1501 -0.2760
   69POPC   C1A 1194   9.447  10.312   7.267 -0.1227  0.0169 -0.1541
   69POPC   D2A 1195   9.409  10.031   7.017 -0.0347 -0.0357 -0.2728
   69POPC   C3A 1196   9.592   9.764   7.276  0.0281  0.0935  0.2800
   69POPC   C4A 1197  10.038   9.876   7.482  0.2993  0.2709  0.2201
   69POPC   C1B 1198   8.972  10.165   7.177 -0.3367  0.1327 -0.2492
   69POPC   C2B 1199   9.096  10.463   6.837  0.1967 -0.4371  0.1464
   69POPC   C3B 1200   8.923  10.658   6.385 -0.0360  0.0542 -0.1646
   69POPC   C4B 1201   8.600  10.522   6.184  0.0275  0.0789  0.0798
   70POPC   NC3 1202   7.214   5.278   8.157  0.0703  0.2078  0.1141
   70POPC   PO4 1203   6.893   4.965   8.241 -0.1356 -0.0078 -0.2661
   70POPC   GL1 1204   6.878   5.110   7.758 -0.0017 -0.0484 -0.1563
   70POPC   GL2 1205   6.734   4.872   7.759 -0.1160 -0.1921 -0.0222
   70POPC   C1A 1206   6.976   5.104   7.347 -0.0229 -0.1677  0.1574
   70POPC   D2A 1207   7.334   5.228   7.236 -0.0504 -0.1619  0.1028
   70POPC   C3A 1208   7.781   5.203   7.100 -0.1271  0.1330 -0.3725
   70POPC   C4A 1209   8.007   4.955   6.784 -0.5772 -0.2619  0.1416
   70POPC   C1B 1210   7.210   4.713   7.682 -0.2373  0.0785  0.1157
   70POPC   C2B 1211   7.530   5.014   7.685 -0.1534  0.1249 -0.2122
   70POPC   C3B 1212   8.008   5.248   7.618 -0.0368 -0.0052 -0.0932
   70POPC   C4B 1213   8.296   5.406   7.290  0.3578 -0.2933 -0.1721
   71POPC   NC3 1214   2.138   5.546   8.471  0.2083 -0.2229 -0.1438
   71POPC   PO4 1215   2.382   5.215   8.718 -0.0949 -0.1119  0.0284
   71POPC   GL1 1216   2.392   5.162   8.241 -0.0559 -0.3327 -0.0437
   71POPC   GL2 1217   2.579   5.422   8.153 -0.1141 -0.0578  0.0237
   71POPC   C1A 1218   2.260   4.957   7.858 -0.3424 -0.2885  0.2427
   71POPC   D2A 1219   2.160   4.827   7.401 -0.0647 -0.3623  0.0278
   71POPC   C3A 1220   1.924   4.882   7.037 -0.0621 -0.2060 -0.2423
   71POPC   C4A 1221   1.566   4.793   6.843  0.1910 -0.0379  0.0523
   71POPC   C1B 1222   2.588   5.318   7.811  0.1078 -0.1798  0.1950
   71POPC   C2B 1223   2.612   5.539   7.443  0.2316 -0.0910 -0.2823
   71POPC   C3B 1224   2.522   5.919   7.293 -0.1779 -0.0840  0.0790
   71POPC   C4B 1225   2.585   6.279   7.092  0.3702 -0.3004  0.2952
   72POPC   NC3 1226   2.363   2.931   8.193  0.0797 -0.0010 -0.0780
   72POPC   PO4 1227   2.607   2.654   8.113  0.0603  0.2788 -0.1530
   72POPC   GL1 1228   2.448   2.715   7.701 -0.2557  0.0720 -0.2210
   72POPC   GL2 1229   2.590   3.044   7.769 -0.0626 -0.3245  0.0790
   72POPC   C1A 1230   2.152   2.754   7.461  0.3391 -0.0963  0.0314
   72POPC   D2A 1231   2.008   2.964   7.152 -0.1039  0.1253  0.0532
   72POPC   C3A 1232   1.898   2.745   6.768 -0.1059 -0.0985 -0.1579
   72POPC   C4A 1233   1.626   2.374   6.781  0.2394  0.3813 -0.5093
   72POPC   C1B 1234   2.913   3.219   7.520 -0.3507 -0.1566 -0.0980
   72POPC   C2B 1235   3.016   3.187   7.188  0.2337 -0.1500 -0.0144
   72POPC   C3B 1236   2.994   2.875   6.788  0.2668  0.1694  0.2214
   72POPC   C4B 1237   2.932   2.614   6.395  0.2957  0.0837 -0.3623
   73POPC   NC3 1238   3.645   1.735   8.880 -0.1313  0.2017  0.0868
   73POPC   PO4 1239   3.551   1.606   8.452 -0.0054  0.1592  0.2923
   73POPC   GL1 1240   3.896   1.653   8.181  0.0658 -0.0284  0.4207
   73POPC   GL2 1241   3.892   2.031   8.091  0.0878  0.0678 -0.0647
   73POPC   C1A 1242   4.148   1.653   7.840  0.1442  0.0213  0.1861
   73POPC   D2A 1243   4.422   1.472   7.593  0.2524  0.2016  0.3274
   73POPC   C3A 1244   4.821   1.532   7.440  0.1064  0.0793 -0.1201
   73POPC   C4A 1245   4.959   1.452   6.970 -0.0634 -0.0988  0.3247
   73POPC   C1B 1246   3.972   2.101   7.630  0.0270  0.0548 -0.1749
   73POPC   C2B 1247   4.314   1.919   7.331  0.2743 -0.2089  0.0892
   73POPC   C3B 1248   4.544   2.000   6.968  0.1050  0.2890  0.1586
   73POPC   C4B 1249   4.885   2.052   6.741 -0.1840  0.1220 -0.1521
   74POPC   NC3 1250   4.019   3.862   8.207  0.0271 -0.3072  0.0189
   74POPC   PO4 1251   4.533   3.860   8.309  0.2514 -0.0638 -0.1673
   74POPC   GL1 1252   4.425   4.067   7.866  0.3152  0.4101  0.2122
   74POPC   GL2 1253   4.475   3.859   7.578  0.0837 -0.0628  0.0034
   74POPC   C1A 1254   4.173   4.269   7.469 -0.2435  0.0578 -0.2384
   74POPC   D2A 1255   4.415   4.256   6.971 -0.0431 -0.1122  0.1422
   74POPC   C3A 1256   4.212   4.347   6.634  0.2790  0.1235 -0.3194
   74POPC   C4A 1257   3.776   4.227   6.568 -0.3687  0.0477  0.3963
   74POPC   C1B 1258   4.195   3.851   7.205  0.0249 -0.1358  0.0355
   74POPC   C2B 1259   4.144   3.858   6.881  0.1456  0.2543 -0.3105
   74POPC   C3B 1260   4.248   3.933   6.420  0.1401 -0.1306 -0.0417
   74POPC   C4B 1261   4.474   3.938   5.984  0.0596  0.0350 -0.0270
   75POPC   NC3 1262   7.533   8.868   8.602  0.0252  0.0686  0.1501
   75POPC   PO4 1263   7.112   8.726   8.728  0.0533 -0.0836  0.3964
   75POPC   GL1 1264   7.011   8.559   8.260  0.2580  0.1466  0.1626
   75POPC   GL2 1265   7.174   8.364   8.318 -0.2277  0.0059  0.1151
   75POPC   C1A 1266   6.959   8.457   7.913 -0.1135  0.1669  0.3115
   75POPC   D2A 1267   7.085   8.507   7.483  0.0048 -0.1047 -0.0417
   75POPC   C3A 1268   7.329   8.896   7.457 -0.0740  0.1365  0.1992
   75POPC   C4A 1269   7.566   9.136   7.229 -0.4061 -0.0495 -0.0096
   75POPC   C1B 1270   7.400   8.260   8.086 -0.0139  0.0780  0.1207
   75POPC   C2B 1271   7.639   7.973   7.915  0.0051  0.2970 -0.0595
   75POPC   C3B 1272   7.885   7.927   7.485  0.1524 -0.1927  0.0721
   75POPC   C4B 1273   8.120   7.873   7.155 -0.1408 -0.1038 -0.0845
   76POPC   NC3 1274   8.026   3.007   8.726  0.0634  0.0456  0.0629
   76POPC   PO4 1275   8.430   3.127   8.573  0.0442  0.1718  0.0772
   76POPC   GL1 1276   8.310   3.123   8.135 -0.3746 -0.1738  0.0005
   76POPC   GL2 1277   8.643   2.921   8.047  0.0699 -0.1551  0.3310
   76POPC   C1A 1278   8.188   2.974   7.652  0.0807  0.2871  0.1542
   76POPC   D2A 1279   8.022   2.707   7.234 -0.3089  0.0392  0.0411
   76POPC   C3A 1280   7.931   2.377   7.040  0.1081 -0.3562 -0.0221
   76POPC   C4A 1281   7.681   2.064   6.697  0.1361 -0.0574 -0.3592
   76POPC   C1B 1282   8.669   3.143   7.685 -0.2618 -0.1252  0.0023
   76POPC   C2B 1283   8.414   3.088   7.202  0.1940  0.0800 -0.1630
   76POPC   C3B 1284   8.266   2.863   6.791 -0.0568 -0.0484 -0.0432
   76POPC   C4B 1285   7.946   2.614   6.602  0.2954 -0.2370  0.1168
   77POPC   NC3 1286   2.093   3.219   8.919  0.0960  0.0481 -0.2588
   77POPC   PO4 1287   2.049   3.276   8.445  0.1009  0.0366  0.0689
   77POPC   GL1 1288   2.098   3.263   7.960  0.1840 -0.3509 -0.2459
   77POPC   GL2 1289   1.973   3.014   7.893 -0.0516 -0.1917 -0.1028
   77POPC   C1A 1290   2.300   3.344   7.481  0.1074  0.3098  0.0539
   77POPC   D2A 1291   2.445   3.186   7.167 -0.1225 -0.2226  0.3632
   77POPC   C3A 1292   2.294   3.160   6.753 -0.0774 -0.0149  0.0760
   77POPC   C4A 1293   1.949   3.443   6.720  0.0007  0.0365  0.0204
   77POPC   C1B 1294   1.788   3.293   7.538  0.0577 -0.0939 -0.3956
   77POPC   C2B 1295   1.602   3.481   7.207 -0.2079  0.1881 -0.3769
   77POPC   C3B 1296   1.514   3.148   6.921  0.1738  0.1103  0.2367
   77POPC   C4B 1297   1.419   2.808   6.719 -0.1686  0.0700 -0.5052
   78POPC   NC3 1298   4.074   1.321   8.788  0.0151  0.0571  0.1301
   78POPC   PO4 1299   3.671   1.156   8.616  0.0514 -0.0516  0.2205
   78POPC   GL1 1300   3.373   1.121   8.100 -0.0096 -0.1312 -0.0880
   78POPC   GL2 1301   3.531   0.968   7.777  0.0478 -0.0066 -0.0001
   78POPC   C1A 1302   2.998   1.148   7.759  0.0671  0.3406  0.0097
   78POPC   D2A 1303   2.525   1.113   7.751  0.0922 -0.2196 -0.1550
   78POPC   C3A 1304   2.432   0.688   7.740  0.2852  0.1739 -0.2760
   78POPC   C4A 1305   2.363   0.210   7.663  0.0318  0.1810 -0.2570
   78POPC   C1B 1306   3.449   1.272   7.434 -0.0976  0.1296  0.0178
   78POPC   C2B 1307   3.247   1.022   6.978  0.2662 -0.2268 -0.0707
   78POPC   C3B 1308   3.024   0.934   6.630 -0.0483  0.1391  0.1056
   78POPC   C4B 1309   2.826   0.602   6.490 -0.0118  0.0356  0.3338
   79POPC   NC3 1310   2.139   2.700   8.577 -0.2128 -0.1231 -0.0924
   79POPC   PO4 1311   2.089   2.551   8.133  0.1944  0.3762 -0.2498
   79POPC   GL1 1312   2.218   2.298   7.801 -0.1388 -0.2879  0.1126
   79POPC   GL2 1313   2.512   2.201   7.676  0.1314 -0.1982 -0.0658
   79POPC   C1A 1314   2.150   1.939   7.459 -0.1411  0.2765  0.0747
   79POPC   D2A 1315   1.998   1.700   7.187  0.1346  0.0532 -0.0099
   79POPC   C3A 1316   1.844   1.901   6.848  0.2196 -0.1899  0.2067
   79POPC   C4A 1317   1.665   1.934   6.484 -0.0879 -0.2968 -0.0641
   79POPC   C1B 1318   2.456   2.418   7.329 -0.1791  0.0015  0.1907
   79POPC   C2B 1319   2.408   2.661   6.953 -0.0013 -0.0371 -0.0334
   79POPC   C3B 1320   2.496   2.650   6.670 -0.0698  0.1797 -0.2879
   79POPC   C4B 1321   2.652   3.014   6.358  0.0927  0.3185  0.0816
   80POPC   NC3 1322   5.334   3.152   8.400 -0.1720  0.3348  0.0670
   80POPC   PO4 1323   5.067   2.809   8.508  0.1451  0.0900 -0.0759
   80POPC   GL1 1324   5.283   2.678   8.179 -0.0629  0.0965  0.1147
   80POPC   GL2 1325   5.335   2.934   7.964  0.1951 -0.0542 -0.1708
   80POPC   C1A 1326   5.270   2.700   7.566 -0.0200  0.1667 -0.3103
   80POPC   D2A 1327   5.146   2.855   7.129  0.1218 -0.3672  0.0189
   80POPC   C3A 1328   4.726   3.080   7.066 -0.1034 -0.0029  0.1884
   80POPC   C4A 1329   4.320   2.851   7.186  0.1218 -0.0418 -0.2215
   80POPC   C1B 1330   5.474   3.194   7.580 -0.0559  0.0330 -0.1429
   80POPC   C2B 1331   5.541   3.200   7.125 -0.0768  0.1173  0.2313
   80POPC   C3B 1332   5.737   3.151   6.740 -0.1522  0.2135 -0.1724
   80POPC   C4B 1333   5.795   3.326   6.298 -0.0804 -0.1073 -0.0764
   81POPC   NC3 1334   5.738   7.066   8.676  0.1467 -0.3425 -0.1129
   81POPC   PO4 1335   6.232   7.010   8.508  0.1739  0.0484  0.0671
   81POPC   GL1 1336   6.135   7.336   8.417  0.1177 -0.2641 -0.2237
   81POPC   GL2 1337   6.455   7.622   8.347  0.4503 -0.3571 -0.2189
   81POPC   C1A 1338   5.989   7.435   8.044 -0.0682 -0.0051  0.0618
   81POPC   D2A 1339   5.691   7.320   7.759 -0.0517  0.1215  0.2956
   81POPC   C3A 1340   5.918   7.051   7.363 -0.0783 -0.1512  0.0369
   81POPC   C4A 1341   6.307   7.154   7.035 -0.0280 -0.2175  0.0248
   81POPC   C1B 1342   6.646   7.395   8.070  0.3854  0.0246 -0.0228
   81POPC   C2B 1343   6.753   7.430   7.660  0.1349  0.1524 -0.1655
   81POPC   C3B 1344   6.956   7.349   7.334  0.4443  0.3434  0.3634
   81POPC   C4B 1345   7.256   7.415   7.038 -0.1235 -0.1492  0.1413
   82POPC   NC3 1346   3.612   0.751   8.384 -0.2187  0.1165  0.1085
   82POPC   PO4 1347   4.077   0.908   8.452  0.2132  0.1049 -0.1865
   82POPC   GL1 1348   3.979   0.848   8.015 -0.2890  0.4000 -0.0510
   82POPC   GL2 1349   3.875   1.175   8.037 -0.5193 -0.3443 -0.1200
   82POPC   C1A 1350   4.031   0.694   7.610 -0.4367  0.0321  0.0993
   82POPC   D2A 1351   4.039   0.353   7.319  0.1255  0.3726  0.0720
   82POPC   C3A 1352   4.431   0.124   7.229  0.5434 -0.2657 -0.2481
   82POPC   C4A 1353   4.561  -0.218   7.055  0.0126  0.2359 -0.2090
   82POPC   C1B 1354   3.943   1.224   7.564  0.0508  0.1258 -0.2200
   82POPC   C2B 1355   4.242   1.016   7.302  0.0104  0.1323 -0.0640
   82POPC   C3B 1356   4.490   0.668   7.213 -0.0565 -0.4074  0.0948
   82POPC   C4B 1357   4.863   0.349   7.237  0.1162 -0.0755 -0.0467
   83POPC   NC3 1358   0.456   3.867   8.416  0.0009 -0.5191 -0.3536
   83POPC   PO4 1359   0.117   3.654   8.533  0.3166 -0.0249  0.0425
   83POPC   GL1 1360   0.106   3.570   8.086  0.0127 -0.0385 -0.0526
   83POPC   GL2 1361   0.276   3.872   7.955 -0.1754  0.1639  0.0697
   83POPC   C1A 1362  -0.246   3.539   7.818  0.1007 -0.0447  0.2725
   83POPC   D2A 1363  -0.390   3.825   7.588  0.0575  0.0735  0.2073
   83POPC   C3A 1364  -0.232   4.072   7.240 -0.1490  0.1702 -0.2139
   83POPC   C4A 1365  -0.317   4.341   6.809 -0.1387  0.0143 -0.1165
   83POPC   C1B 1366   0.374   4.254   7.676 -0.1102 -0.2787  0.1472
   83POPC   C2B 1367   0.154   4.505   7.381 -0.0881 -0.0863 -0.0932
   83POPC   C3B 1368  -0.096   4.735   7.055  0.0809 -0.1170 -0.1182
   83POPC   C4B 1369  -0.169   5.200   6.974 -0.0560  0.0999  0.1553
   84POPC   NC3 1370   0.693   6.410   9.331  0.0378  0.0614 -0.0716
   84POPC   PO4 1371   0.409   6.664   9.096  0.1279  0.0847  0.3566
   84POPC   GL1 1372   0.426   6.652   8.566  0.0127  0.3308  0.0035
   84POPC   GL2 1373   0.684   6.714   8.360  0.0955 -0.1635  0.3834
   84POPC   C1A 1374   0.224   6.576   8.231  0.0799 -0.0663  0.1334
   84POPC   D2A 1375  -0.050   6.748   7.827  0.1036 -0.1015  0.0141
   84POPC   C3A 1376   0.157   7.093   7.570  0.1168  0.2443 -0.0691
   84POPC   C4A 1377   0.379   7.065   7.093 -0.1457  0.0493  0.1933
   84POPC   C1B 1378   0.875   6.371   8.229 -0.1576  0.1425  0.1159
   84POPC   C2B 1379   1.345   6.274   8.020  0.1886  0.0105 -0.2103
   84POPC   C3B 1380   1.347   5.919   7.775 -0.1048  0.0225  0.2620
   84POPC   C4B 1381   1.247   5.821   7.363  0.0790 -0.0013  0.2166
   85POPC   NC3 1382   3.194   0.968   8.565 -0.3988 -0.2011  0.2474
   85POPC   PO4 1383   3.073   1.323   8.526 -0.0398 -0.1601  0.0238
   85POPC   GL1 1384   3.142   1.716   8.150  0.3685  0.1280  0.0388
   85POPC   GL2 1385   3.044   1.781   7.756 -0.1332  0.1407  0.1580
   85POPC   C1A 1386   3.507   1.836   7.820 -0.2896 -0.4739  0.5274
   85POPC   D2A 1387   3.788   1.668   7.508  0.0135  0.0639 -0.0524
   85POPC   C3A 1388   3.629   1.638   7.044 -0.1711  0.1162  0.4461
   85POPC   C4A 1389   3.730   1.477   6.755 -0.3806 -0.0168 -0.0612
   85POPC   C1B 1390   3.041   1.572   7.312  0.0554  0.0712  0.1416
   85POPC   C2B 1391   3.180   1.708   6.815  0.0050 -0.0109 -0.1265
   85POPC   C3B 1392   3.367   1.559   6.470 -0.3604  0.0495  0.0904
   85POPC   C4B 1393   3.446   1.680   6.012 -0.1720 -0.1647 -0.1888
   86POPC   NC3 1394   7.526   9.428   8.601  0.0171  0.1395  0.1792
   86POPC   PO4 1395   7.842   9.219   8.473  0.1275  0.1599  0.1223
   86POPC   GL1 1396   7.835   9.175   8.084  0.2792 -0.1409 -0.3339
   86POPC   GL2 1397   8.041   9.485   7.873  0.2432  0.0673  0.0540
   86POPC   C1A 1398   7.699   9.087   7.716  0.1929  0.2190  0.1404
   86POPC   D2A 1399   7.314   9.322   7.628 -0.1552 -0.1815  0.1350
   86POPC   C3A 1400   7.082   9.317   7.291  0.0577 -0.0845 -0.1586
   86POPC   C4A 1401   6.667   9.297   7.229  0.1453 -0.3726 -0.1155
   86POPC   C1B 1402   8.269   9.672   7.590  0.1937  0.1347  0.0861
   86POPC   C2B 1403   8.233   9.753   7.089 -0.1283  0.0683 -0.2786
   86POPC   C3B 1404   8.236  10.002   6.770 -0.0666 -0.0091  0.1947
   86POPC   C4B 1405   8.197  10.262   6.441  0.1914 -0.1260  0.0391
   87POPC   NC3 1406   3.435   4.670   8.504 -0.3864 -0.0807  0.0125
   87POPC   PO4 1407   3.392   5.094   8.345 -0.2792 -0.0994  0.1573
   87POPC   GL1 1408   3.428   4.953   8.038 -0.2374 -0.1989 -0.0828
   87POPC   GL2 1409   3.637   4.708   7.942  0.2125  0.1937  0.2791
   87POPC   C1A 1410   3.496   4.936   7.468 -0.0799 -0.0583 -0.0474
   87POPC   D2A 1411   3.392   4.766   6.986 -0.1241  0.0508 -0.2474
   87POPC   C3A 1412   3.744   4.668   6.824 -0.0327 -0.1460 -0.1272
   87POPC   C4A 1413   4.200   4.734   6.943  0.0235  0.0955 -0.2148
   87POPC   C1B 1414   3.200   4.556   7.629 -0.0371  0.5568  0.1903
   87POPC   C2B 1415   2.988   4.603   7.252 -0.2627 -0.0307 -0.0274
   87POPC   C3B 1416   2.860   4.746   6.826  0.0492 -0.1110 -0.0526
   87POPC   C4B 1417   3.033   4.956   6.470 -0.1643 -0.1599  0.2303
   88POPC   NC3 1418   4.521   0.505   9.080 -0.0598  0.2373 -0.0708
   88POPC   PO4 1419   4.790   0.663   9.344 -0.3471 -0.0363  0.2476
   88POPC   GL1 1420   4.979   0.751   8.996  0.2933  0.2794  0.2796
   88POPC   GL2 1421   4.962   1.028   8.810  0.3425 -0.0446 -0.1458
   88POPC   C1A 1422   4.869   0.603   8.450  0.1524  0.2046 -0.3585
   88POPC   D2A 1423   4.923   0.255   8.153 -0.0957 -0.1096  0.2297
   88POPC   C3A 1424   5.178   0.233   7.755 -0.0222  0.2165  0.1032
   88POPC   C4A 1425   5.447   0.032   7.401  0.1534  0.0510  0.1826
   88POPC   C1B 1426   5.243   0.925   8.589  0.1085 -0.1452 -0.2426
   88POPC   C2B 1427   5.376   1.072   8.239 -0.0364  0.1039 -0.1690
   88POPC   C3B 1428   5.463   0.957   7.833 -0.0937 -0.1106 -0.0200
   88POPC   C4B 1429   5.592   0.486   7.761 -0.0047  0.0883  0.0206
   89POPC   NC3 1430   0.489   2.221   8.749 -0.1563  0.0745 -0.1894
   89POPC   PO4 1431   0.746   2.486   8.455 -0.1572  0.2737  0.0121
   89POPC   GL1 1432   0.727   2.407   7.986  0.2680  0.0073  0.0472
   89POPC   GL2 1433   1.065   2.347   7.941  0.1309  0.0893 -0.2965
   89POPC   C1A 1434   0.620   2.277   7.527  0.3694 -0.2552  0.2420
   89POPC   D2A 1435   0.400   2.041   7.352 -0.1022  0.0486  0.1818
   89POPC   C3A 1436   0.518   1.891   7.000 -0.1220  0.0904  0.0739
   89POPC   C4A 1437   0.327   2.015   6.627  0.0554 -0.1962  0.1657
   89POPC   C1B 1438   1.280   2.379   7.538  0.0482  0.0464  0.3206
   89POPC   C2B 1439   1.430   2.086   7.143 -0.0946  0.0425 -0.0595
   89POPC   C3B 1440   1.117   1.927   6.806 -0.2413  0.2321  0.2195
   89POPC   C4B 1441   0.871   1.528   6.739 -0.2026 -0.1657 -0.3195
   90POPC   NC3 1442   0.577   0.396   8.445  0.0979  0.4048 -0.2120
   90POPC   PO4 1443   0.425   0.806   8.448 -0.1899  0.1552  0.3805
   90POPC   GL1 1444   0.592   0.871   8.051 -0.1224 -0.2217 -0.3124
   90POPC   GL2 1445   0.658   0.701   7.850  0.2259 -0.0921 -0.1589
   90POPC   C1A 1446   0.541   1.057   7.572 -0.0364 -0.1479 -0.2138
   90POPC   D2A 1447   0.285   0.701   7.482  0.1784 -0.0528  0.2614
   90POPC   C3A 1448   0.270   0.483   6.986  0.0186  0.1479  0.1919
   90POPC   C4A 1449   0.009   0.545   6.637 -0.0951  0.1339  0.0050
   90POPC   C1B 1450   0.729   0.510   7.535  0.2796  0.0743  0.2876
   90POPC   C2B 1451   0.818   0.250   7.302 -0.2790  0.2004  0.0251
   90POPC   C3B 1452   0.595   0.045   6.950 -0.2896  0.1018  0.0262
   90POPC   C4B 1453   0.110   0.050   6.782 -0.0829 -0.0285 -0.4805
   91POPC   NC3 1454   3.831   5.795   8.867  0.1882  0.1112 -0.0309
   91POPC   PO4 1455   3.945   5.452   8.514  0.1236  0.3465 -0.1442
   91POPC   GL1 1456   3.685   5.533   8.079 -0.0810  0.1976 -0.2620
   91POPC   GL2 1457   3.766   5.237   7.888 -0.0966  0.0367 -0.1345
   91POPC   C1A 1458   3.487   5.614   7.602  0.1617  0.1107 -0.1082
   91POPC   D2A 1459   3.439   5.708   7.234 -0.4188  0.2696 -0.0828
   91POPC   C3A 1460   3.466   6.069   7.017 -0.3315 -0.0636 -0.0786
   91POPC   C4A 1461   3.766   6.137   6.678 -0.4180  0.0944 -0.0893
   91POPC   C1B 1462   4.212   5.201   7.669  0.2229  0.0916  0.1175
   91POPC   C2B 1463   4.104   5.129   7.292 -0.0889  0.3090 -0.2939
   91POPC   C3B 1464   3.686   5.185   7.029  0.0186 -0.2327  0.1080
   91POPC   C4B 1465   3.529   5.071   6.614 -0.1021 -0.3101 -0.0803
   92POPC   NC3 1466   9.605   5.873   8.990 -0.0506 -0.0136  0.1610
   92POPC   PO4 1467   9.232   6.173   9.075 -0.4231 -0.0757 -0.1664
   92POPC   GL1 1468   9.352   6.158   8.648  0.3612  0.2016 -0.0164
   92POPC   GL2 1469   9.619   5.980   8.463  0.0329  0.2044 -0.0428
   92POPC   C1A 1470   9.190   5.991   8.276 -0.0424  0.1698 -0.1290
   92POPC   D2A 1471   8.889   5.796   7.978 -0.1395 -0.2508  0.0724
   92POPC   C3A 1472   9.227   5.461   7.832 -0.0043  0.1474 -0.2492
   92POPC   C4A 1473   9.468   5.320   7.487 -0.1184  0.0165 -0.0541
   92POPC   C1B 1474   9.634   5.814   8.035 -0.0848 -0.1453  0.1713
   92POPC   C2B 1475   9.706   5.721   7.602  0.0145  0.2535 -0.0028
   92POPC   C3B 1476   9.537   5.654   7.130  0.0274  0.3440  0.2354
   92POPC   C4B 1477   9.187   5.654   6.965  0.2078  0.0010 -0.0639
   93POPC   NC3 1478   7.047   7.842   9.204  0.0220  0.2578 -0.0280
   93POPC   PO4 1479   6.807   7.794   8.807  0.3360  0.1382 -0.0733
   93POPC   GL1 1480   6.915   7.951   8.448 -0.0714  0.1418  0.3857
   93POPC   GL2 1481   6.675   8.151   8.227 -0.5548  0.2355 -0.0337
   93POPC   C1A 1482   7.004   7.806   7.930 -0.0576 -0.3605  0.3237
   93POPC   D2A 1483   6.852   7.882   7.507  0.0406  0.1431 -0.1951
   93POPC   C3A 1484   6.605   7.698   7.173  0.1198 -0.0260  0.0267
   93POPC   C4A 1485   6.108   7.682   7.054  0.2383 -0.3227  0.0525
   93POPC   C1B 1486   6.511   7.925   7.860  0.1272  0.0340  0.1553
   93POPC   C2B 1487   6.350   7.978   7.524 -0.2783  0.1031  0.0209
   93POPC   C3B 1488   6.171   8.200   7.213  0.0177  0.0329  0.1397
   93POPC   C4B 1489   5.791   8.170   7.083 -0.0024 -0.1275 -0.0312
   94POPC   NC3 1490   3.132   9.047   8.665 -0.0692  0.0238  0.0991
   94POPC   PO4 1491   3.541   8.923   8.421 -0.0464  0.1181 -0.0122
   94POPC   GL1 1492   3.400   8.815   8.003  0.0280 -0.1413  0.2179
   94POPC   GL2 1493   3.612   8.947   7.939 -0.1544 -0.2236  0.0916
   94POPC   C1A 1494   3.200   8.518   7.707  0.3247  0.1544 -0.0151
   94POPC   D2A 1495   3.154   8.332   7.250 -0.0788  0.0798  0.2008
   94POPC   C3A 1496   3.350   7.964   7.114 -0.1103 -0.2119  0.1277
   94POPC   C4A 1497   3.549   7.607   6.947 -0.1455  0.0222  0.3154
   94POPC   C1B 1498   3.524   8.766   7.482 -0.3034 -0.3754 -0.0382
   94POPC   C2B 1499   3.499   8.672   7.092 -0.0067 -0.0053  0.3799
   94POPC   C3B 1500   3.242   8.362   6.778 -0.2742 -0.4636  0.0336
   94POPC   C4B 1501   3.076   8.072   6.413  0.2699  0.3161 -0.0461
   95POPC   NC3 1502   9.466   3.979   8.267  0.0899 -0.0429 -0.1481
   95POPC   PO4 1503   9.517   4.258   8.582  0.0419 -0.0470 -0.1889
   95POPC   GL1 1504   9.464   4.614   8.217  0.0528  0.0388  0.0289
   95POPC   GL2 1505   9.636   4.778   8.231  0.2051 -0.0916  0.0037
   95POPC   C1A 1506   9.332   4.881   7.826  0.1940 -0.0840  0.2932
   95POPC   D2A 1507   9.208   4.940   7.336  0.0072  0.0190 -0.2818
   95POPC   C3A 1508   9.191   4.490   7.288 -0.0678 -0.2113 -0.1209
   95POPC   C4A 1509   9.390   4.395   7.643 -0.2081 -0.2772 -0.1015
   95POPC   C1B 1510   9.870   4.728   7.864 -0.1621 -0.1157 -0.0883
   95POPC   C2B 1511   9.819   4.991   7.505  0.4423  0.0944 -0.1287
   95POPC   C3B 1512   9.987   5.240   7.131  0.0373 -0.4210  0.0133
   95POPC   C4B 1513   9.942   5.551   6.803  0.0383 -0.1662 -0.2066
   96POPC   NC3 1514   1.754   6.559   8.718 -0.1101  0.2110 -0.1182
   96POPC   PO4 1515   1.340   6.598   8.774 -0.1501 -0.1334  0.0645
   96POPC   GL1 1516   1.416   6.760   8.352  0.0893 -0.0649 -0.1969
   96POPC   GL2 1517   1.562   6.922   8.116 -0.2057 -0.3332  0.0329
   96POPC   C1A 1518   1.166   6.700   7.986  0.1617  0.3133  0.0058
   96POPC   D2A 1519   0.849   6.495   7.703 -0.1433  0.1123 -0.1584
   96POPC   C3A 1520   0.487   6.346   7.776 -0.0036  0.1463  0.0837
   96POPC   C4A 1521   0.089   6.223   7.752  0.2345 -0.2700 -0.0392
   96POPC   C1B 1522   1.353   7.033   7.666 -0.1357  0.2032  0.1493
   96POPC   C2B 1523   1.220   7.220   7.275 -0.1618  0.0702  0.1221
   96POPC   C3B 1524   0.878   7.151   6.925  0.3601  0.1273  0.2084
   96POPC   C4B 1525   0.637   7.118   6.621 -0.0187 -0.0747 -0.0995
   97POPC   NC3 1526   1.201   3.695   8.854 -0.1127  0.0832  0.1307
   97POPC   PO4 1527   1.057   3.779   8.417  0.1896  0.0387 -0.2934
   97POPC   GL1 1528   1.058   3.871   7.987  0.0301 -0.2820 -0.1417
   97POPC   GL2 1529   0.755   3.969   7.866 -0.2074  0.3338  0.2132
   97POPC   C1A 1530   1.368   3.866   7.670 -0.0718 -0.0133 -0.1569
   97POPC   D2A 1531   1.527   4.061   7.273 -0.3190  0.0362 -0.1439
   97POPC   C3A 1532   1.642   3.876   6.900 -0.1560  0.2625  0.0384
   97POPC   C4A 1533   2.010   3.922   6.577 -0.0726 -0.0252 -0.1862
   97POPC   C1B 1534   0.888   3.826   7.432 -0.0794  0.2468 -0.1284
   97POPC   C2B 1535   1.103   3.900   7.009  0.2865  0.1642 -0.4607
   97POPC   C3B 1536   1.281   3.604   6.718 -0.0506 -0.2746 -0.0161
   97POPC   C4B 1537   1.229   3.179   6.485 -0.0921 -0.3205  0.3101
   98POPC   NC3 1538   4.385   4.394   8.235  0.4202  0.3905 -0.0208
   98POPC   PO4 1539   4.784   4.390   8.192 -0.1914  0.2470  0.1523
   98POPC   GL1 1540   4.931   4.327   7.671 -0.1633  0.5471  0.1705
   98POPC   GL2 1541   4.681   4.316   7.521 -0.1476  0.0683 -0.1939
   98POPC   C1A 1542   5.206   4.160   7.423  0.0929 -0.4110 -0.1567
   98POPC   D2A 1543   5.241   4.001   7.044  0.0075  0.2562  0.0144
   98POPC   C3A 1544   5.426   3.809   6.756 -0.4117 -0.2922 -0.0254
   98POPC   C4A 1545   5.309   3.493   6.539 -0.1423  0.2205 -0.1379
   98POPC   C1B 1546   4.780   4.066   7.218 -0.1520 -0.0170  0.2514
   98POPC   C2B 1547   4.801   3.895   6.807 -0.0827  0.1382 -0.3463
   98POPC   C3B 1548   4.864   3.722   6.435  0.2670  0.4853  0.3448
   98POPC   C4B 1549   4.853   3.421   6.178  0.1299  0.4107 -0.0233
   99POPC   NC3 1550   5.766   3.226   9.150 -0.1617 -0.0584 -0.0562
   99POPC   PO4 1551   5.937   2.993   8.777  0.0924  0.1527  0.0820
   99POPC   GL1 1552   5.866   2.910   8.256 -0.1272 -0.0728 -0.1577
   99POPC   GL2 1553   6.051   2.636   8.257 -0.3837  0.2764 -0.2600
   99POPC   C1A 1554   6.103   3.004   7.940 -0.0351 -0.0682 -0.0911
   99POPC   D2A 1555   6.343   2.894   7.609  0.0771 -0.1220 -0.0541
   99POPC   C3A 1556   6.199   2.747   7.166 -0.0510 -0.1329  0.0355
   99POPC   C4A 1557   6.201   2.467   6.869 -0.1046  0.0134 -0.0206
   99POPC   C1B 1558   5.896   2.577   7.826  0.1416 -0.1073  0.1801
   99POPC   C2B 1559   5.815   2.823   7.492  0.1720 -0.0437 -0.1646
   99POPC   C3B 1560   5.663   2.704   7.023 -0.1880  0.2253 -0.0077
   99POPC   C4B 1561   5.434   2.602   6.686 -0.1402 -0.3199 -0.0846
  100POPC   NC3 1562   6.818   1.409   9.750 -0.0147  0.2281 -0.1257
  100POPC   PO4 1563   6.678   1.054   9.546  0.1200 -0.0862  0.0739
  100POPC   GL1 1564   6.719   0.746   9.196  0.1222 -0.1439  0.0483
  100POPC   GL2 1565   6.734   0.895   8.871 -0.0846  0.0009 -0.1803
  100POPC   C1A 1566   6.652   0.402   8.896  0.1584 -0.5018  0.2117
  100POPC   D2A 1567   6.672   0.287   8.451  0.4774  0.0448 -0.2440
  100POPC   C3A 1568   6.690   0.244   7.973 -0.1473 -0.0685 -0.0479
  100POPC   C4A 1569   6.461   0.301   7.545  0.1181  0.1563  0.1273
  100POPC   C1B 1570   7.097   0.682   8.562  0.1884 -0.1414 -0.0290
  100POPC   C2B 1571   7.242   0.757   8.221 -0.0781  0.1299 -0.1078
  100POPC   C3B 1572   7.131   0.600   7.890  0.0395 -0.1468  0.1910
  100POPC   C4B 1573   6.893   0.542   7.558 -0.2588  0.1056  0.0298
  101POPC   NC3 1574   7.614   2.290   8.790  0.0451  0.3093 -0.2298
  101POPC   PO4 1575   7.595   2.763   8.834  0.1605  0.0842  0.2038
  101POPC   GL1 1576   7.410   2.680   8.465 -0.0049  0.2167 -0.2847
  101POPC   GL2 1577   7.034   2.449   8.418 -0.1211 -0.0861 -0.2159
  101POPC   C1A 1578   7.285   2.649   8.031  0.0988 -0.4452 -0.3573
  101POPC   D2A 1579   7.306   2.489   7.607 -0.0749 -0.0306  0.0917
  101POPC   C3A 1580   7.514   2.714   7.295 -0.1525 -0.2170  0.0764
  101POPC   C4A 1581   7.546   2.790   6.852  0.2517 -0.0770  0.1975
  101POPC   C1B 1582   6.973   2.271   8.038  0.0929 -0.2406 -0.0654
  101POPC   C2B 1583   6.810   2.185   7.581  0.0024  0.0628  0.0149
  101POPC   C3B 1584   6.975   2.339   7.181 -0.1069  0.1148  0.0998
  101POPC   C4B 1585   7.133   2.436   6.719 -0.2385 -0.1845  0.1042
  102POPC   NC3 1586   7.596   3.715   8.508  0.1128  0.0247  0.1191
  102POPC   PO4 1587   7.788   3.987   8.182  0.2935 -0.0448  0.1781
  102POPC   GL1 1588   7.987   3.764   7.868 -0.2206  0.3030 -0.1484
  102POPC   GL2 1589   7.804   3.452   7.802 -0.0861 -0.0231  0.3435
  102POPC   C1A 1590   8.097   3.800   7.378 -0.2011  0.1725  0.2390
  102POPC   D2A 1591   7.861   3.695   7.019 -0.0409 -0.0860  0.1538
  102POPC   C3A 1592   7.906   3.858   6.674 -0.0792 -0.0340  0.2862
  102POPC   C4A 1593   7.883   4.199   6.295 -0.0920 -0.2817 -0.0050
  102POPC   C1B 1594   7.778   3.236   7.421 -0.0152  0.1298 -0.1351
  102POPC   C2B 1595   7.839   3.142   7.072 -0.2245  0.1523 -0.1751
  102POPC   C3B 1596   7.987   3.286   6.619  0.1382  0.1874 -0.1885
  102POPC   C4B 1597   8.110   3.480   6.227  0.0240 -0.1123 -0.0495
  103POPC   NC3 1598   6.198   5.612   8.390 -0.2243 -0.0797  0.1045
  103POPC   PO4 1599   5.954   5.334   8.628  0.0741  0.2382 -0.1803
  103POPC   GL1 1600   5.877   5.268   8.199  0.2480  0.3685  0.1704
  103POPC   GL2 1601   5.587   5.306   8.033  0.1045  0.2923 -0.0275
  103POPC   C1A 1602   5.883   5.287   7.624 -0.1048  0.0041  0.0263
  103POPC   D2A 1603   5.772   5.515   7.320  0.1917  0.2829  0.0987
  103POPC   C3A 1604   6.063   5.740   7.113 -0.0892  0.2613  0.0325
  103POPC   C4A 1605   6.283   6.161   7.032 -0.0488 -0.0948 -0.0507
  103POPC   C1B 1606   5.621   4.918   7.774 -0.4283  0.0733 -0.2014
  103POPC   C2B 1607   5.462   4.641   7.558  0.1246  0.1822 -0.1708
  103POPC   C3B 1608   5.446   4.447   7.131 -0.0092  0.1573  0.1164
  103POPC   C4B 1609   5.222   4.309   6.679 -0.0009 -0.3510 -0.0829
  104POPC   NC3 1610   7.584   5.581   8.539  0.3264 -0.0971  0.2569
  104POPC   PO4 1611   7.422   5.744   8.164  0.2603  0.0863 -0.2012
  104POPC   GL1 1612   7.578   5.683   7.787 -0.2803  0.0880  0.0419
  104POPC   GL2 1613   7.254   5.471   7.701 -0.2761 -0.4320  0.1467
  104POPC   C1A 1614   7.675   5.616   7.376  0.0253 -0.2411  0.2907
  104POPC   D2A 1615   7.824   5.760   6.987 -0.0304 -0.2015  0.3966
  104POPC   C3A 1616   7.703   6.212   6.930  0.0079 -0.0293 -0.5149
  104POPC   C4A 1617   7.690   6.649   6.720 -0.0041  0.0674 -0.2992
  104POPC   C1B 1618   6.916   5.556   7.396 -0.0697 -0.1080 -0.0365
  104POPC   C2B 1619   6.590   5.602   7.097 -0.0458  0.1313  0.1849
  104POPC   C3B 1620   6.361   5.613   6.697 -0.1331 -0.0090  0.0334
  104POPC   C4B 1621   6.121   5.742   6.278 -0.1651 -0.0998 -0.0958
  105POPC   NC3 1622   0.170   3.130   8.452 -0.1811 -0.0723 -0.3022
  105POPC   PO4 1623   0.008   2.719   8.374  0.0586 -0.0468 -0.0193
  105POPC   GL1 1624   0.024   2.907   7.989  0.1422  0.1264  0.2171
  105POPC   GL2 1625  -0.093   2.732   7.827 -0.0813 -0.1947 -0.0809
  105POPC   C1A 1626   0.159   3.217   7.622 -0.1841  0.1731 -0.0188
  105POPC   D2A 1627   0.056   3.591   7.412 -0.1701 -0.0602 -0.6729
  105POPC   C3A 1628   0.212   3.745   7.016  0.2691 -0.1022 -0.0121
  105POPC   C4A 1629   0.422   3.729   6.586 -0.2828  0.0536 -0.2919
  105POPC   C1B 1630  -0.030   2.666   7.350  0.1115 -0.2718 -0.2435
  105POPC   C2B 1631   0.032   2.831   6.904 -0.0587 -0.1071 -0.0844
  105POPC   C3B 1632   0.253   3.057   6.522  0.2079  0.1178 -0.4972
  105POPC   C4B 1633   0.560   3.116   6.219  0.1981 -0.0194  0.1665
  106POPC   NC3 1634   7.167   4.539   8.640  0.1365 -0.0614  0.1806
  106POPC   PO4 1635   7.381   4.312   8.413  0.0967  0.4727 -0.1275
  106POPC   GL1 1636   7.403   4.217   7.922 -0.2564 -0.0481  0.1191
  106POPC   GL2 1637   7.567   3.956   7.700  0.0495 -0.1541 -0.2690
  106POPC   C1A 1638   7.245   4.237   7.466  0.2787 -0.1801  0.0647
  106POPC   D2A 1639   7.067   4.103   7.079  0.1480 -0.1431  0.1326
  106POPC   C3A 1640   6.762   4.092   6.847  0.2344 -0.1887 -0.3350
  106POPC   C4A 1641   6.453   4.117   6.558 -0.5426  0.0518 -0.1799
  106POPC   C1B 1642   7.668   4.046   7.288 -0.0804  0.1928 -0.1076
  106POPC   C2B 1643   7.818   4.264   6.942 -0.2426 -0.3518 -0.2340
  106POPC   C3B 1644   7.734   4.537   6.688  0.2433  0.1665 -0.0971
  106POPC   C4B 1645   8.054   4.644   6.369  0.1183  0.5938 -0.0828
  107POPC   NC3 1646   8.576   0.803   8.522  0.4714  0.0138  0.1946
  107POPC   PO4 1647   8.386   1.135   8.775  0.0414 -0.0840  0.1458
  107POPC   GL1 1648   8.526   1.365   8.402  0.1505  0.3099  0.0340
  107POPC   GL2 1649   8.238   1.446   8.235 -0.1402  0.3819 -0.1295
  107POPC   C1A 1650   8.705   1.434   8.047  0.4454 -0.3433  0.1313
  107POPC   D2A 1651   8.948   1.350   7.746  0.0150 -0.0171 -0.5456
  107POPC   C3A 1652   8.871   1.511   7.286 -0.2071 -0.0317 -0.4255
  107POPC   C4A 1653   8.657   1.735   6.918 -0.0453 -0.1416  0.0065
  107POPC   C1B 1654   8.339   1.703   7.738  0.0884  0.4167  0.0707
  107POPC   C2B 1655   8.587   1.865   7.567  0.0479 -0.5131  0.1864
  107POPC   C3B 1656   8.856   2.101   7.349 -0.1418  0.3700  0.2955
  107POPC   C4B 1657   8.991   2.310   6.935  0.1334  0.2609 -0.2570
  108POPC   NC3 1658   7.891   7.567   8.425  0.2374  0.0312  0.2358
  108POPC   PO4 1659   7.907   7.940   8.621 -0.1018 -0.1242 -0.0756
  108POPC   GL1 1660   8.026   8.111   8.307  0.0123  0.0261  0.0823
  108POPC   GL2 1661   8.268   8.376   8.308  0.0747  0.1649  0.2515
  108POPC   C1A 1662   7.999   8.339   7.854 -0.0841  0.1523 -0.0069
  108POPC   D2A 1663   8.266   8.336   7.505  0.0682 -0.1932  0.1010
  108POPC   C3A 1664   8.274   8.533   7.159 -0.2682 -0.0483  0.2689
  108POPC   C4A 1665   8.172   8.471   6.670  0.4772  0.1939 -0.2334
  108POPC   C1B 1666   8.485   8.261   8.002  0.2490 -0.0153  0.1015
  108POPC   C2B 1667   8.719   8.429   7.636 -0.0257  0.3413  0.0769
  108POPC   C3B 1668   8.835   8.257   7.279  0.0057 -0.0856  0.0643
  108POPC   C4B 1669   9.113   8.206   7.004  0.1977  0.0336 -0.0795
  109POPC   NC3 1670   4.949   7.479   8.701  0.0237 -0.1868 -0.0611
  109POPC   PO4 1671   5.228   7.096   8.610  0.0869 -0.1227  0.0263
  109POPC   GL1 1672   5.326   7.249   8.246 -0.2150 -0.0921  0.1313
  109POPC   GL2 1673   5.304   7.124   8.003 -0.0895 -0.0946 -0.0126
  109POPC   C1A 1674   5.533   7.622   8.150 -0.1475 -0.0373  0.1037
  109POPC   D2A 1675   6.030   7.957   8.116 -0.1604  0.2962 -0.1565
  109POPC   C3A 1676   6.074   8.277   7.787 -0.2524 -0.0139 -0.0537
  109POPC   C4A 1677   6.232   8.768   7.674  0.2594 -0.2374  0.1508
  109POPC   C1B 1678   5.281   7.081   7.559 -0.1298 -0.1037  0.0666
  109POPC   C2B 1679   5.201   7.077   7.094 -0.4024  0.1027  0.0866
  109POPC   C3B 1680   5.296   7.339   6.706  0.0847 -0.0834  0.1129
  109POPC   C4B 1681   5.036   7.639   6.541  0.2129  0.0467  0.1806
  110POPC   NC3 1682   4.676   1.643   9.421  0.0737  0.3456 -0.0958
  110POPC   PO4 1683   4.508   1.525   8.973  0.0270 -0.1086  0.0331
  110POPC   GL1 1684   4.610   1.400   8.567 -0.0163 -0.0450  0.2731
  110POPC   GL2 1685   4.310   1.395   8.365  0.2886  0.0006  0.0435
  110POPC   C1A 1686   4.793   1.136   8.226 -0.2700  0.0627  0.0477
  110POPC   D2A 1687   4.931   0.802   8.016 -0.2439  0.1015  0.2386
  110POPC   C3A 1688   5.036   0.710   7.577 -0.2491  0.0239  0.1910
  110POPC   C4A 1689   5.360   0.597   7.356 -0.2737 -0.2003  0.0257
  110POPC   C1B 1690   4.670   1.547   7.973 -0.1240  0.0175  0.0135
  110POPC   C2B 1691   5.080   1.808   7.859  0.1099  0.0369  0.0858
  110POPC   C3B 1692   5.307   1.969   8.068  0.0705  0.0218 -0.2142
  110POPC   C4B 1693   5.692   2.238   8.198 -0.0740 -0.4581 -0.3046
  111POPC   NC3 1694   6.273   6.056   8.916  0.1864  0.1105 -0.0605
  111POPC   PO4 1695   6.134   6.132   8.494  0.1055 -0.2800 -0.2822
  111POPC   GL1 1696   6.042   6.187   8.088 -0.0511 -0.0407 -0.0658
  111POPC   GL2 1697   5.798   6.306   7.993  0.1726  0.0843 -0.2023
  111POPC   C1A 1698   6.339   6.235   7.823  0.1895 -0.1855  0.2937
  111POPC   D2A 1699   6.572   6.376   7.486 -0.5687 -0.2981 -0.1289
  111POPC   C3A 1700   6.871   6.501   7.160  0.0006 -0.2091 -0.1811
  111POPC   C4A 1701   7.120   6.503   6.865 -0.0042  0.2426 -0.2251
  111POPC   C1B 1702   6.022   6.617   7.665 -0.3052  0.0589  0.1347
  111POPC   C2B 1703   6.170   6.610   7.260 -0.0033  0.2320  0.0344
  111POPC   C3B 1704   6.440   6.692   6.877  0.0675 -0.4127 -0.0600
  111POPC   C4B 1705   6.782   6.813   6.559 -0.1945 -0.0314  0.0300
  112POPC   NC3 1706   8.386   6.150   8.568  0.0382  0.2839  0.1749
  112POPC   PO4 1707   8.050   6.370   8.511  0.0383  0.4934  0.0490
  112POPC   GL1 1708   8.292   6.389   8.119  0.0132 -0.0094  0.3158
  112POPC   GL2 1709   8.543   6.180   8.031  0.2520 -0.1442  0.4839
  112POPC   C1A 1710   8.267   6.385   7.724  0.0828  0.1049  0.1291
  112POPC   D2A 1711   8.424   6.231   7.340 -0.2061  0.0494 -0.1462
  112POPC   C3A 1712   8.239   5.976   6.989  0.3969  0.3217  0.2399
  112POPC   C4A 1713   8.262   5.812   6.614 -0.1164  0.0036 -0.1392
  112POPC   C1B 1714   8.783   6.187   7.680 -0.1932 -0.0736 -0.2699
  112POPC   C2B 1715   8.917   6.271   7.285 -0.1060 -0.1809 -0.2152
  112POPC   C3B 1716   9.321   6.256   7.088 -0.1172  0.2318 -0.0769
  112POPC   C4B 1717   9.755   6.122   7.265 -0.0889  0.2112  0.0794
  113POPC   NC3 1718   7.360   2.401   9.602  0.0924  0.3813 -0.0607
  113POPC   PO4 1719   7.197   2.105   9.256 -0.1395  0.2805 -0.1156
  113POPC   GL1 1720   7.210   1.999   8.724 -0.2354 -0.1370 -0.1345
  113POPC   GL2 1721   7.408   1.634   8.635 -0.0802 -0.0108  0.3063
  113POPC   C1A 1722   7.281   1.974   8.264  0.2429 -0.1639  0.4060
  113POPC   D2A 1723   7.132   1.815   7.839 -0.2298 -0.2644  0.0123
  113POPC   C3A 1724   7.201   1.896   7.398 -0.0559 -0.1293 -0.2283
  113POPC   C4A 1725   7.440   2.176   7.187 -0.3586 -0.3669 -0.1652
  113POPC   C1B 1726   7.267   1.460   8.351  0.0337 -0.2622  0.3830
  113POPC   C2B 1727   7.158   1.259   7.988 -0.1834  0.0100 -0.0636
  113POPC   C3B 1728   7.331   0.988   7.672  0.2816  0.3542 -0.4011
  113POPC   C4B 1729   7.565   0.647   7.556 -0.0992  0.1402  0.1172
  114POPC   NC3 1730   9.533   2.751   8.869  0.0388 -0.0478 -0.0224
  114POPC   PO4 1731   9.224   2.988   8.604  0.2089  0.2566 -0.3219
  114POPC   GL1 1732   9.230   2.848   8.212  0.1808  0.0691 -0.0405
  114POPC   GL2 1733   9.226   3.108   7.944 -0.0286  0.0280 -0.0574
  114POPC   C1A 1734   9.010   2.727   7.730 -0.1085  0.0992  0.0265
  114POPC   D2A 1735   9.143   2.584   7.292 -0.0506  0.1355  0.1917
  114POPC   C3A 1736   9.167   2.813   6.881 -0.2196 -0.1109  0.0741
  114POPC   C4A 1737   9.065   2.864   6.431 -0.5340  0.1304 -0.0281
  114POPC   C1B 1738   9.376   3.057   7.499  0.1158  0.0147 -0.2162
  114POPC   C2B 1739   9.464   3.204   7.147  0.1081 -0.0995 -0.1146
  114POPC   C3B 1740   9.385   3.633   6.955 -0.2065  0.3654  0.0642
  114POPC   C4B 1741   9.054   3.926   6.900 -0.4991 -0.1380 -0.0634
  115POPC   NC3 1742   2.601   6.677   8.325  0.2938  0.0223 -0.2903
  115POPC   PO4 1743   2.750   7.171   8.417 -0.0573 -0.0493 -0.1221
  115POPC   GL1 1744   2.586   7.378   8.087 -0.0452 -0.0488  0.0499
  115POPC   GL2 1745   2.431   7.716   7.908 -0.3028 -0.0291 -0.0181
  115POPC   C1A 1746   2.390   7.243   7.710 -0.1284 -0.1159 -0.3642
  115POPC   D2A 1747   2.234   7.243   7.383  0.0411  0.0247  0.0985
  115POPC   C3A 1748   1.903   6.989   7.198  0.2448 -0.1295  0.0158
  115POPC   C4A 1749   1.766   6.790   6.876 -0.4254 -0.1617  0.0538
  115POPC   C1B 1750   2.712   7.593   7.528  0.1195 -0.1721 -0.3038
  115POPC   C2B 1751   2.640   7.488   7.126  0.0512 -0.2559 -0.1264
  115POPC   C3B 1752   2.244   7.430   6.861  0.3840 -0.2240  0.1120
  115POPC   C4B 1753   1.859   7.230   6.633  0.3059 -0.1846  0.0078
  116POPC   NC3 1754   3.237   8.510   8.537  0.1510  0.0841 -0.2007
  116POPC   PO4 1755   3.240   8.097   8.584 -0.0634  0.1536 -0.1836
  116POPC   GL1 1756   3.197   8.177   8.113  0.0988 -0.0190 -0.1132
  116POPC   GL2 1757   3.510   8.270   8.177  0.1837  0.0304  0.0595
  116POPC   C1A 1758   3.098   7.986   7.641  0.0097 -0.0455  0.3647
  116POPC   D2A 1759   2.743   8.062   7.337  0.2685 -0.0189 -0.2688
  116POPC   C3A 1760   2.822   8.109   6.925 -0.0045 -0.1292  0.0723
  116POPC   C4A 1761   2.473   8.374   6.689  0.0540  0.2328 -0.1254
  116POPC   C1B 1762   3.701   8.401   7.811 -0.1070  0.0354 -0.0179
  116POPC   C2B 1763   3.713   8.265   7.361 -0.1350  0.1705  0.2692
  116POPC   C3B 1764   3.840   8.258   6.971  0.0696  0.2131  0.3346
  116POPC   C4B 1765   3.678   8.508   6.559 -0.2110 -0.0294  0.2759
  117POPC   NC3 1766   2.697   1.565   8.873 -0.2858  0.0593  0.1249
  117POPC   PO4 1767   2.607   1.535   8.340 -0.2138 -0.2556  0.1081
  117POPC   GL1 1768   2.576   1.503   8.019  0.0439 -0.2268  0.1308
  117POPC   GL2 1769   2.263   1.636   7.901 -0.0108 -0.1954  0.0737
  117POPC   C1A 1770   2.612   1.600   7.559  0.1560 -0.0368  0.0079
  117POPC   D2A 1771   2.533   1.766   7.203  0.1863 -0.4049  0.0456
  117POPC   C3A 1772   2.472   1.491   6.920 -0.0926 -0.0273  0.0506
  117POPC   C4A 1773   2.521   1.074   6.785  0.0896 -0.2506  0.3650
  117POPC   C1B 1774   1.951   1.406   7.575 -0.0211  0.0986 -0.3541
  117POPC   C2B 1775   1.791   1.256   7.087 -0.2632  0.0114 -0.2839
  117POPC   C3B 1776   1.390   1.088   6.926  0.1239 -0.0289  0.2231
  117POPC   C4B 1777   1.209   1.190   6.626  0.2570  0.2696  0.0603
  118POPC   NC3 1778   8.512   9.479   8.886  0.1004 -0.3606  0.0657
  118POPC   PO4 1779   8.530   9.975   8.726  0.0154 -0.3806 -0.0723
  118POPC   GL1 1780   8.350  10.064   8.284 -0.0144 -0.0349 -0.0491
  118POPC   GL2 1781   8.327   9.979   7.973  0.0812 -0.2500  0.1762
  118POPC   C1A 1782   7.913   9.921   8.192 -0.0418  0.1784  0.0583
  118POPC   D2A 1783   7.583   9.615   8.033  0.2456  0.0696 -0.2059
  118POPC   C3A 1784   7.257   9.821   7.747  0.0036  0.1116 -0.1084
  118POPC   C4A 1785   7.281   9.944   7.376 -0.1639 -0.1053 -0.3310
  118POPC   C1B 1786   8.536  10.125   7.564 -0.0435 -0.0761  0.0724
  118POPC   C2B 1787   8.467  10.320   7.201 -0.1530  0.1235  0.1710
  118POPC   C3B 1788   8.488  10.388   6.843 -0.0210 -0.4509  0.0318
  118POPC   C4B 1789   8.470  10.756   6.588  0.0254  0.0605 -0.0802
  119POPC   NC3 1790   2.952   6.193   8.641 -0.0174 -0.2192  0.0238
  119POPC   PO4 1791   2.568   6.191   8.479  0.3512  0.1763 -0.0531
  119POPC   GL1 1792   2.409   5.894   8.246 -0.0068 -0.1107 -0.0125
  119POPC   GL2 1793   2.038   5.924   8.151 -0.1820 -0.0948 -0.0769
  119POPC   C1A 1794   2.324   5.821   7.778 -0.0135  0.3246  0.1928
  119POPC   D2A 1795   1.959   5.821   7.524  0.3645 -0.1135  0.1723
  119POPC   C3A 1796   2.059   5.744   7.082  0.3137  0.0700 -0.2044
  119POPC   C4A 1797   2.341   5.813   6.779  0.3136 -0.0124  0.1595
  119POPC   C1B 1798   1.780   6.218   7.810  0.1401 -0.0897 -0.1311
  119POPC   C2B 1799   1.569   6.533   7.703  0.1133  0.2725  0.0296
  119POPC   C3B 1800   1.315   6.626   7.411  0.0973 -0.5185 -0.1248
  119POPC   C4B 1801   1.116   6.360   7.215  0.4465  0.2853  0.0054
  120POPC   NC3 1802   4.754   2.336   8.751 -0.3211  0.0369 -0.3357
  120POPC   PO4 1803   4.493   2.002   8.965  0.0206 -0.3294 -0.0605
  120POPC   GL1 1804   4.686   1.917   8.594  0.0071  0.2036  0.2791
  120POPC   GL2 1805   4.378   1.884   8.299  0.3390  0.0331  0.1128
  120POPC   C1A 1806   4.823   2.126   8.181  0.1556  0.1054  0.0842
  120POPC   D2A 1807   5.006   2.383   7.840 -0.1671  0.3419 -0.2013
  120POPC   C3A 1808   5.410   2.193   7.597  0.1905 -0.1474 -0.0467
  120POPC   C4A 1809   5.428   2.195   7.216  0.3298 -0.2120  0.0555
  120POPC   C1B 1810   4.455   2.144   7.901  0.2167  0.1972  0.1037
  120POPC   C2B 1811   4.712   2.096   7.596 -0.3900 -0.2830 -0.0086
  120POPC   C3B 1812   4.851   2.373   7.195  0.0026 -0.1132  0.1487
  120POPC   C4B 1813   4.775   2.651   6.812 -0.0295 -0.0149  0.0249
  121POPC   NC3 1814   7.138   3.897   8.283 -0.1062  0.0406 -0.1859
  121POPC   PO4 1815   7.090   3.487   8.553 -0.2607  0.4981 -0.2567
  121POPC   GL1 1816   7.314   3.478   8.097  0.0132  0.1853  0.2667
  121POPC   GL2 1817   7.323   3.217   8.049  0.0480  0.0769 -0.1901
  121POPC   C1A 1818   7.215   3.519   7.645  0.0531 -0.4001 -0.0610
  121POPC   D2A 1819   7.304   3.715   7.281 -0.0801  0.0343  0.0491
  121POPC   C3A 1820   7.295   3.736   6.871  0.0958  0.0636 -0.3087
  121POPC   C4A 1821   7.384   4.098   6.555  0.1088  0.1210 -0.1058
  121POPC   C1B 1822   7.211   3.051   7.636  0.0008  0.2680  0.1677
  121POPC   C2B 1823   7.322   3.184   7.181 -0.2281  0.0092 -0.1605
  121POPC   C3B 1824   7.530   3.304   6.740  0.0319 -0.0615  0.0912
  121POPC   C4B 1825   7.631   3.606   6.378 -0.1512  0.3256 -0.0119
  122POPC   NC3 1826   9.638   4.639   9.038 -0.1776  0.2883 -0.0169
  122POPC   PO4 1827   9.937   4.748   8.668  0.1851 -0.1575  0.0419
  122POPC   GL1 1828  10.175   4.781   8.285 -0.0912  0.0005  0.3929
  122POPC   GL2 1829  10.392   4.997   8.320 -0.1981  0.0076  0.1102
  122POPC   C1A 1830  10.419   4.578   7.893  0.3392  0.0048  0.3453
  122POPC   D2A 1831  10.372   4.714   7.511 -0.1000 -0.3468  0.0453
  122POPC   C3A 1832  10.128   4.708   7.069 -0.1518 -0.0571  0.3043
  122POPC   C4A 1833  10.258   4.444   6.738  0.1149 -0.4498  0.0244
  122POPC   C1B 1834  10.330   5.126   7.893 -0.2438  0.0953  0.1250
  122POPC   C2B 1835  10.171   5.548   7.584  0.0227 -0.1847 -0.3646
  122POPC   C3B 1836  10.090   5.733   7.224  0.1448 -0.1648  0.0057
  122POPC   C4B 1837  10.313   5.822   6.825  0.1222 -0.0450  0.0510
  123POPC   NC3 1838   3.809   8.146   8.541  0.0047 -0.1388 -0.1768
  123POPC   PO4 1839   4.281   8.070   8.621  0.2330  0.1165 -0.2163
  123POPC   GL1 1840   4.046   7.828   8.242  0.2299 -0.0803  0.0629
  123POPC   GL2 1841   4.063   8.122   8.020 -0.0121 -0.0613  0.3594
  123POPC   C1A 1842   3.626   7.826   7.963  0.0964  0.1734  0.0325
  123POPC   D2A 1843   3.229   7.642   8.070  0.2859  0.2581  0.2008
  123POPC   C3A 1844   3.081   7.304   7.717 -0.1331 -0.3764 -0.0038
  123POPC   C4A 1845   2.814   7.077   7.433 -0.1176  0.0833  0.0631
  123POPC   C1B 1846   4.225   8.291   7.663 -0.0899  0.0084 -0.0249
  123POPC   C2B 1847   4.290   8.194   7.214  0.1578  0.4512  0.1599
  123POPC   C3B 1848   4.390   8.424   6.865  0.2601 -0.1367  0.1121
  123POPC   C4B 1849   4.418   8.293   6.423 -0.3823  0.1025 -0.1800
  124POPC   NC3 1850   1.558   8.617   9.083  0.0481  0.0318 -0.2166
  124POPC   PO4 1851   1.872   8.303   8.788  0.0840 -0.1217 -0.0364
  124POPC   GL1 1852   1.936   8.289   8.366  0.0319  0.0677  0.0054
  124POPC   GL2 1853   2.174   8.462   8.277  0.0125 -0.2255  0.1507
  124POPC   C1A 1854   1.851   8.248   7.848  0.3242  0.4219 -0.0735
  124POPC   D2A 1855   1.845   8.061   7.362 -0.2187  0.3591  0.3157
  124POPC   C3A 1856   1.589   8.008   7.004  0.0282  0.0814  0.2206
  124POPC   C4A 1857   1.430   8.014   6.562  0.0787  0.3102 -0.0245
  124POPC   C1B 1858   2.182   8.841   8.031  0.2739  0.1439  0.1118
  124POPC   C2B 1859   2.329   8.786   7.608 -0.3304 -0.0220 -0.0360
  124POPC   C3B 1860   2.724   9.050   7.394  0.1062 -0.0870  0.2622
  124POPC   C4B 1861   3.076   8.922   7.398  0.0397 -0.3114 -0.2130
  125POPC   NC3 1862   7.672   0.804   8.865 -0.3508  0.1528 -0.0299
  125POPC   PO4 1863   7.716   0.438   9.028 -0.0131 -0.2073 -0.1514
  125POPC   GL1 1864   7.626   0.333   8.631  0.0808 -0.1456  0.2647
  125POPC   GL2 1865   7.653   0.628   8.420  0.2732  0.0730 -0.2560
  125POPC   C1A 1866   7.335   0.269   8.361  0.0463 -0.1828 -0.1453
  125POPC   D2A 1867   7.134  -0.089   8.328 -0.0718  0.2962  0.1190
  125POPC   C3A 1868   7.193  -0.543   8.075 -0.2680  0.1088 -0.0674
  125POPC   C4A 1869   7.314  -0.848   7.994 -0.2388 -0.1837  0.2461
  125POPC   C1B 1870   7.803   0.675   8.022  0.2581 -0.4819 -0.1093
  125POPC   C2B 1871   8.106   0.652   7.703 -0.4173  0.0383 -0.0623
  125POPC   C3B 1872   8.000   0.597   7.257  0.0216 -0.0202 -0.1402
  125POPC   C4B 1873   7.945   0.771   6.905  0.4183  0.0649  0.1179
  126POPC   NC3 1874   2.773   8.362   8.428 -0.0967  0.1015  0.0981
  126POPC   PO4 1875   2.922   8.806   8.268 -0.3381  0.2112  0.0736
  126POPC   GL1 1876   2.617   8.563   7.947  0.1714 -0.0650  0.0539
  126POPC   GL2 1877   2.622   8.234   7.939  0.1429 -0.2767  0.0832
  126POPC   C1A 1878   2.732   8.505   7.536  0.1793 -0.2903 -0.2242
  126POPC   D2A 1879   2.704   8.546   7.152  0.3205 -0.0860 -0.2451
  126POPC   C3A 1880   3.004   8.793   6.912  0.0915 -0.1179 -0.1247
  126POPC   C4A 1881   3.381   8.910   6.660 -0.0150  0.0025  0.0595
  126POPC   C1B 1882   2.311   8.187   7.689 -0.2893 -0.0500 -0.4560
  126POPC   C2B 1883   2.276   8.364   7.322 -0.2352  0.1833 -0.2386
  126POPC   C3B 1884   2.179   8.722   7.028  0.2598 -0.0719  0.0656
  126POPC   C4B 1885   2.463   8.915   6.766  0.2139 -0.0030  0.3334
  127POPC   NC3 1886   4.746   4.241   8.678  0.3231 -0.2114  0.0354
  127POPC   PO4 1887   5.112   4.587   8.521 -0.1101  0.1178 -0.0293
  127POPC   GL1 1888   5.478   4.414   8.203  0.2543 -0.0700 -0.2709
  127POPC   GL2 1889   5.342   4.289   7.882  0.1833  0.0229  0.0738
  127POPC   C1A 1890   5.871   4.532   8.064 -0.0122  0.0519 -0.2096
  127POPC   D2A 1891   6.177   4.526   7.755  0.2465  0.0705  0.2976
  127POPC   C3A 1892   5.957   4.565   7.294 -0.1771 -0.1081  0.0903
  127POPC   C4A 1893   5.998   4.747   6.874  0.0029 -0.0826  0.1548
  127POPC   C1B 1894   5.701   4.184   7.654  0.0186 -0.1615 -0.0393
  127POPC   C2B 1895   5.674   4.023   7.302  0.0791 -0.0810  0.0294
  127POPC   C3B 1896   5.789   3.640   7.143 -0.1129  0.3030 -0.0675
  127POPC   C4B 1897   6.125   3.332   7.086  0.3424  0.2406 -0.0541
  128POPC   NC3 1898   8.709   4.261   8.641  0.1954  0.0869  0.1821
  128POPC   PO4 1899   8.977   4.555   8.414  0.1655  0.3136 -0.1489
  128POPC   GL1 1900   8.776   4.599   7.985 -0.2702  0.0798 -0.0061
  128POPC   GL2 1901   8.446   4.392   7.905  0.1414  0.1728  0.2482
  128POPC   C1A 1902   8.810   4.563   7.621  0.0423 -0.0986  0.1033
  128POPC   D2A 1903   8.700   4.575   7.166 -0.0185 -0.0688 -0.3202
  128POPC   C3A 1904   8.307   4.512   6.939 -0.1669 -0.2177 -0.2306
  128POPC   C4A 1905   8.216   4.237   6.681 -0.1190  0.3193  0.0001
  128POPC   C1B 1906   8.356   4.792   7.633 -0.0123  0.3069  0.1703
  128POPC   C2B 1907   8.182   4.893   7.247 -0.3640  0.0565  0.0911
  128POPC   C3B 1908   7.818   4.709   7.172  0.1572 -0.0128  0.0355
  128POPC   C4B 1909   7.406   4.670   7.203 -0.0901 -0.2536  0.3368
  129POPC   NC3 1910   5.535   0.948   9.608 -0.1383  0.0519  0.2295
  129POPC   PO4 1911   5.704   1.270   9.435 -0.2742  0.1263 -0.1847
  129POPC   GL1 1912   5.584   1.122   9.048 -0.0806 -0.2761  0.2028
  129POPC   GL2 1913   5.462   0.909   9.100  0.0166  0.3342  0.2606
  129POPC   C1A 1914   5.460   1.371   8.640 -0.2491 -0.1544  0.0623
  129POPC   D2A 1915   5.097   1.574   8.353 -0.2703 -0.1252  0.1196
  129POPC   C3A 1916   5.124   1.337   7.789  0.2178 -0.1111 -0.1742
  129POPC   C4A 1917   5.256   1.095   7.388  0.0318  0.1455 -0.1631
  129POPC   C1B 1918   5.526   0.507   8.867 -0.3534 -0.2479  0.1373
  129POPC   C2B 1919   5.518  -0.010   8.739 -0.0423 -0.3168  0.1596
  129POPC   C3B 1920   5.329  -0.104   8.336  0.0627  0.0443  0.3001
  129POPC   C4B 1921   5.377  -0.187   7.868  0.3031  0.1086 -0.1263
  130POPC   NC3 1922   8.145   6.823   8.353 -0.1583 -0.1212  0.1152
  130POPC   PO4 1923   8.532   6.848   8.387  0.2252  0.2264 -0.0059
  130POPC   GL1 1924   8.630   6.724   7.971  0.0073  0.3228 -0.1266
  130POPC   GL2 1925   8.921   6.546   7.934  0.0410 -0.0892 -0.0225
  130POPC   C1A 1926   8.772   6.976   7.549  0.3329  0.2530 -0.4052
  130POPC   D2A 1927   9.005   6.875   7.180  0.2591  0.3162  0.1353
  130POPC   C3A 1928   9.111   7.209   6.852 -0.1908  0.0087 -0.3470
  130POPC   C4A 1929   9.098   7.702   6.940 -0.0511  0.2542  0.0230
  130POPC   C1B 1930   9.233   6.532   7.554  0.2632 -0.3225  0.4031
  130POPC   C2B 1931   9.493   6.684   7.351  0.2584  0.2297 -0.0909
  130POPC   C3B 1932   9.777   6.630   7.035  0.1166  0.0143 -0.8629
  130POPC   C4B 1933  10.238   6.683   6.867  0.2242 -0.1984  0.0218
  131POPC   NC3 1934   3.764   9.540   8.975  0.2684 -0.1398 -0.0731
  131POPC   PO4 1935   3.439   9.471   8.638  0.0841 -0.0831 -0.1228
  131POPC   GL1 1936   3.760   9.402   8.226  0.1331 -0.1415  0.2030
  131POPC   GL2 1937   3.635   9.638   8.046  0.0056 -0.2804  0.0822
  131POPC   C1A 1938   3.976   9.281   7.895  0.2853  0.0092 -0.2020
  131POPC   D2A 1939   3.783   9.218   7.515 -0.2020 -0.0239  0.1074
  131POPC   C3A 1940   4.049   9.128   7.165  0.0580 -0.1158 -0.0481
  131POPC   C4A 1941   4.218   9.096   6.791 -0.0934 -0.2931 -0.2850
  131POPC   C1B 1942   3.797   9.709   7.631  0.0645  0.0869 -0.0041
  131POPC   C2B 1943   3.842   9.646   7.280 -0.0732  0.0423 -0.0918
  131POPC   C3B 1944   3.670  10.043   6.912  0.0336  0.3794 -0.0910
  131POPC   C4B 1945   3.443  10.367   6.563 -0.1419 -0.1403 -0.1445
  132POPC   NC3 1946   5.931   6.652   8.511 -0.4060 -0.0583  0.0566
  132POPC   PO4 1947   5.508   6.789   8.330 -0.0611  0.3878 -0.1174
  132POPC   GL1 1948   5.671   6.823   7.957  0.0475  0.0485 -0.0263
  132POPC   GL2 1949   5.382   6.655   7.808  0.1897 -0.1301  0.0098
  132POPC   C1A 1950   5.577   6.714   7.418 -0.0718 -0.3525  0.1353
  132POPC   D2A 1951   5.501   6.692   6.947 -0.1715  0.1065  0.2123
  132POPC   C3A 1952   5.731   7.058   6.712  0.0651  0.0678 -0.1508
  132POPC   C4A 1953   5.743   7.525   6.732  0.1644 -0.1930 -0.2350
  132POPC   C1B 1954   5.115   6.649   7.345 -0.2916 -0.1370  0.3777
  132POPC   C2B 1955   4.668   6.470   7.305 -0.2835  0.1285  0.0214
  132POPC   C3B 1956   4.535   6.318   6.965 -0.3178 -0.0318 -0.0691
  132POPC   C4B 1957   4.249   6.086   6.552  0.0130 -0.1991  0.3950
  133POPC   NC3 1958   4.594   8.411   8.898  0.0095  0.2468  0.0314
  133POPC   PO4 1959   4.375   8.864   8.918 -0.0957  0.2894 -0.1066
  133POPC   GL1 1960   4.487   8.776   8.524  0.1195  0.3505 -0.2077
  133POPC   GL2 1961   4.456   8.452   8.375  0.3657 -0.2651 -0.5521
  133POPC   C1A 1962   4.718   8.867   8.244 -0.2896 -0.1048 -0.1404
  133POPC   D2A 1963   5.100   8.635   8.071 -0.0126  0.1816 -0.0736
  133POPC   C3A 1964   5.183   8.520   7.672  0.0115  0.1337  0.0836
  133POPC   C4A 1965   5.407   8.570   7.229 -0.1495 -0.0117  0.1495
  133POPC   C1B 1966   4.336   8.652   7.983 -0.1898  0.1793  0.1555
  133POPC   C2B 1967   4.106   8.813   7.677  0.0182 -0.0999 -0.1176
  133POPC   C3B 1968   4.023   8.672   7.264 -0.0136  0.1104 -0.0216
  133POPC   C4B 1969   3.941   8.719   6.905 -0.1952 -0.1646 -0.1199
  134POPC   NC3 1970   0.141   9.548   8.305 -0.0061 -0.0125 -0.3547
  134POPC   PO4 1971   0.617   9.537   8.312 -0.0354 -0.0158  0.1234
  134POPC   GL1 1972   0.551   9.225   8.128  0.2355 -0.2000  0.0785
  134POPC   GL2 1973   0.330   9.082   8.080 -0.3181 -0.0776 -0.1131
  134POPC   C1A 1974   0.806   8.915   7.874  0.5369 -0.1068 -0.0213
  134POPC   D2A 1975   1.062   8.609   7.612 -0.1394  0.1167  0.0746
  134POPC   C3A 1976   1.498   8.606   7.702  0.1917  0.3242  0.2438
  134POPC   C4A 1977   1.818   8.769   7.649  0.2937 -0.0329 -0.3324
  134POPC   C1B 1978   0.347   8.965   7.640 -0.3274  0.0211 -0.2957
  134POPC   C2B 1979   0.437   8.644   7.329 -0.5479 -0.2157  0.1398
  134POPC   C3B 1980   0.460   8.509   6.855 -0.1221  0.1075  0.2006
  134POPC   C4B 1981   0.455   8.303   6.540  0.0492 -0.0275 -0.0159
  135POPC   NC3 1982   2.089   6.062   8.651 -0.4374  0.0379 -0.3288
  135POPC   PO4 1983   2.096   6.508   8.354 -0.0035 -0.0600 -0.2103
  135POPC   GL1 1984   2.314   6.346   7.901  0.1502 -0.0145  0.0457
  135POPC   GL2 1985   2.430   6.596   7.884  0.1971  0.0008  0.2888
  135POPC   C1A 1986   2.211   6.205   7.527 -0.2290 -0.1823 -0.3791
  135POPC   D2A 1987   1.888   6.437   7.310  0.2858  0.2178 -0.0019
  135POPC   C3A 1988   2.023   6.253   6.921 -0.1125  0.0866 -0.4433
  135POPC   C4A 1989   1.830   6.249   6.545  0.1255 -0.0551  0.2284
  135POPC   C1B 1990   2.738   6.557   7.656  0.5755  0.0077 -0.3033
  135POPC   C2B 1991   3.001   6.295   7.505 -0.0354 -0.1766  0.0299
  135POPC   C3B 1992   3.443   6.189   7.509  0.3170 -0.0884 -0.0417
  135POPC   C4B 1993   3.753   6.037   7.389 -0.0886  0.1038  0.3169
  136POPC   NC3 1994   7.937   4.447   8.288 -0.1546 -0.0400  0.0888
  136POPC   PO4 1995   8.008   4.901   8.387  0.0568  0.0263 -0.0460
  136POPC   GL1 1996   8.225   5.193   8.143  0.0708  0.1828  0.0255
  136POPC   GL2 1997   8.434   5.075   8.073  0.0301 -0.0231 -0.1342
  136POPC   C1A 1998   8.056   5.589   7.952  0.0878  0.0237 -0.1253
  136POPC   D2A 1999   8.086   5.788   7.615 -0.3060 -0.0014 -0.2250
  136POPC   C3A 2000   7.896   6.154   7.407  0.0923 -0.0104 -0.0095
  136POPC   C4A 2001   8.004   6.498   7.210  0.0181  0.1940  0.6449
  136POPC   C1B 2002   8.506   5.427   7.770 -0.0919  0.0328 -0.0279
  136POPC   C2B 2003   8.635   5.732   7.556  0.0847  0.4117  0.1416
  136POPC   C3B 2004   8.717   5.808   7.175  0.0211 -0.0970  0.0220
  136POPC   C4B 2005   8.645   5.574   6.869 -0.1716  0.2307 -0.0537
  137POPC   NC3 2006   4.525   9.266   8.699  0.1098 -0.0951  0.1424
  137POPC   PO4 2007   4.487   9.702   8.895 -0.2206  0.2744  0.0136
  137POPC   GL1 2008   4.569   9.656   8.456  0.0343 -0.1015  0.0686
  137POPC   GL2 2009   4.788   9.431   8.345 -0.1354 -0.3186  0.0973
  137POPC   C1A 2010   4.456   9.705   8.061 -0.0597 -0.0822 -0.2372
  137POPC   D2A 2011   4.243   9.824   7.715  0.0167 -0.1436 -0.2239
  137POPC   C3A 2012   4.250   9.427   7.498 -0.0652 -0.1762 -0.1496
  137POPC   C4A 2013   4.550   9.130   7.618  0.0190  0.3217  0.4430
  137POPC   C1B 2014   4.846   9.410   7.902 -0.1056  0.0564  0.2435
  137POPC   C2B 2015   4.682   9.625   7.591 -0.0646  0.0087  0.1744
  137POPC   C3B 2016   4.683  10.070   7.732  0.1792 -0.0251 -0.1353
  137POPC   C4B 2017   4.460  10.320   8.044  0.4127 -0.1110 -0.0982
  138POPC   NC3 2018   7.140   7.017   8.668 -0.2600 -0.3210  0.2156
  138POPC   PO4 2019   7.593   7.123   8.483 -0.0275 -0.2697 -0.0768
  138POPC   GL1 2020   7.829   7.042   8.083 -0.0000  0.0466  0.2488
  138POPC   GL2 2021   7.950   6.706   7.941  0.1292  0.0046 -0.0931
  138POPC   C1A 2022   7.853   7.029   7.582 -0.1118  0.0722  0.2913
  138POPC   D2A 2023   7.821   6.949   7.144 -0.2010 -0.3526 -0.0334
  138POPC   C3A 2024   7.714   7.377   6.831  0.2230 -0.0365  0.0858
  138POPC   C4A 2025   7.385   7.760   6.636 -0.0401 -0.1137  0.3285
  138POPC   C1B 2026   7.643   6.566   7.540 -0.1982 -0.1056  0.1235
  138POPC   C2B 2027   7.421   6.616   7.200 -0.0803  0.2151 -0.1042
  138POPC   C3B 2028   7.326   6.949   6.926 -0.1024 -0.1740  0.2143
  138POPC   C4B 2029   7.361   7.227   6.561  0.0903  0.1185  0.1164
  139POPC   NC3 2030   2.652   4.455   8.995 -0.3557 -0.0298 -0.0388
  139POPC   PO4 2031   2.927   4.574   8.664  0.0808  0.0276 -0.0692
  139POPC   GL1 2032   2.728   4.505   8.247 -0.3452  0.2965  0.1437
  139POPC   GL2 2033   3.052   4.518   8.127 -0.0760 -0.2278  0.3726
  139POPC   C1A 2034   2.668   4.157   7.961  0.1289 -0.1859 -0.0023
  139POPC   D2A 2035   2.337   3.981   7.683  0.2944  0.1120  0.1925
  139POPC   C3A 2036   2.318   4.026   7.300 -0.0021  0.0548  0.0041
  139POPC   C4A 2037   2.426   4.125   6.849 -0.0350  0.2736 -0.0477
  139POPC   C1B 2038   2.748   4.728   7.775 -0.3392  0.1300  0.1572
  139POPC   C2B 2039   2.633   4.993   7.378 -0.0076 -0.1762 -0.0684
  139POPC   C3B 2040   2.626   5.280   7.035  0.0865  0.0099 -0.0463
  139POPC   C4B 2041   2.668   5.329   6.615 -0.0903  0.0648 -0.2483
  140POPC   NC3 2042   4.725   6.761   8.727  0.3243  0.2216  0.0352
  140POPC   PO4 2043   4.540   7.143   8.730 -0.1792 -0.1551  0.1540
  140POPC   GL1 2044   4.719   7.181   8.331  0.0179  0.1340 -0.0995
  140POPC   GL2 2045   4.966   6.886   8.248  0.0266 -0.0883 -0.1797
  140POPC   C1A 2046   4.789   7.365   7.952  0.0041  0.3221 -0.3494
  140POPC   D2A 2047   4.981   7.604   7.700  0.2141 -0.0227 -0.0765
  140POPC   C3A 2048   5.255   7.563   7.287 -0.0497  0.1806 -0.1169
  140POPC   C4A 2049   5.640   7.483   7.244 -0.2280 -0.0825 -0.0376
  140POPC   C1B 2050   4.909   6.842   7.800  0.1163  0.0488  0.0601
  140POPC   C2B 2051   4.821   7.211   7.458  0.1443  0.0356 -0.1250
  140POPC   C3B 2052   4.864   7.395   7.016 -0.1161 -0.3482 -0.0578
  140POPC   C4B 2053   4.731   7.267   6.661  0.3710  0.1982  0.1479
  141POPC   NC3 2054   8.791   7.264   8.634  0.0315 -0.4030 -0.3774
  141POPC   PO4 2055   8.877   7.723   8.686 -0.0711  0.0776 -0.2406
  141POPC   GL1 2056   8.761   7.770   8.344 -0.2001  0.1547  0.1118
  141POPC   GL2 2057   8.389   7.784   8.253  0.4396  0.1539 -0.1243
  141POPC   C1A 2058   8.732   7.810   7.903 -0.1482  0.0807 -0.2567
  141POPC   D2A 2059   8.545   7.439   7.616  0.3190 -0.2523  0.1115
  141POPC   C3A 2060   8.231   7.433   7.383  0.0591 -0.0207  0.0903
  141POPC   C4A 2061   8.156   7.279   7.034 -0.1239 -0.3547  0.0768
  141POPC   C1B 2062   8.233   7.827   7.808  0.0124 -0.0449 -0.0551
  141POPC   C2B 2063   8.523   7.903   7.472  0.2565 -0.1039 -0.4441
  141POPC   C3B 2064   8.622   7.739   7.066 -0.0101  0.0314  0.0866
  141POPC   C4B 2065   8.491   7.480   6.757 -0.0660 -0.1262 -0.1926
  142POPC   NC3 2066   0.587   6.158   8.833 -0.2226 -0.0304 -0.0895
  142POPC   PO4 2067   0.832   5.735   8.835  0.1271 -0.0988  0.0289
  142POPC   GL1 2068   0.791   5.865   8.403  0.0305 -0.0558  0.1172
  142POPC   GL2 2069   0.877   5.534   8.268  0.1896 -0.2717 -0.1972
  142POPC   C1A 2070   0.837   6.031   7.911 -0.0334  0.2684 -0.0449
  142POPC   D2A 2071   0.815   6.022   7.564  0.0505 -0.0063 -0.0243
  142POPC   C3A 2072   0.617   6.200   7.195  0.0746 -0.0262 -0.0498
  142POPC   C4A 2073   0.278   6.165   6.798 -0.1483  0.3344 -0.0893
  142POPC   C1B 2074   1.023   5.530   7.913  0.0315  0.2100  0.2321
  142POPC   C2B 2075   0.951   5.448   7.485 -0.1169 -0.1638 -0.1480
  142POPC   C3B 2076   0.783   5.460   7.086 -0.3383 -0.1551  0.0758
  142POPC   C4B 2077   0.813   5.419   6.637  0.0928 -0.0073 -0.0783
  143POPC   NC3 2078   6.365   3.898   8.991  0.1388 -0.3001  0.0831
  143POPC   PO4 2079   6.330   3.994   8.499 -0.0495 -0.1174  0.2170
  143POPC   GL1 2080   6.029   4.050   7.986 -0.1807 -0.1228 -0.0407
  143POPC   GL2 2081   6.255   3.975   7.664  0.1590  0.0663 -0.0193
  143POPC   C1A 2082   5.787   3.692   7.714  0.0286 -0.1307 -0.1855
  143POPC   D2A 2083   5.942   3.306   7.583  0.0583 -0.1565 -0.2614
  143POPC   C3A 2084   6.407   3.522   7.422  0.1016 -0.1249 -0.1690
  143POPC   C4A 2085   6.451   3.716   6.991 -0.0614  0.0609 -0.1216
  143POPC   C1B 2086   6.210   4.057   7.229  0.0352  0.0073  0.1297
  143POPC   C2B 2087   6.034   3.966   6.832 -0.1030  0.0560  0.1552
  143POPC   C3B 2088   5.725   4.268   6.693 -0.4141 -0.2193  0.0272
  143POPC   C4B 2089   5.571   4.420   6.320 -0.1384 -0.0004 -0.3732
  144POPC   NC3 2090   4.095   2.607   4.329 -0.1164 -0.0502 -0.0851
  144POPC   PO4 2091   4.301   2.265   4.410 -0.1829  0.0704 -0.0773
  144POPC   GL1 2092   4.349   2.148   4.805 -0.0985 -0.0453  0.2444
  144POPC   GL2 2093   4.642   1.985   4.727 -0.0309  0.0313  0.2214
  144POPC   C1A 2094   4.345   2.276   5.195  0.0183  0.0249 -0.3321
  144POPC   D2A 2095   4.297   2.209   5.553 -0.4114  0.1357 -0.0122
  144POPC   C3A 2096   4.335   1.915   5.904  0.0379 -0.1311 -0.2047
  144POPC   C4A 2097   4.368   1.480   6.039 -0.1277 -0.0724  0.3065
  144POPC   C1B 2098   4.882   1.654   4.690  0.1145 -0.0658  0.1027
  144POPC   C2B 2099   5.214   1.648   4.890  0.2089 -0.0476  0.1161
  144POPC   C3B 2100   5.555   1.979   4.902  0.1488  0.0937  0.2139
  144POPC   C4B 2101   5.909   2.403   4.917  0.0183  0.0797  0.1500
  145POPC   NC3 2102   4.422   2.599   4.005  0.1872  0.0698  0.1753
  145POPC   PO4 2103   4.637   2.778   4.340 -0.1797  0.1380  0.2966
  145POPC   GL1 2104   4.824   2.620   4.764 -0.3000 -0.0310  0.0210
  145POPC   GL2 2105   5.013   2.357   4.861  0.3330  0.0028  0.0188
  145POPC   C1A 2106   4.739   2.529   5.234 -0.0357 -0.1560 -0.0446
  145POPC   D2A 2107   4.798   2.632   5.674  0.2692  0.1404 -0.2008
  145POPC   C3A 2108   4.611   2.477   6.079  0.4954  0.0255 -0.1188
  145POPC   C4A 2109   4.567   2.332   6.507 -0.1688 -0.2977 -0.0894
  145POPC   C1B 2110   5.102   2.050   4.601 -0.0342  0.0135 -0.0579
  145POPC   C2B 2111   5.337   1.761   4.347 -0.0296  0.1417 -0.4238
  145POPC   C3B 2112   5.220   1.516   4.047 -0.4866  0.2291  0.1181
  145POPC   C4B 2113   5.658   1.273   3.863  0.4310  0.1470 -0.2647
  146POPC   NC3 2114   0.595   4.133   4.650 -0.1211  0.1940 -0.1343
  146POPC   PO4 2115   0.920   4.147   4.660 -0.2174 -0.1979  0.0950
  146POPC   GL1 2116   1.075   4.007   5.069 -0.1823  0.0874 -0.2261
  146POPC   GL2 2117   1.266   3.841   4.926 -0.1308  0.3809  0.3406
  146POPC   C1A 2118   0.941   3.883   5.507  0.2381 -0.1274  0.0297
  146POPC   D2A 2119   1.145   3.952   5.950 -0.0090 -0.1398  0.1101
  146POPC   C3A 2120   0.960   4.292   6.134  0.1496 -0.2287 -0.1451
  146POPC   C4A 2121   0.973   4.617   6.404  0.1515 -0.1102 -0.3511
  146POPC   C1B 2122   1.434   3.798   5.383 -0.0168 -0.0826 -0.0127
  146POPC   C2B 2123   1.583   4.039   5.759  0.2870  0.2167 -0.0663
  146POPC   C3B 2124   1.651   4.000   6.161 -0.3288 -0.0435 -0.1018
  146POPC   C4B 2125   1.430   3.989   6.481  0.1097 -0.3016 -0.4263
  147POPC   NC3 2126   3.812   2.201   4.430 -0.1127  0.0832 -0.0610
  147POPC   PO4 2127   3.688   1.816   4.421 -0.0341  0.0859  0.0255
  147POPC   GL1 2128   3.643   1.711   4.852  0.2044 -0.0674  0.2566
  147POPC   GL2 2129   3.833   1.920   4.923  0.2455  0.1134 -0.3112
  147POPC   C1A 2130   3.358   1.609   5.145  0.1173 -0.0363 -0.0854
  147POPC   D2A 2131   3.255   1.707   5.591  0.1275 -0.0273  0.1461
  147POPC   C3A 2132   2.809   1.555   5.723 -0.1258 -0.1106 -0.0479
  147POPC   C4A 2133   2.560   1.703   6.077 -0.0161  0.1040  0.1182
  147POPC   C1B 2134   3.933   1.879   5.310 -0.2413 -0.4530  0.1192
  147POPC   C2B 2135   3.875   1.883   5.740  0.1273  0.0747  0.0580
  147POPC   C3B 2136   3.899   1.467   6.067 -0.2010 -0.2617 -0.1327
  147POPC   C4B 2137   4.127   1.393   6.489 -0.1605 -0.1531 -0.2881
  148POPC   NC3 2138   5.152   4.202   4.583  0.1090 -0.3424 -0.2754
  148POPC   PO4 2139   5.535   4.405   4.518  0.0675  0.2452 -0.2233
  148POPC   GL1 2140   5.670   4.367   4.832 -0.2842 -0.1508 -0.1013
  148POPC   GL2 2141   5.979   4.281   4.875  0.0707 -0.1662 -0.0058
  148POPC   C1A 2142   5.629   4.258   5.332  0.2212 -0.1914 -0.3470
  148POPC   D2A 2143   5.761   4.333   5.754 -0.1840 -0.1708 -0.3280
  148POPC   C3A 2144   6.113   4.306   6.028 -0.2117 -0.0133  0.1243
  148POPC   C4A 2145   6.110   4.348   6.397  0.1112 -0.0314 -0.1720
  148POPC   C1B 2146   6.090   4.072   5.283 -0.2874 -0.0773 -0.1045
  148POPC   C2B 2147   6.030   3.861   5.679  0.0101  0.0801 -0.4084
  148POPC   C3B 2148   5.849   3.836   5.986 -0.3225 -0.0475 -0.0574
  148POPC   C4B 2149   5.842   3.867   6.416 -0.2491  0.2439  0.3108
  149POPC   NC3 2150   6.714   2.896   4.491 -0.0168  0.1590 -0.3132
  149POPC   PO4 2151   6.884   3.251   4.653 -0.2608  0.0128  0.0398
  149POPC   GL1 2152   6.962   2.954   4.926  0.1674 -0.2133  0.1255
  149POPC   GL2 2153   6.630   2.874   5.070  0.0432  0.3078 -0.2060
  149POPC   C1A 2154   7.222   3.094   5.381 -0.1561 -0.0470  0.4985
  149POPC   D2A 2155   7.371   3.164   5.737  0.2596 -0.0450 -0.0378
  149POPC   C3A 2156   7.231   3.430   5.967  0.0298 -0.1452 -0.1792
  149POPC   C4A 2157   7.260   3.822   6.045  0.2670  0.0271  0.0291
  149POPC   C1B 2158   6.763   2.801   5.418 -0.2493  0.3269 -0.0007
  149POPC   C2B 2159   7.011   2.497   5.640 -0.0696 -0.0689  0.3399
  149POPC   C3B 2160   7.107   2.133   5.926  0.1516 -0.1188  0.0398
  149POPC   C4B 2161   6.866   2.053   6.324 -0.1204 -0.1671  0.1266
  150POPC   NC3 2162   2.260   1.150   4.296 -0.0438  0.1721  0.1014
  150POPC   PO4 2163   1.929   1.483   4.510  0.0536  0.0178  0.0629
  150POPC   GL1 2164   1.995   1.392   5.052  0.5315 -0.3833  0.1778
  150POPC   GL2 2165   1.740   1.530   5.147  0.2798  0.1274  0.4240
  150POPC   C1A 2166   1.961   1.241   5.458  0.1164 -0.2108  0.0563
  150POPC   D2A 2167   1.831   1.393   5.812 -0.0528  0.0439 -0.4043
  150POPC   C3A 2168   2.031   1.516   6.222 -0.2375 -0.0156  0.1038
  150POPC   C4A 2169   2.033   1.315   6.656  0.3259  0.0980  0.2567
  150POPC   C1B 2170   1.634   1.770   5.522 -0.0697 -0.0931  0.0068
  150POPC   C2B 2171   1.685   1.927   5.972  0.1571 -0.1577 -0.3590
  150POPC   C3B 2172   1.975   2.158   6.211  0.2465 -0.0082  0.3652
  150POPC   C4B 2173   2.158   2.395   6.447 -0.0343  0.1484  0.2015
  151POPC   NC3 2174   4.299   3.999   4.495 -0.0158 -0.1438 -0.0034
  151POPC   PO4 2175   4.681   4.105   4.587  0.0553  0.2509  0.2232
  151POPC   GL1 2176   4.870   4.198   5.026 -0.2218 -0.3801  0.0340
  151POPC   GL2 2177   5.183   4.368   5.071  0.0241 -0.2340 -0.0305
  151POPC   C1A 2178   5.137   4.014   5.404  0.3513 -0.1062  0.1975
  151POPC   D2A 2179   5.476   3.850   5.633  0.0128 -0.2194 -0.1800
  151POPC   C3A 2180   5.412   3.439   5.943 -0.1501 -0.0442  0.1666
  151POPC   C4A 2181   5.445   3.021   5.719  0.1393 -0.2970 -0.1408
  151POPC   C1B 2182   5.000   4.446   5.447  0.1162  0.0135 -0.1587
  151POPC   C2B 2183   4.983   4.762   5.846  0.0422 -0.1379 -0.1837
  151POPC   C3B 2184   4.779   5.162   6.151  0.3773  0.0811  0.3299
  151POPC   C4B 2185   4.574   5.497   6.279 -0.3729 -0.1127 -0.0819
  152POPC   NC3 2186   2.239   5.046   4.637 -0.2662  0.0461 -0.1396
  152POPC   PO4 2187   2.578   5.304   4.409  0.2253  0.1792 -0.3234
  152POPC   GL1 2188   2.528   5.507   4.852 -0.1659  0.0291 -0.0046
  152POPC   GL2 2189   2.450   5.203   5.063 -0.2297  0.0837  0.0539
  152POPC   C1A 2190   2.917   5.444   5.188  0.2512 -0.0291  0.2724
  152POPC   D2A 2191   3.252   5.360   5.601  0.2400 -0.0509  0.0871
  152POPC   C3A 2192   3.440   5.062   5.648 -0.1913 -0.0818  0.0418
  152POPC   C4A 2193   3.706   5.082   5.291 -0.7376  0.4351 -0.0259
  152POPC   C1B 2194   2.512   5.501   5.486  0.2032  0.2666 -0.0799
  152POPC   C2B 2195   2.808   5.608   5.772 -0.1114 -0.1967  0.1018
  152POPC   C3B 2196   2.834   5.612   6.173  0.2931  0.0589 -0.0606
  152POPC   C4B 2197   3.209   5.780   6.428 -0.0390  0.2785  0.2749
  153POPC   NC3 2198   0.262   1.976   4.333  0.2592  0.2343  0.2647
  153POPC   PO4 2199  -0.116   2.145   4.334  0.1187 -0.4805  0.1135
  153POPC   GL1 2200  -0.207   2.018   4.836  0.3049 -0.1731 -0.1653
  153POPC   GL2 2201  -0.312   1.650   4.982 -0.2546 -0.0359  0.2658
  153POPC   C1A 2202   0.115   1.995   5.172  0.1704  0.0509 -0.2570
  153POPC   D2A 2203   0.346   1.991   5.572 -0.3497  0.2073 -0.1556
  153POPC   C3A 2204   0.419   1.584   5.762  0.0659  0.1722 -0.1961
  153POPC   C4A 2205   0.420   1.217   6.119 -0.0314  0.3657 -0.1922
  153POPC   C1B 2206  -0.433   1.860   5.361  0.0497  0.4007  0.3891
  153POPC   C2B 2207  -0.551   2.336   5.561  0.0581 -0.1807 -0.1822
  153POPC   C3B 2208  -0.996   2.370   5.748 -0.4899 -0.1983  0.1850
  153POPC   C4B 2209  -1.217   2.470   6.101 -0.2547 -0.0604 -0.1022
  154POPC   NC3 2210   4.646   6.317   4.570  0.0843 -0.0119 -0.2468
  154POPC   PO4 2211   4.922   5.980   4.653 -0.1997  0.0639  0.0159
  154POPC   GL1 2212   5.225   6.178   4.908  0.0609 -0.1096 -0.0401
  154POPC   GL2 2213   5.045   6.386   4.952 -0.0125 -0.3082  0.0216
  154POPC   C1A 2214   5.398   6.231   5.359  0.0634  0.0055  0.0603
  154POPC   D2A 2215   5.525   6.130   5.720 -0.0249 -0.0271 -0.0770
  154POPC   C3A 2216   5.524   6.213   6.158 -0.2539  0.2159  0.3237
  154POPC   C4A 2217   5.338   6.238   6.483  0.0801 -0.0492 -0.0322
  154POPC   C1B 2218   4.928   6.497   5.288  0.1991  0.1991 -0.0359
  154POPC   C2B 2219   5.054   6.496   5.681 -0.2530  0.1564 -0.0032
  154POPC   C3B 2220   5.312   6.674   6.053  0.1586  0.3214  0.1620
  154POPC   C4B 2221   5.639   6.651   6.386 -0.0713  0.1773  0.0348
  155POPC   NC3 2222   7.207   6.584   4.558  0.0702 -0.0681 -0.2337
  155POPC   PO4 2223   7.499   6.953   4.436  0.1234  0.0258  0.1281
  155POPC   GL1 2224   7.483   6.924   4.838  0.0928 -0.0742  0.0641
  155POPC   GL2 2225   7.800   6.953   4.872  0.1905 -0.1795  0.1263
  155POPC   C1A 2226   7.404   7.047   5.233 -0.2544 -0.0523 -0.0747
  155POPC   D2A 2227   7.623   7.193   5.624 -0.0331  0.1212 -0.0674
  155POPC   C3A 2228   7.354   7.075   6.047 -0.0426  0.3037 -0.1129
  155POPC   C4A 2229   7.193   7.455   6.115 -0.0379 -0.0327  0.0388
  155POPC   C1B 2230   7.915   6.849   5.331  0.4373  0.2524  0.0758
  155POPC   C2B 2231   7.771   6.766   5.833 -0.1958 -0.0710  0.0021
  155POPC   C3B 2232   7.747   6.497   6.235 -0.1686 -0.1215 -0.1721
  155POPC   C4B 2233   7.907   6.125   6.349  0.1497 -0.0459 -0.1918
  156POPC   NC3 2234   7.607   9.146   3.457  0.0163  0.1222  0.2832
  156POPC   PO4 2235   7.200   9.098   3.114  0.2668  0.0706 -0.0934
  156POPC   GL1 2236   7.218   9.449   3.415  0.2128 -0.3348 -0.1874
  156POPC   GL2 2237   6.935   9.606   3.211  0.0173  0.1731 -0.2043
  156POPC   C1A 2238   7.144   9.741   3.794  0.0214  0.2710  0.5377
  156POPC   D2A 2239   7.246   9.707   4.226 -0.3014  0.0614 -0.2852
  156POPC   C3A 2240   7.597   9.667   4.190  0.0687  0.1734  0.0564
  156POPC   C4A 2241   7.930   9.851   4.399  0.1905  0.3482 -0.0571
  156POPC   C1B 2242   6.716   9.947   3.437 -0.0549  0.2333  0.0844
  156POPC   C2B 2243   6.306  10.053   3.549  0.2189 -0.1673 -0.2169
  156POPC   C3B 2244   5.891   9.889   3.677  0.2035  0.1145  0.0970
  156POPC   C4B 2245   5.477   9.988   3.598  0.0889 -0.0633 -0.0977
  157POPC   NC3 2246   8.336   5.801   4.817  0.3858  0.1313 -0.0233
  157POPC   PO4 2247   8.727   5.648   4.958  0.0187  0.1595 -0.2464
  157POPC   GL1 2248   8.728   5.590   5.386  0.0030  0.0250 -0.1626
  157POPC   GL2 2249   8.934   5.662   5.525 -0.0064  0.1189 -0.3698
  157POPC   C1A 2250   8.615   5.290   5.700  0.1601  0.2059  0.2857
  157POPC   D2A 2251   8.326   4.987   5.716  0.2917  0.1963  0.1462
  157POPC   C3A 2252   8.376   4.605   6.048 -0.1143 -0.0199  0.0770
  157POPC   C4A 2253   8.509   4.287   6.256  0.0644 -0.0282  0.0255
  157POPC   C1B 2254   9.003   5.985   5.853 -0.0382 -0.0343  0.3736
  157POPC   C2B 2255   8.957   6.235   6.289  0.0304 -0.3799 -0.0030
  157POPC   C3B 2256   9.152   6.066   6.631  0.0751  0.0751  0.0523
  157POPC   C4B 2257   9.536   5.888   6.682 -0.4310 -0.0493 -0.1407
  158POPC   NC3 2258   8.931   8.890   3.743  0.1611  0.1403 -0.0447
  158POPC   PO4 2259   9.112   9.009   4.202  0.1183 -0.0779 -0.0919
  158POPC   GL1 2260   8.708   9.184   4.419 -0.1808  0.1735  0.2335
  158POPC   GL2 2261   8.954   9.196   4.599  0.0951  0.0899  0.0141
  158POPC   C1A 2262   8.444   9.480   4.734 -0.0874  0.0163  0.2247
  158POPC   D2A 2263   8.051   9.510   4.987  0.0381  0.2046 -0.1515
  158POPC   C3A 2264   8.168   9.788   5.309  0.0422 -0.0650 -0.1937
  158POPC   C4A 2265   7.881   9.528   5.661 -0.1886 -0.0710 -0.0745
  158POPC   C1B 2266   8.694   9.105   4.987 -0.3696 -0.1629  0.2561
  158POPC   C2B 2267   8.369   9.051   5.298 -0.0749  0.0850  0.0967
  158POPC   C3B 2268   8.488   8.880   5.630  0.2424 -0.4294  0.0552
  158POPC   C4B 2269   8.767   8.855   5.960 -0.0566  0.0247 -0.1954
  159POPC   NC3 2270   1.171   2.582   4.474 -0.2039 -0.0869 -0.1043
  159POPC   PO4 2271   0.954   2.992   4.634  0.1485 -0.1330  0.2012
  159POPC   GL1 2272   0.919   3.152   5.041  0.1508  0.2842 -0.3771
  159POPC   GL2 2273   0.652   3.169   5.244  0.0449 -0.0509 -0.0127
  159POPC   C1A 2274   1.104   3.468   5.310 -0.1729  0.4566  0.3892
  159POPC   D2A 2275   1.326   3.351   5.654  0.0121 -0.0156 -0.0290
  159POPC   C3A 2276   1.345   3.475   6.073 -0.0222 -0.2006 -0.2677
  159POPC   C4A 2277   1.571   3.531   6.363 -0.1487 -0.2436  0.2577
  159POPC   C1B 2278   0.903   3.031   5.611  0.0475  0.0496  0.1268
  159POPC   C2B 2279   1.019   3.012   6.075 -0.1141 -0.1876 -0.1273
  159POPC   C3B 2280   1.113   2.690   6.314 -0.1298  0.3264  0.0094
  159POPC   C4B 2281   1.174   2.370   6.576  0.1470 -0.2791 -0.1436
  160POPC   NC3 2282   2.219   5.472   4.105 -0.3883  0.0913 -0.2619
  160POPC   PO4 2283   2.083   5.592   4.515 -0.2316  0.0749 -0.2019
  160POPC   GL1 2284   2.225   5.934   4.814 -0.3403 -0.2048 -0.0307
  160POPC   GL2 2285   2.419   5.909   5.163  0.0559  0.1736  0.2978
  160POPC   C1A 2286   1.939   5.991   5.178  0.2449 -0.0790 -0.0158
  160POPC   D2A 2287   1.820   5.606   5.416  0.2318  0.1793  0.1625
  160POPC   C3A 2288   1.480   5.526   5.758 -0.2192  0.0640 -0.1519
  160POPC   C4A 2289   1.403   5.068   5.931 -0.3882  0.1045  0.2338
  160POPC   C1B 2290   2.422   6.096   5.622 -0.0002  0.3311 -0.1962
  160POPC   C2B 2291   2.275   6.337   6.000  0.1093  0.0990 -0.0601
  160POPC   C3B 2292   2.048   6.553   6.218  0.1930  0.0771 -0.0845
  160POPC   C4B 2293   2.181   6.711   6.595  0.2072  0.0854  0.0720
  161POPC   NC3 2294   2.593   4.433   4.613  0.2583 -0.0696 -0.1356
  161POPC   PO4 2295   2.199   4.506   4.507 -0.2106  0.1379  0.0455
  161POPC   GL1 2296   2.125   4.422   4.874 -0.0863  0.3703 -0.2138
  161POPC   GL2 2297   2.282   4.700   5.104 -0.1231  0.0775  0.0975
  161POPC   C1A 2298   2.389   4.252   5.275 -0.0097  0.0671  0.0415
  161POPC   D2A 2299   2.748   4.075   5.469  0.3520  0.2204  0.0623
  161POPC   C3A 2300   2.995   4.231   5.774 -0.1145 -0.0748  0.3387
  161POPC   C4A 2301   2.967   4.479   6.238 -0.2034 -0.3194  0.2055
  161POPC   C1B 2302   2.690   4.843   5.254  0.1171  0.0111 -0.1037
  161POPC   C2B 2303   2.878   5.086   5.512  0.0767 -0.1786 -0.1814
  161POPC   C3B 2304   2.738   5.090   5.981  0.0178 -0.0118  0.0314
  161POPC   C4B 2305   2.500   4.834   6.346  0.3200  0.0724 -0.0222
  162POPC   NC3 2306   5.045   0.485   2.861 -0.0189 -0.2432 -0.0031
  162POPC   PO4 2307   5.325   0.780   2.941 -0.0709 -0.2995 -0.0687
  162POPC   GL1 2308   5.521   0.755   3.285  0.0048 -0.0945  0.3808
  162POPC   GL2 2309   5.833   0.856   3.292 -0.3125 -0.2066 -0.4583
  162POPC   C1A 2310   5.361   0.822   3.736 -0.3512  0.1082 -0.1314
  162POPC   D2A 2311   5.435   0.416   4.095 -0.2457 -0.2453  0.2879
  162POPC   C3A 2312   5.836   0.290   4.142 -0.1210  0.0822 -0.0594
  162POPC   C4A 2313   6.243   0.125   3.976 -0.0475 -0.0982  0.1065
  162POPC   C1B 2314   5.904   0.707   3.722 -0.0749 -0.0359  0.0397
  162POPC   C2B 2315   6.143   0.616   4.005 -0.0163 -0.1228  0.1420
  162POPC   C3B 2316   6.350   0.579   4.289  0.1067 -0.0050 -0.1180
  162POPC   C4B 2317   6.635   0.412   4.723  0.0556 -0.1453 -0.2429
  163POPC   NC3 2318   5.936   4.784   4.664  0.0742  0.0895  0.0604
  163POPC   PO4 2319   6.220   5.081   4.756  0.1651  0.2245  0.1225
  163POPC   GL1 2320   6.068   5.134   5.089 -0.1342  0.0256  0.0149
  163POPC   GL2 2321   6.014   4.814   5.164  0.2712  0.0918  0.0599
  163POPC   C1A 2322   5.769   5.272   5.403 -0.2943  0.4665 -0.0589
  163POPC   D2A 2323   5.660   5.123   5.732  0.2485  0.0689 -0.1872
  163POPC   C3A 2324   5.409   5.002   6.102  0.0090  0.3558  0.0748
  163POPC   C4A 2325   5.051   4.705   6.362  0.0147 -0.2197  0.0217
  163POPC   C1B 2326   6.030   4.760   5.624 -0.0908 -0.0033  0.2430
  163POPC   C2B 2327   5.848   4.762   6.028  0.0213 -0.0291  0.1401
  163POPC   C3B 2328   5.762   4.890   6.469  0.1790  0.1578  0.0537
  163POPC   C4B 2329   5.453   4.764   6.688 -0.0936  0.3142 -0.0624
  164POPC   NC3 2330   3.244   8.439   4.390 -0.0414 -0.0942  0.0179
  164POPC   PO4 2331   3.024   8.175   4.603  0.0742  0.0348 -0.2387
  164POPC   GL1 2332   3.040   8.141   4.997  0.2856  0.3158 -0.1101
  164POPC   GL2 2333   2.835   8.011   5.230  0.1592  0.2181 -0.0461
  164POPC   C1A 2334   3.267   8.150   5.329  0.2300 -0.3167 -0.1266
  164POPC   D2A 2335   3.534   8.176   5.732 -0.5127  0.0357 -0.1113
  164POPC   C3A 2336   3.431   8.010   6.119 -0.0072 -0.0078  0.0028
  164POPC   C4A 2337   3.583   7.957   6.562 -0.0061 -0.0197 -0.2410
  164POPC   C1B 2338   2.583   7.823   5.598 -0.1681 -0.1080 -0.0614
  164POPC   C2B 2339   2.616   7.737   6.052 -0.4871 -0.0607 -0.1189
  164POPC   C3B 2340   2.853   7.644   6.339  0.0680  0.0197 -0.0252
  164POPC   C4B 2341   2.962   7.571   6.755  0.0027 -0.0888  0.2594
  165POPC   NC3 2342   9.405   0.043   4.056 -0.1919  0.0938  0.0074
  165POPC   PO4 2343   9.066  -0.025   4.474  0.2287  0.1913  0.2977
  165POPC   GL1 2344   8.839   0.045   4.887  0.1588 -0.1776  0.0610
  165POPC   GL2 2345   8.617   0.246   4.987  0.1823  0.0079  0.0571
  165POPC   C1A 2346   8.543  -0.196   5.282 -0.3199 -0.2088  0.0714
  165POPC   D2A 2347   8.356  -0.226   5.692  0.2201  0.0491 -0.1093
  165POPC   C3A 2348   8.671  -0.380   6.032 -0.1446  0.0067 -0.0199
  165POPC   C4A 2349   8.898  -0.169   6.415  0.0374 -0.1371  0.1196
  165POPC   C1B 2350   8.604   0.302   5.411  0.1680 -0.4101  0.1355
  165POPC   C2B 2351   8.471   0.520   5.734  0.2766  0.0903 -0.1956
  165POPC   C3B 2352   8.116   0.712   5.992 -0.1347  0.0749  0.0748
  165POPC   C4B 2353   7.706   0.667   6.047 -0.0569 -0.0843  0.0302
  166POPC   NC3 2354   1.063   4.650   4.594 -0.3340 -0.1249 -0.0399
  166POPC   PO4 2355   1.356   4.863   4.867  0.0486 -0.0267 -0.2138
  166POPC   GL1 2356   1.561   4.738   5.298  0.1066 -0.0268 -0.1612
  166POPC   GL2 2357   1.867   4.538   5.281  0.0062 -0.0911  0.0088
  166POPC   C1A 2358   1.732   4.752   5.737  0.0697 -0.0437  0.2189
  166POPC   D2A 2359   1.571   4.668   6.183 -0.0150 -0.0421 -0.2218
  166POPC   C3A 2360   1.292   4.986   6.392 -0.1628  0.1318  0.1898
  166POPC   C4A 2361   1.219   5.105   6.860  0.0699 -0.2191  0.0529
  166POPC   C1B 2362   2.110   4.447   5.617  0.0641  0.1965 -0.1423
  166POPC   C2B 2363   2.089   4.557   6.034  0.1516  0.1942  0.1417
  166POPC   C3B 2364   2.023   5.029   6.072  0.2485  0.0725  0.1128
  166POPC   C4B 2365   2.167   5.424   6.379 -0.0444 -0.0700  0.0596
  167POPC   NC3 2366   5.138   3.749   3.922 -0.0478  0.0055 -0.1408
  167POPC   PO4 2367   5.102   3.716   4.390 -0.1379 -0.0821 -0.0112
  167POPC   GL1 2368   5.054   3.777   4.754  0.4144 -0.2386  0.1375
  167POPC   GL2 2369   5.234   3.692   5.051  0.2978  0.1784 -0.0937
  167POPC   C1A 2370   4.786   3.699   5.222  0.2357 -0.1311  0.1517
  167POPC   D2A 2371   4.716   3.567   5.677  0.2577 -0.2407  0.2819
  167POPC   C3A 2372   5.023   3.787   5.950  0.0379 -0.0681  0.2533
  167POPC   C4A 2373   5.349   3.877   6.287  0.1728 -0.0870  0.3520
  167POPC   C1B 2374   5.210   3.391   5.455 -0.2542 -0.2315  0.2617
  167POPC   C2B 2375   4.929   3.118   5.707 -0.1928 -0.1506 -0.0686
  167POPC   C3B 2376   4.905   2.902   6.088 -0.6135 -0.0967  0.2691
  167POPC   C4B 2377   5.105   2.995   6.565  0.0318 -0.1740  0.0590
  168POPC   NC3 2378   3.256   3.988   5.012 -0.1079  0.5871  0.1744
  168POPC   PO4 2379   3.019   3.533   4.678 -0.2991 -0.3423 -0.4237
  168POPC   GL1 2380   3.304   3.381   4.970 -0.2006 -0.2899 -0.0442
  168POPC   GL2 2381   3.485   3.089   4.991 -0.1752  0.0489 -0.3547
  168POPC   C1A 2382   3.504   3.476   5.361  0.1179  0.3209 -0.1502
  168POPC   D2A 2383   3.810   3.505   5.781 -0.3536  0.1421 -0.0932
  168POPC   C3A 2384   3.926   3.294   6.012  0.0023  0.2769  0.0324
  168POPC   C4A 2385   4.368   3.503   6.209  0.1014 -0.2828  0.1214
  168POPC   C1B 2386   3.871   3.360   5.133 -0.4006 -0.0174 -0.2881
  168POPC   C2B 2387   4.264   3.393   5.445 -0.1794 -0.3191  0.2626
  168POPC   C3B 2388   4.398   3.241   5.823  0.0833  0.0564  0.2715
  168POPC   C4B 2389   4.321   2.910   6.102 -0.2013 -0.1370  0.2076
  169POPC   NC3 2390   8.250   3.337   4.463 -0.1920 -0.0238 -0.0205
  169POPC   PO4 2391   8.440   3.746   4.547 -0.0003 -0.0122  0.3482
  169POPC   GL1 2392   8.440   3.492   4.951  0.1017 -0.1637 -0.2676
  169POPC   GL2 2393   8.163   3.305   4.982 -0.0537 -0.2049 -0.1566
  169POPC   C1A 2394   8.732   3.480   5.244  0.0664  0.0122  0.2126
  169POPC   D2A 2395   9.052   3.677   5.268  0.0039 -0.0642 -0.3211
  169POPC   C3A 2396   9.217   3.811   5.583  0.2058 -0.2394 -0.0717
  169POPC   C4A 2397   9.220   3.700   6.060 -0.1618  0.2954 -0.2487
  169POPC   C1B 2398   8.292   3.228   5.393 -0.0435  0.2930  0.5737
  169POPC   C2B 2399   8.700   3.353   5.714  0.0770  0.4310 -0.0975
  169POPC   C3B 2400   8.729   3.263   6.145  0.1132 -0.0026  0.1907
  169POPC   C4B 2401   8.550   3.349   6.492  0.1453  0.0708 -0.0485
  170POPC   NC3 2402   1.244   3.404   4.616  0.1113  0.1288  0.0538
  170POPC   PO4 2403   0.780   3.669   4.735  0.0766 -0.0856  0.2700
  170POPC   GL1 2404   0.483   3.601   5.119 -0.0473 -0.1187 -0.1654
  170POPC   GL2 2405   0.554   3.951   5.154 -0.0181  0.2150 -0.0804
  170POPC   C1A 2406   0.487   3.455   5.567 -0.0299  0.1332  0.0479
  170POPC   D2A 2407   0.854   3.491   5.872 -0.0230  0.0612 -0.1587
  170POPC   C3A 2408   0.942   3.696   6.277  0.4373 -0.2330 -0.1057
  170POPC   C4A 2409   0.824   4.063   6.600 -0.1888 -0.0843  0.0674
  170POPC   C1B 2410   0.448   3.954   5.607  0.1231 -0.0145 -0.0047
  170POPC   C2B 2411   0.626   3.958   6.021  0.1344 -0.1620 -0.1076
  170POPC   C3B 2412   0.390   4.209   6.354  0.0211  0.1903  0.1267
  170POPC   C4B 2413   0.359   4.705   6.385 -0.1228  0.0652 -0.0206
  171POPC   NC3 2414   0.941   8.782   4.419 -0.1286 -0.0106  0.2472
  171POPC   PO4 2415   1.453   8.741   4.619 -0.1116 -0.1095  0.2296
  171POPC   GL1 2416   1.578   8.938   4.899 -0.0473 -0.0775 -0.4494
  171POPC   GL2 2417   1.292   9.050   5.163 -0.2670  0.2387  0.1961
  171POPC   C1A 2418   1.881   8.952   5.204  0.1410 -0.0018  0.0597
  171POPC   D2A 2419   2.215   8.726   5.496  0.2208 -0.0249 -0.1380
  171POPC   C3A 2420   2.386   8.260   5.640 -0.2709 -0.1850 -0.1781
  171POPC   C4A 2421   2.191   7.950   5.865  0.1698  0.0578  0.2601
  171POPC   C1B 2422   1.495   9.064   5.448 -0.1674 -0.1438 -0.0469
  171POPC   C2B 2423   1.800   8.972   5.818 -0.1235  0.0307 -0.1032
  171POPC   C3B 2424   2.060   8.842   6.029  0.0139  0.2230 -0.4212
  171POPC   C4B 2425   2.232   8.360   6.082 -0.0339 -0.1189 -0.0394
  172POPC   NC3 2426   0.475   3.259   4.691 -0.0427  0.2362  0.3921
  172POPC   PO4 2427   0.271   2.843   4.659  0.1714 -0.0263  0.1497
  172POPC   GL1 2428   0.432   2.724   4.985 -0.0088 -0.3237  0.0175
  172POPC   GL2 2429   0.249   2.695   5.197  0.2064 -0.0920  0.1282
  172POPC   C1A 2430   0.794   2.709   5.272  0.1425  0.0758 -0.0710
  172POPC   D2A 2431   0.931   2.516   5.564  0.1026 -0.0918  0.0956
  172POPC   C3A 2432   1.293   2.637   5.818  0.0040  0.0670  0.0318
  172POPC   C4A 2433   1.546   2.895   6.248  0.4532  0.2054  0.0893
  172POPC   C1B 2434   0.404   2.746   5.667  0.1915  0.3475 -0.0213
  172POPC   C2B 2435   0.629   2.587   5.999  0.1493 -0.0507 -0.0705
  172POPC   C3B 2436   0.581   2.336   6.363 -0.1784 -0.5173 -0.3892
  172POPC   C4B 2437   0.835   2.019   6.416  0.0491 -0.0408  0.2061
  173POPC   NC3 2438   6.072   9.518   2.130 -0.2841 -0.2610 -0.3278
  173POPC   PO4 2439   6.162   9.760   2.583  0.2725 -0.0047  0.2876
  173POPC   GL1 2440   6.019   9.562   2.957 -0.0128 -0.0247  0.2030
  173POPC   GL2 2441   6.208   9.327   3.133 -0.0738 -0.1186  0.2908
  173POPC   C1A 2442   5.788   9.573   3.332  0.1839 -0.5380 -0.0518
  173POPC   D2A 2443   5.620   9.256   3.578 -0.0338 -0.0637 -0.0453
  173POPC   C3A 2444   5.564   9.109   4.138 -0.1726  0.1700  0.0272
  173POPC   C4A 2445   5.245   9.128   4.509  0.1029 -0.1604  0.0956
  173POPC   C1B 2446   6.419   9.558   3.413  0.0178 -0.0925 -0.2466
  173POPC   C2B 2447   6.734   9.517   3.690 -0.3690 -0.5428  0.2859
  173POPC   C3B 2448   6.748   9.527   4.137  0.0333  0.1804  0.0067
  173POPC   C4B 2449   6.601   9.667   4.503  0.0758  0.2871 -0.1701
  174POPC   NC3 2450   5.659   6.620   3.820 -0.0793 -0.1919 -0.0866
  174POPC   PO4 2451   5.692   6.579   4.261  0.1744 -0.0735 -0.1455
  174POPC   GL1 2452   5.883   6.450   4.568 -0.3824 -0.0211  0.2084
  174POPC   GL2 2453   5.620   6.398   4.840 -0.0365 -0.0016 -0.3801
  174POPC   C1A 2454   6.199   6.605   4.860  0.2114 -0.0728  0.0396
  174POPC   D2A 2455   6.396   6.666   5.289 -0.2795 -0.0293  0.1348
  174POPC   C3A 2456   6.312   6.384   5.615 -0.1139  0.0932  0.1600
  174POPC   C4A 2457   6.469   6.153   5.936 -0.2093 -0.3533 -0.2317
  174POPC   C1B 2458   5.793   6.508   5.167  0.1094  0.0257  0.1440
  174POPC   C2B 2459   5.930   6.917   5.195 -0.2974 -0.0782  0.1910
  174POPC   C3B 2460   6.097   7.318   5.280 -0.1537  0.0294  0.0086
  174POPC   C4B 2461   6.142   7.707   5.526  0.2158  0.4192 -0.1017
  175POPC   NC3 2462   2.386   0.339   4.631 -0.1536 -0.0184 -0.0128
  175POPC   PO4 2463   2.396   0.825   4.668  0.2324 -0.0719 -0.1000
  175POPC   GL1 2464   2.284   0.593   5.103 -0.3275  0.4597  0.3345
  175POPC   GL2 2465   2.503   0.481   5.068 -0.2722 -0.0790  0.0354
  175POPC   C1A 2466   2.089   0.645   5.430  0.2530 -0.2599  0.1803
  175POPC   D2A 2467   2.149   0.632   5.800 -0.1647  0.1034  0.0748
  175POPC   C3A 2468   1.931   0.894   6.066 -0.3387  0.1197 -0.1564
  175POPC   C4A 2469   1.630   0.948   6.405  0.0193 -0.2523  0.2129
  175POPC   C1B 2470   2.684   0.547   5.535  0.0957  0.1065 -0.2251
  175POPC   C2B 2471   2.725   0.369   5.957 -0.0854 -0.2654  0.2335
  175POPC   C3B 2472   2.855   0.100   6.334 -0.3296 -0.2088 -0.1053
  175POPC   C4B 2473   3.205   0.050   6.703 -0.1393  0.0970 -0.2125
  176POPC   NC3 2474   2.985   6.799   4.734  0.0704 -0.3378 -0.0057
  176POPC   PO4 2475   3.401   7.075   4.793 -0.2604 -0.2011 -0.1380
  176POPC   GL1 2476   3.143   7.344   4.947 -0.0545  0.0392  0.0502
  176POPC   GL2 2477   3.417   7.614   5.080  0.2407 -0.3416  0.0178
  176POPC   C1A 2478   2.974   7.506   5.373  0.2417 -0.1212  0.0947
  176POPC   D2A 2479   2.743   7.324   5.788  0.2193 -0.3877 -0.0462
  176POPC   C3A 2480   2.951   7.239   6.133  0.0334 -0.2064 -0.1228
  176POPC   C4A 2481   3.050   6.990   6.462 -0.0780 -0.0630  0.2752
  176POPC   C1B 2482   3.430   7.679   5.499 -0.0020 -0.1238  0.1181
  176POPC   C2B 2483   3.725   7.706   5.810  0.0711 -0.0312  0.0891
  176POPC   C3B 2484   3.967   7.470   6.153 -0.0435 -0.1624 -0.1485
  176POPC   C4B 2485   3.900   7.418   6.547  0.1450 -0.0678 -0.0781
  177POPC   NC3 2486   8.783   0.389   4.540  0.1590  0.0195 -0.2429
  177POPC   PO4 2487   9.211   0.634   4.392 -0.0552 -0.0226 -0.0727
  177POPC   GL1 2488   8.929   0.842   4.675 -0.2822 -0.1625 -0.2922
  177POPC   GL2 2489   8.845   0.786   4.973 -0.0085  0.0131 -0.0473
  177POPC   C1A 2490   8.485   1.121   4.812  0.1190 -0.0359 -0.2725
  177POPC   D2A 2491   8.457   1.539   4.966  0.1496  0.0639  0.1350
  177POPC   C3A 2492   8.544   1.616   5.314 -0.0577  0.3040  0.2389
  177POPC   C4A 2493   8.790   1.920   5.581  0.0506  0.1039  0.2795
  177POPC   C1B 2494   8.909   0.713   5.372  0.1598  0.0062 -0.1030
  177POPC   C2B 2495   8.960   0.425   5.746  0.0940 -0.2154 -0.0961
  177POPC   C3B 2496   9.179   0.454   6.016 -0.0407  0.0799  0.0581
  177POPC   C4B 2497   9.261   0.378   6.445  0.1660 -0.2025 -0.2041
  178POPC   NC3 2498   3.407   6.890   4.300 -0.0424  0.2855  0.0609
  178POPC   PO4 2499   3.767   7.158   4.456  0.3212 -0.1993 -0.1869
  178POPC   GL1 2500   3.881   6.945   4.898 -0.1771  0.1455  0.3520
  178POPC   GL2 2501   3.887   6.595   5.036  0.4697 -0.0419  0.0590
  178POPC   C1A 2502   3.837   6.940   5.360  0.1023 -0.2074  0.0787
  178POPC   D2A 2503   3.842   7.115   5.823 -0.2045 -0.1396  0.2883
  178POPC   C3A 2504   3.929   6.935   6.288  0.3251 -0.0928  0.3902
  178POPC   C4A 2505   3.727   6.628   6.539  0.3197 -0.1689 -0.1758
  178POPC   C1B 2506   4.101   6.579   5.480 -0.1479 -0.0270  0.2975
  178POPC   C2B 2507   4.514   6.668   5.762  0.1054  0.1131 -0.1895
  178POPC   C3B 2508   4.859   6.908   5.960 -0.0400  0.0691 -0.1117
  178POPC   C4B 2509   5.042   7.172   6.263  0.1077  0.0778  0.2102
  179POPC   NC3 2510   1.131   9.149   4.632 -0.1832  0.2361  0.4166
  179POPC   PO4 2511   1.573   9.284   4.514  0.2708 -0.1151 -0.1925
  179POPC   GL1 2512   1.699   9.384   4.965 -0.1430 -0.1420  0.3755
  179POPC   GL2 2513   1.482   9.512   5.187  0.0743 -0.0170  0.3359
  179POPC   C1A 2514   1.842   9.416   5.500 -0.1403  0.2096  0.0056
  179POPC   D2A 2515   1.893   9.496   5.993  0.4349  0.2129 -0.0905
  179POPC   C3A 2516   1.934   9.605   6.446  0.2291 -0.0814  0.1923
  179POPC   C4A 2517   1.994   9.615   6.842  0.2854  0.1312 -0.1646
  179POPC   C1B 2518   1.174   9.467   5.464 -0.1539 -0.0604  0.0338
  179POPC   C2B 2519   0.785   9.571   5.508  0.2391 -0.0527  0.3507
  179POPC   C3B 2520   0.358   9.847   5.503  0.3546 -0.0357 -0.0735
  179POPC   C4B 2521  -0.102   9.781   5.686  0.0847  0.3292  0.0500
  180POPC   NC3 2522   2.775   1.945   4.179  0.0053  0.1685  0.0868
  180POPC   PO4 2523   2.801   2.057   4.538  0.0029 -0.4038  0.1696
  180POPC   GL1 2524   2.819   2.349   4.901 -0.1141 -0.0167  0.3489
  180POPC   GL2 2525   3.078   2.224   5.101  0.1224  0.4493 -0.0391
  180POPC   C1A 2526   2.782   2.684   5.297 -0.1666  0.3466  0.2518
  180POPC   D2A 2527   2.829   2.578   5.775  0.2648 -0.2946  0.2583
  180POPC   C3A 2528   2.650   2.259   6.060 -0.0815 -0.1904 -0.2323
  180POPC   C4A 2529   2.518   2.126   6.429 -0.3187  0.0267 -0.0251
  180POPC   C1B 2530   3.481   2.154   5.379  0.2063  0.1951 -0.0180
  180POPC   C2B 2531   3.776   2.425   5.600 -0.3244 -0.1770 -0.1095
  180POPC   C3B 2532   3.803   2.727   5.937  0.3399 -0.2548  0.1044
  180POPC   C4B 2533   3.912   2.916   6.418  0.2900 -0.0414  0.0036
  181POPC   NC3 2534   1.725   7.686   5.087  0.2131  0.0008  0.2167
  181POPC   PO4 2535   1.737   7.329   4.881  0.0782 -0.2471  0.0362
  181POPC   GL1 2536   1.850   6.999   5.183 -0.0798  0.2345 -0.0379
  181POPC   GL2 2537   1.629   6.699   5.284 -0.1075  0.0057  0.0945
  181POPC   C1A 2538   1.963   7.119   5.599 -0.4183  0.2755  0.2190
  181POPC   D2A 2539   1.959   7.098   6.151  0.1245 -0.1408 -0.3003
  181POPC   C3A 2540   1.572   7.228   6.258  0.0772  0.0013 -0.2978
  181POPC   C4A 2541   1.356   7.462   6.573  0.0483  0.0638 -0.4777
  181POPC   C1B 2542   1.684   6.338   5.539  0.1923  0.2337  0.1539
  181POPC   C2B 2543   1.876   5.967   5.791  0.0001 -0.0010  0.3006
  181POPC   C3B 2544   1.914   5.892   6.220  0.1208 -0.1618  0.4084
  181POPC   C4B 2545   1.822   5.725   6.478 -0.1111 -0.0449 -0.3143
  182POPC   NC3 2546   1.940   8.542   4.732  0.0203 -0.0940 -0.4826
  182POPC   PO4 2547   1.817   8.152   4.951 -0.0117 -0.0443  0.0287
  182POPC   GL1 2548   1.777   8.089   5.390 -0.1744 -0.0769 -0.1821
  182POPC   GL2 2549   1.521   8.076   5.612  0.0877 -0.3657 -0.1270
  182POPC   C1A 2550   1.876   8.380   5.736  0.1139  0.3622  0.0561
  182POPC   D2A 2551   1.744   8.486   6.193 -0.2079  0.0952  0.2887
  182POPC   C3A 2552   1.567   8.500   6.519  0.1297 -0.1787  0.1327
  182POPC   C4A 2553   1.317   8.447   6.832  0.1498  0.1994 -0.0654
  182POPC   C1B 2554   1.362   8.200   6.007  0.3665  0.0439  0.1595
  182POPC   C2B 2555   1.091   8.383   6.297 -0.0844 -0.1433 -0.1906
  182POPC   C3B 2556   0.928   8.717   6.662 -0.0266 -0.0319 -0.0453
  182POPC   C4B 2557   0.691   8.957   6.848 -0.1042 -0.0637 -0.1218
  183POPC   NC3 2558   4.278   5.464   4.367 -0.0483 -0.3455  0.2181
  183POPC   PO4 2559   4.430   4.939   4.405 -0.3056 -0.0350  0.0676
  183POPC   GL1 2560   4.409   4.912   4.852  0.3034 -0.0425  0.1995
  183POPC   GL2 2561   4.662   5.046   5.056  0.0707 -0.2022  0.3498
  183POPC   C1A 2562   4.235   5.042   5.246  0.0897 -0.4376 -0.1060
  183POPC   D2A 2563   3.973   5.017   5.733  0.3688  0.1438 -0.0490
  183POPC   C3A 2564   4.110   4.709   5.942  0.2916 -0.0729  0.0570
  183POPC   C4A 2565   4.095   4.320   6.171 -0.1736 -0.0177  0.2368
  183POPC   C1B 2566   4.848   5.276   5.345  0.0321 -0.1253  0.0041
  183POPC   C2B 2567   5.075   5.261   5.718  0.2681  0.1928 -0.3449
  183POPC   C3B 2568   5.175   5.403   6.115 -0.2105  0.0124  0.2404
  183POPC   C4B 2569   5.253   5.252   6.545 -0.0470  0.1522  0.0865
  184POPC   NC3 2570   1.421   6.946   4.898 -0.0286 -0.0208  0.2658
  184POPC   PO4 2571   1.125   7.243   4.922  0.2839  0.1129 -0.1355
  184POPC   GL1 2572   1.411   7.349   5.324 -0.1179 -0.4173  0.2785
  184POPC   GL2 2573   1.558   7.608   5.522 -0.0722 -0.0705 -0.2694
  184POPC   C1A 2574   1.486   7.139   5.767 -0.1229  0.2282 -0.1038
  184POPC   D2A 2575   1.686   6.802   5.882 -0.0075 -0.0428 -0.1464
  184POPC   C3A 2576   2.058   6.662   5.670 -0.0168  0.0353  0.2581
  184POPC   C4A 2577   2.188   6.366   5.245  0.0596  0.0720  0.0235
  184POPC   C1B 2578   1.913   7.612   5.685  0.2863 -0.1373 -0.0008
  184POPC   C2B 2579   2.276   7.466   5.823 -0.0245 -0.2402 -0.1143
  184POPC   C3B 2580   2.421   7.267   6.191 -0.1965 -0.0700 -0.0728
  184POPC   C4B 2581   2.621   7.217   6.539  0.0254  0.0280  0.6150
  185POPC   NC3 2582   1.994   9.395   4.279  0.0982 -0.1687  0.3112
  185POPC   PO4 2583   2.418   9.512   4.521  0.0787  0.2433  0.1757
  185POPC   GL1 2584   2.472   9.565   4.932  0.0230 -0.0474 -0.3034
  185POPC   GL2 2585   2.165   9.445   5.093 -0.1279 -0.0962  0.0100
  185POPC   C1A 2586   2.494   9.759   5.319  0.0102 -0.2057 -0.0031
  185POPC   D2A 2587   2.247   9.824   5.693 -0.2897  0.0534  0.2401
  185POPC   C3A 2588   1.919   9.936   5.634  0.0013  0.1177 -0.2594
  185POPC   C4A 2589   1.532   9.748   5.666 -0.1932  0.1758  0.0218
  185POPC   C1B 2590   2.291   9.239   5.575  0.2654 -0.0782 -0.3166
  185POPC   C2B 2591   2.533   8.822   5.853 -0.1279  0.1898  0.3362
  185POPC   C3B 2592   2.598   8.849   6.256  0.0659  0.2958 -0.0942
  185POPC   C4B 2593   2.828   8.637   6.498 -0.0013 -0.0441 -0.2075
  186POPC   NC3 2594   2.040   2.874   4.606  0.0330  0.1014 -0.2069
  186POPC   PO4 2595   2.464   2.742   4.502 -0.1317 -0.3066  0.0142
  186POPC   GL1 2596   2.348   2.723   4.987  0.1353 -0.1538  0.1180
  186POPC   GL2 2597   2.329   3.091   5.000 -0.0279  0.0434  0.2112
  186POPC   C1A 2598   2.287   2.587   5.417 -0.1480  0.1311 -0.1642
  186POPC   D2A 2599   2.252   2.250   5.798 -0.0265 -0.1711 -0.0959
  186POPC   C3A 2600   2.165   1.783   5.661  0.2904  0.2252 -0.0695
  186POPC   C4A 2601   2.440   1.509   5.299 -0.1336 -0.1331 -0.0610
  186POPC   C1B 2602   2.537   3.138   5.467 -0.0109  0.0110  0.0768
  186POPC   C2B 2603   2.801   3.089   5.798  0.0658  0.2722  0.1028
  186POPC   C3B 2604   3.041   2.913   6.038  0.1468 -0.4441  0.0910
  186POPC   C4B 2605   3.322   2.624   5.941  0.2047 -0.2750  0.0277
  187POPC   NC3 2606   8.158   4.699   4.391 -0.2144  0.0632  0.0128
  187POPC   PO4 2607   8.086   5.059   4.693 -0.0481  0.0612  0.0428
  187POPC   GL1 2608   8.031   5.020   5.056 -0.0729 -0.0650 -0.0736
  187POPC   GL2 2609   8.179   5.261   5.227 -0.0830  0.3363  0.0362
  187POPC   C1A 2610   7.869   4.908   5.521  0.0180 -0.2071 -0.0932
  187POPC   D2A 2611   7.859   4.927   6.029  0.0889 -0.0968 -0.2020
  187POPC   C3A 2612   7.622   5.012   6.432 -0.2327  0.0436 -0.2341
  187POPC   C4A 2613   7.459   4.962   6.813  0.1210 -0.1632  0.1557
  187POPC   C1B 2614   8.147   5.452   5.712  0.0677  0.0435  0.1013
  187POPC   C2B 2615   8.466   5.476   6.123 -0.0420  0.0999  0.1620
  187POPC   C3B 2616   8.781   5.796   6.371  0.3137  0.0695  0.1676
  187POPC   C4B 2617   8.682   6.132   6.734 -0.0016  0.1275 -0.4268
  188POPC   NC3 2618   4.147   7.373   4.226 -0.0124 -0.0721  0.2339
  188POPC   PO4 2619   3.954   7.713   4.361 -0.0932 -0.0835 -0.0879
  188POPC   GL1 2620   3.903   7.758   4.776 -0.0234  0.2079  0.0816
  188POPC   GL2 2621   3.845   7.495   4.965  0.1854  0.0144 -0.0549
  188POPC   C1A 2622   4.220   7.847   5.091  0.2896 -0.0513 -0.2897
  188POPC   D2A 2623   4.511   7.971   5.448 -0.1587  0.0119 -0.0601
  188POPC   C3A 2624   4.627   7.944   5.866 -0.0983 -0.0792 -0.0082
  188POPC   C4A 2625   4.913   8.127   6.229  0.0025 -0.0857 -0.0502
  188POPC   C1B 2626   3.912   7.483   5.400  0.0718 -0.1002 -0.1133
  188POPC   C2B 2627   4.203   7.682   5.776 -0.2059  0.0517 -0.0770
  188POPC   C3B 2628   4.113   7.971   6.076 -0.1769 -0.4209  0.1911
  188POPC   C4B 2629   4.161   7.886   6.540 -0.3879 -0.2102 -0.0846
  189POPC   NC3 2630   7.967   6.689   4.523 -0.2125 -0.0734  0.1900
  189POPC   PO4 2631   7.704   6.436   4.631  0.0870  0.0303 -0.0285
  189POPC   GL1 2632   7.486   6.399   5.001  0.1083 -0.0060 -0.0559
  189POPC   GL2 2633   7.140   6.304   5.042  0.0750 -0.1196  0.2309
  189POPC   C1A 2634   7.567   6.407   5.349  0.0343  0.1134 -0.0059
  189POPC   D2A 2635   7.631   6.253   5.823 -0.1171 -0.2306 -0.0746
  189POPC   C3A 2636   7.402   6.190   6.176  0.2816 -0.0614 -0.2636
  189POPC   C4A 2637   7.161   6.150   6.541  0.1572 -0.2382  0.1708
  189POPC   C1B 2638   6.803   6.341   5.423 -0.0548 -0.1224 -0.1626
  189POPC   C2B 2639   6.721   6.624   5.756 -0.1482  0.2223 -0.2008
  189POPC   C3B 2640   6.819   6.947   6.017  0.1817 -0.0803 -0.1952
  189POPC   C4B 2641   6.523   7.154   6.260 -0.0315 -0.0927 -0.0788
  190POPC   NC3 2642   9.190   7.541   4.642  0.1638  0.0152 -0.0863
  190POPC   PO4 2643   9.248   7.830   4.993  0.0801  0.1492 -0.2153
  190POPC   GL1 2644   9.394   7.746   5.382  0.0427 -0.0859 -0.1767
  190POPC   GL2 2645   9.735   7.728   5.475 -0.2878  0.0609  0.2401
  190POPC   C1A 2646   9.366   7.980   5.732 -0.0040  0.1819 -0.2473
  190POPC   D2A 2647   9.214   8.126   6.127 -0.2548 -0.0879 -0.0226
  190POPC   C3A 2648   8.792   8.200   6.220 -0.2219  0.1794  0.0208
  190POPC   C4A 2649   8.342   8.159   6.333  0.0863 -0.2474 -0.0846
  190POPC   C1B 2650   9.877   8.052   5.839 -0.0423 -0.2064 -0.0997
  190POPC   C2B 2651   9.726   8.302   6.192  0.1588 -0.1852  0.1596
  190POPC   C3B 2652   9.448   8.468   6.624  0.1527  0.2918  0.1916
  190POPC   C4B 2653   9.583   8.422   6.927  0.0567  0.4371  0.2487
  191POPC   NC3 2654   6.681   2.304   4.050 -0.1668  0.0356 -0.0340
  191POPC   PO4 2655   7.107   2.523   4.179  0.0962 -0.0442  0.1969
  191POPC   GL1 2656   7.239   2.524   4.612  0.0261  0.1706  0.2008
  191POPC   GL2 2657   7.566   2.661   4.662 -0.2154 -0.2451 -0.0684
  191POPC   C1A 2658   7.314   2.515   5.146  0.2457 -0.0476 -0.1530
  191POPC   D2A 2659   7.592   2.702   5.527  0.0851 -0.1593  0.2512
  191POPC   C3A 2660   7.406   2.743   5.953  0.2742  0.0108  0.1010
  191POPC   C4A 2661   7.518   2.425   6.326  0.0391  0.1471 -0.1647
  191POPC   C1B 2662   7.451   2.976   4.943  0.0973  0.0219 -0.0482
  191POPC   C2B 2663   7.627   3.348   5.078  0.0893  0.1879 -0.0103
  191POPC   C3B 2664   7.934   3.579   5.317 -0.3639  0.1142  0.0953
  191POPC   C4B 2665   8.197   3.654   5.645 -0.1710  0.1296  0.2022
  192POPC   NC3 2666   7.029   1.294   2.770 -0.0070  0.2695 -0.1253
  192POPC   PO4 2667   6.894   1.224   3.152  0.0064  0.0409  0.2077
  192POPC   GL1 2668   6.656   0.867   3.337  0.2945 -0.2406  0.2745
  192POPC   GL2 2669   6.328   0.935   3.396 -0.1535  0.0154 -0.0235
  192POPC   C1A 2670   6.584   0.716   3.767  0.1176 -0.1147  0.0708
  192POPC   D2A 2671   6.717   0.396   3.962 -0.1230 -0.2107 -0.3801
  192POPC   C3A 2672   6.980   0.377   4.362 -0.0764  0.1672 -0.0203
  192POPC   C4A 2673   7.050   0.107   4.736  0.1974 -0.1566  0.0537
  192POPC   C1B 2674   6.189   1.078   3.748 -0.2638  0.3670 -0.3279
  192POPC   C2B 2675   6.061   1.060   4.173 -0.0769  0.1121 -0.1274
  192POPC   C3B 2676   5.767   1.354   4.358  0.1508  0.0661 -0.1324
  192POPC   C4B 2677   5.635   1.479   4.724  0.2782  0.0189  0.0047
  193POPC   NC3 2678   3.286   2.980   4.515 -0.1462 -0.0361  0.2648
  193POPC   PO4 2679   3.460   2.600   4.461 -0.1019 -0.2010 -0.1050
  193POPC   GL1 2680   3.722   2.621   4.814  0.3519 -0.2125  0.0580
  193POPC   GL2 2681   3.887   2.403   4.936  0.4349 -0.0462 -0.2677
  193POPC   C1A 2682   3.552   2.665   5.256  0.0668 -0.1495 -0.0464
  193POPC   D2A 2683   3.322   2.622   5.466  0.1992  0.2584 -0.1055
  193POPC   C3A 2684   3.082   3.059   5.294  0.1394 -0.0555  0.0651
  193POPC   C4A 2685   2.942   3.566   5.368 -0.0312 -0.0946 -0.2800
  193POPC   C1B 2686   4.047   2.825   5.192 -0.2222 -0.1601  0.0098
  193POPC   C2B 2687   3.816   3.057   5.485  0.1986 -0.3198  0.0494
  193POPC   C3B 2688   3.475   3.068   5.680 -0.1635 -0.1047  0.0765
  193POPC   C4B 2689   3.226   3.360   5.769  0.1553  0.1259 -0.0538
  194POPC   NC3 2690   0.306   6.940   5.105  0.0043  0.1258  0.0285
  194POPC   PO4 2691   0.520   7.257   4.994  0.0589 -0.1522  0.0840
  194POPC   GL1 2692   0.685   7.086   5.406 -0.2636 -0.0439  0.1411
  194POPC   GL2 2693   1.044   6.969   5.302  0.2086 -0.1981 -0.2688
  194POPC   C1A 2694   0.673   7.120   5.839  0.0397 -0.3331 -0.2065
  194POPC   D2A 2695   0.971   7.230   6.111  0.0386 -0.0944 -0.1350
  194POPC   C3A 2696   1.104   6.994   6.491  0.0564 -0.0547  0.1289
  194POPC   C4A 2697   1.268   6.899   6.914 -0.1999 -0.0191 -0.0883
  194POPC   C1B 2698   0.775   6.690   5.669 -0.1458  0.3007 -0.1744
  194POPC   C2B 2699   0.468   6.525   5.920  0.1585  0.0208  0.2414
  194POPC   C3B 2700   0.169   6.594   6.268 -0.3759 -0.0397  0.2288
  194POPC   C4B 2701  -0.126   6.399   6.521 -0.0188 -0.0400 -0.3438
  195POPC   NC3 2702   4.244   6.912   4.463  0.1565  0.1007 -0.1885
  195POPC   PO4 2703   4.588   7.166   4.296  0.1340 -0.1775 -0.2835
  195POPC   GL1 2704   4.385   7.392   4.720 -0.1703  0.3078 -0.1165
  195POPC   GL2 2705   4.702   7.474   4.763  0.0151 -0.2798  0.3163
  195POPC   C1A 2706   4.277   7.208   5.065  0.1770 -0.0541 -0.1551
  195POPC   D2A 2707   4.315   7.001   5.480 -0.1797 -0.0960 -0.1311
  195POPC   C3A 2708   4.331   7.232   5.836 -0.3408  0.1595  0.2226
  195POPC   C4A 2709   4.653   7.459   6.164 -0.2870  0.1334 -0.0910
  195POPC   C1B 2710   4.614   7.545   5.254 -0.4805  0.1964 -0.1092
  195POPC   C2B 2711   4.745   7.510   5.690 -0.0537  0.0647 -0.0602
  195POPC   C3B 2712   5.128   7.616   6.021  0.1642 -0.1132  0.0724
  195POPC   C4B 2713   5.502   7.649   6.277 -0.0865 -0.1550 -0.0143
  196POPC   NC3 2714   0.410   9.172   5.062  0.0773  0.2929 -0.0455
  196POPC   PO4 2715   0.351   8.934   4.714 -0.0936 -0.1734 -0.2323
  196POPC   GL1 2716   0.308   8.762   5.253 -0.0993 -0.0917 -0.0291
  196POPC   GL2 2717   0.160   8.373   5.281  0.2897  0.1564 -0.1147
  196POPC   C1A 2718   0.161   8.663   5.797  0.2074  0.0137 -0.3376
  196POPC   D2A 2719  -0.021   8.784   6.233 -0.1438 -0.0144 -0.0901
  196POPC   C3A 2720   0.226   9.214   6.282  0.1123 -0.0319 -0.0102
  196POPC   C4A 2721   0.526   9.401   6.555  0.0173  0.0733  0.1061
  196POPC   C1B 2722  -0.241   8.434   5.532 -0.3044 -0.1968  0.2255
  196POPC   C2B 2723  -0.360   8.583   5.916 -0.0414  0.2977 -0.0640
  196POPC   C3B 2724  -0.613   8.637   6.307  0.3251  0.3297  0.1653
  196POPC   C4B 2725  -0.776   8.601   6.736  0.1172 -0.3251  0.0273
  197POPC   NC3 2726   0.803   7.633   4.743  0.2372 -0.2023  0.1348
  197POPC   PO4 2727   0.800   8.034   4.984  0.0031  0.0884 -0.2496
  197POPC   GL1 2728   0.875   8.465   5.338 -0.1027  0.2553 -0.2051
  197POPC   GL2 2729   1.204   8.551   5.359  0.3989  0.2699 -0.0346
  197POPC   C1A 2730   0.824   8.574   5.704 -0.1501  0.4155 -0.0192
  197POPC   D2A 2731   0.558   8.321   6.016  0.1836  0.0777 -0.0062
  197POPC   C3A 2732   0.751   7.981   6.163  0.2590  0.0570  0.1964
  197POPC   C4A 2733   0.965   7.951   5.797  0.0426 -0.4279 -0.2684
  197POPC   C1B 2734   1.339   8.665   5.769 -0.0097 -0.3761  0.1588
  197POPC   C2B 2735   1.276   8.788   6.129  0.3082  0.2712  0.4019
  197POPC   C3B 2736   1.009   9.117   6.388  0.1762  0.0100 -0.0269
  197POPC   C4B 2737   0.941   9.547   6.410 -0.4280  0.1612 -0.0522
  198POPC   NC3 2738   9.584   8.851   4.346 -0.1581  0.0157 -0.0383
  198POPC   PO4 2739   9.220   8.700   4.626 -0.0532 -0.1099 -0.1407
  198POPC   GL1 2740   8.946   8.722   4.887 -0.0647  0.3336  0.2750
  198POPC   GL2 2741   9.133   8.871   5.128  0.0596 -0.0191  0.2579
  198POPC   C1A 2742   8.699   8.597   5.147  0.0436  0.1405  0.2656
  198POPC   D2A 2743   8.410   8.357   5.485  0.0983  0.3868 -0.3867
  198POPC   C3A 2744   8.436   8.503   5.920  0.1523 -0.0961 -0.0332
  198POPC   C4A 2745   8.418   8.745   6.278  0.2708 -0.2341 -0.1248
  198POPC   C1B 2746   9.349   9.067   5.485  0.0705  0.1359 -0.2008
  198POPC   C2B 2747   9.236   9.001   6.066 -0.3974 -0.2388 -0.2220
  198POPC   C3B 2748   9.291   9.063   6.521  0.0901 -0.0148 -0.0822
  198POPC   C4B 2749   9.334   8.849   6.949 -0.1517 -0.0608 -0.2605
  199POPC   NC3 2750   4.936   5.057   4.315 -0.1750 -0.1318  0.0223
  199POPC   PO4 2751   5.262   5.347   4.511  0.2394  0.1914  0.1514
  199POPC   GL1 2752   5.177   5.170   4.905  0.2163 -0.3429  0.2045
  199POPC   GL2 2753   5.324   5.391   5.214  0.0410  0.0169  0.0775
  199POPC   C1A 2754   5.155   4.898   5.312  0.2217  0.0134 -0.1594
  199POPC   D2A 2755   5.423   4.658   5.568 -0.2430  0.0361  0.0635
  199POPC   C3A 2756   5.253   4.388   5.951  0.2812  0.0025 -0.2427
  199POPC   C4A 2757   4.914   4.200   6.200  0.1466  0.1669  0.3558
  199POPC   C1B 2758   5.394   5.702   5.549 -0.1740  0.1741 -0.1640
  199POPC   C2B 2759   5.563   5.716   6.027  0.2997  0.0524 -0.1570
  199POPC   C3B 2760   5.691   5.570   6.397  0.0392  0.1103 -0.3502
  199POPC   C4B 2761   5.869   5.305   6.727  0.0061 -0.0801 -0.0121
  200POPC   NC3 2762   3.839   4.036   4.420  0.2076  0.0773 -0.1830
  200POPC   PO4 2763   3.900   4.217   4.734 -0.0189  0.1194  0.0595
  200POPC   GL1 2764   4.258   4.162   5.033 -0.1485  0.1268 -0.2624
  200POPC   GL2 2765   4.389   4.354   4.873 -0.0990 -0.1584 -0.0438
  200POPC   C1A 2766   4.454   4.017   5.320 -0.1038  0.0525  0.2138
  200POPC   D2A 2767   4.688   4.101   5.578  0.0421 -0.2723 -0.0443
  200POPC   C3A 2768   4.583   4.418   5.831  0.0517  0.5372  0.0291
  200POPC   C4A 2769   4.515   4.668   6.152  0.0241  0.1404 -0.1030
  200POPC   C1B 2770   4.496   4.534   5.262 -0.1498 -0.0513  0.0521
  200POPC   C2B 2771   4.562   4.927   5.590  0.2835  0.0270 -0.0725
  200POPC   C3B 2772   4.491   5.326   5.762  0.2089 -0.1156  0.0451
  200POPC   C4B 2773   4.769   5.637   5.830  0.2453 -0.3431  0.0294
  201POPC   NC3 2774   4.922   8.682   3.105 -0.1158 -0.2549 -0.0207
  201POPC   PO4 2775   4.835   8.312   3.252 -0.0386 -0.1337  0.0998
  201POPC   GL1 2776   5.075   8.498   3.546 -0.1400  0.1043 -0.1644
  201POPC   GL2 2777   5.354   8.373   3.409 -0.0292  0.1314  0.0794
  201POPC   C1A 2778   5.339   8.760   3.772 -0.0514 -0.0665 -0.1833
  201POPC   D2A 2779   5.821   8.807   3.764 -0.0217 -0.2377 -0.3280
  201POPC   C3A 2780   6.128   8.929   4.080  0.0369 -0.1956 -0.0899
  201POPC   C4A 2781   6.322   9.321   4.216 -0.1365 -0.3214  0.5334
  201POPC   C1B 2782   5.658   8.199   3.791  0.1109 -0.0645  0.0881
  201POPC   C2B 2783   6.033   8.092   3.868  0.2926  0.0847  0.0237
  201POPC   C3B 2784   5.951   7.973   4.217  0.2557 -0.2927 -0.4482
  201POPC   C4B 2785   5.740   7.880   4.577 -0.0069  0.1935 -0.1573
  202POPC   NC3 2786   9.231   3.580   4.820  0.2032 -0.1610 -0.1540
  202POPC   PO4 2787   9.205   4.085   4.678  0.0357 -0.1956 -0.0814
  202POPC   GL1 2788   9.296   4.044   5.049  0.0862 -0.1569  0.0371
  202POPC   GL2 2789   9.704   3.928   5.027 -0.3763  0.1069 -0.1978
  202POPC   C1A 2790   9.490   4.244   5.382 -0.1604  0.3888  0.0573
  202POPC   D2A 2791   9.732   4.221   5.758  0.3010 -0.1191 -0.0344
  202POPC   C3A 2792   9.771   3.936   6.053  0.0403  0.1965  0.1250
  202POPC   C4A 2793   9.846   3.515   6.151  0.0489  0.1296 -0.1998
  202POPC   C1B 2794   9.681   3.658   5.396  0.0946 -0.1150 -0.2495
  202POPC   C2B 2795   9.438   3.409   5.754 -0.0995  0.0361 -0.0814
  202POPC   C3B 2796   9.482   3.208   6.241  0.1887  0.0143 -0.3823
  202POPC   C4B 2797   9.461   3.124   6.615 -0.0795 -0.1267  0.0231
  203POPC   NC3 2798   1.362   8.101   5.143  0.0859 -0.0404  0.2332
  203POPC   PO4 2799   1.276   7.737   4.854  0.1676 -0.2645 -0.2541
  203POPC   GL1 2800   1.085   7.697   5.307  0.0911 -0.1836  0.1206
  203POPC   GL2 2801   0.780   7.572   5.254 -0.0093  0.0958 -0.1255
  203POPC   C1A 2802   1.092   7.498   5.691  0.0180  0.1295  0.0300
  203POPC   D2A 2803   1.242   7.674   6.104 -0.0317  0.3486  0.2841
  203POPC   C3A 2804   1.610   7.708   6.128  0.1912 -0.2625  0.0611
  203POPC   C4A 2805   1.988   7.592   6.253 -0.1089 -0.0467 -0.0689
  203POPC   C1B 2806   0.597   7.599   5.670  0.0986  0.1153 -0.1402
  203POPC   C2B 2807   0.407   7.585   5.986  0.2744 -0.0171  0.0130
  203POPC   C3B 2808   0.536   7.524   6.288 -0.2389  0.1130  0.4239
  203POPC   C4B 2809   0.885   7.558   6.560  0.0478  0.0100  0.1364
  204POPC   NC3 2810   1.596   4.074   4.068  0.0350  0.0254  0.5412
  204POPC   PO4 2811   1.447   4.307   4.428  0.0690  0.0526 -0.0185
  204POPC   GL1 2812   1.579   4.210   4.836  0.1616 -0.2660 -0.1171
  204POPC   GL2 2813   1.749   3.889   4.884  0.0020 -0.1253  0.2692
  204POPC   C1A 2814   1.439   4.269   5.245 -0.1506  0.1651 -0.1779
  204POPC   D2A 2815   1.253   4.364   5.665  0.0656  0.0031 -0.0603
  204POPC   C3A 2816   1.083   4.761   5.718 -0.1016  0.0649  0.2103
  204POPC   C4A 2817   0.933   5.215   5.689  0.0971 -0.1730 -0.0226
  204POPC   C1B 2818   1.894   4.064   5.330 -0.2553 -0.1561  0.0379
  204POPC   C2B 2819   2.094   3.940   5.769 -0.0538  0.0770  0.0000
  204POPC   C3B 2820   2.296   3.790   6.161 -0.3359  0.0992  0.1748
  204POPC   C4B 2821   2.404   3.546   6.382 -0.0017  0.0888 -0.1170
  205POPC   NC3 2822   2.745   5.942   4.745 -0.2874  0.3634  0.0521
  205POPC   PO4 2823   2.686   6.331   4.649  0.0104 -0.2831 -0.3793
  205POPC   GL1 2824   2.718   6.377   5.187 -0.0695  0.0783  0.1348
  205POPC   GL2 2825   3.091   6.403   5.317  0.2438  0.1779 -0.1002
  205POPC   C1A 2826   2.699   6.525   5.582  0.1422 -0.0709 -0.0243
  205POPC   D2A 2827   2.879   6.811   5.899 -0.2185  0.2250  0.3018
  205POPC   C3A 2828   3.336   6.879   5.961  0.1157  0.1410 -0.0228
  205POPC   C4A 2829   3.679   6.684   5.802  0.2435 -0.4269 -0.3968
  205POPC   C1B 2830   3.244   6.404   5.790 -0.1137  0.0757 -0.1301
  205POPC   C2B 2831   3.366   6.279   6.165 -0.0129 -0.2708 -0.4677
  205POPC   C3B 2832   3.326   6.358   6.544  0.4075 -0.1522 -0.3750
  205POPC   C4B 2833   3.064   6.331   6.927 -0.1440 -0.0690 -0.1036
  206POPC   NC3 2834   4.208   9.010   2.800 -0.0381 -0.0203 -0.1686
  206POPC   PO4 2835   4.634   8.975   2.822 -0.1421 -0.1074  0.0715
  206POPC   GL1 2836   4.815   9.180   3.236 -0.3429  0.1131  0.6315
  206POPC   GL2 2837   4.834   9.513   3.172  0.1494  0.3997 -0.2135
  206POPC   C1A 2838   5.070   9.291   3.596 -0.2773 -0.2210  0.0259
  206POPC   D2A 2839   5.099   9.234   4.046 -0.1732 -0.3038  0.1870
  206POPC   C3A 2840   4.958   8.880   4.121 -0.0637  0.0193 -0.0388
  206POPC   C4A 2841   4.542   8.704   4.185  0.3370 -0.0200 -0.0186
  206POPC   C1B 2842   4.585   9.400   3.598 -0.0226 -0.4397  0.2160
  206POPC   C2B 2843   4.544   9.235   4.012  0.3599 -0.1384  0.0334
  206POPC   C3B 2844   4.647   9.256   4.376  0.0723 -0.0401  0.1603
  206POPC   C4B 2845   4.784   9.009   4.770 -0.0919  0.1628 -0.2706
  207POPC   NC3 2846   8.230   1.814   3.974  0.2518  0.3804  0.0672
  207POPC   PO4 2847   7.984   2.145   4.149  0.1380 -0.1835 -0.1949
  207POPC   GL1 2848   7.844   2.001   4.572 -0.0108 -0.2987 -0.0454
  207POPC   GL2 2849   7.524   2.124   4.446 -0.1353  0.0335 -0.2639
  207POPC   C1A 2850   7.683   2.111   4.938  0.4932 -0.2525 -0.4591
  207POPC   D2A 2851   7.772   2.274   5.359  0.1769 -0.0118 -0.1486
  207POPC   C3A 2852   7.738   2.187   5.739 -0.0035 -0.0668 -0.0054
  207POPC   C4A 2853   7.940   2.095   6.121 -0.0926 -0.1219 -0.2577
  207POPC   C1B 2854   7.113   2.068   4.732 -0.3070 -0.2291 -0.0796
  207POPC   C2B 2855   6.976   1.803   5.071 -0.1049 -0.3017  0.2535
  207POPC   C3B 2856   7.107   1.596   5.436 -0.1244  0.0774 -0.1850
  207POPC   C4B 2857   7.300   1.199   5.639  0.3106 -0.1411 -0.0780
  208POPC   NC3 2858   6.098   4.416   4.388 -0.0741 -0.0541 -0.0104
  208POPC   PO4 2859   6.349   4.606   4.807 -0.0997  0.0324  0.0761
  208POPC   GL1 2860   6.384   4.492   5.182  0.1503 -0.0017 -0.2138
  208POPC   GL2 2861   6.620   4.193   5.266  0.1686 -0.1379 -0.0209
  208POPC   C1A 2862   6.457   4.425   5.647 -0.0603  0.1324  0.2279
  208POPC   D2A 2863   6.598   4.228   6.006 -0.0036  0.0406  0.2085
  208POPC   C3A 2864   6.370   3.874   6.155 -0.1357 -0.1916  0.2305
  208POPC   C4A 2865   6.403   3.606   6.498 -0.0281 -0.0801  0.1432
  208POPC   C1B 2866   6.836   3.960   5.503  0.1137 -0.2936  0.0810
  208POPC   C2B 2867   6.814   3.740   5.935  0.2256 -0.2942 -0.2906
  208POPC   C3B 2868   6.767   3.353   6.222 -0.0018 -0.0920  0.1557
  208POPC   C4B 2869   6.701   2.989   6.423 -0.1034  0.0428 -0.2661
  209POPC   NC3 2870   3.465   7.505   4.568 -0.2246 -0.1330  0.1962
  209POPC   PO4 2871   3.458   7.787   4.449 -0.0292 -0.0762 -0.0766
  209POPC   GL1 2872   3.511   8.064   4.763 -0.2162 -0.5075 -0.0547
  209POPC   GL2 2873   3.521   8.422   4.846  0.2187  0.2634 -0.2792
  209POPC   C1A 2874   3.738   8.028   5.185 -0.0374  0.2164 -0.3191
  209POPC   D2A 2875   4.031   8.118   5.615 -0.0263  0.0356  0.1488
  209POPC   C3A 2876   4.387   8.406   5.813  0.1720 -0.2505 -0.3146
  209POPC   C4A 2877   4.644   8.626   6.160 -0.2559 -0.1916 -0.0379
  209POPC   C1B 2878   3.693   8.515   5.166 -0.1745  0.0615 -0.2436
  209POPC   C2B 2879   3.835   8.784   5.512 -0.1206  0.0948 -0.0436
  209POPC   C3B 2880   3.708   8.968   5.897  0.0605  0.1568  0.2217
  209POPC   C4B 2881   3.558   9.113   6.232  0.0067 -0.1701 -0.0805
  210POPC   NC3 2882   0.595   5.654   4.738  0.1050  0.2125 -0.1027
  210POPC   PO4 2883   0.483   6.066   4.896 -0.0996  0.1689  0.2862
  210POPC   GL1 2884   0.306   6.151   5.379 -0.2448 -0.0620  0.1471
  210POPC   GL2 2885   0.579   6.209   5.516  0.0347 -0.0335 -0.3215
  210POPC   C1A 2886   0.250   6.059   5.821 -0.2553 -0.2836  0.2259
  210POPC   D2A 2887  -0.217   6.142   6.021 -0.2623  0.1004 -0.0866
  210POPC   C3A 2888  -0.371   5.703   6.271  0.0651 -0.2064 -0.0047
  210POPC   C4A 2889  -0.709   5.443   6.061  0.2703 -0.2009 -0.1862
  210POPC   C1B 2890   0.810   6.226   5.793 -0.2395  0.1442  0.2014
  210POPC   C2B 2891   1.115   6.240   6.083  0.3784 -0.2601  0.4421
  210POPC   C3B 2892   1.471   6.388   6.192 -0.1752  0.1657 -0.0717
  210POPC   C4B 2893   1.562   6.745   6.366 -0.2782  0.1210 -0.5058
  211POPC   NC3 2894   8.348   6.663   4.126  0.3344 -0.1138 -0.2251
  211POPC   PO4 2895   8.556   6.827   4.510  0.0182 -0.1980 -0.0972
  211POPC   GL1 2896   8.495   6.689   4.880  0.0517  0.0547 -0.1540
  211POPC   GL2 2897   8.359   6.954   5.042 -0.1271  0.1864  0.2418
  211POPC   C1A 2898   8.333   6.595   5.357  0.1233  0.1477 -0.1217
  211POPC   D2A 2899   8.086   6.301   5.546  0.0952 -0.1366 -0.2206
  211POPC   C3A 2900   8.139   6.293   5.903 -0.0900 -0.0985 -0.1444
  211POPC   C4A 2901   8.035   5.859   6.018 -0.0369 -0.2513  0.1948
  211POPC   C1B 2902   8.427   7.290   5.313  0.2033  0.1412 -0.1181
  211POPC   C2B 2903   8.550   7.362   5.740 -0.0050  0.0409 -0.2270
  211POPC   C3B 2904   8.485   7.188   6.174 -0.0851  0.0419 -0.0461
  211POPC   C4B 2905   8.166   7.272   6.412 -0.0220 -0.1824 -0.0410
  212POPC   NC3 2906   3.288   9.290   3.616  0.0060  0.0376 -0.0769
  212POPC   PO4 2907   3.307   9.641   3.903 -0.2695  0.0031 -0.1320
  212POPC   GL1 2908   3.344   9.549   4.378  0.0730 -0.2136  0.1107
  212POPC   GL2 2909   3.477   9.786   4.401 -0.2246 -0.0663 -0.1927
  212POPC   C1A 2910   3.411   9.303   4.751 -0.0870  0.0719  0.6234
  212POPC   D2A 2911   3.592   9.050   5.074  0.0305  0.0366  0.1297
  212POPC   C3A 2912   3.948   9.248   5.384  0.0432  0.0667 -0.1461
  212POPC   C4A 2913   4.348   9.325   5.654 -0.0355 -0.1086  0.0160
  212POPC   C1B 2914   3.370   9.901   4.847  0.1066 -0.1523  0.1142
  212POPC   C2B 2915   3.426  10.014   5.260 -0.1296  0.0438  0.0446
  212POPC   C3B 2916   3.283  10.298   5.611 -0.0901  0.2348 -0.0679
  212POPC   C4B 2917   3.498  10.483   6.004 -0.1259 -0.0834 -0.1192
  213POPC   NC3 2918   3.661   4.694   4.517  0.2193 -0.4590 -0.1835
  213POPC   PO4 2919   3.435   4.410   4.777  0.0517 -0.0322  0.2160
  213POPC   GL1 2920   3.474   4.489   5.210 -0.1594  0.1010  0.1592
  213POPC   GL2 2921   3.712   4.341   5.173 -0.0485 -0.1860 -0.4595
  213POPC   C1A 2922   3.599   4.614   5.605 -0.2717  0.0914  0.1317
  213POPC   D2A 2923   3.630   4.441   5.996  0.1752  0.1642  0.0792
  213POPC   C3A 2924   3.820   3.938   6.073 -0.1762  0.3030  0.1116
  213POPC   C4A 2925   3.778   3.669   6.424  0.2257  0.4391  0.2454
  213POPC   C1B 2926   3.653   4.036   5.556  0.0657 -0.1750  0.3387
  213POPC   C2B 2927   3.305   3.811   5.873  0.1913  0.0265  0.0482
  213POPC   C3B 2928   3.374   3.583   6.157  0.1581  0.3138  0.0097
  213POPC   C4B 2929   3.492   3.154   6.155 -0.0248  0.0688 -0.2282
  214POPC   NC3 2930   7.343   5.619   4.290  0.0319  0.0663  0.0594
  214POPC   PO4 2931   7.118   5.670   4.600 -0.0341  0.2502 -0.2101
  214POPC   GL1 2932   7.020   5.414   5.003 -0.2198  0.0532 -0.1381
  214POPC   GL2 2933   7.124   5.139   5.011  0.2764  0.0728  0.1770
  214POPC   C1A 2934   7.237   5.583   5.304  0.0901 -0.1397 -0.0637
  214POPC   D2A 2935   7.275   6.002   5.463 -0.0903 -0.2307 -0.0906
  214POPC   C3A 2936   7.033   6.206   5.867  0.3399  0.4226 -0.0602
  214POPC   C4A 2937   6.787   6.388   6.217 -0.0673 -0.1789 -0.5062
  214POPC   C1B 2938   7.139   5.125   5.465 -0.1881 -0.0969  0.2158
  214POPC   C2B 2939   6.896   5.221   5.779 -0.1710 -0.1535 -0.1651
  214POPC   C3B 2940   6.768   5.253   6.065 -0.1854 -0.1130  0.0223
  214POPC   C4B 2941   6.516   5.347   6.305 -0.0879 -0.1893 -0.0407
  215POPC   NC3 2942   9.413   4.496   4.764 -0.0253  0.0789  0.3871
  215POPC   PO4 2943   9.041   4.726   4.590 -0.1126 -0.2040  0.2420
  215POPC   GL1 2944   9.056   4.840   5.080  0.0061  0.0233  0.2566
  215POPC   GL2 2945   9.070   5.303   5.144 -0.4277 -0.0505 -0.1973
  215POPC   C1A 2946   8.761   4.790   5.487  0.0737  0.3988 -0.0671
  215POPC   D2A 2947   8.826   4.662   5.841  0.1070  0.0036 -0.0338
  215POPC   C3A 2948   8.741   4.960   6.180  0.0178 -0.0965  0.1884
  215POPC   C4A 2949   8.737   5.309   6.490 -0.0686  0.0423 -0.2926
  215POPC   C1B 2950   9.140   5.141   5.508  0.3913  0.1813  0.0029
  215POPC   C2B 2951   9.277   4.978   5.846  0.1846 -0.3072 -0.1674
  215POPC   C3B 2952   9.207   4.824   6.240 -0.2684  0.0831  0.0657
  215POPC   C4B 2953   8.946   4.499   6.361 -0.0897 -0.1925 -0.0665
  216POPC   NC3 2954   9.417   0.821   4.841  0.1882  0.5757 -0.1530
  216POPC   PO4 2955   9.178   1.291   4.620  0.1614 -0.0247 -0.2286
  216POPC   GL1 2956   8.978   1.291   5.088 -0.1657 -0.2077  0.1362
  216POPC   GL2 2957   9.192   1.146   5.121  0.0249 -0.2133 -0.3706
  216POPC   C1A 2958   8.690   1.181   5.346  0.0831  0.1031 -0.1256
  216POPC   D2A 2959   8.407   1.038   5.659 -0.2921 -0.0121 -0.0609
  216POPC   C3A 2960   8.258   1.253   6.055 -0.2615 -0.0293  0.1504
  216POPC   C4A 2961   8.193   1.468   6.407  0.2097  0.2151 -0.3077
  216POPC   C1B 2962   9.196   1.370   5.576 -0.0582  0.3507  0.3516
  216POPC   C2B 2963   9.215   1.670   5.951 -0.0204 -0.2105 -0.1397
  216POPC   C3B 2964   8.978   1.929   6.135  0.3012  0.0840 -0.0222
  216POPC   C4B 2965   8.690   2.048   6.528  0.1878  0.1021  0.1533
  217POPC   NC3 2966   8.208   1.447   3.300  0.1023  0.3215  0.1857
  217POPC   PO4 2967   8.355   1.367   3.726 -0.0859  0.3981 -0.1860
  217POPC   GL1 2968   8.034   1.364   4.102  0.0979 -0.0182  0.0222
  217POPC   GL2 2969   7.755   1.661   4.212  0.2946  0.0373 -0.0783
  217POPC   C1A 2970   8.123   1.075   4.401  0.0279  0.0759 -0.2735
  217POPC   D2A 2971   7.965   1.101   4.889 -0.1077 -0.0053 -0.0557
  217POPC   C3A 2972   8.214   1.121   5.189  0.3743 -0.0179 -0.3014
  217POPC   C4A 2973   8.048   1.405   5.452  0.2632  0.0519 -0.0235
  217POPC   C1B 2974   7.489   1.649   4.607  0.0315 -0.1813  0.1159
  217POPC   C2B 2975   7.377   1.518   5.012 -0.0256  0.0487  0.1060
  217POPC   C3B 2976   7.586   1.246   5.256  0.1595  0.1566  0.0631
  217POPC   C4B 2977   7.802   1.012   5.694  0.0598  0.1643 -0.1460
  218POPC   NC3 2978   7.615   7.624   3.688 -0.0878 -0.1163  0.0501
  218POPC   PO4 2979   7.471   7.877   4.101  0.0001  0.1580 -0.1548
  218POPC   GL1 2980   7.273   7.857   4.527 -0.0284 -0.3089  0.0383
  218POPC   GL2 2981   7.042   7.890   4.424  0.2089  0.1861  0.2623
  218POPC   C1A 2982   7.381   8.014   4.952  0.1424 -0.0478  0.2954
  218POPC   D2A 2983   7.174   7.934   5.380  0.1999  0.0696 -0.2478
  218POPC   C3A 2984   6.865   8.107   5.347 -0.1871 -0.2870 -0.0219
  218POPC   C4A 2985   6.766   8.561   5.480 -0.0026 -0.0483 -0.2231
  218POPC   C1B 2986   6.857   8.091   4.813 -0.2842  0.0918 -0.0278
  218POPC   C2B 2987   6.567   8.372   5.035  0.0777  0.2020 -0.0996
  218POPC   C3B 2988   6.264   8.223   5.313  0.0732 -0.0140 -0.0067
  218POPC   C4B 2989   5.968   8.171   5.647 -0.1498  0.0397 -0.0675
  219POPC   NC3 2990   4.385   5.483   4.861 -0.0340 -0.1654 -0.0866
  219POPC   PO4 2991   4.409   5.850   4.634 -0.2431 -0.4699  0.0591
  219POPC   GL1 2992   4.625   6.055   5.062 -0.0283  0.0900  0.1124
  219POPC   GL2 2993   4.534   6.237   5.297 -0.2446  0.3234  0.4645
  219POPC   C1A 2994   4.999   6.009   5.454 -0.0798  0.0346  0.1190
  219POPC   D2A 2995   5.079   6.059   5.881 -0.0328  0.3728  0.0509
  219POPC   C3A 2996   4.871   6.351   6.204  0.0734 -0.4065 -0.1220
  219POPC   C4A 2997   4.670   6.344   6.510 -0.1904 -0.0843 -0.0250
  219POPC   C1B 2998   4.642   6.190   5.742  0.2498 -0.1371 -0.1738
  219POPC   C2B 2999   4.427   6.143   6.100  0.2546 -0.1262 -0.2198
  219POPC   C3B 3000   4.213   6.593   6.098 -0.1288 -0.0269 -0.0618
  219POPC   C4B 3001   4.477   6.971   6.252 -0.0829  0.0619 -0.2887
  220POPC   NC3 3002   2.917   9.458   4.195  0.0886  0.1464  0.1337
  220POPC   PO4 3003   2.692   9.828   4.221  0.1470  0.0237  0.0818
  220POPC   GL1 3004   2.839   9.815   4.745  0.0413  0.0216  0.1279
  220POPC   GL2 3005   3.021   9.505   4.769  0.3592  0.0216 -0.2711
  220POPC   C1A 3006   2.941   9.927   5.121  0.2112 -0.0004  0.4283
  220POPC   D2A 3007   3.058   9.856   5.588 -0.2006 -0.0384 -0.2407
  220POPC   C3A 3008   3.167   9.460   5.752 -0.0556 -0.2474 -0.0780
  220POPC   C4A 3009   3.346   9.077   5.585  0.1321  0.0058 -0.0743
  220POPC   C1B 3010   3.292   9.498   5.214 -0.2588  0.0009 -0.0296
  220POPC   C2B 3011   3.613   9.494   5.613 -0.0651  0.1500 -0.2462
  220POPC   C3B 3012   3.879   9.499   5.979  0.0279  0.0027  0.1270
  220POPC   C4B 3013   4.067   9.281   6.365  0.0285  0.0685 -0.1564
  221POPC   NC3 3014   7.596   0.695   3.461 -0.0182  0.1784 -0.1000
  221POPC   PO4 3015   7.882   1.057   3.407  0.0195 -0.0786 -0.3444
  221POPC   GL1 3016   7.884   1.008   3.816  0.1968  0.2304  0.3389
  221POPC   GL2 3017   7.650   1.306   3.809  0.4900 -0.1213 -0.2137
  221POPC   C1A 3018   7.838   0.733   4.087 -0.1340 -0.0766  0.1369
  221POPC   D2A 3019   7.822   0.635   4.593 -0.4486 -0.0992  0.0284
  221POPC   C3A 3020   7.361   0.449   4.827 -0.1050 -0.1245  0.0805
  221POPC   C4A 3021   7.156   0.269   5.200 -0.3513 -0.1424 -0.1280
  221POPC   C1B 3022   7.594   1.158   4.286  0.1123 -0.0188 -0.0006
  221POPC   C2B 3023   7.538   1.056   4.689 -0.0666 -0.0532  0.1608
  221POPC   C3B 3024   7.213   0.988   4.981  0.0791  0.3633 -0.0462
  221POPC   C4B 3025   6.945   1.229   5.183 -0.1214  0.1023 -0.2175
  222POPC   NC3 3026   2.964   1.412   4.276  0.0244 -0.0746  0.0750
  222POPC   PO4 3027   3.436   1.380   4.311 -0.1373  0.1987 -0.3165
  222POPC   GL1 3028   3.240   1.298   4.762  0.0600 -0.2510  0.3927
  222POPC   GL2 3029   3.481   1.135   4.776 -0.1237  0.0878  0.0205
  222POPC   C1A 3030   3.401   1.029   5.235 -0.1428  0.0917  0.0985
  222POPC   D2A 3031   3.725   0.758   5.591  0.4634  0.0430 -0.1676
  222POPC   C3A 3032   3.955   0.985   5.906  0.2283 -0.4155 -0.2098
  222POPC   C4A 3033   4.270   0.972   6.226 -0.0217 -0.1417  0.1792
  222POPC   C1B 3034   3.639   0.721   4.883 -0.0004 -0.4047 -0.1307
  222POPC   C2B 3035   3.872   0.394   5.015  0.2557 -0.2982  0.3974
  222POPC   C3B 3036   3.965   0.339   5.363 -0.1811  0.1956 -0.4823
  222POPC   C4B 3037   4.109   0.109   5.678  0.1601  0.0883 -0.1915
  223POPC   NC3 3038   7.961   3.118   3.732  0.1736  0.0258  0.0941
  223POPC   PO4 3039   8.019   3.040   4.189 -0.1967  0.0298  0.2732
  223POPC   GL1 3040   8.046   2.906   4.699  0.3283  0.1034 -0.0145
  223POPC   GL2 3041   8.330   2.799   4.733  0.1215 -0.0534 -0.2377
  223POPC   C1A 3042   8.017   2.893   5.133 -0.1116 -0.0484 -0.0892
  223POPC   D2A 3043   7.827   3.117   5.566  0.4382 -0.1029  0.2102
  223POPC   C3A 3044   7.837   3.100   5.977  0.0299  0.0329  0.1845
  223POPC   C4A 3045   7.703   2.976   6.401  0.0143 -0.0861 -0.0291
  223POPC   C1B 3046   8.531   2.923   5.098 -0.1052  0.0744 -0.0401
  223POPC   C2B 3047   8.571   2.823   5.570  0.2096 -0.0175  0.2958
  223POPC   C3B 3048   8.351   2.944   5.879  0.0663  0.0097 -0.1617
  223POPC   C4B 3049   8.253   3.003   6.299  0.2443  0.1928  0.1136
  224POPC   NC3 3050   0.779   6.368   4.501 -0.2650  0.0700 -0.2293
  224POPC   PO4 3051   1.145   6.505   4.804  0.2637  0.1681  0.3916
  224POPC   GL1 3052   1.092   6.503   5.317  0.1090 -0.2180 -0.2374
  224POPC   GL2 3053   1.146   6.144   5.410 -0.0292  0.2765  0.3255
  224POPC   C1A 3054   1.249   6.559   5.689 -0.1545  0.1182  0.3027
  224POPC   D2A 3055   1.143   6.737   6.078  0.0393 -0.1817  0.2173
  224POPC   C3A 3056   1.062   6.529   6.496  0.2508 -0.0282 -0.0382
  224POPC   C4A 3057   0.881   6.292   6.756 -0.0004 -0.1994  0.2200
  224POPC   C1B 3058   1.363   6.034   5.747  0.0529 -0.2790  0.3072
  224POPC   C2B 3059   1.399   5.785   6.157  0.2575  0.1005 -0.0541
  224POPC   C3B 3060   1.316   5.615   6.568 -0.1379  0.2594 -0.1056
  224POPC   C4B 3061   1.115   5.779   6.907 -0.0585  0.1005 -0.1819
  225POPC   NC3 3062   8.829   6.350   4.694  0.5730  0.2402  0.5048
  225POPC   PO4 3063   8.992   6.129   4.896  0.0570 -0.1198 -0.1967
  225POPC   GL1 3064   8.976   6.173   5.353  0.1496  0.0958  0.1138
  225POPC   GL2 3065   9.238   6.312   5.579  0.0483  0.0010 -0.0740
  225POPC   C1A 3066   8.649   6.252   5.582 -0.1336  0.2292 -0.1253
  225POPC   D2A 3067   8.492   5.980   5.889 -0.3210  0.0098 -0.0243
  225POPC   C3A 3068   8.393   6.130   6.267 -0.0777  0.1531  0.0084
  225POPC   C4A 3069   8.250   6.368   6.716  0.0556  0.1428 -0.0070
  225POPC   C1B 3070   9.375   6.603   5.887 -0.2265  0.0555  0.0922
  225POPC   C2B 3071   9.459   6.958   6.156 -0.0320 -0.2871 -0.1163
  225POPC   C3B 3072   9.313   7.329   6.227 -0.0003 -0.1201  0.0405
  225POPC   C4B 3073   9.314   7.801   6.435 -0.1529 -0.0605  0.0298
  226POPC   NC3 3074   1.561   5.366   4.994 -0.1183 -0.2957  0.2378
  226POPC   PO4 3075   1.337   5.738   5.145  0.3031 -0.1050 -0.0580
  226POPC   GL1 3076   1.014   5.648   5.427  0.2124 -0.1052  0.1293
  226POPC   GL2 3077   0.764   5.834   5.250  0.1900  0.0781  0.3034
  226POPC   C1A 3078   0.982   5.720   5.853 -0.0047 -0.3496  0.0484
  226POPC   D2A 3079   0.967   5.857   6.370  0.0522 -0.0182  0.1475
  226POPC   C3A 3080   1.289   6.116   6.556  0.0030 -0.0017 -0.0027
  226POPC   C4A 3081   1.433   6.413   6.843  0.1079 -0.1042  0.0066
  226POPC   C1B 3082   0.477   5.509   5.579  0.0093  0.1312  0.1251
  226POPC   C2B 3083   0.594   5.436   6.031 -0.1018  0.0408  0.0577
  226POPC   C3B 3084   0.348   5.308   6.388 -0.1812  0.0463  0.2204
  226POPC   C4B 3085   0.188   5.081   6.630 -0.1326 -0.1114 -0.0205
  227POPC   NC3 3086   9.611   5.420   4.259  0.0617  0.1520  0.2081
  227POPC   PO4 3087   9.797   5.398   4.702 -0.0966 -0.0327  0.1406
  227POPC   GL1 3088   9.757   5.218   5.118 -0.1341  0.2067  0.1660
  227POPC   GL2 3089   9.525   5.009   5.155  0.1416 -0.1655  0.2648
  227POPC   C1A 3090   9.692   5.154   5.554  0.2301  0.1719  0.1346
  227POPC   D2A 3091   9.886   5.065   5.954  0.0210 -0.0906  0.0137
  227POPC   C3A 3092   9.632   4.807   6.080  0.3848 -0.1491 -0.0470
  227POPC   C4A 3093   9.601   4.665   6.579 -0.0917 -0.1444 -0.1449
  227POPC   C1B 3094   9.326   4.698   5.482  0.1063  0.1877  0.0567
  227POPC   C2B 3095   9.307   4.491   5.906 -0.1735 -0.1418 -0.0280
  227POPC   C3B 3096   9.517   4.254   6.273  0.4636 -0.1126  0.0082
  227POPC   C4B 3097   9.590   3.803   6.488 -0.0139  0.1741  0.0711
  228POPC   NC3 3098   8.036   2.554   4.362 -0.2191  0.1047  0.2258
  228POPC   PO4 3099   8.503   2.378   4.220  0.0277 -0.1900 -0.0723
  228POPC   GL1 3100   8.375   2.230   4.580  0.0263 -0.1441  0.2629
  228POPC   GL2 3101   8.346   1.861   4.468  0.3230 -0.0971  0.0018
  228POPC   C1A 3102   8.245   2.008   4.996 -0.1132  0.0594  0.3091
  228POPC   D2A 3103   8.133   1.865   5.369  0.2755  0.1419 -0.1413
  228POPC   C3A 3104   8.281   2.076   5.679  0.0275 -0.1442 -0.2913
  228POPC   C4A 3105   8.381   1.800   6.110 -0.1425  0.0371  0.0554
  228POPC   C1B 3106   8.117   1.555   4.616  0.0419  0.3602 -0.0692
  228POPC   C2B 3107   7.882   1.567   4.989 -0.1196  0.0517  0.2457
  228POPC   C3B 3108   7.637   1.739   5.400  0.0265  0.3775 -0.2302
  228POPC   C4B 3109   7.304   2.073   5.329 -0.1878  0.2724  0.1506
  229POPC   NC3 3110   7.790   4.140   4.630  0.1807 -0.1643  0.3236
  229POPC   PO4 3111   7.641   4.603   4.483  0.4053 -0.0304  0.2541
  229POPC   GL1 3112   7.975   4.545   4.850  0.0093  0.1889  0.2392
  229POPC   GL2 3113   7.810   4.535   5.106  0.0543  0.3349  0.1304
  229POPC   C1A 3114   8.244   4.661   5.298 -0.0932  0.0001  0.1367
  229POPC   D2A 3115   8.476   4.388   5.560 -0.0881  0.1060 -0.0876
  229POPC   C3A 3116   8.235   4.108   5.764 -0.0743 -0.1604  0.1090
  229POPC   C4A 3117   7.839   3.908   5.913  0.3173 -0.0851  0.1798
  229POPC   C1B 3118   7.513   4.599   5.383 -0.0317 -0.0802  0.0517
  229POPC   C2B 3119   7.421   4.802   5.731 -0.0183  0.2045  0.0013
  229POPC   C3B 3120   7.317   5.139   6.025  0.2523 -0.2447  0.0151
  229POPC   C4B 3121   7.134   5.285   6.387 -0.3825  0.2951 -0.0458
  230POPC   NC3 3122   3.571   5.928   4.259 -0.2547  0.1592 -0.0925
  230POPC   PO4 3123   3.688   6.105   4.643 -0.0794 -0.0818  0.0111
  230POPC   GL1 3124   3.631   6.035   5.025  0.3581 -0.1171 -0.1355
  230POPC   GL2 3125   3.344   5.920   5.075  0.0943 -0.0698 -0.0506
  230POPC   C1A 3126   3.659   6.357   5.346 -0.2730  0.0918 -0.2724
  230POPC   D2A 3127   3.621   6.037   5.735 -0.2782 -0.2797  0.1262
  230POPC   C3A 3128   3.290   5.767   5.925  0.3116  0.1057 -0.0651
  230POPC   C4A 3129   3.304   5.300   6.097 -0.1094 -0.2706 -0.1491
  230POPC   C1B 3130   3.182   5.847   5.452  0.1816 -0.1644  0.1450
  230POPC   C2B 3131   2.966   6.048   5.601  0.1021  0.0358  0.1241
  230POPC   C3B 3132   2.826   6.227   6.032  0.0362 -0.0425 -0.1314
  230POPC   C4B 3133   2.829   6.200   6.446 -0.1421 -0.0063  0.0750
  231POPC   NC3 3134   6.752   3.729   4.541  0.2500 -0.0433  0.2519
  231POPC   PO4 3135   7.133   4.016   4.613  0.1936 -0.0313 -0.1293
  231POPC   GL1 3136   7.035   3.976   4.994  0.0817  0.0046  0.0656
  231POPC   GL2 3137   6.934   3.690   5.013  0.0739 -0.0586  0.2948
  231POPC   C1A 3138   7.274   4.195   5.377 -0.1285  0.0848  0.2229
  231POPC   D2A 3139   7.239   4.220   5.718 -0.0394  0.0429 -0.1269
  231POPC   C3A 3140   7.083   4.270   6.126  0.0526  0.0733 -0.3259
  231POPC   C4A 3141   6.841   4.384   6.439 -0.2490  0.3859  0.0915
  231POPC   C1B 3142   7.173   3.592   5.400  0.0141  0.0074  0.1028
  231POPC   C2B 3143   7.578   3.813   5.548  0.1832 -0.0071  0.3237
  231POPC   C3B 3144   7.821   4.158   5.497 -0.2062  0.1433 -0.0998
  231POPC   C4B 3145   7.884   4.470   5.796  0.2310  0.2483 -0.0977
  232POPC   NC3 3146   4.133   8.209   3.581 -0.0574 -0.1728 -0.1582
  232POPC   PO4 3147   3.973   8.430   3.949  0.0719  0.0260  0.1212
  232POPC   GL1 3148   4.122   8.516   4.319 -0.1779  0.0302  0.0003
  232POPC   GL2 3149   3.786   8.268   4.406  0.3453  0.0413  0.3327
  232POPC   C1A 3150   3.913   8.703   4.701  0.1592  0.0313  0.3255
  232POPC   D2A 3151   4.076   8.877   5.068 -0.0192 -0.1854  0.3499
  232POPC   C3A 3152   4.407   9.030   5.151  0.1111 -0.3976 -0.1454
  232POPC   C4A 3153   4.725   9.303   5.198 -0.1568 -0.1240 -0.3008
  232POPC   C1B 3154   4.003   8.246   4.801 -0.3788  0.1804 -0.1194
  232POPC   C2B 3155   4.185   8.414   5.248  0.0333  0.1504  0.0660
  232POPC   C3B 3156   4.519   8.529   5.366 -0.0771 -0.0694 -0.0572
  232POPC   C4B 3157   4.663   8.838   5.703  0.0801 -0.1413 -0.0194
  233POPC   NC3 3158   1.699   4.653   4.622 -0.1612  0.0650 -0.0131
  233POPC   PO4 3159   1.887   4.975   4.943 -0.1583 -0.1511 -0.1748
  233POPC   GL1 3160   1.999   5.019   5.352 -0.0511  0.0191  0.3342
  233POPC   GL2 3161   1.798   5.134   5.492  0.1930 -0.1146 -0.1668
  233POPC   C1A 3162   2.328   4.880   5.614  0.3407 -0.0950 -0.1533
  233POPC   D2A 3163   2.632   4.537   5.698  0.2061 -0.0782 -0.1162
  233POPC   C3A 3164   2.522   4.228   5.931 -0.0248  0.2867 -0.2165
  233POPC   C4A 3165   2.451   4.274   6.370 -0.1101 -0.0373 -0.3925
  233POPC   C1B 3166   2.010   5.463   5.840  0.1112 -0.3995 -0.0724
  233POPC   C2B 3167   2.343   5.724   5.993 -0.0848 -0.2825 -0.1457
  233POPC   C3B 3168   2.451   5.922   6.277  0.3016 -0.0807 -0.0296
  233POPC   C4B 3169   2.287   6.198   6.500 -0.2481 -0.0994  0.1622
  234POPC   NC3 3170   1.457   1.502   4.383 -0.1015  0.1848  0.1150
  234POPC   PO4 3171   1.475   1.742   4.802  0.1075 -0.1639 -0.1554
  234POPC   GL1 3172   1.802   1.979   4.997  0.4756  0.2446 -0.0550
  234POPC   GL2 3173   2.158   1.897   4.890 -0.1547 -0.1464 -0.0639
  234POPC   C1A 3174   1.880   2.186   5.381  0.0552 -0.2457 -0.3581
  234POPC   D2A 3175   1.756   2.364   5.733 -0.1466  0.0250  0.0088
  234POPC   C3A 3176   1.960   2.668   5.989 -0.2616 -0.0827  0.0557
  234POPC   C4A 3177   2.431   2.714   5.999  0.2821 -0.1319 -0.0974
  234POPC   C1B 3178   2.414   2.014   5.269  0.1362 -0.0456  0.2562
  234POPC   C2B 3179   2.774   2.063   5.588  0.0599  0.0398 -0.2406
  234POPC   C3B 3180   3.130   2.165   5.792  0.0136  0.0531 -0.0139
  234POPC   C4B 3181   3.545   2.191   6.036 -0.1575 -0.0974 -0.3141
  235POPC   NC3 3182   5.366   6.163   4.457 -0.0031  0.1218 -0.4725
  235POPC   PO4 3183   5.224   6.597   4.566 -0.0306  0.0376 -0.3055
  235POPC   GL1 3184   5.217   6.896   4.994 -0.0149 -0.1386  0.0472
  235POPC   GL2 3185   5.387   7.254   4.905  0.1983 -0.1806 -0.2513
  235POPC   C1A 3186   5.437   6.718   5.461 -0.0320 -0.2758 -0.0487
  235POPC   D2A 3187   5.844   6.590   5.709  0.0747 -0.0023 -0.0873
  235POPC   C3A 3188   5.943   6.456   6.032 -0.1033  0.0706 -0.3170
  235POPC   C4A 3189   6.392   6.630   6.162  0.1295 -0.2775  0.0517
  235POPC   C1B 3190   5.488   7.173   5.299 -0.1254  0.0671 -0.1516
  235POPC   C2B 3191   5.825   7.063   5.645  0.1195  0.2507  0.2441
  235POPC   C3B 3192   6.087   7.259   5.858 -0.0285  0.0036 -0.0605
  235POPC   C4B 3193   6.161   7.705   6.041  0.1462 -0.1459  0.2274
  236POPC   NC3 3194   2.723   8.518   4.467 -0.1368  0.1276  0.1871
  236POPC   PO4 3195   2.895   8.713   4.288  0.0588 -0.0281 -0.3177
  236POPC   GL1 3196   3.112   8.832   4.643  0.2891 -0.2286 -0.3033
  236POPC   GL2 3197   2.969   8.633   4.906 -0.0202  0.3875 -0.0052
  236POPC   C1A 3198   2.990   9.099   5.115  0.0547 -0.1846  0.0029
  236POPC   D2A 3199   2.870   8.916   5.559  0.1119  0.0935 -0.0019
  236POPC   C3A 3200   2.990   8.980   6.012 -0.1957  0.5127  0.2391
  236POPC   C4A 3201   3.066   9.205   6.480  0.1314 -0.1635  0.2428
  236POPC   C1B 3202   3.222   8.653   5.296  0.0299  0.0263  0.3950
  236POPC   C2B 3203   3.359   8.644   5.783  0.2225  0.0129 -0.1353
  236POPC   C3B 3204   3.164   8.526   6.138  0.1080  0.0951  0.0927
  236POPC   C4B 3205   2.750   8.365   6.067 -0.0049  0.1904 -0.0510
  237POPC   NC3 3206   6.838   8.705   2.945 -0.1951  0.3930 -0.0282
  237POPC   PO4 3207   6.510   8.313   3.114 -0.2101 -0.1077  0.2002
  237POPC   GL1 3208   6.585   8.759   3.339 -0.0717 -0.1879  0.1466
  237POPC   GL2 3209   6.724   9.094   3.280 -0.0869 -0.1920  0.0067
  237POPC   C1A 3210   6.455   8.965   3.714  0.0453 -0.4402  0.1221
  237POPC   D2A 3211   6.152   9.271   3.681 -0.2046  0.1156  0.0314
  237POPC   C3A 3212   5.894   9.463   3.993 -0.0729  0.2439  0.0579
  237POPC   C4A 3213   5.446   9.577   3.901  0.3526  0.0814  0.0460
  237POPC   C1B 3214   6.995   9.000   3.689 -0.3656  0.2325  0.1453
  237POPC   C2B 3215   7.065   9.176   4.168  0.3177 -0.0929  0.2402
  237POPC   C3B 3216   7.078   9.300   4.615 -0.0780  0.0214  0.0638
  237POPC   C4B 3217   7.099   9.428   5.036  0.0839 -0.3792 -0.0128
  238POPC   NC3 3218   3.906   0.812   3.921  0.1741 -0.0991 -0.0022
  238POPC   PO4 3219   3.748   1.076   4.008  0.4243 -0.0310  0.0741
  238POPC   GL1 3220   3.847   1.067   4.476  0.0271 -0.0066  0.3259
  238POPC   GL2 3221   3.868   1.380   4.656 -0.1125  0.2328 -0.0178
  238POPC   C1A 3222   4.096   0.878   4.663 -0.1740  0.0015 -0.2747
  238POPC   D2A 3223   4.395   0.625   4.736 -0.1040 -0.2328  0.1262
  238POPC   C3A 3224   4.285   0.184   4.820  0.0976  0.0970 -0.2622
  238POPC   C4A 3225   4.473  -0.221   4.795 -0.2386 -0.2058  0.0437
  238POPC   C1B 3226   3.937   1.412   5.116  0.2058 -0.0845  0.2309
  238POPC   C2B 3227   3.763   1.331   5.475 -0.2079 -0.0739  0.1185
  238POPC   C3B 3228   3.471   1.246   5.792 -0.0592  0.0286  0.0029
  238POPC   C4B 3229   3.225   1.215   6.171 -0.1233 -0.2059  0.1738
  239POPC   NC3 3230   1.800   2.020   4.493  0.0300 -0.0445 -0.2132
  239POPC   PO4 3231   1.739   2.447   4.513  0.1472 -0.1424  0.0785
  239POPC   GL1 3232   1.524   2.390   4.863  0.0275  0.0860 -0.2514
  239POPC   GL2 3233   1.168   2.600   4.964 -0.0491  0.1571  0.2040
  239POPC   C1A 3234   1.388   2.352   5.378 -0.1581  0.1047 -0.0376
  239POPC   D2A 3235   1.209   2.099   5.662 -0.2483 -0.2101  0.1673
  239POPC   C3A 3236   1.265   1.680   5.838 -0.1515 -0.1351 -0.2767
  239POPC   C4A 3237   1.220   1.761   6.293 -0.6314 -0.0396 -0.2714
  239POPC   C1B 3238   1.370   2.846   5.291 -0.1557 -0.0760 -0.1259
  239POPC   C2B 3239   1.648   2.922   5.599  0.1877 -0.0614 -0.1737
  239POPC   C3B 3240   2.067   3.094   5.710 -0.0034 -0.0771  0.1854
  239POPC   C4B 3241   2.381   3.325   5.908  0.1694  0.1256  0.1294
  240POPC   NC3 3242   2.249   7.249   4.892  0.1372  0.0569 -0.0761
  240POPC   PO4 3243   2.696   7.205   4.815 -0.0580  0.2297 -0.0131
  240POPC   GL1 3244   2.716   7.155   5.209  0.1590 -0.0872  0.0684
  240POPC   GL2 3245   2.452   7.042   5.429 -0.3007 -0.0449  0.0968
  240POPC   C1A 3246   3.142   6.978   5.353  0.0955 -0.1595  0.1745
  240POPC   D2A 3247   3.466   7.238   5.578 -0.6070  0.2487 -0.1004
  240POPC   C3A 3248   3.462   7.387   6.020 -0.0238 -0.1779  0.4192
  240POPC   C4A 3249   3.333   7.576   6.366 -0.1317 -0.1503 -0.1500
  240POPC   C1B 3250   2.414   6.835   5.870  0.0792  0.0078 -0.0758
  240POPC   C2B 3251   2.571   6.718   6.246  0.1825 -0.2147  0.2317
  240POPC   C3B 3252   2.768   6.676   6.691 -0.2441  0.0773 -0.4411
  240POPC   C4B 3253   2.817   6.691   7.144 -0.3926  0.1419 -0.0479
  241POPC   NC3 3254   9.412   5.769   4.994  0.0354 -0.0176  0.0844
  241POPC   PO4 3255   9.453   6.109   5.236 -0.0133  0.1033  0.0882
  241POPC   GL1 3256   9.468   5.881   5.571  0.0858 -0.2872  0.0905
  241POPC   GL2 3257   9.613   5.694   5.505 -0.0238 -0.3061  0.1170
  241POPC   C1A 3258   9.364   5.456   5.815 -0.2419  0.3250 -0.3478
  241POPC   D2A 3259   9.522   5.283   6.226 -0.0764 -0.3577  0.0507
  241POPC   C3A 3260   9.260   5.168   6.573  0.4169  0.1473 -0.0960
  241POPC   C4A 3261   9.073   4.770   6.816  0.1807 -0.2048  0.0387
  241POPC   C1B 3262   9.824   5.559   5.934  0.1515 -0.3468  0.0282
  241POPC   C2B 3263   9.920   5.828   6.300 -0.0516 -0.0032 -0.1688
  241POPC   C3B 3264  10.224   6.182   6.289 -0.2569  0.0175  0.0837
  241POPC   C4B 3265  10.362   6.775   6.223  0.0611  0.0564  0.0343
  242POPC   NC3 3266   6.338   5.894   4.625 -0.4734 -0.2674  0.2041
  242POPC   PO4 3267   5.910   5.977   4.651  0.4751 -0.0776 -0.0147
  242POPC   GL1 3268   5.961   6.040   4.982 -0.1960 -0.0686  0.3549
  242POPC   GL2 3269   5.780   5.768   5.130  0.0229 -0.1094  0.2811
  242POPC   C1A 3270   5.932   6.114   5.420 -0.3131  0.2593 -0.2396
  242POPC   D2A 3271   5.997   5.967   5.804 -0.0066 -0.0654 -0.1977
  242POPC   C3A 3272   6.015   5.484   5.827 -0.1447  0.0416  0.1764
  242POPC   C4A 3273   6.044   5.239   6.172  0.0474  0.1313 -0.4464
  242POPC   C1B 3274   6.128   5.618   5.307 -0.1585  0.1165 -0.0174
  242POPC   C2B 3275   6.245   5.182   5.537  0.0029  0.0878  0.3345
  242POPC   C3B 3276   6.394   4.996   5.911  0.0330 -0.3843  0.3037
  242POPC   C4B 3277   6.466   4.671   6.161  0.3141  0.2861 -0.2352
  243POPC   NC3 3278   3.895   1.519   4.096  0.1054 -0.5121  0.3417
  243POPC   PO4 3279   4.099   1.945   4.081 -0.0043 -0.0736 -0.1700
  243POPC   GL1 3280   4.177   1.748   4.438 -0.2278 -0.1101 -0.0861
  243POPC   GL2 3281   4.404   1.587   4.319 -0.0544 -0.0430  0.1985
  243POPC   C1A 3282   4.230   1.695   4.827 -0.0446  0.1836 -0.2689
  243POPC   D2A 3283   4.572   1.612   5.081 -0.3405  0.0072 -0.2347
  243POPC   C3A 3284   4.748   1.975   5.263  0.0980  0.2422  0.2635
  243POPC   C4A 3285   4.786   2.129   5.600  0.0584  0.0921  0.1251
  243POPC   C1B 3286   4.483   1.348   4.614  0.2305 -0.1127 -0.0049
  243POPC   C2B 3287   4.415   1.101   4.954  0.0218 -0.3180  0.1658
  243POPC   C3B 3288   4.537   1.164   5.406 -0.3753  0.1813  0.4938
  243POPC   C4B 3289   4.589   1.045   5.797  0.0459 -0.1457  0.1206
  244POPC   NC3 3290   5.786   3.408   4.554 -0.1677  0.2662 -0.1580
  244POPC   PO4 3291   5.355   3.316   4.528  0.0206  0.4502 -0.1219
  244POPC   GL1 3292   5.390   3.194   4.889 -0.1466 -0.0427 -0.1934
  244POPC   GL2 3293   5.756   3.160   5.003  0.0047 -0.3218 -0.2604
  244POPC   C1A 3294   5.163   2.893   5.199  0.2415  0.1150 -0.1413
  244POPC   D2A 3295   5.297   2.593   5.521 -0.0879  0.0291 -0.2483
  244POPC   C3A 3296   5.168   2.359   5.860  0.0702 -0.0894 -0.0162
  244POPC   C4A 3297   5.089   2.412   6.310 -0.2592 -0.0123  0.1641
  244POPC   C1B 3298   5.809   2.959   5.329 -0.2239 -0.2404  0.0081
  244POPC   C2B 3299   5.931   2.525   5.454 -0.2085  0.0063 -0.1028
  244POPC   C3B 3300   5.689   2.270   5.678  0.0352  0.0596 -0.1439
  244POPC   C4B 3301   5.646   2.366   6.086  0.0476 -0.1347  0.0364
  245POPC   NC3 3302   6.355   7.108   3.903 -0.1328  0.2499 -0.1232
  245POPC   PO4 3303   5.939   7.056   4.033 -0.3222 -0.1388 -0.2239
  245POPC   GL1 3304   5.787   7.253   4.406  0.1350 -0.1430  0.1736
  245POPC   GL2 3305   6.119   7.486   4.427 -0.1292  0.1950  0.0975
  245POPC   C1A 3306   5.816   7.413   4.810  0.4353 -0.2063 -0.0142
  245POPC   D2A 3307   5.973   7.757   5.088 -0.1209  0.1185 -0.0677
  245POPC   C3A 3308   5.846   8.207   5.093  0.2383 -0.3127 -0.1756
  245POPC   C4A 3309   5.832   8.553   5.055 -0.2475 -0.1737 -0.1146
  245POPC   C1B 3310   6.292   7.398   4.820 -0.2586 -0.1574  0.0561
  245POPC   C2B 3311   6.480   7.062   5.010  0.1646  0.0031 -0.2793
  245POPC   C3B 3312   6.636   7.016   5.517  0.3687 -0.4997 -0.0387
  245POPC   C4B 3313   6.295   6.834   5.745  0.1181 -0.2919 -0.2156
  246POPC   NC3 3314   8.439   8.061   3.949 -0.0226 -0.2054  0.1060
  246POPC   PO4 3315   8.374   8.116   4.396 -0.2421 -0.0603  0.0310
  246POPC   GL1 3316   8.203   8.042   4.790 -0.2440  0.0172 -0.2930
  246POPC   GL2 3317   8.311   7.824   4.984 -0.0098  0.1619  0.1112
  246POPC   C1A 3318   7.940   8.088   5.193  0.2869  0.1633 -0.4513
  246POPC   D2A 3319   7.594   8.332   5.308 -0.2445 -0.0571  0.2879
  246POPC   C3A 3320   7.344   8.221   5.737  0.0548 -0.1319 -0.0548
  246POPC   C4A 3321   7.395   8.347   6.209  0.0594  0.3007 -0.0826
  246POPC   C1B 3322   8.494   7.737   5.413  0.2579 -0.2961 -0.2349
  246POPC   C2B 3323   8.377   7.910   5.804  0.2515  0.1925 -0.1277
  246POPC   C3B 3324   8.075   7.743   6.146 -0.1744  0.0768 -0.3080
  246POPC   C4B 3325   7.961   7.715   6.615  0.3975  0.0494 -0.0588
  247POPC   NC3 3326   5.375   7.728   2.925  0.2428  0.1185 -0.2016
  247POPC   PO4 3327   5.342   7.919   3.317  0.1086  0.3622  0.4232
  247POPC   GL1 3328   5.264   7.881   3.688 -0.1471 -0.1662  0.3431
  247POPC   GL2 3329   5.057   8.108   3.905  0.2114 -0.1619 -0.1910
  247POPC   C1A 3330   5.405   7.939   4.216  0.1474 -0.0820  0.0193
  247POPC   D2A 3331   5.191   8.107   4.629 -0.1156 -0.1483  0.0011
  247POPC   C3A 3332   4.878   7.936   4.895 -0.1066  0.0469  0.3910
  247POPC   C4A 3333   4.484   8.162   4.904 -0.1110  0.0951  0.1288
  247POPC   C1B 3334   5.132   8.438   4.165 -0.0419  0.2388 -0.0920
  247POPC   C2B 3335   5.028   8.569   4.579  0.0148 -0.4061  0.1884
  247POPC   C3B 3336   4.924   8.476   4.834  0.0339  0.1155  0.0809
  247POPC   C4B 3337   4.974   8.727   5.174 -0.2830 -0.0202 -0.1633
  248POPC   NC3 3338   6.517   2.609   3.569  0.1262 -0.3479 -0.1747
  248POPC   PO4 3339   6.262   2.357   3.808 -0.0188 -0.0339 -0.0904
  248POPC   GL1 3340   6.121   2.088   4.158 -0.3344 -0.2221 -0.0685
  248POPC   GL2 3341   6.309   2.150   4.343  0.1428  0.1589  0.2334
  248POPC   C1A 3342   5.883   1.959   4.576 -0.0368 -0.3326  0.0710
  248POPC   D2A 3343   6.012   1.823   5.025  0.1557 -0.0783  0.1920
  248POPC   C3A 3344   6.201   2.013   5.336 -0.0076  0.0530 -0.0786
  248POPC   C4A 3345   6.422   2.467   5.401 -0.0382  0.1809  0.2607
  248POPC   C1B 3346   6.302   1.737   4.533  0.1016 -0.0009  0.2049
  248POPC   C2B 3347   6.256   1.335   4.512  0.0342 -0.1147 -0.2431
  248POPC   C3B 3348   6.016   1.061   4.686  0.2424 -0.0678 -0.0462
  248POPC   C4B 3349   6.171   0.677   4.772 -0.1317  0.4075 -0.2215
  249POPC   NC3 3350   0.649   0.570   4.460 -0.0610 -0.1379  0.1545
  249POPC   PO4 3351   0.737   0.991   4.395 -0.3344  0.1932 -0.1756
  249POPC   GL1 3352   1.046   0.870   4.824 -0.3194  0.2053  0.2511
  249POPC   GL2 3353   1.080   0.631   4.987 -0.2729  0.2072 -0.1495
  249POPC   C1A 3354   1.107   1.234   5.197 -0.1032 -0.1801 -0.1126
  249POPC   D2A 3355   0.967   1.293   5.647  0.1909 -0.0852  0.3332
  249POPC   C3A 3356   0.769   1.003   5.882 -0.2019  0.0884 -0.1564
  249POPC   C4A 3357   0.834   0.972   6.356 -0.0297  0.0009 -0.0276
  249POPC   C1B 3358   1.107   0.785   5.466 -0.3440 -0.0970  0.1461
  249POPC   C2B 3359   1.065   0.584   5.964  0.0357 -0.0980  0.1809
  249POPC   C3B 3360   0.850   0.412   6.299 -0.1252 -0.3275  0.0182
  249POPC   C4B 3361   0.462   0.280   6.520 -0.0222 -0.2054  0.0363
  250POPC   NC3 3362   8.287   8.735   3.689 -0.2488  0.0823 -0.0254
  250POPC   PO4 3363   8.487   8.990   3.996  0.0641  0.3534  0.1667
  250POPC   GL1 3364   8.284   8.875   4.476 -0.0517  0.2821 -0.3068
  250POPC   GL2 3365   8.392   8.575   4.723 -0.0062  0.1702  0.1982
  250POPC   C1A 3366   8.220   9.007   4.846 -0.2446 -0.5414  0.1065
  250POPC   D2A 3367   7.891   9.013   5.233 -0.0655  0.0476  0.2094
  250POPC   C3A 3368   7.580   9.368   5.165  0.0717 -0.0121  0.1518
  250POPC   C4A 3369   7.465   9.582   4.779  0.0568  0.1245 -0.2260
  250POPC   C1B 3370   8.127   8.560   5.068  0.0457 -0.2743 -0.3324
  250POPC   C2B 3371   7.994   8.562   5.478  0.0929 -0.0497  0.1374
  250POPC   C3B 3372   7.638   8.735   5.727 -0.1051 -0.1879  0.0995
  250POPC   C4B 3373   7.208   8.678   5.866 -0.1952  0.0438  0.1259
  251POPC   NC3 3374   0.523   0.563   4.955 -0.0754 -0.1539 -0.0455
  251POPC   PO4 3375   0.428   0.913   4.759 -0.0205  0.0290  0.1543
  251POPC   GL1 3376   0.217   0.950   5.135 -0.0441  0.2170  0.4582
  251POPC   GL2 3377   0.057   1.165   5.208 -0.1742  0.0431  0.0604
  251POPC   C1A 3378   0.177   0.737   5.551  0.0361  0.1969  0.0064
  251POPC   D2A 3379   0.002   0.534   5.853 -0.0202 -0.0169  0.0476
  251POPC   C3A 3380   0.175   0.730   6.168 -0.2858 -0.1582 -0.0714
  251POPC   C4A 3381   0.428   0.859   6.534 -0.0788  0.1115 -0.0425
  251POPC   C1B 3382   0.016   1.495   5.353 -0.0786 -0.0485 -0.1915
  251POPC   C2B 3383  -0.072   1.827   5.675  0.0295  0.3131 -0.1788
  251POPC   C3B 3384  -0.205   2.144   5.983  0.0659 -0.1567 -0.1059
  251POPC   C4B 3385  -0.343   2.584   6.059  0.1575  0.1300  0.0262
  252POPC   NC3 3386   0.543   1.402   4.557 -0.1901 -0.2880 -0.2119
  252POPC   PO4 3387   0.593   1.933   4.669 -0.2416 -0.0851 -0.2445
  252POPC   GL1 3388   0.574   1.791   5.116 -0.0384 -0.0572  0.1646
  252POPC   GL2 3389   0.554   1.383   5.153  0.1162  0.1954  0.0886
  252POPC   C1A 3390   0.818   1.771   5.540 -0.0828  0.0718  0.0786
  252POPC   D2A 3391   0.795   1.935   5.913 -0.0062  0.0483  0.2282
  252POPC   C3A 3392   0.986   2.273   6.066 -0.0319  0.0363 -0.1839
  252POPC   C4A 3393   1.481   2.339   6.157 -0.1970  0.3866  0.1304
  252POPC   C1B 3394   0.449   1.179   5.512  0.1654 -0.1002 -0.0304
  252POPC   C2B 3395   0.048   1.243   5.755 -0.2000  0.0786 -0.2051
  252POPC   C3B 3396   0.018   1.504   6.184 -0.2171 -0.1119 -0.0020
  252POPC   C4B 3397  -0.101   1.723   6.652 -0.1517  0.0309  0.0054
  253POPC   NC3 3398   8.562   7.272   4.638  0.1068  0.1229  0.1692
  253POPC   PO4 3399   8.225   7.610   4.568 -0.1099 -0.3143  0.2829
  253POPC   GL1 3400   7.987   7.394   4.796 -0.1601 -0.1610 -0.0128
  253POPC   GL2 3401   7.836   7.654   4.898 -0.2014 -0.2480  0.3143
  253POPC   C1A 3402   7.927   7.335   5.248 -0.4725  0.2122 -0.1484
  253POPC   D2A 3403   8.005   7.587   5.600  0.0304  0.2066  0.1127
  253POPC   C3A 3404   7.850   8.014   5.734 -0.2412  0.1367  0.1667
  253POPC   C4A 3405   7.881   8.395   5.954  0.2247  0.1078 -0.0445
  253POPC   C1B 3406   7.600   7.752   5.302 -0.4208 -0.0099  0.0700
  253POPC   C2B 3407   7.466   7.674   5.744  0.2444  0.0468  0.2326
  253POPC   C3B 3408   7.549   7.872   6.176  0.1153  0.1632 -0.2276
  253POPC   C4B 3409   7.760   8.165   6.472  0.3888 -0.2726 -0.1389
  254POPC   NC3 3410   2.120   8.636   3.944 -0.1412 -0.1639  0.4485
  254POPC   PO4 3411   2.228   8.547   4.346  0.0979  0.1368 -0.0582
  254POPC   GL1 3412   2.378   8.817   4.720 -0.0072  0.2347  0.0178
  254POPC   GL2 3413   2.474   8.639   4.897 -0.0904 -0.0948 -0.1616
  254POPC   C1A 3414   2.538   9.059   5.104  0.1130 -0.1247  0.0398
  254POPC   D2A 3415   2.805   9.379   5.445  0.1798 -0.1715 -0.0543
  254POPC   C3A 3416   2.590   9.573   5.853  0.0934  0.2041  0.1387
  254POPC   C4A 3417   2.552   9.426   6.269  0.0506  0.0101 -0.1301
  254POPC   C1B 3418   2.676   8.525   5.289  0.0384 -0.0787  0.0879
  254POPC   C2B 3419   2.867   8.389   5.577  0.4374 -0.3747  0.0537
  254POPC   C3B 3420   3.005   8.089   5.778 -0.1012  0.0243  0.1278
  254POPC   C4B 3421   3.098   7.659   5.867 -0.2061  0.3319 -0.1570
  255POPC   NC3 3422   9.306   9.547   4.983 -0.1214  0.0601 -0.0075
  255POPC   PO4 3423   9.233  10.034   4.858  0.0769 -0.0196  0.1324
  255POPC   GL1 3424   9.238   9.933   5.371  0.1817 -0.0072 -0.2221
  255POPC   GL2 3425   9.414  10.249   5.337  0.0956 -0.2095  0.0037
  255POPC   C1A 3426   8.963   9.580   5.548  0.0128 -0.0607 -0.0102
  255POPC   D2A 3427   8.885   9.099   5.470  0.0832 -0.0955 -0.4354
  255POPC   C3A 3428   8.975   8.657   5.586 -0.1329  0.2229  0.2295
  255POPC   C4A 3429   8.867   8.193   5.733 -0.3416 -0.0106 -0.0080
  255POPC   C1B 3430   9.322  10.558   5.727  0.0339 -0.1199  0.1996
  255POPC   C2B 3431   8.903  10.705   5.831  0.1320 -0.0151  0.1869
  255POPC   C3B 3432   8.732  11.117   5.933 -0.5148  0.0076 -0.1377
  255POPC   C4B 3433   8.665  11.128   6.330 -0.0980 -0.0624 -0.2588
  256POPC   NC3 3434   0.250   4.882   4.690  0.0808 -0.1560  0.2741
  256POPC   PO4 3435   0.225   4.428   4.798  0.2668  0.0804  0.0526
  256POPC   GL1 3436   0.111   4.600   5.158 -0.0325  0.2401 -0.1813
  256POPC   GL2 3437   0.412   4.821   5.157  0.3868 -0.4754  0.1073
  256POPC   C1A 3438   0.134   4.659   5.629  0.0571 -0.0934  0.0700
  256POPC   D2A 3439   0.452   4.461   5.889  0.0661  0.0624  0.0448
  256POPC   C3A 3440   0.749   4.343   5.680  0.1384 -0.3257  0.2271
  256POPC   C4A 3441   0.881   4.389   5.361  0.2402  0.0098 -0.1743
  256POPC   C1B 3442   0.625   4.817   5.566 -0.0578 -0.0858 -0.0839
  256POPC   C2B 3443   0.684   4.873   6.017  0.3249 -0.3280 -0.0922
  256POPC   C3B 3444   0.889   5.087   6.138  0.0167  0.0589 -0.1223
  256POPC   C4B 3445   1.064   5.362   6.183  0.0806  0.1700 -0.1560
  257POPC   NC3 3446   6.075   3.630   4.076  0.1689  0.1294  0.3344
  257POPC   PO4 3447   6.273   3.565   4.488 -0.1321 -0.0080 -0.3668
  257POPC   GL1 3448   6.469   3.409   4.828 -0.0618 -0.0246 -0.1594
  257POPC   GL2 3449   6.461   3.758   5.160 -0.0974 -0.0150 -0.1480
  257POPC   C1A 3450   6.685   3.314   5.208  0.1173  0.2227  0.1425
  257POPC   D2A 3451   6.822   3.285   5.674  0.0378  0.1434 -0.1154
  257POPC   C3A 3452   6.895   2.877   5.926  0.0530 -0.0938  0.0978
  257POPC   C4A 3453   6.962   2.588   6.144  0.2012  0.1032  0.0842
  257POPC   C1B 3454   6.430   3.597   5.603  0.3696 -0.2187 -0.1497
  257POPC   C2B 3455   6.316   3.379   5.995  0.0990 -0.1721  0.0541
  257POPC   C3B 3456   6.263   3.129   6.330  0.3426 -0.2464 -0.0074
  257POPC   C4B 3457   6.215   2.998   6.670 -0.1431 -0.0166 -0.0999
  258POPC   NC3 3458   5.528   3.852   4.616  0.1279 -0.0680 -0.0850
  258POPC   PO4 3459   5.873   3.999   4.491 -0.1765  0.0377  0.2628
  258POPC   GL1 3460   6.021   3.749   4.874  0.3097  0.1187  0.0528
  258POPC   GL2 3461   5.773   3.817   5.026  0.0470 -0.1172  0.2046
  258POPC   C1A 3462   6.162   3.389   5.215  0.3245  0.2370 -0.0819
  258POPC   D2A 3463   6.342   3.069   5.532 -0.0107 -0.0123 -0.1369
  258POPC   C3A 3464   6.387   2.867   5.940 -0.0697 -0.3855 -0.1567
  258POPC   C4A 3465   6.418   2.604   6.306  0.1771 -0.1772  0.2455
  258POPC   C1B 3466   5.699   3.537   5.332  0.2866  0.0959 -0.3251
  258POPC   C2B 3467   5.912   3.310   5.724  0.0521 -0.0813 -0.0450
  258POPC   C3B 3468   5.895   2.862   5.941  0.5351  0.0165  0.0681
  258POPC   C4B 3469   5.927   2.716   6.335  0.2040 -0.0894 -0.1482
  259POPC   NC3 3470   7.860   8.388   4.038  0.1005 -0.0439  0.0478
  259POPC   PO4 3471   7.786   8.616   3.696 -0.1154 -0.0778  0.1063
  259POPC   GL1 3472   7.356   8.642   3.919  0.2183 -0.0737  0.1273
  259POPC   GL2 3473   7.308   8.343   4.073  0.1327 -0.1453 -0.2140
  259POPC   C1A 3474   6.936   8.689   4.083  0.0525  0.4934  0.1182
  259POPC   D2A 3475   6.587   8.868   4.184  0.0548 -0.1625  0.0505
  259POPC   C3A 3476   6.624   9.048   4.549  0.2501  0.1924  0.1428
  259POPC   C4A 3477   6.239   9.322   4.783 -0.0348  0.0755 -0.0904
  259POPC   C1B 3478   7.345   8.373   4.533  0.0116 -0.1782  0.0052
  259POPC   C2B 3479   7.583   8.588   4.857  0.2742  0.1063  0.2227
  259POPC   C3B 3480   7.791   8.949   4.734 -0.0146 -0.0348  0.2599
  259POPC   C4B 3481   7.974   9.326   4.459  0.3053  0.2052  0.0830
  260POPC   NC3 3482   7.067   6.898   4.229  0.0505 -0.3099 -0.2270
  260POPC   PO4 3483   6.584   6.833   4.273 -0.0036  0.2302 -0.0838
  260POPC   GL1 3484   6.689   6.782   4.625 -0.3455  0.1477  0.2800
  260POPC   GL2 3485   6.935   6.992   4.781  0.0300  0.0498  0.1001
  260POPC   C1A 3486   6.660   6.465   4.895 -0.1094  0.0174  0.2448
  260POPC   D2A 3487   6.369   6.132   5.169 -0.0417 -0.1438 -0.0272
  260POPC   C3A 3488   6.501   5.926   5.474 -0.3151  0.2453 -0.1361
  260POPC   C4A 3489   6.464   5.672   5.893 -0.1209  0.3443 -0.2480
  260POPC   C1B 3490   6.960   6.775   5.164 -0.1258  0.0718  0.1295
  260POPC   C2B 3491   7.139   6.877   5.604 -0.1063 -0.0540 -0.0694
  260POPC   C3B 3492   7.290   6.609   5.951  0.1425 -0.4140 -0.0465
  260POPC   C4B 3493   7.284   6.645   6.446  0.1364 -0.1251  0.0126
  261POPC   NC3 3494   1.157   0.433   4.501  0.0198  0.0185  0.2927
  261POPC   PO4 3495   0.827   0.210   4.763  0.0425 -0.0727  0.0809
  261POPC   GL1 3496   0.867   0.305   5.252  0.4371  0.2858 -0.0255
  261POPC   GL2 3497   1.128   0.278   5.504 -0.0204  0.3093  0.1613
  261POPC   C1A 3498   0.677   0.559   5.610 -0.0187 -0.0258 -0.4241
  261POPC   D2A 3499   0.499   0.563   5.872  0.1997 -0.0960 -0.1133
  261POPC   C3A 3500   0.366   0.176   6.039  0.0321 -0.0847  0.3381
  261POPC   C4A 3501   0.004   0.247   6.242 -0.0043  0.4184  0.0783
  261POPC   C1B 3502   1.012   0.019   5.917 -0.4872  0.1846 -0.1635
  261POPC   C2B 3503   0.696  -0.301   6.030  0.0554 -0.1993 -0.0028
  261POPC   C3B 3504   0.639  -0.728   6.023  0.2334 -0.4300  0.0697
  261POPC   C4B 3505   0.571  -0.918   6.347 -0.0893  0.0662 -0.0406
  262POPC   NC3 3506   5.639   2.747   4.103 -0.1943  0.0464  0.0026
  262POPC   PO4 3507   5.995   2.562   4.250 -0.1339 -0.1380  0.1376
  262POPC   GL1 3508   6.344   2.545   4.572  0.0092 -0.2333  0.0398
  262POPC   GL2 3509   6.696   2.348   4.575  0.0014  0.1790  0.0062
  262POPC   C1A 3510   6.312   2.199   4.864  0.1825  0.0109  0.0732
  262POPC   D2A 3511   6.528   1.917   4.955 -0.2288 -0.0211 -0.3384
  262POPC   C3A 3512   6.580   1.574   5.343 -0.0776  0.1874  0.0565
  262POPC   C4A 3513   6.682   1.422   5.696  0.2419  0.0155  0.0542
  262POPC   C1B 3514   6.793   2.393   5.035 -0.0544  0.1349 -0.1126
  262POPC   C2B 3515   6.788   2.104   5.365  0.2264  0.1923  0.1840
  262POPC   C3B 3516   6.615   1.943   5.729  0.1040  0.2485  0.1073
  262POPC   C4B 3517   6.612   1.700   6.084  0.1788 -0.1132  0.1312
  263POPC   NC3 3518   9.181   7.319   5.165  0.0864 -0.2585 -0.1092
  263POPC   PO4 3519   8.911   7.060   4.873 -0.0761 -0.2623  0.4041
  263POPC   GL1 3520   8.804   6.875   5.305  0.2435 -0.0499  0.0322
  263POPC   GL2 3521   8.917   6.637   5.434 -0.1878 -0.1648 -0.1195
  263POPC   C1A 3522   8.510   6.885   5.746 -0.0160  0.2667 -0.2669
  263POPC   D2A 3523   8.162   7.132   5.660  0.1222 -0.1781 -0.2790
  263POPC   C3A 3524   8.035   7.249   5.973  0.1505  0.0033 -0.2796
  263POPC   C4A 3525   7.702   7.380   6.172 -0.1597 -0.1212  0.1229
  263POPC   C1B 3526   8.871   6.562   5.912 -0.1952  0.1470 -0.0897
  263POPC   C2B 3527   8.547   6.591   6.286 -0.1989 -0.1144  0.1949
  263POPC   C3B 3528   8.206   6.770   6.181  0.1569 -0.1275  0.0278
  263POPC   C4B 3529   7.832   6.946   6.356  0.0072 -0.0804 -0.0381
  264POPC   NC3 3530   9.032   2.213   4.448  0.1434  0.2646  0.2724
  264POPC   PO4 3531   8.994   2.710   4.384 -0.3148  0.2937 -0.0160
  264POPC   GL1 3532   8.908   2.621   4.820  0.1936 -0.4134  0.1531
  264POPC   GL2 3533   9.088   2.357   5.054 -0.1438  0.3447  0.2320
  264POPC   C1A 3534   8.563   2.400   5.083 -0.1492  0.0738  0.2965
  264POPC   D2A 3535   8.246   2.422   5.331 -0.2340 -0.1821 -0.0904
  264POPC   C3A 3536   8.062   2.677   5.598 -0.1263 -0.0130 -0.2720
  264POPC   C4A 3537   7.971   2.645   6.075  0.2526 -0.2544  0.0038
  264POPC   C1B 3538   9.447   2.504   5.248 -0.1134  0.0170 -0.1067
  264POPC   C2B 3539   9.652   2.441   5.662  0.1625 -0.1320  0.1961
  264POPC   C3B 3540   9.959   2.258   5.955  0.0872  0.2068 -0.1973
  264POPC   C4B 3541  10.065   1.937   6.140  0.1839 -0.0607 -0.4053
  265POPC   NC3 3542   9.533   2.898   4.384 -0.1970 -0.0538 -0.0059
  265POPC   PO4 3543   9.271   2.998   4.767  0.1240 -0.1823  0.1082
  265POPC   GL1 3544   9.375   3.030   5.130  0.0217  0.0561 -0.5137
  265POPC   GL2 3545   9.321   3.283   5.287  0.2695 -0.2417 -0.2857
  265POPC   C1A 3546   9.643   3.016   5.468 -0.1816 -0.1810  0.0366
  265POPC   D2A 3547   9.834   3.114   5.846  0.1450  0.2042 -0.1489
  265POPC   C3A 3548   9.825   2.710   6.114 -0.1587 -0.0214 -0.0475
  265POPC   C4A 3549   9.643   2.665   6.428  0.0819  0.0193 -0.0191
  265POPC   C1B 3550   9.140   2.909   5.554 -0.1813  0.2964  0.3578
  265POPC   C2B 3551   8.893   2.780   5.960 -0.1002  0.1472 -0.0341
  265POPC   C3B 3552   8.903   2.385   6.250 -0.1217 -0.3486  0.0052
  265POPC   C4B 3553   9.243   2.237   6.463  0.2393  0.2835 -0.1966
  266POPC   NC3 3554   4.542   3.549   4.369 -0.0436 -0.2673  0.0488
  266POPC   PO4 3555   4.090   3.463   4.431  0.0220 -0.2845 -0.1768
  266POPC   GL1 3556   4.224   3.627   4.860  0.0155  0.0606 -0.2667
  266POPC   GL2 3557   4.467   3.611   4.912  0.0304 -0.4265  0.1735
  266POPC   C1A 3558   4.021   3.765   5.304  0.0285 -0.1206  0.1145
  266POPC   D2A 3559   4.125   3.902   5.695  0.1922 -0.2153  0.0218
  266POPC   C3A 3560   4.097   4.211   5.680 -0.3304 -0.1319 -0.0202
  266POPC   C4A 3561   4.060   4.612   5.467 -0.1096  0.2487 -0.0658
  266POPC   C1B 3562   4.697   3.237   5.217 -0.0811  0.0399 -0.0623
  266POPC   C2B 3563   4.501   2.927   5.416 -0.0362 -0.2053 -0.1029
  266POPC   C3B 3564   4.223   2.698   5.659  0.2143  0.1341 -0.0865
  266POPC   C4B 3565   4.098   2.378   6.010 -0.0997  0.1586  0.3238
  267POPC   NC3 3566   9.172   6.589   5.016  0.0581  0.0319  0.0863
  267POPC   PO4 3567   9.382   6.888   5.320 -0.3673  0.2080 -0.1452
  267POPC   GL1 3568   9.047   7.051   5.643 -0.0702  0.0289  0.0963
  267POPC   GL2 3569   8.964   7.418   5.570  0.0313  0.0130 -0.0450
  267POPC   C1A 3570   8.917   7.045   6.073 -0.2827  0.2315  0.0678
  267POPC   D2A 3571   8.865   7.247   6.467  0.0626  0.0163  0.1260
  267POPC   C3A 3572   8.557   6.951   6.660  0.1580  0.2770  0.2742
  267POPC   C4A 3573   8.169   6.854   6.760  0.0380 -0.0722 -0.0753
  267POPC   C1B 3574   8.975   7.661   5.970 -0.1495 -0.6475 -0.1027
  267POPC   C2B 3575   8.644   7.636   6.264  0.0325 -0.0489 -0.0856
  267POPC   C3B 3576   8.731   7.885   6.588 -0.0635  0.1037 -0.2350
  267POPC   C4B 3577   8.543   8.196   6.793  0.0400 -0.0460  0.0321
  268POPC   NC3 3578   3.418   5.648   4.664 -0.1800 -0.0676 -0.0593
  268POPC   PO4 3579   3.882   5.654   4.617 -0.0912 -0.2318  0.1555
  268POPC   GL1 3580   3.928   5.529   5.032 -0.0019  0.1093  0.3381
  268POPC   GL2 3581   4.097   5.859   5.038 -0.1441 -0.0274  0.0991
  268POPC   C1A 3582   4.072   5.480   5.430  0.1732 -0.1999 -0.1677
  268POPC   D2A 3583   4.220   5.766   5.779 -0.1181 -0.1387 -0.1407
  268POPC   C3A 3584   4.162   5.711   6.126  0.2705 -0.1231 -0.1605
  268POPC   C4A 3585   4.124   5.639   6.487  0.1729 -0.4815 -0.1719
  268POPC   C1B 3586   4.043   6.063   5.381  0.1101 -0.1650  0.0970
  268POPC   C2B 3587   4.067   6.234   5.806  0.1606  0.0435 -0.0576
  268POPC   C3B 3588   3.888   6.241   6.122 -0.3991  0.0769 -0.2317
  268POPC   C4B 3589   3.638   5.882   6.251  0.0646  0.3166  0.2967
  269POPC   NC3 3590   8.761   4.224   4.433  0.1658  0.3536  0.2604
  269POPC   PO4 3591   8.353   4.300   4.626 -0.0917  0.0095 -0.3328
  269POPC   GL1 3592   8.494   4.288   5.084 -0.2361 -0.2308 -0.0948
  269POPC   GL2 3593   8.918   4.339   5.054 -0.0843 -0.3516  0.2467
  269POPC   C1A 3594   8.574   3.955   5.374 -0.0211 -0.0731  0.0223
  269POPC   D2A 3595   8.710   3.820   5.734  0.2631  0.3942  0.0529
  269POPC   C3A 3596   8.454   3.789   6.114 -0.3805  0.1883 -0.0577
  269POPC   C4A 3597   8.507   3.827   6.541 -0.0394 -0.0292  0.1982
  269POPC   C1B 3598   8.978   4.266   5.504  0.0580 -0.2693 -0.1219
  269POPC   C2B 3599   8.990   4.143   5.958  0.0589  0.0956 -0.0209
  269POPC   C3B 3600   8.924   4.009   6.350 -0.3151  0.0028  0.0628
  269POPC   C4B 3601   8.755   4.284   6.742  0.1453 -0.1990  0.1521
  270POPC   NC3 3602   3.187   0.914   4.378 -0.0659  0.1573  0.1287
  270POPC   PO4 3603   2.823   1.082   4.612  0.0076 -0.0799  0.3946
  270POPC   GL1 3604   2.659   0.997   5.043  0.2691 -0.3525  0.3595
  270POPC   GL2 3605   2.881   1.217   5.253 -0.1013 -0.3531  0.0957
  270POPC   C1A 3606   2.417   1.009   5.380  0.1203 -0.1604  0.1804
  270POPC   D2A 3607   2.369   1.349   5.748  0.0947  0.2893 -0.2209
  270POPC   C3A 3608   2.356   1.120   6.182  0.0982 -0.2487 -0.0750
  270POPC   C4A 3609   2.446   0.676   6.219  0.1435 -0.1779  0.2885
  270POPC   C1B 3610   3.032   1.037   5.703 -0.2319  0.0799 -0.0469
  270POPC   C2B 3611   3.015   0.757   6.032 -0.1861  0.0803  0.4285
  270POPC   C3B 3612   3.228   0.368   6.145 -0.4338  0.2730 -0.0985
  270POPC   C4B 3613   3.346  -0.099   6.200 -0.0111 -0.1089  0.0861
  271POPC   NC3 3614   4.497   1.089   3.316 -0.0206 -0.2403  0.0170
  271POPC   PO4 3615   4.770   1.209   3.618 -0.4113 -0.0353 -0.0198
  271POPC   GL1 3616   4.450   0.936   3.803  0.0332 -0.1078  0.0822
  271POPC   GL2 3617   4.267   1.124   4.088  0.1212 -0.0704  0.2010
  271POPC   C1A 3618   4.434   0.447   4.049 -0.1085 -0.0536  0.0649
  271POPC   D2A 3619   4.157   0.405   4.375  0.0603 -0.1431 -0.2713
  271POPC   C3A 3620   4.020  -0.023   4.402  0.0651  0.2892 -0.0612
  271POPC   C4A 3621   3.765  -0.438   4.355 -0.0353  0.2137 -0.5200
  271POPC   C1B 3622   4.523   0.918   4.315 -0.4449  0.0984  0.1681
  271POPC   C2B 3623   4.815   0.928   4.665 -0.1162  0.1580 -0.1820
  271POPC   C3B 3624   4.940   1.249   4.938 -0.1634  0.1853 -0.4219
  271POPC   C4B 3625   5.000   1.460   5.357 -0.1620  0.3300 -0.0041
  272POPC   NC3 3626   5.499   2.543   3.286 -0.1154 -0.0145  0.1721
  272POPC   PO4 3627   5.626   2.445   3.738  0.4616 -0.1648  0.1570
  272POPC   GL1 3628   5.609   2.225   4.047 -0.0227 -0.0815  0.2631
  272POPC   GL2 3629   5.416   2.347   4.283 -0.2551 -0.0354  0.3500
  272POPC   C1A 3630   5.735   1.816   4.041  0.2766  0.0201  0.0690
  272POPC   D2A 3631   6.084   1.543   3.917  0.0010  0.3533 -0.3124
  272POPC   C3A 3632   6.439   1.376   4.058 -0.0229 -0.2835  0.0388
  272POPC   C4A 3633   6.671   0.994   4.204  0.2080  0.0054 -0.1205
  272POPC   C1B 3634   5.479   2.467   4.652 -0.2486 -0.0724  0.0540
  272POPC   C2B 3635   5.419   2.463   5.053  0.2351  0.1262 -0.0895
  272POPC   C3B 3636   5.271   2.131   5.315 -0.0838  0.2058  0.1903
  272POPC   C4B 3637   5.289   1.944   5.634  0.4773 -0.0267  0.5274
  273POPC   NC3 3638   2.376   3.428   4.585  0.1444 -0.2088  0.2980
  273POPC   PO4 3639   1.979   3.367   4.674 -0.0118  0.0524  0.0564
  273POPC   GL1 3640   1.988   3.508   5.084 -0.0309  0.1956 -0.0846
  273POPC   GL2 3641   2.220   3.771   4.970  0.0426 -0.0911  0.1284
  273POPC   C1A 3642   1.756   3.465   5.502 -0.4052  0.1306 -0.1006
  273POPC   D2A 3643   1.842   3.538   5.914 -0.2495 -0.2156 -0.0024
  273POPC   C3A 3644   1.970   3.281   6.216 -0.2986 -0.3669 -0.1325
  273POPC   C4A 3645   2.145   2.945   6.361  0.0314  0.0816 -0.1064
  273POPC   C1B 3646   2.353   3.644   5.452  0.4566  0.0828 -0.0628
  273POPC   C2B 3647   2.642   3.725   5.785  0.1479  0.1473  0.1151
  273POPC   C3B 3648   2.892   3.415   6.094 -0.0166 -0.2921 -0.1639
  273POPC   C4B 3649   3.104   3.374   6.563  0.0308 -0.1396  0.0287
  274POPC   NC3 3650   4.999   6.999   4.531 -0.0304  0.1545 -0.0108
  274POPC   PO4 3651   4.706   6.813   4.718  0.0703 -0.0644  0.1609
  274POPC   GL1 3652   4.802   7.034   5.103  0.0274 -0.1971  0.0407
  274POPC   GL2 3653   4.770   7.013   5.409  0.2051 -0.0096  0.0397
  274POPC   C1A 3654   5.076   7.434   5.156  0.1991  0.0874 -0.0116
  274POPC   D2A 3655   5.181   7.660   5.501 -0.2322 -0.0483  0.2959
  274POPC   C3A 3656   5.039   8.027   5.569  0.0381 -0.1494  0.0193
  274POPC   C4A 3657   4.930   8.231   5.305  0.1791  0.0273 -0.3762
  274POPC   C1B 3658   5.050   7.118   5.551  0.0509  0.0815 -0.0440
  274POPC   C2B 3659   5.412   7.284   5.811  0.3059 -0.0234 -0.5845
  274POPC   C3B 3660   5.653   7.104   6.112  0.1043 -0.3044 -0.3226
  274POPC   C4B 3661   6.050   6.948   6.366  0.0973  0.1214  0.1305
  275POPC   NC3 3662   5.088   7.491   3.391 -0.2422 -0.1702 -0.1123
  275POPC   PO4 3663   5.125   7.344   3.781 -0.0139  0.3082  0.1830
  275POPC   GL1 3664   5.170   7.493   4.186 -0.1424 -0.2206 -0.0428
  275POPC   GL2 3665   4.934   7.845   4.346  0.0248 -0.3800  0.2523
  275POPC   C1A 3666   5.336   7.584   4.580  0.1253 -0.5692  0.0505
  275POPC   D2A 3667   5.391   7.825   4.978  0.0056  0.0502 -0.2782
  275POPC   C3A 3668   5.609   7.842   5.423  0.1156  0.4313 -0.0443
  275POPC   C4A 3669   5.704   7.731   5.836 -0.0664  0.2678 -0.1478
  275POPC   C1B 3670   4.692   8.248   4.428  0.0573 -0.6490  0.1531
  275POPC   C2B 3671   4.440   8.637   4.776  0.1583  0.0322 -0.2779
  275POPC   C3B 3672   4.255   9.085   4.619  0.0861 -0.0936 -0.2115
  275POPC   C4B 3673   3.996   9.310   4.800 -0.1464  0.0355 -0.1548
  276POPC   NC3 3674   8.416   0.262   3.879  0.0290 -0.1325  0.2902
  276POPC   PO4 3675   8.470   0.587   4.220 -0.4002  0.1996  0.1076
  276POPC   GL1 3676   8.418   0.691   4.609 -0.0970 -0.2664  0.3004
  276POPC   GL2 3677   8.288   0.387   4.639  0.6019  0.0533 -0.3223
  276POPC   C1A 3678   8.336   0.635   5.048  0.1833 -0.1263  0.0390
  276POPC   D2A 3679   8.093   0.635   5.403  0.1823  0.0144 -0.2116
  276POPC   C3A 3680   7.968   0.405   5.697  0.1311  0.1555  0.0506
  276POPC   C4A 3681   8.132   0.141   5.986  0.0703 -0.1749  0.1301
  276POPC   C1B 3682   7.931   0.295   4.935  0.0939 -0.1625  0.0108
  276POPC   C2B 3683   7.617   0.198   5.310  0.0311 -0.0162  0.1528
  276POPC   C3B 3684   7.405   0.206   5.649  0.0724 -0.0351  0.0297
  276POPC   C4B 3685   7.072   0.388   5.696 -0.1865 -0.3480 -0.3253
  277POPC   NC3 3686   6.531   4.921   4.423  0.1251  0.0710 -0.1717
  277POPC   PO4 3687   6.771   4.917   4.707  0.0085  0.1104  0.1531
  277POPC   GL1 3688   6.623   5.033   5.116  0.0742  0.0103 -0.0861
  277POPC   GL2 3689   6.634   4.863   5.404  0.2428  0.0738 -0.0886
  277POPC   C1A 3690   6.683   5.445   5.366  0.0109  0.1830 -0.0789
  277POPC   D2A 3691   6.898   5.759   5.682 -0.2340 -0.0198 -0.2513
  277POPC   C3A 3692   7.042   5.720   6.157 -0.1863 -0.0706 -0.1381
  277POPC   C4A 3693   7.030   5.688   6.599 -0.1593 -0.1194  0.0301
  277POPC   C1B 3694   6.899   4.567   5.722 -0.3464 -0.5126  0.5788
  277POPC   C2B 3695   7.008   4.780   6.130 -0.1142 -0.0087  0.2372
  277POPC   C3B 3696   6.754   4.997   6.552  0.1523 -0.1728  0.0853
  277POPC   C4B 3697   6.303   5.042   6.576  0.0119  0.1618  0.2832
  278POPC   NC3 3698   7.228   7.464   4.157 -0.2707  0.1576  0.0895
  278POPC   PO4 3699   6.904   7.166   3.853 -0.0633 -0.1448  0.2521
  278POPC   GL1 3700   6.712   7.434   4.054  0.1387  0.0362  0.4152
  278POPC   GL2 3701   6.766   7.270   4.396 -0.0563 -0.2448 -0.0101
  278POPC   C1A 3702   6.474   7.805   4.164  0.3412  0.2210  0.0246
  278POPC   D2A 3703   6.310   7.902   4.607  0.1642 -0.0445 -0.2074
  278POPC   C3A 3704   6.487   7.845   5.070 -0.1954 -0.1232 -0.3861
  278POPC   C4A 3705   6.594   7.517   5.328  0.0899  0.1547  0.0368
  278POPC   C1B 3706   6.905   7.542   4.737 -0.1216  0.1291  0.0006
  278POPC   C2B 3707   7.153   7.466   5.135  0.3328 -0.2208 -0.2782
  278POPC   C3B 3708   7.054   7.411   5.609  0.1244 -0.2633 -0.1612
  278POPC   C4B 3709   6.589   7.427   5.876  0.1604  0.3142  0.0148
  279POPC   NC3 3710   6.783   7.880   3.246  0.4297  0.1986  0.1299
  279POPC   PO4 3711   7.052   7.620   3.641 -0.1306 -0.0520  0.4847
  279POPC   GL1 3712   7.059   7.879   3.862  0.0971 -0.0453 -0.1003
  279POPC   GL2 3713   7.139   8.220   3.662 -0.0476  0.2327  0.1776
  279POPC   C1A 3714   6.817   8.187   4.124 -0.1112  0.2536  0.0632
  279POPC   D2A 3715   6.713   8.459   4.482  0.2649 -0.3149 -0.0648
  279POPC   C3A 3716   7.044   8.800   4.549 -0.1369 -0.0486  0.1110
  279POPC   C4A 3717   7.413   8.915   4.395 -0.0458  0.2247  0.2186
  279POPC   C1B 3718   6.748   8.505   3.678 -0.0201  0.0985 -0.2746
  279POPC   C2B 3719   6.370   8.506   3.881 -0.0244  0.1058  0.0213
  279POPC   C3B 3720   6.177   8.435   4.312  0.0650 -0.1488  0.1961
  279POPC   C4B 3721   5.825   8.378   4.567 -0.0298  0.0058 -0.3817
  280POPC   NC3 3722   7.559   5.449   4.724  0.0984  0.1052  0.0550
  280POPC   PO4 3723   7.958   5.506   4.812 -0.1740  0.1002  0.1530
  280POPC   GL1 3724   7.775   5.556   5.199 -0.1100  0.0913  0.0403
  280POPC   GL2 3725   7.670   5.277   5.236  0.2393 -0.1391  0.0472
  280POPC   C1A 3726   7.754   5.785   5.548 -0.1262  0.1466  0.0638
  280POPC   D2A 3727   7.439   5.764   5.842 -0.5071  0.2788 -0.0875
  280POPC   C3A 3728   7.472   5.724   6.428  0.0642  0.0535  0.1622
  280POPC   C4A 3729   7.562   5.427   6.672 -0.2744 -0.0190  0.0172
  280POPC   C1B 3730   7.615   5.305   5.654  0.2353  0.0190  0.0917
  280POPC   C2B 3731   7.739   5.400   6.138  0.0845 -0.1574 -0.0529
  280POPC   C3B 3732   7.979   5.481   6.380  0.1841  0.2778  0.1529
  280POPC   C4B 3733   8.274   5.345   6.653  0.2727 -0.0313  0.0941
  281POPC   NC3 3734   4.047   0.374   3.207  0.1381  0.1123 -0.3816
  281POPC   PO4 3735   4.164   0.756   3.401 -0.1347 -0.0981 -0.0978
  281POPC   GL1 3736   4.615   0.546   3.599  0.0016  0.0081 -0.1344
  281POPC   GL2 3737   4.577   0.207   3.548  0.0358 -0.4148  0.1972
  281POPC   C1A 3738   4.915   0.581   3.839 -0.1292 -0.2171 -0.0598
  281POPC   D2A 3739   5.120   0.856   4.238  0.1155  0.0744  0.0740
  281POPC   C3A 3740   5.501   0.921   4.232  0.0648 -0.1031  0.3773
  281POPC   C4A 3741   5.807   0.706   4.449 -0.1066  0.0135  0.2016
  281POPC   C1B 3742   4.817   0.055   3.961  0.3646  0.0961 -0.0183
  281POPC   C2B 3743   5.138   0.073   4.264  0.0894  0.0527  0.2635
  281POPC   C3B 3744   5.486  -0.091   4.374  0.0394 -0.0568 -0.0176
  281POPC   C4B 3745   5.894  -0.237   4.457  0.2087 -0.2489  0.3452
  282POPC   NC3 3746   0.544   8.473   4.935  0.1802  0.0560 -0.3510
  282POPC   PO4 3747   0.813   8.927   4.949  0.1977  0.1214  0.0538
  282POPC   GL1 3748   0.781   8.965   5.409 -0.0967 -0.2215 -0.0105
  282POPC   GL2 3749   0.484   9.064   5.525 -0.0176 -0.1451  0.0399
  282POPC   C1A 3750   1.015   9.062   5.761 -0.0875  0.2434  0.0540
  282POPC   D2A 3751   1.344   9.253   6.013 -0.0094 -0.2086  0.1424
  282POPC   C3A 3752   1.758   9.130   6.346 -0.2283 -0.2122  0.2917
  282POPC   C4A 3753   2.183   9.149   6.473  0.2769  0.0587  0.1485
  282POPC   C1B 3754   0.170   9.294   5.756  0.3144  0.1010  0.0660
  282POPC   C2B 3755  -0.139   9.446   6.057  0.2646 -0.3275 -0.2061
  282POPC   C3B 3756  -0.573   9.656   6.016 -0.0648  0.0093  0.3041
  282POPC   C4B 3757  -1.009   9.746   5.941 -0.2405  0.1846 -0.0704
  283POPC   NC3 3758   9.636   8.045   4.883 -0.0473 -0.1563 -0.5174
  283POPC   PO4 3759   9.627   7.514   4.873  0.1825 -0.0497 -0.1563
  283POPC   GL1 3760   9.676   7.275   5.306  0.2777 -0.1246  0.1582
  283POPC   GL2 3761   9.956   7.307   5.533  0.4145  0.0735  0.1957
  283POPC   C1A 3762   9.466   7.429   5.762  0.0247  0.1844 -0.0002
  283POPC   D2A 3763   9.621   7.705   6.057  0.2252 -0.2352  0.0682
  283POPC   C3A 3764   9.753   7.546   6.447 -0.1831 -0.0121  0.0269
  283POPC   C4A 3765   9.553   7.473   6.815 -0.0121 -0.3301 -0.1231
  283POPC   C1B 3766   9.840   7.117   5.942 -0.0195  0.3136 -0.0783
  283POPC   C2B 3767   9.887   7.116   6.295 -0.0241 -0.2009  0.5387
  283POPC   C3B 3768   9.623   6.984   6.710  0.1045  0.2042  0.1531
  283POPC   C4B 3769   9.347   6.696   6.842 -0.1140  0.5770  0.0661
  284POPC   NC3 3770   3.436   4.986   4.047 -0.1762 -0.0484  0.4994
  284POPC   PO4 3771   3.534   5.239   4.417  0.3032 -0.0809  0.1134
  284POPC   GL1 3772   3.414   5.140   4.899 -0.2151  0.2218  0.1992
  284POPC   GL2 3773   3.394   5.447   5.100  0.2081  0.1958  0.0094
  284POPC   C1A 3774   3.172   4.939   5.176  0.1130  0.3216  0.1802
  284POPC   D2A 3775   3.059   4.582   5.432 -0.2129  0.2348 -0.1743
  284POPC   C3A 3776   3.143   4.777   5.883 -0.3025  0.1361  0.1241
  284POPC   C4A 3777   3.515   4.875   6.093  0.1723 -0.3467 -0.2367
  284POPC   C1B 3778   3.621   5.640   5.414  0.1790 -0.0439  0.0031
  284POPC   C2B 3779   3.715   5.532   5.831  0.0164 -0.1822  0.2010
  284POPC   C3B 3780   3.813   5.285   6.148  0.2460 -0.0198 -0.1349
  284POPC   C4B 3781   4.248   5.156   6.197 -0.2120  0.1481 -0.0795
  285POPC   NC3 3782   1.896   0.464   4.769  0.0290  0.0021 -0.1674
  285POPC   PO4 3783   1.519   0.749   4.655 -0.0710  0.2721 -0.1311
  285POPC   GL1 3784   1.542   0.869   5.093  0.1043 -0.0940 -0.3861
  285POPC   GL2 3785   1.537   0.538   5.269 -0.1863 -0.0458  0.0993
  285POPC   C1A 3786   1.459   1.124   5.502  0.0642  0.3544 -0.2489
  285POPC   D2A 3787   1.279   1.021   5.928 -0.0151  0.1675  0.1958
  285POPC   C3A 3788   1.134   1.283   6.121 -0.2256  0.2583 -0.1345
  285POPC   C4A 3789   0.816   1.517   6.194 -0.0025  0.1217 -0.0378
  285POPC   C1B 3790   1.614   0.703   5.698 -0.0295 -0.0597 -0.1105
  285POPC   C2B 3791   1.566   0.527   6.002 -0.2826 -0.0212 -0.2898
  285POPC   C3B 3792   1.560   0.119   6.263  0.0984 -0.0052  0.0695
  285POPC   C4B 3793   1.483  -0.206   6.658  0.1820  0.0262  0.4060
  286POPC   NC3 3794   7.195   2.412   3.694  0.1691 -0.1220 -0.0086
  286POPC   PO4 3795   6.993   2.015   3.768  0.0223 -0.3403  0.0009
  286POPC   GL1 3796   6.970   1.934   4.145 -0.2143  0.0299  0.0318
  286POPC   GL2 3797   7.231   1.766   4.257 -0.2876  0.2793  0.1500
  286POPC   C1A 3798   6.804   1.715   4.554  0.2407  0.0973 -0.1899
  286POPC   D2A 3799   6.725   1.415   4.739  0.4055 -0.1881 -0.0582
  286POPC   C3A 3800   6.294   1.364   5.018  0.1397 -0.2280  0.0148
  286POPC   C4A 3801   5.934   1.316   5.127  0.1522  0.1151  0.0424
  286POPC   C1B 3802   7.092   1.355   4.285  0.0388  0.0464 -0.1860
  286POPC   C2B 3803   7.133   1.090   4.046  0.0273 -0.0766 -0.0817
  286POPC   C3B 3804   7.175   0.606   3.992  0.0522 -0.0683 -0.1657
  286POPC   C4B 3805   7.459   0.446   4.288  0.1794  0.1073 -0.2524
  287W        W 3806   5.030   5.843   2.554 -0.1529 -0.0145  0.2318
  288W        W 3807   6.625   1.205  12.594 -0.0816 -0.0708 -0.1224
  289W        W 3808   4.196   6.749  11.158 -0.1757  0.2773  0.2657
  290W        W 3809   4.289   2.705   4.796 -0.3764  0.0438 -0.1646
  291W        W 3810   0.567   6.814   3.409  0.0228  0.1790  0.3214
  292W        W 3811   7.290   1.952  12.375 -0.0826 -0.2608  0.3344
  293W        W 3812   7.686   2.724   9.401 -0.0904 -0.0387 -0.0471
  294W        W 3813   5.734   8.117   3.171 -0.3442 -0.1086  0.2087
  295W        W 3814   8.813   6.235   2.674 -0.0270  0.1170 -0.3309
  296W        W 3815   6.212   2.758   1.975  0.0325  0.2365  0.2266
  297W        W 3816   8.275   8.719   0.477 -0.0759 -0.1204  0.0702
  298W        W 3817   3.756   7.539  10.957 -0.3544  0.2959 -0.0051
  299W        W 3818   3.170   3.666   8.228  0.2648 -0.0036 -0.2029
  300W        W 3819   1.809   4.187   3.569  0.1540 -0.0705 -0.1984
  301W        W 3820   3.992   0.637   1.807 -0.2734  0.4874 -0.1199
  302W        W 3821   9.601   6.505   0.531 -0.1947 -0.1041  0.2909
  303W        W 3822   0.710   6.923   3.873  0.2601 -0.3244  0.1825
  304W        W 3823   5.188   2.647   9.946 -0.2007 -0.0064  0.0276
  305W        W 3824   8.388   5.293   2.523  0.2223 -0.2207 -0.1600
  306W        W 3825   6.111   7.345   3.414 -0.0084 -0.0551  0.1449
  307W        W 3826   5.011   5.581  11.945  0.0270 -0.1145  0.0256
  308W        W 3827   4.695   1.594  12.430  0.1654 -0.1537 -0.3940
  309W        W 3828   3.785   5.241  10.117 -0.2632  0.1905 -0.2244
  310W        W 3829   6.275   7.017   2.514 -0.2252  0.0955 -0.4449
  311W        W 3830   5.938   7.420   1.131  0.2515  0.2021  0.1048
  312W        W 3831   5.201   1.711   9.384 -0.0011 -0.3342  0.3296
  313W        W 3832   6.773   3.951   1.274 -0.1285 -0.0071 -0.2949
  314W        W 3833   7.829   6.558   1.051 -0.1440 -0.0871  0.1070
  315W        W 3834   6.674   8.064   1.596  0.0550 -0.0423 -0.1080
  316W        W 3835   7.487   6.487  10.612  0.3261  0.1001  0.2134
  317W        W 3836   0.488   4.537   3.881 -0.1768  0.0363 -0.2439
  318W        W 3837   6.804   2.539  11.761 -0.1363 -0.0084  0.1447
  319W        W 3838   0.153   8.988   3.602 -0.3087  0.1543  0.0620
  320W        W 3839   9.649   8.280   1.787  0.0386  0.0606  0.0890
  321W        W 3840   9.390   8.110  10.523  0.3411  0.2514 -0.0487
  322W        W 3841   7.906   6.101   3.007  0.0028  0.2055 -0.1644
  323W        W 3842   7.250   4.501   3.801  0.0698 -0.2722  0.2551
  324W        W 3843   5.631   1.680   1.011 -0.0284 -0.1689 -0.0001
  325W        W 3844   2.872   1.854  12.515  0.3335  0.1154 -0.4894
  326W        W 3845   1.200   6.595   9.261  0.1574  0.1801  0.2337
  327W        W 3846   3.114   6.631   8.287  0.0453  0.1602  0.0595
  328W        W 3847   7.504   1.834   1.986  0.2553 -0.2363 -0.0538
  329W        W 3848   9.187   8.469  11.981 -0.1348  0.0890  0.1833
  330W        W 3849   0.512   1.485   0.701  0.2030  0.1342 -0.2175
  331W        W 3850   1.394   4.771   0.528 -0.3572  0.1823  0.0916
  332W        W 3851   9.351   6.569   1.369  0.2356  0.1582  0.2260
  333W        W 3852   0.434   0.787  11.755 -0.1098  0.0181  0.1006
  334W        W 3853   1.102   6.818  10.536 -0.2023  0.0052  0.3399
  335W        W 3854   3.987   2.689   0.471  0.3276  0.1221 -0.0701
  336W        W 3855   4.331   1.744   0.742 -0.1188 -0.0599 -0.0291
  337W        W 3856   0.757   3.362  10.474 -0.1821 -0.0597  0.2303
  338W        W 3857   5.052   9.352   9.626  0.1958  0.2419  0.2142
  339W        W 3858   0.966   6.608   3.127  0.0410  0.2855 -0.0645
  340W        W 3859   5.758   4.385   1.792  0.2841 -0.0196  0.1069
  341W        W 3860   0.936   5.361   9.277 -0.2348  0.0141 -0.2671
  342W        W 3861   7.911   3.670  10.948 -0.2367 -0.2142  0.3781
  343W        W 3862   1.673   4.139   8.867  0.0304 -0.0286 -0.0299
  344W        W 3863   6.944   9.153   2.107 -0.0854  0.0046  0.1769
  345W        W 3864   4.298   2.482   2.025  0.1149  0.0775  0.1043
  346W        W 3865   1.999   4.131  11.096  0.3513 -0.1286  0.1975
  347W        W 3866   6.226   6.454   0.845 -0.0248  0.1707 -0.1743
  348W        W 3867   1.459   3.220   8.274 -0.1424 -0.1722  0.1471
  349W        W 3868   2.406   4.550   2.723  0.3975  0.2789 -0.1401
  350W        W 3869   5.150   5.746   0.584  0.0430 -0.2622 -0.5007
  351W        W 3870   4.297   6.368   2.532  0.1431 -0.1635 -0.0659
  352W        W 3871   0.795   5.192   3.734  0.2841  0.0892 -0.3255
  353W        W 3872   0.038   4.693   4.278 -0.0450  0.0009  0.1098
  354W        W 3873   5.233   2.488   8.963  0.0015  0.0386  0.0337
  355W        W 3874   6.744   6.105   9.037 -0.0821 -0.3367 -0.0846
  356W        W 3875   8.477   8.602   8.699  0.0610  0.3103 -0.0345
  357W        W 3876   2.905   7.223   0.194  0.1923  0.1996  0.2653
  358W        W 3877   2.809   4.552   2.370 -0.1335 -0.2999  0.0555
  359W        W 3878   4.120   4.102  10.547 -0.0398  0.2204  0.0977
  360W        W 3879   7.959   1.655   2.829  0.0510 -0.1956  0.0837
  361W        W 3880   7.114   0.152  10.340  0.0695  0.2677 -0.0267
  362W        W 3881   3.715   2.968   4.200 -0.0877  0.0624 -0.0404
  363W        W 3882   2.047   9.137   4.705 -0.2922  0.2009 -0.1026
  364W        W 3883   0.279   2.494   1.302 -0.0464  0.1910  0.1257
  365W        W 3884   9.228   0.778  10.193  0.0664 -0.1368  0.4504
  366W        W 3885   2.722   5.699   1.949 -0.0873 -0.1595  0.2672
  367W        W 3886   3.461   4.641  10.793 -0.3128  0.1321  0.1387
  368W        W 3887   1.124   1.829   5.191  0.4113  0.1687 -0.1744
  369W        W 3888   3.453   5.491   9.019 -0.2578 -0.2180 -0.2560
  370W        W 3889   7.341   1.800  11.413  0.0025  0.3502 -0.0784
  371W        W 3890   8.067   6.714  11.635 -0.3847  0.1654  0.4227
  372W        W 3891   4.434   0.224  11.223  0.1627  0.0027  0.1682
  373W        W 3892   8.134   7.560  10.144 -0.3598 -0.1852 -0.0452
  374W        W 3893   8.292   9.553  10.269 -0.0172  0.1955  0.0860
  375W        W 3894   0.902   4.581  10.712 -0.0235 -0.0154  0.0085
  376W        W 3895   8.977   9.268   8.363 -0.0449 -0.3693 -0.2409
  377W        W 3896   6.473   4.143   3.286 -0.1012 -0.2400  0.1887
  378W        W 3897   7.205   3.998   9.329 -0.0403  0.1351  0.2435
  379W        W 3898   8.220   3.501   3.577  0.0409 -0.0724  0.2374
  380W        W 3899   3.225   5.998   3.917  0.0502  0.1090 -0.0947
  381W        W 3900   7.612   8.738   2.407 -0.1829  0.3514  0.3783
  382W        W 3901   0.253   8.179   0.550  0.2385  0.1123  0.1244
  383W        W 3902   7.829   4.119   8.706 -0.3794 -0.2221  0.2985
  384W        W 3903   7.261   8.955   9.134 -0.1376 -0.0436  0.0666
  385W        W 3904   9.340   9.066   3.394 -0.1406 -0.1201 -0.1821
  386W        W 3905   8.886   1.103   8.702 -0.0674  0.2624  0.0107
  387W        W 3906   4.410   0.127   1.000  0.3987  0.0056 -0.1583
  388W        W 3907   2.723   0.792   2.021 -0.1520  0.1635  0.1864
  389W        W 3908   4.254   4.126  11.125 -0.4533 -0.2596 -0.1668
  390W        W 3909   5.194   8.306   1.836  0.0208  0.1685 -0.2314
  391W        W 3910   4.167   6.740   1.263  0.1244  0.0940  0.0518
  392W        W 3911   8.671   1.834  12.501 -0.0952 -0.3477 -0.0541
  393W        W 3912   5.398   6.978   2.151  0.1525  0.3074  0.0239
  394W        W 3913   4.872   4.622  10.650  0.2168 -0.0560 -0.0956
  395W        W 3914   1.224   3.248  12.477 -0.1674 -0.0135  0.0647
  396W        W 3915   8.039   5.423  11.130 -0.2201 -0.0286 -0.0841
  397W        W 3916   4.808   8.610   1.477  0.3758  0.0073  0.1663
  398W        W 3917   1.088   2.876   8.286 -0.1384 -0.0634  0.2605
  399W        W 3918   8.491   5.446  12.460  0.3514  0.1932  0.1725
  400W        W 3919   6.712   9.159   2.789 -0.2909  0.1358  0.0237
  401W        W 3920   4.132   8.858   1.837  0.2843 -0.1238 -0.1206
  402W        W 3921   4.511   3.546   2.352 -0.3124 -0.0962  0.0992
  403W        W 3922   1.646   3.996   1.025 -0.0287  0.1022  0.1690
  404W        W 3923   6.676   2.354   8.853 -0.0210  0.1866  0.0578
  405W        W 3924   0.235   1.554   2.289  0.1623  0.3087  0.0851
  406W        W 3925   0.091   1.390   1.650 -0.0260  0.0900 -0.1892
  407W        W 3926   3.400   0.164   0.671  0.0847 -0.0197  0.0096
  408W        W 3927   6.811   2.396  10.299 -0.1730  0.3364  0.0454
  409W        W 3928   2.712   8.649  11.884  0.1848 -0.0182 -0.1726
  410W        W 3929   7.924   1.198  10.142  0.3127  0.0250  0.0129
  411W        W 3930   8.261   5.726   0.813  0.2963 -0.0689  0.1539
  412W        W 3931   2.893   8.179   4.122 -0.4025 -0.1887  0.1678
  413W        W 3932   5.775   3.367   3.769 -0.2042 -0.1281  0.0587
  414W        W 3933   5.683   3.015   0.360  0.0209 -0.0496 -0.0182
  415W        W 3934   0.001   0.479   0.068 -0.0968  0.0932  0.3847
  416W        W 3935   6.827   3.753   3.336 -0.3613 -0.0104 -0.0839
  417W        W 3936   4.048   9.408  11.918  0.0662 -0.1926 -0.4517
  418W        W 3937   1.641   2.393   0.320 -0.3486 -0.0274 -0.0862
  419W        W 3938   2.313   8.777  10.983  0.4768 -0.2032  0.0260
  420W        W 3939   1.957   5.973   1.260 -0.0508 -0.3282  0.3594
  421W        W 3940   8.808   6.451   9.152  0.2919  0.1738  0.0908
  422W        W 3941   3.934   3.682   0.045  0.0847 -0.1869  0.0187
  423W        W 3942   0.004   1.666   0.683  0.3578  0.1787 -0.4665
  424W        W 3943   5.548   5.203  11.054 -0.2186  0.0699 -0.2990
  425W        W 3944   1.708   0.411   0.471  0.2029 -0.2617 -0.0811
  426W        W 3945   6.105   0.319  11.592  0.4109  0.1288 -0.2924
  427W        W 3946   9.668   1.572   9.257 -0.2039  0.2264 -0.0096
  428W        W 3947   0.322   5.033   3.082 -0.1722  0.1541 -0.0219
  429W        W 3948   2.171   2.584   4.134  0.1744  0.2970 -0.0923
  430W        W 3949   4.182   9.232  10.786  0.0742 -0.1477  0.3627
  431W        W 3950   1.395   0.712  11.501 -0.0138  0.2856  0.0848
  432W        W 3951   1.485   0.630  12.156  0.1673 -0.0513  0.1663
  433W        W 3952   8.042   9.618   4.036  0.0469  0.0637 -0.0179
  434W        W 3953   6.663   4.354   3.757  0.1189  0.0264 -0.1441
  435W        W 3954   0.219   8.119   9.633 -0.2065  0.1825  0.3167
  436W        W 3955   4.413   2.550   0.769  0.0264 -0.1987  0.0588
  437W        W 3956   6.070   7.695  10.945 -0.1467  0.3496  0.0789
  438W        W 3957   3.476   0.355  11.055  0.0536 -0.2175  0.2992
  439W        W 3958   5.414   9.448  10.598  0.1666 -0.0686 -0.0752
  440W        W 3959   5.583   4.328   0.559 -0.1111  0.2388 -0.0824
  441W        W 3960   1.677   3.800  10.171  0.2137 -0.0628  0.2675
  442W        W 3961   2.476   2.873   3.078  0.4034 -0.3015  0.5054
  443W        W 3962   9.436   1.181   3.720  0.1653 -0.0803  0.4889
  444W        W 3963   6.243   5.805   1.394 -0.1736 -0.0636  0.0838
  445W        W 3964   3.756   9.150   2.851 -0.3952 -0.1400 -0.1528
  446W        W 3965   1.150   8.403   1.937 -0.2739 -0.0353  0.2385
  447W        W 3966   6.321   7.546   0.020 -0.0147 -0.1222 -0.1675
  448W        W 3967   1.898   3.555   4.212 -0.1687 -0.3416  0.1712
  449W        W 3968   2.197   6.458   8.974 -0.5342  0.1837  0.2262
  450W        W 3969   3.416   4.326   4.281 -0.1124  0.0447  0.0636
  451W        W 3970   4.184   2.656  12.591  0.1367 -0.0865 -0.3331
  452W        W 3971   4.463   8.052   1.293 -0.3104 -0.0671  0.0080
  453W        W 3972   9.484   0.003   2.615 -0.1389  0.0646  0.1421
  454W        W 3973   8.976   7.315   2.925 -0.0011 -0.0177  0.1940
  455W        W 3974   1.397   9.143   2.004  0.0161 -0.0187  0.0430
  456W        W 3975   6.570   0.012   0.961  0.0148 -0.1956  0.0921
  457W        W 3976   2.651   3.579  10.309 -0.2885 -0.0691 -0.3115
  458W        W 3977   6.121   4.135   1.380 -0.1394 -0.0008  0.0937
  459W        W 3978   2.675   0.130   3.256  0.2046  0.3405 -0.2456
  460W        W 3979   9.015   1.687   1.201 -0.0291  0.2563  0.1821
  461W        W 3980   1.225   7.175   1.289  0.1184 -0.0479 -0.1945
  462W        W 3981   7.521   2.077   3.955  0.0492  0.3561 -0.1147
  463W        W 3982   7.210   4.212   2.142  0.1274 -0.0985 -0.0720
  464W        W 3983   7.323   1.174   0.633  0.0164  0.2837  0.0512
  465W        W 3984   0.790   4.132   2.881  0.1306  0.0210  0.0276
  466W        W 3985   1.309   1.440   9.771  0.2558  0.0883 -0.0813
  467W        W 3986   6.064   9.544  12.144 -0.0167 -0.2383 -0.0364
  468W        W 3987   1.825   5.447  10.646  0.2451  0.0510 -0.0330
  469W        W 3988   7.785   2.259   0.379  0.0456  0.0556 -0.0562
  470W        W 3989   1.463   6.262  11.130  0.1147  0.3431  0.2989
  471W        W 3990   2.455   6.872   3.889  0.1838  0.2152 -0.1766
  472W        W 3991   5.435   5.350   2.520 -0.2547  0.1190  0.0901
  473W        W 3992   0.601   0.888   9.871 -0.1336  0.2607  0.1563
  474W        W 3993   5.508   0.694  12.552  0.5057 -0.1845 -0.1197
  475W        W 3994   0.670   8.371   8.662 -0.2009 -0.0010  0.2888
  476W        W 3995   1.218   0.082   3.453  0.2948  0.0455  0.2034
  477W        W 3996   2.100   4.112   9.902  0.0211  0.0375 -0.1344
  478W        W 3997   4.787   8.869  11.762 -0.0869 -0.0198  0.0401
  479W        W 3998   8.417   2.640   9.815  0.1563  0.1167  0.2991
  480W        W 3999   5.315   3.811   0.320  0.0501 -0.0293  0.0973
  481W        W 4000   9.350   4.765   0.259 -0.0337 -0.2925  0.1348
  482W        W 4001   8.616   5.880   3.836 -0.0645 -0.0583 -0.2721
  483W        W 4002   6.910   0.551  12.066  0.1149 -0.0209  0.0099
  484W        W 4003   1.436   1.746   3.412 -0.1920  0.1277  0.0169
  485W        W 4004   8.707   3.527   2.742 -0.2202 -0.3143  0.2827
  486W        W 4005   5.405   8.493  12.238  0.0137 -0.1768  0.0918
  487W        W 4006   2.049   6.061   9.224 -0.0081  0.0797  0.3928
  488W        W 4007   5.325   3.602   1.992 -0.1833 -0.0691 -0.0677
  489W        W 4008   2.744   0.947   8.711  0.1911  0.0895 -0.1862
  490W        W 4009   4.299   3.365  10.387 -0.3590 -0.0839  0.1422
  491W        W 4010   9.485   3.299  10.701  0.1781  0.0458  0.0416
  492W        W 4011   2.850   9.592   3.679  0.1567 -0.0665  0.2107
  493W        W 4012   8.054   8.659   1.555  0.0861  0.1908  0.1330
  494W        W 4013   8.042   4.074   5.060 -0.2852 -0.1036  0.1312
  495W        W 4014   4.788   1.896   9.811  0.5836 -0.4468 -0.1114
  496W        W 4015   3.595   6.532  10.369  0.1398  0.2289  0.0778
  497W        W 4016   0.620   6.523  11.516  0.1215 -0.0366  0.1958
  498W        W 4017   7.498   7.577   9.848 -0.1729  0.0169  0.1121
  499W        W 4018   5.959   3.124   4.193 -0.2649  0.2293  0.2742
  500W        W 4019   6.126   6.523   0.276 -0.1388  0.2839  0.4380
  501W        W 4020   8.394   8.359   1.766  0.2262  0.1753  0.5027
  502W        W 4021   7.968   3.655   4.765  0.0775 -0.3463  0.1271
  503W        W 4022   4.258   0.004   1.573 -0.2844  0.2824 -0.3477
  504W        W 4023   3.903   5.040   4.182  0.0879  0.1298 -0.3901
  505W        W 4024   0.945   4.360   9.191 -0.0571  0.0417 -0.0601
  506W        W 4025   0.994   0.551  12.578  0.0990 -0.3219 -0.2558
  507W        W 4026   2.774   8.002   8.782 -0.0190 -0.1015  0.4614
  508W        W 4027   2.372   8.195   3.990 -0.0807 -0.1647  0.0541
  509W        W 4028   3.249   0.311   2.609 -0.0015 -0.0668 -0.0013
  510W        W 4029   3.126   5.012  11.148  0.1389 -0.0431 -0.3200
  511W        W 4030   0.860   5.935   0.697  0.3273 -0.0647  0.1101
  512W        W 4031   7.474   0.836   0.310 -0.0190  0.1219 -0.1093
  513W        W 4032   0.384   0.252   9.789  0.2532 -0.0979 -0.0015
  514W        W 4033   9.127   5.143   0.530 -0.1758 -0.0173  0.1848
  515W        W 4034   6.460   2.411   9.794 -0.1655 -0.0950  0.1496
  516W        W 4035   3.643   8.472   2.373 -0.1742 -0.0337 -0.0195
  517W        W 4036   0.079   7.321   8.562 -0.1685  0.3339  0.4226
  518W        W 4037   6.800   9.285   9.123 -0.1980  0.0029 -0.0556
  519W        W 4038   4.283   2.127   9.988  0.0068  0.0236  0.1714
  520W        W 4039   2.827   0.752   9.958 -0.1291 -0.0409 -0.0561
  521W        W 4040   5.702   4.567   9.543  0.1256  0.3237 -0.0033
  522W        W 4041   9.099   7.587   4.091  0.0619  0.1441  0.0043
  523W        W 4042   6.935   8.720   0.611  0.1106 -0.1538  0.1101
  524W        W 4043   1.869   2.776   3.726  0.2788 -0.2849 -0.0932
  525W        W 4044   2.150   2.283   8.846 -0.1247  0.1773 -0.1542
  526W        W 4045   8.147   4.582   0.817  0.2559 -0.4532 -0.2035
  527W        W 4046   6.043   8.886   0.726 -0.1966 -0.0917 -0.1293
  528W        W 4047   2.948   6.373   1.613  0.0267  0.0398  0.0342
  529W        W 4048   8.336   6.177   1.610  0.0711  0.0932  0.3537
  530W        W 4049   3.397   8.928   2.463 -0.1897 -0.2603 -0.4325
  531W        W 4050   1.763   2.698  11.245  0.1083  0.0240  0.2088
  532W        W 4051   2.974   1.040  10.373 -0.0231  0.0392 -0.2749
  533W        W 4052   6.423   3.222   1.312  0.0954 -0.0309 -0.0275
  534W        W 4053   0.422   8.584   0.888 -0.0953  0.0322  0.1787
  535W        W 4054   2.558   1.936   1.407 -0.0553  0.0473 -0.1651
  536W        W 4055   2.942   3.558   9.950 -0.0856  0.0625  0.1086
  537W        W 4056   2.085   3.698   0.240 -0.0399  0.1098  0.0053
  538W        W 4057   8.790   4.452   9.272 -0.1988 -0.0182  0.3369
  539W        W 4058   7.511   9.164   3.988  0.0229  0.0228 -0.0443
  540W        W 4059   4.796   2.719   1.917  0.0022  0.1266  0.0289
  541W        W 4060   7.155   3.501   3.768  0.0623  0.0720 -0.2038
  542W        W 4061   6.225   1.113  12.147  0.0108 -0.2334  0.4459
  543W        W 4062   1.754   4.856   3.289  0.0843 -0.3802 -0.0401
  544W        W 4063   8.151   9.151   1.427  0.1224 -0.2064 -0.2982
  545W        W 4064   9.163   7.168  12.349  0.3694 -0.4044  0.0173
  546W        W 4065   1.255   4.665  10.392  0.3955  0.0869  0.2095
  547W        W 4066   6.111   9.193   9.482  0.2607  0.4188 -0.2000
  548W        W 4067   4.574   4.193   2.606  0.0857 -0.0256 -0.1745
  549W        W 4068   0.520   4.493   1.976 -0.2560  0.1694 -0.1425
  550W        W 4069   7.455   0.180   1.714  0.0769  0.1158 -0.0600
  551W        W 4070   2.951   4.076  11.179  0.2549  0.0150 -0.0397
  552W        W 4071   0.358   7.759   0.887  0.1042  0.0146  0.0607
  553W        W 4072   4.210   6.318   8.073 -0.1528  0.3103  0.2730
  554W        W 4073   3.415   8.125   4.112 -0.3605 -0.0275 -0.0387
  555W        W 4074   7.700   7.273   1.626 -0.3635 -0.0303  0.1612
  556W        W 4075   2.427   9.580   0.969 -0.0019 -0.0148  0.3648
  557W        W 4076   4.149   7.239   3.259  0.1443 -0.2357  0.1062
  558W        W 4077   1.019   7.326   2.103 -0.4187  0.0208 -0.2828
  559W        W 4078   7.152   9.438  10.025 -0.0457 -0.0619 -0.0644
  560W        W 4079   0.658   9.343   4.652  0.2092 -0.0319 -0.0408
  561W        W 4080   3.306   8.647   0.009 -0.0627  0.0514  0.0412
  562W        W 4081   8.044   7.350   9.703  0.0299 -0.2498 -0.0492
  563W        W 4082   9.241   4.709   3.994 -0.0150 -0.1958 -0.0945
  564W        W 4083   7.266   6.091   4.279  0.0446 -0.0121  0.1926
  565W        W 4084   3.644   6.523   3.100  0.1836 -0.0027 -0.1010
  566W        W 4085   4.787   6.793  11.778 -0.0730 -0.1610 -0.0697
  567W        W 4086   6.578   6.128  10.250 -0.1954 -0.1502  0.0462
  568W        W 4087   8.104   3.442  10.148 -0.1050 -0.2699 -0.0076
  569W        W 4088   8.751   4.904   9.426  0.1115 -0.1646 -0.2810
  570W        W 4089   0.279   5.359   2.310  0.0139  0.2657 -0.2047
  571W        W 4090   4.879   8.347  11.886 -0.1016 -0.1372 -0.1718
  572W        W 4091   3.925   5.987  10.911 -0.0475  0.3275  0.0404
  573W        W 4092   2.743   3.868   2.729  0.2930  0.1071  0.1656
  574W        W 4093   1.742   3.576   8.915  0.2181 -0.0494  0.2999
  575W        W 4094   7.153   7.406   9.490 -0.2745 -0.0166 -0.0318
  576W        W 4095   5.262   3.882  11.202  0.0397  0.0872  0.2037
  577W        W 4096   2.901   1.898  10.730 -0.0249 -0.2844 -0.0819
  578W        W 4097   3.162   7.114   3.862 -0.1101  0.1318 -0.2675
  579W        W 4098   2.039   3.406   9.390  0.2605 -0.2080  0.3141
  580W        W 4099   3.158   5.305   3.166  0.0038 -0.0413 -0.0672
  581W        W 4100   4.568   2.963   0.935  0.2037 -0.0307 -0.2558
  582W        W 4101   3.056   9.562   9.804  0.0575  0.1308 -0.0501
  583W        W 4102   8.749   0.418   1.038  0.0357  0.2922 -0.2887
  584W        W 4103   6.113   0.187   0.066  0.2392 -0.0124  0.0287
  585W        W 4104   6.029   8.215   9.219 -0.2529  0.1282 -0.0174
  586W        W 4105   6.474   7.005   3.385  0.1246 -0.0453 -0.2238
  587W        W 4106   5.574   2.960   3.597 -0.0813  0.0585 -0.5145
  588W        W 4107   7.397   9.455  11.950 -0.2258  0.1558  0.2515
  589W        W 4108   1.243   6.700   0.157 -0.3103 -0.1852  0.0414
  590W        W 4109   8.402   8.345  12.249 -0.0027  0.0659  0.0517
  591W        W 4110   7.901   4.631  10.821  0.1084 -0.1558 -0.2156
  592W        W 4111   2.659   9.129   8.851 -0.1400  0.0411 -0.1928
  593W        W 4112   6.852   3.761   0.713  0.3182  0.0530 -0.1728
  594W        W 4113   3.008   4.781   9.294 -0.0235  0.1164  0.1459
  595W        W 4114   1.190   4.241   8.750  0.2443 -0.2222  0.0401
  596W        W 4115   6.277   1.393   9.563  0.1279  0.0116 -0.0799
  597W        W 4116   3.263   9.269   8.234 -0.3919  0.0796 -0.3813
  598W        W 4117   3.694   0.587   0.731 -0.0853 -0.0358 -0.2337
  599W        W 4118   7.524   6.352   9.995 -0.0746  0.0709 -0.3516
  600W        W 4119   2.440   8.080   4.538  0.1425  0.2981 -0.0193
  601W        W 4120   4.963   1.322   0.620  0.0052 -0.0700 -0.0945
  602W        W 4121   7.494   5.802   8.962 -0.0913  0.2416 -0.1388
  603W        W 4122   9.550   0.114   0.566  0.1534 -0.0475 -0.0589
  604W        W 4123   8.708   9.079   9.315 -0.0754 -0.0923  0.0244
  605W        W 4124   1.762   0.912   1.106  0.1811  0.2396  0.1310
  606W        W 4125   0.660   4.229  11.114 -0.0740  0.0348  0.0136
  607W        W 4126   0.621   8.732   2.115 -0.0804  0.3958  0.0375
  608W        W 4127   1.091   8.452  11.915  0.2063 -0.0276 -0.2619
  609W        W 4128   5.801   6.450  10.179  0.0591 -0.2917  0.0864
  610W        W 4129   1.337   1.128  11.756  0.2212 -0.0369  0.2455
  611W        W 4130   4.123   4.559  10.156  0.4038 -0.0793  0.3058
  612W        W 4131   3.817   6.259   1.400 -0.1023  0.0619  0.1657
  613W        W 4132   1.972   6.263   0.157  0.0283  0.4371 -0.0017
  614W        W 4133   7.115   4.670   4.408 -0.0533 -0.0651 -0.0155
  615W        W 4134   2.955   2.452   8.923  0.1158 -0.2975 -0.1007
  616W        W 4135   1.613   2.411   3.457 -0.2861  0.2253 -0.2297
  617W        W 4136   2.050   0.545  10.416 -0.2086 -0.0942 -0.0271
  618W        W 4137   1.395   8.068   9.819  0.1314 -0.0225 -0.1062
  619W        W 4138   4.455   5.457  10.986 -0.1124 -0.0130 -0.0725
  620W        W 4139   0.056   8.520   4.761  0.4099 -0.1079  0.1627
  621W        W 4140   4.965   6.183   4.058 -0.2757  0.3735  0.0190
  622W        W 4141   6.699   3.651  12.447  0.2394  0.2650  0.1376
  623W        W 4142   4.622   9.059   0.516 -0.2157 -0.0325 -0.3097
  624W        W 4143   7.297   1.664   9.893 -0.2078 -0.2076  0.1564
  625W        W 4144   1.563   8.773  11.026 -0.0443 -0.5628  0.1155
  626W        W 4145   0.511   5.116  11.867  0.0816  0.0349 -0.2606
  627W        W 4146   8.601   8.693   2.846 -0.2063  0.2347 -0.2351
  628W        W 4147   5.218   2.805   4.436  0.1043 -0.1401  0.2564
  629W        W 4148   5.054   5.488   3.300 -0.0541  0.0651  0.3227
  630W        W 4149   1.305   9.103   0.875 -0.0226  0.1753 -0.0009
  631W        W 4150   8.227   8.550  10.147 -0.2073  0.2847 -0.1530
  632W        W 4151   9.027   6.354   1.681  0.0321 -0.0213  0.2317
  633W        W 4152   6.286   0.613   2.631  0.0170  0.2601 -0.1391
  634W        W 4153   7.104   8.631   2.069 -0.2799  0.1773  0.2652
  635W        W 4154   8.848   6.987   2.316  0.2242 -0.0231  0.3519
  636W        W 4155   8.816   3.981  10.889 -0.1787  0.2045 -0.0966
  637W        W 4156   7.238   8.594   3.310  0.0210  0.0576 -0.1594
  638W        W 4157   1.670   3.733   3.757  0.0336  0.2356 -0.0408
  639W        W 4158   7.964   6.587  10.257 -0.1021  0.0612  0.1206
  640W        W 4159   5.177   2.131   3.392  0.1039 -0.1214  0.1324
  641W        W 4160   4.136   8.716  10.770  0.0951  0.1454  0.1199
  642W        W 4161   0.245   2.047  11.371 -0.4629  0.4171 -0.1017
  643W        W 4162   5.895   2.765  10.720 -0.1410 -0.1487  0.0781
  644W        W 4163   3.416   6.597   4.996  0.1203  0.0341 -0.4630
  645W        W 4164   6.212   3.610   8.144 -0.2160 -0.1712  0.1824
  646W        W 4165   0.390   9.676   8.760  0.2727  0.1597 -0.0241
  647W        W 4166   7.422   7.421   4.667 -0.0274  0.1748 -0.1845
  648W        W 4167   5.964   0.660  12.533 -0.0566 -0.1903  0.0287
  649W        W 4168   7.844   8.346  11.228  0.1501 -0.2058 -0.0099
  650W        W 4169   6.207   7.860   0.387  0.0216  0.1686  0.1195
  651W        W 4170   3.929   1.329   1.855 -0.0871 -0.4354 -0.2393
  652W        W 4171   1.660   2.615   1.973 -0.0700  0.0566  0.0240
  653W        W 4172   5.037   5.241   2.813  0.1678 -0.2372 -0.1232
  654W        W 4173   6.959   7.457  10.739 -0.1883  0.3063  0.0228
  655W        W 4174   5.272   0.382  11.335  0.3656 -0.5255 -0.0498
  656W        W 4175   5.598   8.207  11.838  0.0207  0.3188 -0.0438
  657W        W 4176   2.078   2.714  12.578 -0.0853 -0.2925  0.2872
  658W        W 4177   3.556   6.099  11.288 -0.0659  0.2028 -0.1829
  659W        W 4178   1.689   9.410   0.562 -0.3441  0.1762  0.1438
  660W        W 4179   6.309   5.353   9.841 -0.0729 -0.1599  0.0240
  661W        W 4180   9.389   3.815  10.117  0.5014 -0.1706 -0.4188
  662W        W 4181   5.977   6.470   9.018  0.0922  0.1065  0.2576
  663W        W 4182   1.940   2.602   2.641  0.0684  0.0198  0.0182
  664W        W 4183   2.468   6.643  11.912  0.2710 -0.3793 -0.3311
  665W        W 4184   7.621   5.485  10.369  0.0499 -0.1522 -0.0624
  666W        W 4185   4.915   0.017  11.466 -0.2102  0.1501 -0.2585
  667W        W 4186   0.371   7.232   4.122 -0.1283 -0.0046  0.1667
  668W        W 4187   9.390   7.969   0.989 -0.1920  0.2150  0.1027
  669W        W 4188   0.427   1.212  12.453  0.3781 -0.0095 -0.1710
  670W        W 4189   0.872   8.357   2.316  0.0149  0.1050 -0.2168
  671W        W 4190   2.264   0.567   2.094  0.2271  0.2318  0.4402
  672W        W 4191   4.775   4.360   0.763 -0.3861 -0.1998 -0.4116
  673W        W 4192   5.514   1.680   9.002 -0.2247 -0.0604 -0.1689
  674W        W 4193   0.397   5.658   8.619 -0.1400  0.0342  0.0951
  675W        W 4194   2.076   2.054  10.700  0.4096  0.3088 -0.0810
  676W        W 4195   2.674   9.601  10.776  0.2055 -0.0629  0.0151
  677W        W 4196   1.283   1.397   0.110 -0.0510 -0.1293  0.0170
  678W        W 4197   5.167   3.287  10.923  0.1017 -0.3350 -0.3115
  679W        W 4198   2.269   8.411   3.532 -0.0268 -0.0910 -0.2402
  680W        W 4199   4.926   6.549   3.232  0.0703  0.2483 -0.1365
  681W        W 4200   5.317   6.810   3.529  0.0475 -0.1219 -0.0231
  682W        W 4201   8.083   5.539   9.631 -0.0658 -0.1659  0.0039
  683W        W 4202   5.175   6.459   8.493  0.1297  0.4224 -0.0391
  684W        W 4203   6.214   6.345   9.418 -0.3013  0.0771  0.0919
  685W        W 4204   3.876   1.730   2.273 -0.2561  0.1285 -0.2279
  686W        W 4205   3.505   5.048   9.351 -0.1216 -0.1086 -0.0670
  687W        W 4206   0.523   8.396  10.930  0.1616  0.0145  0.0695
  688W        W 4207   4.461   4.122  12.011  0.1777 -0.1640 -0.0034
  689W        W 4208   1.636   4.438   8.463 -0.1092  0.1053 -0.1066
  690W        W 4209   0.904   1.553  12.347  0.1630  0.2316 -0.0220
  691W        W 4210   2.873   0.818   9.417 -0.4042  0.0116  0.0253
  692W        W 4211   6.230   9.052  12.324  0.2806  0.2296 -0.0848
  693W        W 4212   7.127   4.310   0.574  0.2972  0.5646  0.0746
  694W        W 4213   6.587   4.434   0.304  0.1311  0.0685 -0.0946
  695W        W 4214   2.972   8.079  10.792  0.3600 -0.0914 -0.0551
  696W        W 4215   0.317   7.991   4.138 -0.0974 -0.1516  0.0795
  697W        W 4216   4.341   2.693  10.046  0.1087  0.2482  0.0052
  698W        W 4217   4.941   8.415  10.501 -0.1276  0.0714  0.0286
  699W        W 4218   1.304   5.277   1.393 -0.0303  0.0756 -0.0140
  700W        W 4219   4.365   4.895   3.462  0.0922 -0.0650 -0.2383
  701W        W 4220   5.841   3.196  11.706 -0.0409 -0.2158  0.2834
  702W        W 4221   1.414   3.747   2.180 -0.0182  0.1393  0.0559
  703W        W 4222   1.516   4.116   1.734 -0.1342 -0.2600 -0.0430
  704W        W 4223   9.057   5.757   4.011 -0.3319 -0.0826 -0.2812
  705W        W 4224   7.625   5.367   3.948 -0.1618 -0.2316  0.1383
  706W        W 4225   7.457   0.018  12.442 -0.0244 -0.3751 -0.1938
  707W        W 4226   6.688   3.225  10.408  0.0608 -0.1125  0.4052
  708W        W 4227   6.968   0.219   1.226 -0.0266 -0.0384  0.0297
  709W        W 4228   5.617   9.318   9.437  0.3063  0.4782 -0.3211
  710W        W 4229   8.889   6.365   3.209 -0.1755  0.0677  0.2740
  711W        W 4230   4.800   2.992   9.823 -0.1422  0.1683  0.0548
  712W        W 4231   8.035   3.937   3.740 -0.0400  0.0443 -0.0555
  713W        W 4232   2.832   8.429   1.904 -0.3674 -0.0934 -0.2807
  714W        W 4233   2.899   4.279   4.022 -0.1386  0.1853 -0.2072
  715W        W 4234   2.910   0.022   2.810  0.0634 -0.1029 -0.3217
  716W        W 4235   7.797   0.332   3.844 -0.0876  0.1593 -0.2050
  717W        W 4236   8.983   8.320   3.080 -0.0906 -0.0319 -0.0315
  718W        W 4237   9.193   4.257   4.187  0.1128 -0.0838 -0.0759
  719W        W 4238   3.929   8.596   8.760  0.0615  0.3743  0.0158
  720W        W 4239   1.228   4.579   2.415 -0.2223 -0.1643  0.3182
  721W        W 4240   0.878   5.084   1.225 -0.0173  0.2497 -0.1837
  722W        W 4241   1.755   4.894  10.727  0.1063  0.3954 -0.2943
  723W        W 4242   0.724   3.262  11.006 -0.0331  0.0534  0.0516
  724W        W 4243   5.666   5.390  10.446 -0.2576  0.1812  0.0170
  725W        W 4244   4.223   4.038   8.615  0.1875 -0.2412 -0.1281
  726W        W 4245   7.811   3.788  10.498 -0.0795 -0.0970 -0.1134
  727W        W 4246   7.863   4.930  10.386  0.0888 -0.1440  0.2647
  728W        W 4247   7.697   2.235   9.304 -0.0562  0.2342 -0.1785
  729W        W 4248   6.787   3.725  10.162  0.1003 -0.3132  0.2201
  730W        W 4249   5.428   3.294   0.024  0.2785 -0.1116  0.1635
  731W        W 4250   1.219   1.554   2.444  0.1598  0.3831  0.1595
  732W        W 4251   1.627   0.476   0.958  0.2630 -0.0868 -0.0114
  733W        W 4252   3.314   3.109  12.589 -0.1382 -0.1701 -0.0416
  734W        W 4253   6.823   6.480   2.302  0.1089 -0.1030  0.2127
  735W        W 4254   3.628   5.390   1.162  0.1174 -0.2166 -0.0824
  736W        W 4255   2.389   6.964   1.340 -0.0417 -0.1371  0.1448
  737W        W 4256   7.345   5.765   2.436 -0.2944  0.0027 -0.3407
  738W        W 4257   8.317   9.235   9.754  0.0032 -0.1098 -0.1572
  739W        W 4258   4.756   6.142  11.298  0.4974 -0.1871 -0.0424
  740W        W 4259   4.444   1.233   0.658  0.3806 -0.0722  0.3003
  741W        W 4260   3.887   6.829   4.058  0.0175  0.1051  0.1752
  742W        W 4261   5.116   5.700  10.051 -0.1112 -0.3665  0.3184
  743W        W 4262   7.034   8.140   1.919 -0.3440  0.1829  0.1409
  744W        W 4263   9.094   3.942   3.259 -0.3830  0.0574  0.2752
  745W        W 4264   9.475   5.418   9.238  0.0846  0.1990 -0.1438
  746W        W 4265   0.107   5.373   2.774  0.2434  0.0891  0.4428
  747W        W 4266   9.546   1.170   9.953  0.0552  0.1022  0.1377
  748W        W 4267   4.883   9.659   2.517 -0.2018  0.0836 -0.1216
  749W        W 4268   5.694   4.647   8.789  0.1066 -0.0003 -0.0710
  750W        W 4269   3.321   8.795   0.507  0.1037 -0.0975  0.0230
  751W        W 4270   0.442   8.558   4.434 -0.0691 -0.0962  0.0161
  752W        W 4271   2.343   0.616   9.969  0.1036 -0.1712  0.0146
  753W        W 4272   8.645   8.674   9.933  0.1094  0.1460  0.1010
  754W        W 4273   9.190   6.399   0.209 -0.1330 -0.1174  0.0566
  755W        W 4274   2.929   2.743   3.000 -0.0020  0.0188 -0.0378
  756W        W 4275   3.324   6.947  10.227 -0.0452  0.2919 -0.1553
  757W        W 4276   2.394   1.757   0.821 -0.0784 -0.1009 -0.2117
  758W        W 4277   6.607   1.897   0.678 -0.0569 -0.4271  0.2042
  759W        W 4278   1.932   4.933  12.306 -0.0180 -0.0623  0.3119
  760W        W 4279   4.170   4.871   1.847 -0.2329 -0.0231 -0.0144
  761W        W 4280   9.425   1.664  10.179 -0.4197  0.0027 -0.2983
  762W        W 4281   1.543   6.038   1.927 -0.0840 -0.0447  0.1361
  763W        W 4282   3.188   3.896  12.099  0.0257 -0.0961  0.1398
  764W        W 4283   5.762   0.340   0.821 -0.1263 -0.0901 -0.0988
  765W        W 4284   8.633   1.962   9.164  0.4574 -0.2706 -0.4109
  766W        W 4285   9.021   4.492  11.166  0.0028  0.1260  0.4142
  767W        W 4286   9.002   6.178  11.643 -0.1114 -0.0927  0.0115
  768W        W 4287   0.022   3.370   4.347 -0.2893 -0.0047  0.3568
  769W        W 4288   2.112   6.546  11.161  0.2697  0.5295 -0.2402
  770W        W 4289   9.247   6.604  12.166 -0.0226 -0.0018  0.2029
  771W        W 4290   9.619   0.811   8.415 -0.1655  0.2975  0.2161
  772W        W 4291   6.578   3.395   8.804  0.1762 -0.2337 -0.0879
  773W        W 4292   6.828   4.796   0.570 -0.1126 -0.1243  0.0802
  774W        W 4293   9.052   1.692   2.205 -0.2486  0.0629  0.0543
  775W        W 4294   2.400   8.769  12.461  0.0285  0.2736 -0.1932
  776W        W 4295   3.459   1.336   3.023 -0.0520 -0.3164  0.2143
  777W        W 4296   6.399   1.141   1.479  0.0333 -0.2118  0.1817
  778W        W 4297   1.197   9.069  11.804  0.0769  0.1223 -0.1498
  779W        W 4298   0.179   9.542  10.078  0.1087  0.1214  0.1364
  780W        W 4299   9.120   8.915   9.077  0.1765 -0.2165  0.1119
  781W        W 4300   4.442   2.677   2.918  0.0700 -0.0880  0.2519
  782W        W 4301   2.707   0.461  10.405 -0.2772  0.3276  0.2007
  783W        W 4302   4.277   0.202   0.115 -0.2492  0.0316  0.0052
  784W        W 4303   6.760   8.778  11.935  0.1974 -0.0130 -0.0745
  785W        W 4304   2.752   0.908  12.580 -0.2227  0.2587  0.0664
  786W        W 4305   6.873   6.170   3.797  0.1928 -0.1992  0.0677
  787W        W 4306   4.957   1.319   3.094 -0.0246 -0.0364  0.0800
  788W        W 4307   8.834   5.998   9.383 -0.0141 -0.1500 -0.1451
  789W        W 4308   0.496   0.309  10.825 -0.2150  0.1005 -0.0444
  790W        W 4309   0.817   7.828   2.022  0.2273  0.1374 -0.3035
  791W        W 4310   0.493   6.486   2.983 -0.2512 -0.1152 -0.0459
  792W        W 4311   8.151   1.065   0.164 -0.0768  0.0144  0.1540
  793W        W 4312   9.215   3.495   3.423  0.3507  0.0800  0.0950
  794W        W 4313   3.118   6.628   3.213 -0.2157 -0.1791  0.4964
  795W        W 4314   3.204   8.131   9.757 -0.0230  0.0769  0.1091
  796W        W 4315   5.474   3.030  12.053 -0.1408 -0.2795  0.1194
  797W        W 4316   2.013   4.979   8.525  0.1385  0.1188  0.1081
  798W        W 4317   3.784   9.430  10.249 -0.1506  0.1657 -0.0582
  799W        W 4318   9.453   7.246   3.578 -0.2945  0.3958 -0.0296
  800W        W 4319   2.363   6.360   4.086  0.0431  0.0477 -0.2037
  801W        W 4320   1.413   8.119   8.904  0.1554 -0.0714 -0.1582
  802W        W 4321   8.526   4.761   9.823 -0.0399 -0.0425  0.1324
  803W        W 4322   8.509   9.374   1.752 -0.1472  0.0343  0.0587
  804W        W 4323   6.646   7.264   0.453  0.1050  0.0444 -0.2058
  805W        W 4324   8.090   5.115   0.253 -0.3459 -0.0454  0.0221
  806W        W 4325   4.918   5.078  10.337  0.3909 -0.0118  0.1249
  807W        W 4326   1.669   5.254   1.002 -0.2604 -0.0635  0.1132
  808W        W 4327   2.374   6.457   9.444  0.1281  0.0640  0.0713
  809W        W 4328   1.760   2.705   9.556 -0.0571  0.0228 -0.0756
  810W        W 4329   1.102   2.830   3.211 -0.1356  0.2479 -0.0301
  811W        W 4330   1.883   0.948   8.046  0.0506  0.1505 -0.0784
  812W        W 4331   4.604   0.549  11.551 -0.0653  0.0262 -0.3856
  813W        W 4332   4.858   6.952   2.529  0.0277  0.2113  0.0706
  814W        W 4333   7.830   6.820  10.759  0.0525 -0.1906  0.2264
  815W        W 4334   7.979   7.240  11.702 -0.0887  0.1261 -0.2043
  816W        W 4335   1.530   4.242  11.301  0.0497  0.0084 -0.0754
  817W        W 4336   9.484   0.646   0.530  0.0848 -0.1384  0.0946
  818W        W 4337   7.756   0.310   0.939  0.0993  0.4128 -0.3019
  819W        W 4338   8.607   5.504  10.267 -0.2390  0.1385 -0.0354
  820W        W 4339   0.680   2.533   3.062  0.2108  0.3501 -0.1153
  821W        W 4340   1.326   7.914   1.810 -0.4044  0.2234 -0.0299
  822W        W 4341   7.814   3.277   1.852  0.0394 -0.2057  0.0173
  823W        W 4342   1.432   1.795   9.417  0.0906 -0.0133  0.2705
  824W        W 4343   6.793   5.849   4.195  0.0316  0.0302  0.0968
  825W        W 4344   5.321   6.940   0.688 -0.3103 -0.1561  0.0454
  826W        W 4345   4.773   4.047  11.211  0.5629 -0.0488  0.0066
  827W        W 4346   3.541   0.076   9.447 -0.5790  0.2928  0.3432
  828W        W 4347   9.215   8.351   2.076 -0.2661  0.1532 -0.1029
  829W        W 4348   0.172   8.357   0.092  0.1161  0.4879  0.1329
  830W        W 4349   6.496   2.791   1.568 -0.0350  0.2365 -0.0078
  831W        W 4350   5.447   6.236  11.911  0.1512  0.0496  0.2587
  832W        W 4351   8.283   0.487   0.059 -0.0327  0.1113 -0.1201
  833W        W 4352   3.168   3.947   3.125  0.1472  0.0754  0.0640
  834W        W 4353   8.162   4.470   2.464 -0.0203  0.1734 -0.1382
  835W        W 4354   6.834   1.370   1.362 -0.0117  0.1680 -0.0599
  836W        W 4355   7.841   2.599   9.819 -0.2267 -0.0893  0.0566
  837W        W 4356   3.505   1.898  12.400  0.2299  0.0471  0.4696
  838W        W 4357   7.425   1.123   1.183 -0.0362 -0.2006 -0.2013
  839W        W 4358   2.622   2.848   0.030 -0.0199  0.1599  0.1983
  840W        W 4359   6.414   5.326   2.604 -0.1158 -0.0993  0.2057
  841W        W 4360   1.839   8.118   3.893  0.1027  0.0208  0.0888
  842W        W 4361   2.130   4.816  11.852 -0.1364 -0.2102 -0.2106
  843W        W 4362   3.698   5.985   0.533 -0.4363  0.2426  0.2198
  844W        W 4363   2.120   8.110  11.385 -0.4309  0.0967 -0.4804
  845W        W 4364   1.244   3.550   0.261 -0.1216 -0.2002 -0.0826
  846W        W 4365   6.006   9.154  11.886  0.0826  0.0327 -0.2452
  847W        W 4366   9.191   7.955  11.035 -0.2445 -0.0696 -0.0897
  848W        W 4367   8.975   4.216  11.606  0.1594 -0.0750 -0.1405
  849W        W 4368   9.172   3.376   0.332  0.0288  0.3169  0.3267
  850W        W 4369   2.128   1.730   8.706 -0.0865 -0.0716 -0.0447
  851W        W 4370   0.632   8.069  10.516 -0.1426 -0.3568 -0.0565
  852W        W 4371   0.949   6.849   9.585 -0.3736 -0.2226  0.2585
  853W        W 4372   0.779   9.242  12.159 -0.0291  0.1520  0.1952
  854W        W 4373   1.583   1.853   2.224 -0.0439 -0.0602  0.1456
  855W        W 4374   2.193   6.339  11.666 -0.0458  0.0341  0.2417
  856W        W 4375   1.651   3.213   1.458 -0.1445  0.1260 -0.1577
  857W        W 4376   8.909   3.764  11.423 -0.1048  0.0947  0.2176
  858W        W 4377   5.970   5.129   4.305 -0.1815  0.0761  0.0362
  859W        W 4378   1.613   0.929   0.656 -0.0901  0.3870 -0.1721
  860W        W 4379   0.052   8.438   1.238 -0.3258  0.0238  0.0030
  861W        W 4380   4.856   0.045   0.852 -0.1860  0.1806  0.0326
  862W        W 4381   8.785   2.133   2.379 -0.5764  0.0548 -0.2937
  863W        W 4382   4.965   6.189   1.071  0.1357  0.2014  0.1282
  864W        W 4383   2.037   0.541   3.836 -0.0743  0.0752  0.2156
  865W        W 4384   4.417   9.267  10.218  0.0802  0.0607 -0.0406
  866W        W 4385   5.103   2.816  12.269  0.0642 -0.1430  0.0892
  867W        W 4386   8.137   6.487   9.212  0.1476 -0.0735 -0.2085
  868W        W 4387   0.311   4.130   1.523 -0.2362  0.1945 -0.0076
  869W        W 4388   8.157   4.701  12.041 -0.0729  0.1448  0.0315
  870W        W 4389   1.572   3.804   8.504 -0.0575  0.1120  0.2431
  871W        W 4390   5.467   2.442   0.415  0.0318  0.2063 -0.1232
  872W        W 4391   1.012   8.883   1.788 -0.1368  0.1387 -0.1856
  873W        W 4392   3.979   5.581   2.087  0.4176  0.0176 -0.0051
  874W        W 4393   0.495   3.689  11.228 -0.0238  0.2603 -0.0925
  875W        W 4394   9.029   1.636   9.193 -0.2530  0.2947  0.0225
  876W        W 4395   7.399   6.588   3.171  0.1686  0.0900  0.0151
  877W        W 4396   3.671   4.778   9.919  0.1889  0.1500 -0.0930
  878W        W 4397   6.090   4.275   9.696  0.0049  0.1263 -0.3106
  879W        W 4398   2.998   8.045   1.654 -0.1738  0.3728  0.3119
  880W        W 4399   6.544   5.152   3.122  0.1298  0.0425 -0.2667
  881W        W 4400   0.501   5.845   0.334  0.0282  0.1581  0.2315
  882W        W 4401   0.958   7.402   9.546 -0.1347  0.2556  0.3790
  883W        W 4402   1.628   0.233   3.814  0.1400 -0.0741  0.0517
  884W        W 4403   6.561   8.566   2.039 -0.1386 -0.0514 -0.4058
  885W        W 4404   0.241   9.416   2.583 -0.3388  0.3046 -0.2644
  886W        W 4405   9.470   6.760   9.729 -0.0622 -0.2158 -0.0594
  887W        W 4406   1.071   7.480   9.015  0.1099 -0.2148  0.0009
  888W        W 4407   1.208   3.454   1.640  0.1135  0.1039  0.0505
  889W        W 4408   4.901   8.655   0.539 -0.1039  0.0443 -0.1392
  890W        W 4409   2.509   0.615  11.222 -0.0206 -0.3832 -0.4311
  891W        W 4410   2.502   3.598   0.416 -0.0891 -0.0236 -0.1904
  892W        W 4411   8.919   1.921   4.878 -0.1275 -0.0735 -0.0169
  893W        W 4412   0.786   1.212  11.639 -0.3399  0.0605 -0.1506
  894W        W 4413   0.018   4.992  10.984  0.0718  0.3166 -0.2887
  895W        W 4414   1.750   8.109   0.994  0.1543 -0.1416  0.2338
  896W        W 4415   7.946   5.992   8.244 -0.0150  0.3528 -0.0366
  897W        W 4416   8.506   5.341   9.809 -0.2534  0.4946  0.0404
  898W        W 4417   3.595   0.528   2.096  0.0699  0.1837 -0.1125
  899W        W 4418   8.353   8.164  10.536  0.0531  0.0038  0.3993
  900W        W 4419   7.497   4.918   2.819 -0.3627 -0.1396 -0.1563
  901W        W 4420   8.487   9.068   3.364  0.5164  0.0241 -0.1882
  902W        W 4421   6.038   6.012  10.507 -0.2906  0.1700 -0.0826
  903W        W 4422   3.484   9.012   0.986 -0.2983  0.0263  0.1982
  904W        W 4423   8.804   5.573   0.703 -0.3007  0.0491  0.1255
  905W        W 4424   0.943   4.473   0.637 -0.0381 -0.0679 -0.0700
  906W        W 4425   6.166   1.046   2.385  0.0261 -0.0424  0.1237
  907W        W 4426   7.729   2.400  12.313 -0.0077 -0.2895  0.3139
  908W        W 4427   1.397   3.474   4.084 -0.2682 -0.0971  0.0654
  909W        W 4428   5.718   1.785  10.262 -0.2500  0.0279  0.2032
  910W        W 4429   1.636   6.828  10.342  0.2658 -0.0984  0.1296
  911W        W 4430   0.606   0.270   1.215  0.0780 -0.0882  0.1107
  912W        W 4431   2.454   5.868   9.423  0.4497  0.3525 -0.2085
  913W        W 4432   1.478   4.557   3.703 -0.0300 -0.2477 -0.0122
  914W        W 4433   4.096   1.790   8.657 -0.1972  0.0698 -0.2187
  915W        W 4434   6.615   7.575   9.258 -0.1564  0.2243  0.2362
  916W        W 4435   3.588   2.962  11.624  0.2175  0.2211  0.0438
  917W        W 4436   7.947   2.530   3.089 -0.2488 -0.0182 -0.1715
  918W        W 4437   7.019   5.026   1.996 -0.0180 -0.0054  0.1648
  919W        W 4438   5.479   1.503   1.588  0.0312  0.2213 -0.1166
  920W        W 4439   5.467   5.179   3.083 -0.1821  0.0460  0.3732
  921W        W 4440   2.791   8.579  10.444 -0.2763  0.2609 -0.1080
  922W        W 4441   3.460   4.303   9.957 -0.0164  0.0132  0.1347
  923W        W 4442   2.452   4.426   4.025  0.0761  0.0596 -0.1447
  924W        W 4443   1.811   4.254  10.347  0.0001 -0.0947 -0.0365
  925W        W 4444   8.281   7.317   0.687 -0.0999  0.2673 -0.1824
  926W        W 4445   5.712   8.200   1.851 -0.0522  0.0929  0.1500
  927W        W 4446   8.067   5.988  10.320 -0.2842 -0.2369 -0.1487
  928W        W 4447   1.648   9.624  12.569  0.2657  0.3684 -0.1468
  929W        W 4448   4.783   9.673   9.946 -0.0554  0.0802 -0.1615
  930W        W 4449   0.610   2.883   1.145  0.1272  0.2317 -0.2575
  931W        W 4450   2.236   1.765  10.135  0.1377 -0.1308 -0.1452
  932W        W 4451   2.115   0.763  10.875  0.2685 -0.0577 -0.1050
  933W        W 4452   0.575   4.029   1.957 -0.0499  0.2461 -0.2835
  934W        W 4453   9.188   3.342   9.274 -0.1132 -0.1590 -0.0098
  935W        W 4454   8.921   2.115   1.608 -0.1908 -0.1737 -0.0274
  936W        W 4455   4.606   1.774  10.675 -0.4934 -0.3304 -0.2315
  937W        W 4456   6.734   4.900   9.668 -0.2667 -0.1592 -0.0822
  938W        W 4457   5.412   1.479   9.761  0.0764  0.0920  0.0232
  939W        W 4458   0.558   4.073  11.724  0.2541 -0.3891 -0.0470
  940W        W 4459   7.093   0.815   9.537 -0.1030 -0.1365 -0.1489
  941W        W 4460   0.477   0.681  12.579 -0.0680 -0.1729  0.0682
  942W        W 4461   0.994   3.843  11.904 -0.0370  0.0414  0.0740
  943W        W 4462   7.580   4.441   0.810 -0.1873 -0.1717 -0.0986
  944W        W 4463   8.152   0.032   9.621 -0.3914  0.0534  0.0278
  945W        W 4464   8.933   8.275   1.025  0.1185  0.0758 -0.0887
  946W        W 4465   7.344   7.276  10.321 -0.1120 -0.1476  0.0709
  947W        W 4466   4.390   3.484   1.800 -0.1031 -0.0675  0.2221
  948W        W 4467   0.823   6.398   0.877  0.0626 -0.2018  0.0596
  949W        W 4468   0.900   0.731  11.343 -0.1061  0.2350 -0.2687
  950W        W 4469   5.730   2.293  10.066 -0.0748  0.0647  0.3245
  951W        W 4470   7.039   4.860   1.516 -0.1228  0.1306  0.3339
  952W        W 4471   9.240   8.684  11.532 -0.1829  0.1265  0.1835
  953W        W 4472   8.246   7.990  11.182 -0.1540  0.0793 -0.1199
  954W        W 4473   4.894   7.848   3.037  0.2652 -0.1376 -0.1265
  955W        W 4474   7.006   9.000  10.030 -0.1026  0.2683 -0.0693
  956W        W 4475   3.039   4.975   0.391  0.0080  0.2423  0.0336
  957W        W 4476   7.849   3.859   3.185  0.2208 -0.2205  0.3294
  958W        W 4477   1.284   7.341  11.269  0.2394  0.0253 -0.0716
  959W        W 4478   7.983   1.986   3.228 -0.0686 -0.0273  0.0444
  960W        W 4479   7.412   2.338   1.660 -0.0824  0.0522  0.2762
  961W        W 4480   2.955   3.235  10.796  0.1041 -0.1652 -0.3209
  962W        W 4481   8.410   1.861   8.636 -0.2801 -0.0180 -0.2281
  963W        W 4482   7.116   9.391  11.245  0.1983 -0.0118 -0.0685
  964W        W 4483   2.509   3.673  12.550 -0.3284 -0.0669  0.2579
  965W        W 4484   0.256   8.162   3.207  0.0253  0.0366 -0.2568
  966W        W 4485   9.265   4.959  11.229 -0.2984  0.1910 -0.2108
  967W        W 4486   9.547   0.045  12.136  0.1028  0.2681  0.0053
  968W        W 4487   0.399   3.514   4.026  0.0546  0.0975  0.1553
  969W        W 4488   3.827   3.555   0.659  0.6121 -0.0312  0.2788
  970W        W 4489   8.458   3.099   3.116 -0.5179  0.0207 -0.2369
  971W        W 4490   6.729   0.033   0.458 -0.2674 -0.2917  0.2295
  972W        W 4491   7.709   1.975   1.565  0.1675  0.3983 -0.0550
  973W        W 4492   7.585   2.671   4.102  0.0657 -0.0071 -0.2524
  974W        W 4493   1.894   8.928   4.289 -0.4652  0.0437  0.0536
  975W        W 4494   2.986   5.745  11.822  0.1554  0.0953  0.0304
  976W        W 4495   6.572   5.740  12.162 -0.3240  0.0882 -0.2712
  977W        W 4496   7.668   6.864   2.444  0.1034  0.1911  0.0345
  978W        W 4497   4.872   3.921   0.552  0.1060 -0.1495  0.0047
  979W        W 4498   3.568   0.352   3.068  0.1271 -0.0773 -0.1060
  980W        W 4499   6.344   8.923  11.577 -0.1466 -0.0857 -0.0758
  981W        W 4500   3.063   2.161   3.680  0.0126 -0.0122  0.1669
  982W        W 4501   6.280   9.356  10.614  0.0586 -0.0125  0.1325
  983W        W 4502   7.993   7.097   0.323 -0.2665 -0.0183 -0.1818
  984W        W 4503   4.705   5.534  10.522 -0.0651  0.3659 -0.1420
  985W        W 4504   7.545   3.847   3.888 -0.0972  0.1290  0.1137
  986W        W 4505   6.401   5.698  10.769  0.1280 -0.1613  0.2293
  987W        W 4506   6.241   7.379  11.317  0.2083 -0.0872  0.1576
  988W        W 4507   1.238   8.898  12.262 -0.0391 -0.2824 -0.3763
  989W        W 4508   6.642   4.122   2.301  0.0913 -0.0178 -0.1314
  990W        W 4509   8.407   1.619   0.260 -0.1987 -0.0714 -0.2362
  991W        W 4510   8.391   2.539   1.484  0.0657  0.0713  0.1569
  992W        W 4511   1.217   3.007   3.662  0.0532 -0.2140 -0.0977
  993W        W 4512   0.711   6.391   9.876 -0.0854  0.0760 -0.1570
  994W        W 4513   5.063   3.789   1.106  0.0143 -0.2078 -0.0146
  995W        W 4514   9.352   3.439   9.766 -0.1309  0.1034  0.1129
  996W        W 4515   4.893   2.215  10.767  0.0321  0.3474  0.3635
  997W        W 4516   3.837   6.131  11.750 -0.3786 -0.1609  0.2026
  998W        W 4517   8.189   5.773   2.715 -0.4022  0.1947 -0.1539
  999W        W 4518   2.313   2.317  12.390  0.0892 -0.2937  0.1575
 1000W        W 4519   7.511   7.402   2.113 -0.0406  0.1547 -0.2010
 1001W        W 4520   1.088   3.509   3.736  0.2328 -0.0605 -0.3096
 1002W        W 4521   1.337   4.257  10.117  0.2017  0.2807 -0.1842
 1003W        W 4522   4.804   9.555  10.484 -0.0787  0.1413  0.0939
 1004W        W 4523   6.059   6.920  11.457  0.4238 -0.0147 -0.0268
 1005W        W 4524   2.963   4.093  10.227 -0.0713 -0.2046  0.1477
 1006W        W 4525   4.468   1.598   3.247  0.0577  0.0125  0.0619
 1007W        W 4526   1.643   6.618  10.891  0.0018  0.1322 -0.1163
 1008W        W 4527   7.570   9.439   2.427 -0.0573 -0.1109 -0.2008
 1009W        W 4528   5.639   0.162  12.412  0.1050 -0.1169 -0.0087
 1010W        W 4529   8.378   3.272   9.079  0.2026  0.0211 -0.0583
 1011W        W 4530   4.992   1.004   1.057  0.0453 -0.0774 -0.2282
 1012W        W 4531   9.271   8.689   2.961  0.1451 -0.3374 -0.0699
 1013W        W 4532   5.068   4.211  10.843 -0.0171  0.2213 -0.1334
 1014W        W 4533   8.047   1.531  12.530 -0.0960 -0.2084 -0.2532
 1015W        W 4534   5.262   2.361   1.977  0.2448  0.1537 -0.4163
 1016W        W 4535   7.587   3.711   4.417 -0.0129 -0.0186  0.0976
 1017W        W 4536   1.553   2.249   1.184  0.2239 -0.1034 -0.1312
 1018W        W 4537   7.798   7.912  11.735 -0.2026 -0.0007 -0.2188
 1019W        W 4538   1.560   6.683   1.361  0.1059 -0.2823  0.0073
 1020W        W 4539   7.915   8.220  12.498 -0.1271 -0.1356 -0.0317
 1021W        W 4540   1.082   7.057   2.899 -0.2906 -0.0974 -0.0049
 1022W        W 4541   4.874   3.345   1.859  0.1158  0.0150 -0.1106
 1023W        W 4542   1.631   5.788   3.708 -0.4411  0.0702 -0.0633
 1024W        W 4543   3.147   4.683  12.458 -0.0964  0.0147 -0.1637
 1025W        W 4544   6.395   0.922   0.361 -0.0859 -0.0405  0.0372
 1026W        W 4545   2.807   8.675  11.127 -0.0001  0.1219 -0.0776
 1027W        W 4546   7.749   1.227   0.401 -0.0673  0.2504  0.0098
 1028W        W 4547   5.348   2.923  11.596 -0.1345 -0.1774 -0.1031
 1029W        W 4548   0.540   3.487   1.897  0.1168  0.0907  0.1903
 1030W        W 4549   3.215   1.759   4.561 -0.0529 -0.1862 -0.1230
 1031W        W 4550   3.748   6.415   9.568 -0.0242 -0.2281  0.0212
 1032W        W 4551   9.039   1.671   3.710 -0.1213 -0.0434  0.3513
 1033W        W 4552   5.494   7.107  10.987  0.3547 -0.0682  0.3787
 1034W        W 4553   6.831   5.365   1.691  0.2748  0.1537 -0.1099
 1035W        W 4554   7.430   4.087   2.933  0.2724 -0.2292 -0.4178
 1036W        W 4555   6.012   3.274  10.791 -0.0146  0.2883 -0.2593
 1037W        W 4556   3.334   8.368   1.514  0.2887  0.1935 -0.1786
 1038W        W 4557   4.568   6.896   0.474 -0.2481 -0.2621 -0.0281
 1039W        W 4558   2.220   3.696   1.716 -0.2483 -0.0613  0.2695
 1040W        W 4559   0.698   4.554   4.917  0.0990 -0.1304  0.1018
 1041W        W 4560   8.028   9.142   3.197 -0.0393  0.1932 -0.1161
 1042W        W 4561   9.211   8.896   2.118  0.0869 -0.2647 -0.0901
 1043W        W 4562   1.513   7.285   9.932 -0.0622  0.2210 -0.1977
 1044W        W 4563   1.308   0.155   2.072  0.0608  0.1676 -0.0833
 1045W        W 4564   7.470   5.963   4.794 -0.0275 -0.1986 -0.1152
 1046W        W 4565   3.067   5.943   9.978 -0.1753 -0.0390  0.1685
 1047W        W 4566   6.721   6.584   9.445 -0.0224  0.0186  0.1567
 1048W        W 4567   7.197   7.212   1.701  0.0929  0.2368  0.0091
 1049W        W 4568   6.616   8.993  10.345  0.1800  0.0748 -0.5132
 1050W        W 4569   0.677   2.288   3.488 -0.1791  0.0289  0.0686
 1051W        W 4570   6.713   8.453   0.290 -0.0237 -0.0296 -0.2201
 1052W        W 4571   3.514   5.689   2.656  0.0194  0.0672  0.4171
 1053W        W 4572   3.488   5.570   8.532 -0.2514 -0.1038  0.3795
 1054W        W 4573   9.159   7.420  11.216  0.2714  0.2475  0.0239
 1055W        W 4574   7.629   9.173   1.515  0.0451 -0.0000  0.3504
 1056W        W 4575   8.647   3.033   1.527 -0.2038 -0.0167  0.0507
 1057W        W 4576   1.637   1.776   2.759 -0.0963  0.1655  0.2894
 1058W        W 4577   6.591   0.495   3.028 -0.0828 -0.1237 -0.0643
 1059W        W 4578   9.064   9.029  12.486  0.4201  0.0092  0.1612
 1060W        W 4579   4.420   4.084   2.190 -0.1148  0.1166 -0.0828
 1061W        W 4580   8.545   3.538  12.122 -0.0699  0.2449  0.3406
 1062W        W 4581   7.347   2.960   2.943  0.0705  0.1492  0.2267
 1063W        W 4582   6.076   8.552   1.676  0.1692  0.0126  0.0480
 1064W        W 4583   0.464   6.031   9.711  0.2235  0.1708  0.1293
 1065W        W 4584   3.081   8.003  10.264  0.1241 -0.0030 -0.1639
 1066W        W 4585   0.750   7.374   2.547  0.0692  0.0802  0.2713
 1067W        W 4586   5.027   2.813   2.462 -0.3234 -0.3679  0.0671
 1068W        W 4587   2.525   4.611   9.480  0.0689  0.0579  0.1224
 1069W        W 4588   9.316   5.828   1.060 -0.0967  0.2895 -0.0749
 1070W        W 4589   9.032   8.864   2.586  0.0210 -0.2382  0.3496
 1071W        W 4590   2.672   5.279  10.682 -0.2520  0.2376  0.3010
 1072W        W 4591   9.563   4.206   3.364  0.0290  0.0802 -0.1837
 1073W        W 4592   8.746   1.591   9.553 -0.2294 -0.1657 -0.3497
 1074W        W 4593   6.021   3.882   9.349  0.1533  0.0489 -0.0466
 1075W        W 4594   0.266   1.284   3.796 -0.1710  0.0160  0.3249
 1076W        W 4595   9.655   3.562   0.181  0.0717  0.2816 -0.0873
 1077W        W 4596   4.232   6.481   4.263  0.0779  0.0368 -0.0909
 1078W        W 4597   0.183   7.448   1.399  0.0027 -0.0376 -0.0557
 1079W        W 4598   5.845   0.719   2.228  0.0370  0.1354 -0.1552
 1080W        W 4599   3.165   2.590   3.457 -0.0359  0.1710 -0.1714
 1081W        W 4600   9.495   8.660   2.437  0.2692 -0.0958 -0.1176
 1082W        W 4601   1.296   2.099   3.738 -0.4389 -0.0263  0.4084
 1083W        W 4602   1.026   6.534  10.943  0.0178 -0.1425 -0.3444
 1084W        W 4603   1.265   3.242   2.495 -0.3066  0.0667  0.3886
 1085W        W 4604   4.661   3.074  10.403  0.1073  0.3706  0.4543
 1086W        W 4605   6.356   1.575  12.412  0.2933  0.1548 -0.1207
 1087W        W 4606   7.449   4.762   8.100  0.1100 -0.0652  0.1233
 1088W        W 4607   6.951   4.333  11.750  0.0314  0.1625  0.2990
 1089W        W 4608   6.576   0.519   1.144  0.2468  0.2109  0.1879
 1090W        W 4609   6.149   6.364  11.498  0.3729 -0.1667 -0.0641
 1091W        W 4610   4.583   5.910   4.190 -0.1522  0.1923 -0.0413
 1092W        W 4611   0.677   0.800  10.375  0.0210 -0.1369  0.0683
 1093W        W 4612   4.338   4.584  10.631  0.0452  0.2041  0.0641
 1094W        W 4613   0.271   6.595   3.801  0.3714 -0.1422 -0.0595
 1095W        W 4614   8.334   4.247   1.127  0.0882  0.0346 -0.0032
 1096W        W 4615   7.470   6.665   1.584 -0.0476 -0.0814 -0.2121
 1097W        W 4616   3.713   3.700   9.117  0.3848  0.0574 -0.2154
 1098W        W 4617   2.253   7.372  10.901  0.0497 -0.1942 -0.0545
 1099W        W 4618   8.987   3.284  10.165  0.2023 -0.3694 -0.3757
 1100W        W 4619   2.726   7.708   3.635  0.0575  0.1070  0.1172
 1101W        W 4620   2.902   0.286   0.460 -0.0672 -0.2284  0.2307
 1102W        W 4621   4.746   7.127  10.450  0.1601 -0.1951  0.1722
 1103W        W 4622   5.988   5.779  12.179 -0.1110  0.0508 -0.4120
 1104W        W 4623   4.147   5.222   0.321 -0.0630 -0.4047  0.2753
 1105W        W 4624   5.675   7.518  12.148 -0.2041  0.0517  0.0083
 1106W        W 4625   7.456   7.830   0.559 -0.2362 -0.0330 -0.3180
 1107W        W 4626   0.154   5.878   1.286  0.0212  0.0389  0.1574
 1108W        W 4627   4.808   5.439   4.629 -0.0743 -0.0446 -0.0050
 1109W        W 4628   2.900   4.812   0.820 -0.0194  0.0480  0.0061
 1110W        W 4629   3.416   7.029   2.877  0.1055 -0.1267  0.0621
 1111W        W 4630   6.679   5.501  10.359 -0.1026 -0.1531 -0.0156
 1112W        W 4631   2.274   7.955   8.994  0.0271  0.1174  0.1838
 1113W        W 4632   0.310   3.185   9.977  0.0462  0.4713  0.3214
 1114W        W 4633   2.999   6.071  10.829  0.0541 -0.1509 -0.0194
 1115W        W 4634   0.050   6.479   5.147  0.1858 -0.1495 -0.0002
 1116W        W 4635   2.752   6.121   2.204 -0.0280  0.1426 -0.0192
 1117W        W 4636   8.178   3.495   2.696 -0.1401  0.1564  0.0924
 1118W        W 4637   0.321   3.030   2.819  0.1392  0.1375 -0.1928
 1119W        W 4638   8.955   9.353   3.553 -0.0731  0.0398 -0.0945
 1120W        W 4639   0.307   0.270  12.383 -0.0158  0.0519 -0.2796
 1121W        W 4640   3.223   5.533   2.196  0.1045  0.1078 -0.0001
 1122W        W 4641   0.715   3.244  12.415 -0.0115  0.0714 -0.1603
 1123W        W 4642   2.439   0.019  11.265 -0.2983  0.0595  0.3458
 1124W        W 4643   5.935   5.637   2.457 -0.1499 -0.0027 -0.0213
 1125W        W 4644   9.081   2.222  12.408 -0.0642  0.1860  0.0507
 1126W        W 4645   3.373   3.528   0.402 -0.0268 -0.0707  0.4857
 1127W        W 4646   7.509   6.657  11.052 -0.2158  0.1906 -0.0467
 1128W        W 4647   3.805   8.377  12.293  0.1902 -0.0492 -0.4602
 1129W        W 4648   8.902   3.757   4.292 -0.2656 -0.0449  0.0961
 1130W        W 4649   4.619   4.441   4.226 -0.1518  0.1876 -0.1807
 1131W        W 4650   0.134   3.363  11.135  0.0553 -0.0453  0.0758
 1132W        W 4651   6.567   4.911   2.201  0.2387 -0.0542  0.2243
 1133W        W 4652   6.997   9.534  12.229  0.0131 -0.0572 -0.2027
 1134W        W 4653   0.916   9.421   1.949  0.0442 -0.0744 -0.2968
 1135W        W 4654   1.000   2.521   3.755 -0.2979  0.0643 -0.2177
 1136W        W 4655   7.744   5.400   1.315  0.1999  0.2400  0.1187
 1137W        W 4656   1.459   8.941   8.610  0.1295 -0.0496  0.2044
 1138W        W 4657   3.966   8.161   2.244  0.0449 -0.0904 -0.0409
 1139W        W 4658   9.295   5.486   2.813 -0.2105 -0.5098  0.0484
 1140W        W 4659   6.537   8.114   0.688 -0.3390  0.1864 -0.0532
 1141W        W 4660   8.795   1.736   0.737  0.3196  0.0265 -0.1492
 1142W        W 4661   1.503   6.204   1.440 -0.3033 -0.2933  0.0171
 1143W        W 4662   7.963   4.259   0.064  0.0754 -0.1868  0.2599
 1144W        W 4663   7.898   0.749   1.207  0.0481 -0.1186 -0.0833
 1145W        W 4664   0.659   2.077   2.928 -0.0138 -0.1407 -0.0607
 1146W        W 4665   1.770   2.164  10.316  0.2496 -0.0077 -0.1364
 1147W        W 4666   4.547   4.411   0.223  0.1382 -0.0601  0.0520
 1148W        W 4667   1.059   0.808   9.203 -0.3198 -0.1335 -0.0521
 1149W        W 4668   4.834   4.313   1.905  0.1484 -0.0676 -0.1015
 1150W        W 4669   3.441   4.940  10.323  0.2156 -0.2341 -0.0765
 1151W        W 4670   2.176   1.157   1.604 -0.2823  0.1001  0.0482
 1152W        W 4671   7.513   8.739  12.503  0.0787  0.2723 -0.2046
 1153W        W 4672   9.140   6.162   4.331 -0.2370  0.1498  0.0584
 1154W        W 4673   8.169   2.887   9.389 -0.0572  0.0043  0.1783
 1155W        W 4674   3.261   9.224   1.358 -0.1522 -0.0431  0.0721
 1156W        W 4675   4.618   2.532   8.345  0.2369 -0.1168 -0.2263
 1157W        W 4676   5.871   8.909   2.589  0.0680 -0.2129  0.1851
 1158W        W 4677   7.188   7.722  10.408 -0.0201 -0.0239 -0.3744
 1159W        W 4678   3.300   6.289   2.166 -0.1006  0.1823  0.2790
 1160W        W 4679   1.864   0.294  10.815  0.1747 -0.2173 -0.1096
 1161W        W 4680   7.584   6.146   8.498 -0.0435 -0.2637 -0.0256
 1162W        W 4681   7.264   1.056   3.539  0.1005 -0.1306 -0.0956
 1163W        W 4682   8.393   0.113   1.909 -0.2080 -0.1134  0.0925
 1164W        W 4683   0.492   1.736   1.781  0.1228  0.1939  0.3249
 1165W        W 4684   9.644   8.321   4.301 -0.0699 -0.2721  0.2398
 1166W        W 4685   1.276   7.505   0.457 -0.1957  0.3802  0.1781
 1167W        W 4686   8.191   4.968  11.059  0.1680 -0.5248  0.2424
 1168W        W 4687   9.572   9.071   2.794 -0.0334 -0.0190 -0.0938
 1169W        W 4688   2.703   5.262   0.694  0.0473  0.0692 -0.0304
 1170W        W 4689   8.075   5.696  12.083  0.0189 -0.0016  0.2426
 1171W        W 4690   3.750   4.221   8.875 -0.0015  0.1823  0.0574
 1172W        W 4691   4.301   6.561   2.066  0.0989  0.0797  0.1174
 1173W        W 4692   0.156   0.596  11.089 -0.0689 -0.1101  0.2610
 1174W        W 4693   7.101   9.042   1.551 -0.0186  0.2115  0.2207
 1175W        W 4694   4.017   1.205  12.263 -0.3668  0.0734  0.1385
 1176W        W 4695   0.413   0.622   1.578 -0.1094  0.2954 -0.0181
 1177W        W 4696   2.076   5.975   3.409  0.2427  0.2226 -0.1102
 1178W        W 4697   9.014   0.744  12.015 -0.2361  0.1132 -0.3509
 1179W        W 4698   5.392   5.841   0.187  0.1198  0.0134  0.0083
 1180W        W 4699   7.132   1.966  10.552 -0.0072  0.0123  0.2723
 1181W        W 4700   6.436   5.750   2.276  0.0827  0.2602 -0.2167
 1182W        W 4701   6.547   5.012   1.562 -0.1288  0.0346  0.0423
 1183W        W 4702   1.020   1.394   8.912  0.0399 -0.0332 -0.0989
 1184W        W 4703   2.154   8.383  10.583  0.0866  0.3505  0.0670
 1185W        W 4704   8.022   2.764   0.566 -0.0537 -0.2500  0.2019
 1186W        W 4705   8.690   0.872   9.594 -0.4147 -0.0461 -0.1412
 1187W        W 4706   7.232   6.660   2.626  0.0743 -0.2016  0.0476
 1188W        W 4707   1.210   5.662   4.465 -0.0124 -0.0821  0.0569
 1189W        W 4708   2.955   0.784   2.623 -0.1784 -0.0608  0.1131
 1190W        W 4709   6.060   7.332   0.427  0.1316 -0.1529 -0.3883
 1191W        W 4710   0.853   2.941  11.509  0.3601  0.1846 -0.0324
 1192W        W 4711   5.487   8.698   2.868 -0.0781  0.2376  0.0826
 1193W        W 4712   7.258   6.842   2.095  0.1270 -0.0142 -0.2964
 1194W        W 4713   5.810   5.335   1.986  0.2294 -0.1934 -0.0260
 1195W        W 4714   4.670   3.527   1.340 -0.0643 -0.2970  0.2908
 1196W        W 4715   6.195   8.885   1.235  0.0769 -0.2722  0.0879
 1197W        W 4716   1.745   4.723  10.252 -0.2095 -0.0569 -0.3546
 1198W        W 4717   9.311   9.146   8.660  0.1379  0.0749  0.1806
 1199W        W 4718   5.513   2.503   2.510 -0.0896 -0.1056  0.0667
 1200W        W 4719   3.495   8.838   1.608  0.4230 -0.0215  0.1717
 1201W        W 4720   2.961   6.939  11.112  0.1000 -0.3654 -0.0860
 1202W        W 4721   8.764   3.884   4.890  0.0173 -0.0027 -0.0351
 1203W        W 4722   0.038   5.363  11.892 -0.3208 -0.0095  0.1336
 1204W        W 4723   8.441   1.744  10.675  0.2501 -0.2929  0.1968
 1205W        W 4724   7.662   7.013   2.913 -0.1318  0.0572 -0.0975
 1206W        W 4725   6.309   4.471   2.214  0.2303 -0.0973 -0.2078
 1207W        W 4726   8.715   2.579   9.397 -0.0836 -0.1358  0.0168
 1208W        W 4727   5.820   8.087  10.677 -0.0738  0.5245  0.0391
 1209W        W 4728   6.976   0.980  10.522  0.0309  0.1339 -0.2911
 1210W        W 4729   5.990   7.315  11.778 -0.0781 -0.2197  0.0262
 1211W        W 4730   1.429   8.241   4.653  0.2099 -0.1863 -0.0026
 1212W        W 4731   8.431   2.632   2.942 -0.2625 -0.3878  0.2491
 1213W        W 4732   6.045   0.894  11.508  0.3937 -0.4378 -0.3384
 1214W        W 4733   3.354   7.667  12.448 -0.0903  0.0053 -0.1287
 1215W        W 4734   8.985   1.208  12.432 -0.1053  0.2551 -0.2242
 1216W        W 4735   1.158   2.910   1.690 -0.1138  0.1295 -0.0793
 1217W        W 4736   7.650   6.334  11.945 -0.2140 -0.0925 -0.0193
 1218W        W 4737   3.449   6.266  10.793  0.2527 -0.2737  0.0507
 1219W        W 4738   2.682   8.617   3.838  0.1888  0.2168 -0.1664
 1220W        W 4739   9.428   7.683   9.786  0.1930  0.0475  0.0164
 1221W        W 4740   8.787   9.257   2.186 -0.1568 -0.0476 -0.2011
 1222W        W 4741   7.540   3.213   8.613 -0.1661  0.1841  0.1394
 1223W        W 4742   0.140   9.444   3.110 -0.3232 -0.0918  0.0660
 1224W        W 4743   5.068   9.425  11.931 -0.0170  0.2648 -0.0840
 1225W        W 4744   5.732   2.186   0.790  0.1219  0.2674 -0.0872
 1226W        W 4745   1.075   2.601   2.752 -0.3211  0.2902  0.1152
 1227W        W 4746   7.103   6.271  10.295 -0.1896  0.0239 -0.0793
 1228W        W 4747   6.581   6.566   0.048 -0.0844 -0.3884 -0.0096
 1229W        W 4748   1.391   3.642   2.752 -0.0431  0.0289 -0.0541
 1230W        W 4749   7.432   8.135   2.683 -0.2266  0.0100 -0.2906
 1231W        W 4750   9.240   5.634   3.334  0.0643  0.0573 -0.2384
 1232W        W 4751   2.121   7.453   9.946  0.1113 -0.0995  0.2290
 1233W        W 4752   8.392   5.035  10.225 -0.0963 -0.0563 -0.5057
 1234W        W 4753   0.715   1.353   4.041  0.1067  0.0217  0.4372
 1235W        W 4754   9.065   8.558  10.807 -0.1803  0.0692  0.0958
 1236W        W 4755   2.417   3.235   2.227  0.1507  0.1889  0.1099
 1237W        W 4756   7.054   5.206   8.659  0.1223  0.1499  0.0883
 1238W        W 4757   9.112   9.116   1.611 -0.1534 -0.1697  0.0759
 1239W        W 4758   1.704   6.568   0.425 -0.1062  0.0896 -0.1367
 1240W        W 4759   2.941   0.242   9.342 -0.0768 -0.1236  0.2167
 1241W        W 4760   3.301   3.355  11.745  0.3368 -0.2771  0.0730
 1242W        W 4761   1.336   0.168   2.745  0.0404  0.1709  0.4828
 1243W        W 4762   2.015   8.858   0.315  0.0368 -0.3871  0.0038
 1244W        W 4763   0.478   7.594  10.396  0.0587 -0.1975 -0.1317
 1245W        W 4764   8.688   7.292   8.102  0.0153  0.0932 -0.1307
 1246W        W 4765   4.151   1.253   9.370  0.1459  0.2890  0.1976
 1247W        W 4766   3.444   2.031  10.928 -0.2219 -0.2446 -0.1736
 1248W        W 4767   4.204   4.730   3.944 -0.2284 -0.0820  0.1621
 1249W        W 4768   1.365   5.733  10.805 -0.0337  0.2674  0.4396
 1250W        W 4769   5.502   1.273   2.940  0.1863  0.3001  0.2756
 1251W        W 4770   6.655   8.255  12.356 -0.1273 -0.0706 -0.1132
 1252W        W 4771   3.391   1.412   2.110 -0.0410  0.1000 -0.0172
 1253W        W 4772   8.979   4.635   2.202  0.2718  0.1399 -0.3486
 1254W        W 4773   9.210   4.326  10.756  0.1399  0.1174  0.3976
 1255W        W 4774   3.901   5.034   1.468  0.1479  0.0538  0.0047
 1256W        W 4775   0.124   1.577  11.067 -0.1264 -0.2453 -0.2654
 1257W        W 4776   3.855   1.075   3.153  0.0733 -0.3381  0.0014
 1258W        W 4777   1.364   0.237   4.955 -0.0663 -0.1268  0.4392
 1259W        W 4778   9.483   4.687   3.440  0.1380 -0.1854  0.0852
 1260W        W 4779   0.965   2.123   8.720  0.1103 -0.0757 -0.0592
 1261W        W 4780   3.993   4.508   1.020 -0.2069 -0.4701 -0.1814
 1262W        W 4781   8.697   8.645  11.758  0.1776 -0.0761 -0.2647
 1263W        W 4782   5.662   8.414  11.070  0.0005  0.0856 -0.0364
 1264W        W 4783   0.648   3.034  11.952 -0.1609  0.2372  0.1438
 1265W        W 4784   0.496   1.645   3.560  0.1506 -0.2392 -0.0361
 1266W        W 4785   5.522   5.468  11.560  0.0904 -0.3438  0.0094
 1267W        W 4786   5.053   4.268   3.826 -0.1321 -0.0297 -0.0580
 1268W        W 4787   6.761   3.223   9.310  0.3427  0.1386 -0.0098
 1269W        W 4788   5.622   2.773  10.247  0.0560 -0.0648 -0.2540
 1270W        W 4789   4.982   7.698   2.530 -0.1078 -0.0639  0.1669
 1271W        W 4790   2.535   7.515   1.018 -0.3127 -0.2231  0.0402
 1272W        W 4791   4.000   1.020   0.741 -0.3960  0.4033  0.1160
 1273W        W 4792   0.048   5.655   0.824 -0.0099 -0.1572  0.1324
 1274W        W 4793   2.614   8.109   0.382 -0.0307  0.0758 -0.2459
 1275W        W 4794   1.031   8.876  11.051  0.0357  0.0216 -0.2208
 1276W        W 4795   4.605   8.330  12.437 -0.1745  0.2079 -0.0927
 1277W        W 4796   6.542   6.015   8.157  0.0004  0.1550 -0.1009
 1278W        W 4797   2.619   9.228  12.526 -0.3951 -0.0162 -0.0247
 1279W        W 4798   8.756   2.765   8.473  0.1972 -0.0692 -0.0145
 1280W        W 4799   2.178   7.650   5.323  0.2335  0.1472 -0.0045
 1281W        W 4800   7.352   0.521  12.407  0.0836 -0.1382  0.0949
 1282W        W 4801   4.454   3.849  10.310  0.1454  0.2272  0.0515
 1283W        W 4802   5.758   2.602   9.078  0.0485  0.0896  0.0397
 1284W        W 4803   2.046   1.959  11.413 -0.0939 -0.0324 -0.0898
 1285W        W 4804   2.484   3.447   3.462 -0.1564 -0.2676 -0.1550
 1286W        W 4805   3.802   1.603  11.503 -0.0710  0.1879  0.3441
 1287W        W 4806   5.902   9.385   0.504  0.1633 -0.1369  0.1169
 1288W        W 4807   4.564   5.160  12.421 -0.0392  0.0120 -0.0045
 1289W        W 4808   7.916   6.915  12.112 -0.2014  0.0759  0.0871
 1290W        W 4809   3.689   0.529   9.773 -0.0750  0.0913  0.0037
 1291W        W 4810   8.632   6.597  11.525  0.2623 -0.2199 -0.0452
 1292W        W 4811   6.514   0.657   1.634 -0.0860  0.2955 -0.0151
 1293W        W 4812   5.526   6.531  12.270  0.2938  0.1616 -0.1255
 1294W        W 4813   6.421   6.408   4.489  0.3441 -0.1448  0.0259
 1295W        W 4814   8.054   6.533   4.992  0.1635  0.0990  0.0768
 1296W        W 4815   7.501   6.836  10.145  0.0627  0.0065  0.1322
 1297W        W 4816   7.480   3.859   2.481 -0.0988  0.1297 -0.2710
 1298W        W 4817   5.485   4.763   5.037 -0.3220  0.2799  0.0857
 1299W        W 4818   7.848   3.576   2.324 -0.1669 -0.1402 -0.0432
 1300W        W 4819   4.623   1.309  10.845  0.3377  0.0674 -0.4026
 1301W        W 4820   3.445   1.928   2.127 -0.0528 -0.3112  0.0071
 1302W        W 4821   8.364   1.271   2.002 -0.1797  0.0306  0.0281
 1303W        W 4822   8.379   0.942   3.951 -0.4907 -0.0995  0.2678
 1304W        W 4823   2.655   3.900   2.139 -0.1448 -0.1237  0.2059
 1305W        W 4824   1.106   7.774   2.424 -0.1102 -0.0339 -0.3983
 1306W        W 4825   6.537   5.976  11.200  0.2062  0.2210  0.1706
 1307W        W 4826   2.985   7.292   3.244  0.3235  0.0232 -0.0266
 1308W        W 4827   4.953   7.038  10.894  0.3620 -0.0214 -0.0111
 1309W        W 4828   1.694   3.133   2.886  0.0925  0.0619 -0.1025
 1310W        W 4829   3.613   5.295   2.382  0.0764 -0.1198 -0.2034
 1311W        W 4830   8.621   4.287   1.590  0.5093  0.0894  0.1531
 1312W        W 4831   1.969   1.655   3.111  0.3124  0.0406  0.2093
 1313W        W 4832   7.679   7.491   3.178  0.2122  0.4054 -0.0496
 1314W        W 4833   6.089   4.913   8.925 -0.0008 -0.1083 -0.0067
 1315W        W 4834   6.805   4.167   8.566  0.2020  0.0071 -0.0142
 1316W        W 4835   9.655   1.051   2.498 -0.2034  0.0081 -0.0633
 1317W        W 4836   4.312   5.712   3.790 -0.1012  0.1541  0.1807
 1318W        W 4837   3.776   4.073   1.423 -0.0338  0.5258 -0.2246
 1319W        W 4838   1.069   9.112   2.766 -0.2708  0.0539  0.3393
 1320W        W 4839   6.385   0.670  11.891  0.0212  0.1887 -0.0601
 1321W        W 4840   6.460   6.520   8.789  0.0465 -0.0250 -0.0137
 1322W        W 4841   5.434   1.726   3.663 -0.0040 -0.0365 -0.2604
 1323W        W 4842   1.279   5.436  11.168  0.2663  0.2379 -0.0845
 1324W        W 4843   7.340   3.722  11.090 -0.0587 -0.1381  0.3466
 1325W        W 4844   0.823   3.982  10.689 -0.0690  0.1047  0.0556
 1326W        W 4845   8.813   0.148   2.166  0.0702 -0.1157  0.2162
 1327W        W 4846   7.706   8.058  10.806  0.0651  0.0365 -0.0775
 1328W        W 4847   1.438   7.029   9.391  0.3496 -0.0851  0.0722
 1329W        W 4848   8.958   4.689  11.684  0.1782 -0.1976  0.1540
 1330W        W 4849   8.488   2.168   0.270  0.3819  0.1557 -0.2347
 1331W        W 4850   1.599   6.825   9.799  0.0169  0.0710  0.1706
 1332W        W 4851   9.597   3.337  11.719  0.0351 -0.0636 -0.0621
 1333W        W 4852   9.442   5.056   4.573 -0.0800  0.2034 -0.0440
 1334W        W 4853   0.353   6.089   0.712  0.0071  0.0789  0.4503
 1335W        W 4854   0.356   4.915   2.103  0.2488  0.1117  0.3516
 1336W        W 4855   3.902   7.732   8.798 -0.1179  0.0893  0.0315
 1337W        W 4856   1.067   1.218  10.190 -0.1556  0.3006 -0.2323
 1338W        W 4857   4.807   5.655   8.654 -0.1285 -0.1549  0.3291
 1339W        W 4858   7.746   5.334   0.776  0.0066  0.1356  0.1266
 1340W        W 4859   1.730   5.392  12.353  0.2916  0.0312 -0.1323
 1341W        W 4860   2.128   4.944   1.822 -0.0679  0.0305  0.2168
 1342W        W 4861   8.167   9.303   9.269 -0.2649 -0.3838 -0.2556
 1343W        W 4862   5.778   3.490   0.499  0.4047 -0.1649 -0.0395
 1344W        W 4863   8.760   4.060   3.863  0.2894 -0.1345  0.0462
 1345W        W 4864   8.827   8.601  12.254  0.4842  0.0759  0.0052
 1346W        W 4865   4.383   7.785  12.577  0.0068 -0.1333  0.2566
 1347W        W 4866   5.054   0.949   2.529 -0.3831 -0.2038  0.1748
 1348W        W 4867   0.274   6.217   4.288 -0.0297 -0.1003  0.1470
 1349W        W 4868   2.749   8.221   9.976  0.2182  0.0608  0.3169
 1350W        W 4869   8.213   0.111  11.521  0.1028 -0.3653 -0.1414
 1351W        W 4870   7.192   1.320  11.317  0.0676 -0.3844  0.2929
 1352W        W 4871   6.085   8.544  11.193 -0.2035 -0.0157 -0.0248
 1353W        W 4872   6.221   7.477  10.315 -0.1173  0.2927  0.1833
 1354W        W 4873   8.386   4.195   9.518  0.1901 -0.2688  0.0170
 1355W        W 4874   3.796   6.610   4.541  0.0623  0.4620 -0.2602
 1356W        W 4875   7.502   4.384   9.086  0.1644 -0.0520  0.2513
 1357W        W 4876   1.097   0.550   8.732  0.2046  0.0441  0.1267
 1358W        W 4877   2.218   7.752   3.716 -0.1051 -0.2897 -0.1970
 1359W        W 4878   3.859   2.279  11.043  0.0993 -0.2063 -0.0242
 1360W        W 4879   3.149   8.276   0.550 -0.0150 -0.0415  0.1970
 1361W        W 4880   0.198   2.064  10.851  0.1174  0.0292 -0.1986
 1362W        W 4881   0.929   0.008   8.721  0.0570 -0.3788 -0.1679
 1363W        W 4882   9.329   1.194   8.501  0.2887 -0.1002 -0.3416
 1364W        W 4883   1.541   3.483   1.051 -0.2633  0.0077 -0.0901
 1365W        W 4884   7.960   8.782  10.645  0.0214 -0.0943 -0.1674
 1366W        W 4885   2.036   7.817   1.819 -0.2121 -0.1621  0.1319
 1367W        W 4886   6.194   7.131   1.687 -0.0754  0.0849  0.0748
 1368W        W 4887   4.977   8.466   8.528 -0.2813 -0.0381 -0.5694
 1369W        W 4888   3.684   7.040   9.449 -0.0457 -0.2659 -0.0574
 1370W        W 4889   8.153   2.331   9.427 -0.1296  0.1308  0.0536
 1371W        W 4890   1.235   1.200  12.222 -0.2049  0.1472 -0.1695
 1372W        W 4891   2.407   0.198   3.652 -0.0132 -0.1752 -0.0591
 1373W        W 4892   4.086   8.370   0.885  0.0067 -0.1636  0.1235
 1374W        W 4893   7.751   4.041  12.222 -0.5304  0.0107  0.1079
 1375W        W 4894   9.051   0.272  12.214  0.1514  0.0902 -0.0832
 1376W        W 4895   6.922   3.172   9.806  0.1552  0.0880  0.1141
 1377W        W 4896   7.725   5.839  11.777  0.0876 -0.1532 -0.1682
 1378W        W 4897   5.503   7.238   0.296 -0.3795  0.1288 -0.0906
 1379W        W 4898   1.176   7.960   0.658  0.1179 -0.0153 -0.0858
 1380W        W 4899   8.639   1.470  11.134 -0.1402 -0.1905  0.2036
 1381W        W 4900   9.473   7.766  11.421  0.3846 -0.3916  0.0310
 1382W        W 4901   4.213   3.874   0.431  0.1562  0.4664 -0.0808
 1383W        W 4902   8.471   4.121   9.060  0.0270 -0.0141  0.1631
 1384W        W 4903   3.509   7.826   9.865 -0.3230  0.1695 -0.2242
 1385W        W 4904   3.394   0.586   9.342  0.0220 -0.2519  0.1408
 1386W        W 4905   8.866   1.708   4.459 -0.2671  0.3978  0.2229
 1387W        W 4906   5.825   4.115   0.977  0.3039  0.0248 -0.0300
 1388W        W 4907   4.710   0.509  10.188 -0.1012 -0.1720  0.3428
 1389W        W 4908   7.395   3.790   9.790  0.0884 -0.1136  0.0031
 1390W        W 4909   0.104   4.773  12.008 -0.1514 -0.2353  0.0663
 1391W        W 4910   3.721   4.044   3.931  0.0702 -0.0101 -0.0778
 1392W        W 4911   6.111   6.113   2.597 -0.0585  0.0264 -0.0816
 1393W        W 4912   5.011   7.814  11.732 -0.1175 -0.1297 -0.1111
 1394W        W 4913   2.563   8.746   1.239 -0.2195 -0.1618 -0.0107
 1395W        W 4914   6.051   4.399   2.655  0.2666 -0.1861  0.0273
 1396W        W 4915   1.505   9.463   4.038 -0.1695  0.1077 -0.1711
 1397W        W 4916   5.222   7.863   9.076 -0.3694  0.0795  0.0613
 1398W        W 4917   4.823   5.115   8.866 -0.3684 -0.2696 -0.2166
 1399W        W 4918   3.812   8.781   0.641  0.2558  0.1242  0.1625
 1400W        W 4919   3.382   3.085   3.683 -0.0104  0.1004  0.2027
 1401W        W 4920   3.363   5.245   9.825  0.2304  0.3006 -0.0644
 1402W        W 4921   1.994   6.665   4.262  0.0179  0.0580  0.0481
 1403W        W 4922   3.878   0.025  11.102 -0.0139 -0.3826 -0.5119
 1404W        W 4923   8.624   3.841   1.315  0.1018  0.4140  0.1121
 1405W        W 4924   4.085   2.322   3.717  0.1810  0.2462 -0.2721
 1406W        W 4925   8.627   6.434   1.959  0.0872  0.2007 -0.1110
 1407W        W 4926   1.289   7.326   2.557  0.1317 -0.2585  0.3463
 1408W        W 4927   0.414   1.743   9.557 -0.1274  0.0496  0.0070
 1409W        W 4928   5.286   2.071   1.219 -0.1672  0.2676  0.0589
 1410W        W 4929   3.611   9.539  12.439  0.0251  0.1776 -0.0826
 1411W        W 4930   5.219   0.882  10.369  0.0562  0.1371 -0.4572
 1412W        W 4931   3.122   2.898   1.225  0.1824 -0.1443 -0.1086
 1413W        W 4932   4.537   8.859   9.920  0.2339  0.0183 -0.1729
 1414W        W 4933   1.755   2.661   9.051  0.2795 -0.5545 -0.0415
 1415W        W 4934   2.283   7.912  10.947 -0.0849 -0.0476  0.0887
 1416W        W 4935   0.128   2.459   2.806 -0.1659  0.1636 -0.0005
 1417W        W 4936   5.129   4.321   9.945 -0.1555 -0.4092 -0.0975
 1418W        W 4937   3.376   4.709   0.724  0.1709  0.3205 -0.3883
 1419W        W 4938   5.782   2.641   0.699  0.2126  0.5702  0.0718
 1420W        W 4939   4.051   5.216   2.693 -0.2981  0.2861 -0.0353
 1421W        W 4940   4.724   4.049   3.181 -0.0242 -0.1009  0.0176
 1422W        W 4941   2.366   2.554   0.424 -0.0369  0.3424  0.0142
 1423W        W 4942   2.571   7.703   9.989  0.0539 -0.1707 -0.0146
 1424W        W 4943   7.580   8.329   8.579  0.0089  0.0061  0.2154
 1425W        W 4944   1.117   2.099   1.096  0.1251  0.0961 -0.0561
 1426W        W 4945   0.728   3.291   0.871 -0.1801  0.4035 -0.1281
 1427W        W 4946   3.183   7.633  11.859  0.2287  0.0073  0.1050
 1428W        W 4947   6.125   7.545   3.920  0.1923  0.1380  0.1015
 1429W        W 4948   6.814   5.706   0.954  0.1017  0.1342  0.0221
 1430W        W 4949   7.177   9.292   9.582 -0.0908  0.0833  0.3128
 1431W        W 4950   8.527   2.110  11.164  0.1912  0.2349 -0.2185
 1432W        W 4951   9.629   3.881  12.324 -0.3712  0.2455  0.0855
 1433W        W 4952   6.622   8.456   9.501  0.1477 -0.2365 -0.1098
 1434W        W 4953   4.964   4.212  12.464 -0.1079  0.2081 -0.0279
 1435W        W 4954   7.585   3.374   3.558  0.3470  0.2586 -0.0754
 1436W        W 4955   6.129   1.752   0.691  0.0118  0.1841  0.1012
 1437W        W 4956   1.282   4.104  12.458 -0.1321 -0.1912 -0.0376
 1438W        W 4957   9.057   4.175   1.357 -0.0882 -0.1964  0.2158
 1439W        W 4958   3.631   7.519   1.296 -0.1230 -0.1827 -0.2038
 1440W        W 4959   8.908   9.061   3.108 -0.0565 -0.1710  0.2018
 1441W        W 4960   9.369   9.411   9.948 -0.0797  0.0628  0.2120
 1442W        W 4961   0.038   9.025  10.251 -0.1266  0.2620 -0.0543
 1443W        W 4962   5.822   6.605  11.107 -0.3126  0.4576  0.1994
 1444W        W 4963   6.309   7.020   0.112  0.2369  0.1360  0.0552
 1445W        W 4964   7.074   1.005   2.182  0.0668 -0.1238 -0.1190
 1446W        W 4965   7.667   2.664   2.021  0.0132  0.2233 -0.0824
 1447W        W 4966   4.429   2.198   1.641  0.1831 -0.1764 -0.2173
 1448W        W 4967   7.534   6.826  11.552 -0.4287 -0.0795  0.0419
 1449W        W 4968   0.375   9.381   2.083  0.0313  0.0415  0.1107
 1450W        W 4969   0.309   4.058   3.548  0.2865 -0.4404 -0.1973
 1451W        W 4970   0.805   1.927   0.703  0.2156  0.0854 -0.3084
 1452W        W 4971   0.974   8.770   3.154 -0.1978 -0.1081  0.0773
 1453W        W 4972   3.070   3.677  12.535 -0.1917  0.0767 -0.1708
 1454W        W 4973   2.147   1.073   3.767  0.0628 -0.0228  0.0169
 1455W        W 4974   3.351   5.998   8.004 -0.0399 -0.0751 -0.0111
 1456W        W 4975   4.204   7.440  11.091 -0.1002 -0.3225  0.0734
 1457W        W 4976   0.376   0.429   3.944 -0.3133 -0.4126  0.1289
 1458W        W 4977   2.511   2.827  10.690 -0.2358  0.0357  0.3605
 1459W        W 4978   5.974   2.306   9.615  0.0093 -0.0254  0.0485
 1460W        W 4979   7.729   5.991  12.467  0.2214 -0.4437  0.1592
 1461W        W 4980   1.117   7.857  11.306 -0.0401 -0.0504 -0.4761
 1462W        W 4981   2.492   9.053  12.059 -0.0953 -0.0625 -0.1117
 1463W        W 4982   0.788   2.470  11.942 -0.0547  0.1350  0.1820
 1464W        W 4983   5.363   5.638   1.065 -0.1413  0.1583  0.3317
 1465W        W 4984   0.271   5.453   3.873 -0.3118  0.0645 -0.0586
 1466W        W 4985   7.400   5.132  11.829 -0.0762 -0.2097  0.1860
 1467W        W 4986   5.880   6.524   2.913 -0.0594  0.1563  0.0548
 1468W        W 4987   4.597   5.649   3.175  0.1327 -0.0549 -0.0338
 1469W        W 4988   3.914   4.130  10.075  0.0343  0.0055 -0.1407
 1470W        W 4989   0.503   4.729  11.000 -0.0463 -0.3608  0.1306
 1471W        W 4990   1.814   7.534   0.084 -0.0641  0.2817  0.0491
 1472W        W 4991   6.822   9.581  10.801  0.0437 -0.1257  0.0871
 1473W        W 4992   5.232   9.131   9.218 -0.3022  0.0463  0.0810
 1474W        W 4993   8.759   8.242   4.739 -0.2320  0.0251  0.0362
 1475W        W 4994   7.318   0.301   3.225 -0.2317 -0.4299 -0.0369
 1476W        W 4995   4.472   6.835   3.374 -0.3604  0.1570  0.0708
 1477W        W 4996   7.009   8.272   2.404  0.0934  0.2085 -0.3119
 1478W        W 4997   8.451   0.504  11.395  0.1307  0.1366  0.0303
 1479W        W 4998   3.786   7.853  12.427 -0.2569  0.4751  0.0686
 1480W        W 4999   0.139   5.808   1.769  0.1853 -0.0342  0.0505
 1481W        W 5000   9.134   6.103  12.126 -0.2196 -0.3098 -0.0349
 1482W        W 5001   2.727   4.430   9.906  0.2868  0.0301 -0.4240
 1483W        W 5002   5.049   8.652  11.382  0.2004  0.3123 -0.0499
 1484W        W 5003   3.838   6.428   9.047 -0.2255  0.0337  0.4367
 1485W        W 5004   1.435   4.479   3.202 -0.1333 -0.1587 -0.1476
 1486W        W 5005   3.214   9.329   9.369  0.0758  0.0983  0.2361
 1487W        W 5006   5.647   9.203   2.925  0.0235  0.0429 -0.0727
 1488W        W 5007   3.927   5.316  10.996 -0.2062 -0.1529 -0.1530
 1489W        W 5008   6.141   0.893   1.835  0.2102  0.0993 -0.0140
 1490W        W 5009   7.063   5.042  12.301  0.3161 -0.2026  0.1211
 1491W        W 5010   5.739   1.264  11.794 -0.0405 -0.0413 -0.3258
 1492W        W 5011   6.295   2.975  11.732 -0.0935  0.1809  0.0920
 1493W        W 5012   3.113   6.389   0.643 -0.0614  0.2816 -0.1656
 1494W        W 5013   8.372   3.022   1.994 -0.0702  0.0354  0.1007
 1495W        W 5014   1.303   6.191   3.169 -0.2202 -0.0771  0.3559
 1496W        W 5015   8.133   2.154   1.230 -0.1589 -0.0283 -0.4084
 1497W        W 5016   4.321   7.834   9.176  0.0923  0.1765  0.0253
 1498W        W 5017   5.704   6.816  10.567  0.2234  0.0080 -0.2098
 1499W        W 5018   7.040   7.386   9.033  0.0704  0.2267  0.1153
 1500W        W 5019   7.304   7.197   3.433  0.3485 -0.1505  0.1019
 1501W        W 5020   1.060   1.553  11.400  0.0772  0.1259  0.1833
 1502W        W 5021   9.371   8.288  11.318 -0.0840  0.0600 -0.1207
 1503W        W 5022   8.132   4.503   8.774  0.1684 -0.1679 -0.0613
 1504W        W 5023   0.667   7.329   1.108  0.2911 -0.2135 -0.1601
 1505W        W 5024   1.027   8.683   0.354  0.3398  0.0712  0.1461
 1506W        W 5025   6.790   2.363   9.365 -0.2743 -0.0284  0.2329
 1507W        W 5026   4.032   4.386   2.135  0.2871 -0.2052 -0.2446
 1508W        W 5027   2.470   3.608   9.540  0.0187  0.0168  0.2175
 1509W        W 5028   8.087   9.237  11.364 -0.1120  0.1786 -0.3044
 1510W        W 5029   3.648   1.984   3.926 -0.2356  0.2293  0.0716
 1511W        W 5030   3.860   5.707  11.356 -0.0147 -0.1604 -0.0999
 1512W        W 5031   0.632   5.234   8.828 -0.4128 -0.1857 -0.2615
 1513W        W 5032   1.924   9.602  11.227  0.2656  0.0359 -0.0946
 1514W        W 5033   0.447   3.676  10.657 -0.0647  0.0749 -0.1903
 1515W        W 5034   1.441   7.910  10.808  0.1302  0.0421  0.1535
 1516W        W 5035   0.718   4.435   1.554  0.2377  0.1321  0.2095
 1517W        W 5036   3.726   4.413  10.449  0.2388 -0.4929  0.2101
 1518W        W 5037   7.111   4.020   3.699 -0.2008 -0.0339 -0.2151
 1519W        W 5038   8.746   5.020   3.768 -0.0143 -0.0221 -0.0451
 1520W        W 5039   8.482   4.150   0.629 -0.4161 -0.0235  0.2292
 1521W        W 5040   3.372   1.043   3.426 -0.0496 -0.1328 -0.2586
 1522W        W 5041   7.076   8.039  12.545 -0.0145  0.1831 -0.1101
 1523W        W 5042   3.527   8.861  10.121  0.1039 -0.2084 -0.2026
 1524W        W 5043   2.883   1.817   1.005  0.0791 -0.1274  0.1742
 1525W        W 5044   2.563   4.706   3.587 -0.2224  0.0350 -0.0403
 1526W        W 5045   1.610   1.468  12.019 -0.0080  0.0046  0.2277
 1527W        W 5046   5.418   3.786  11.728 -0.0929  0.0476 -0.0484
 1528W        W 5047   7.974   5.153   3.569 -0.0856  0.1064 -0.2618
 1529W        W 5048   5.635   1.312  12.267 -0.0499  0.0278 -0.1030
 1530W        W 5049   7.337   2.929  12.551  0.0185  0.1382 -0.0226
 1531W        W 5050   7.011   5.779   1.432  0.1540  0.1532 -0.0473
 1532W        W 5051   0.350   2.666  12.220 -0.0971  0.1845  0.2442
 1533W        W 5052   2.486   0.437   1.007 -0.1444  0.0305  0.0239
 1534W        W 5053   2.911   5.508   9.752 -0.2714  0.0886 -0.0597
 1535W        W 5054   7.855   0.015  12.127 -0.0521  0.2783 -0.1269
 1536W        W 5055   1.763   4.893   9.346 -0.1266  0.1781 -0.0726
 1537W        W 5056   6.976   8.391  10.978 -0.2162 -0.1869  0.3134
 1538W        W 5057   1.914   4.357   1.882  0.0789 -0.3724  0.1609
 1539W        W 5058   1.980   1.685   1.589  0.0288  0.2218  0.1969
 1540W        W 5059   5.698   6.546   0.871  0.5841  0.1527  0.0489
 1541W        W 5060   8.909   7.417  10.162 -0.4141  0.0101  0.1831
 1542W        W 5061   7.060   3.177  10.753 -0.2148  0.2062 -0.0874
 1543W        W 5062   2.321   4.936   2.296  0.1498  0.0310 -0.1469
 1544W        W 5063   2.230   0.951   1.123  0.0020 -0.0836  0.0207
 1545W        W 5064   2.064   8.377  12.372 -0.1300  0.4066 -0.0448
 1546W        W 5065   4.104   6.507  12.265  0.0535 -0.3231 -0.1904
 1547W        W 5066   8.876   8.055  10.591 -0.3188  0.2320 -0.1256
 1548W        W 5067   2.412   2.195   2.419  0.3949  0.2900 -0.1716
 1549W        W 5068   5.782   6.125   2.237  0.0344 -0.0333  0.0381
 1550W        W 5069   3.649   2.188  10.338  0.1845 -0.1484  0.3400
 1551W        W 5070   1.353   1.218   1.086  0.2602 -0.0718  0.3112
 1552W        W 5071   2.716   1.836   2.705 -0.0492  0.2141 -0.0230
 1553W        W 5072   8.584   7.417   1.381  0.2474 -0.0267  0.1251
 1554W        W 5073   9.227   9.505  11.746  0.1342 -0.0506  0.2579
 1555W        W 5074   1.686   7.018   2.210  0.1252  0.4653 -0.2119
 1556W        W 5075   3.958   3.730   3.410  0.1192  0.2709 -0.0904
 1557W        W 5076   9.548   8.128  10.043 -0.3745  0.0682  0.0224
 1558W        W 5077   0.348   0.175   4.652  0.0117 -0.1084  0.2212
 1559W        W 5078   8.069   2.923   1.644  0.2722  0.0872  0.0006
 1560W        W 5079   9.117   8.719   1.186  0.2019  0.1443  0.0279
 1561W        W 5080   5.883   9.255   9.936 -0.0629 -0.1561  0.4362
 1562W        W 5081   3.158   0.052   3.230 -0.0330  0.3775 -0.0914
 1563W        W 5082   1.996   9.588   3.795 -0.0962 -0.1766  0.0681
 1564W        W 5083   2.446   3.386  12.044 -0.1346  0.0286 -0.2089
 1565W        W 5084   5.494   8.709  11.617 -0.0344  0.4199  0.0374
 1566W        W 5085   3.106   5.514  10.872  0.6208  0.0388 -0.2153
 1567W        W 5086   2.777   9.241   8.380 -0.0429  0.0431  0.1867
 1568W        W 5087   8.879   9.526   1.249 -0.0900  0.2179 -0.0578
 1569W        W 5088   4.427   0.984   8.900 -0.2566  0.0775  0.1874
 1570W        W 5089   8.122   0.625   8.730  0.0100 -0.2939 -0.0905
 1571W        W 5090   6.687   3.147   0.864 -0.0928  0.1171  0.0199
 1572W        W 5091   8.166   4.010  11.202 -0.0730  0.2926 -0.1039
 1573W        W 5092   2.912   3.751   4.230 -0.0799  0.2887 -0.0320
 1574W        W 5093   5.246   3.697   3.051 -0.2134 -0.1851  0.1442
 1575W        W 5094   6.557   7.983  10.855  0.1113  0.0398  0.1752
 1576W        W 5095   9.630   6.291   9.779  0.0001  0.3016 -0.0948
 1577W        W 5096   0.030   1.558   3.288 -0.0489 -0.0605 -0.1993
 1578W        W 5097   4.310   6.206   1.116 -0.0342  0.1379  0.0744
 1579W        W 5098   7.958   3.022   2.354 -0.0022  0.0336  0.1842
 1580W        W 5099   3.236   6.265   9.566  0.1827 -0.1030  0.3168
 1581W        W 5100   2.109   5.556  11.061  0.0227 -0.1366 -0.0450
 1582W        W 5101   9.189   0.791   3.867 -0.0118  0.0521 -0.0444
 1583W        W 5102   3.415   2.378   9.317  0.3607  0.0828  0.3287
 1584W        W 5103   5.809   2.359   2.907  0.0221 -0.0824 -0.3885
 1585W        W 5104   0.551   7.770   2.809 -0.2256  0.0711  0.2750
 1586W        W 5105   4.315   3.032   0.415  0.0410 -0.4719  0.0707
 1587W        W 5106   8.328   2.988   0.903 -0.0962  0.2156  0.3138
 1588W        W 5107   4.218   9.500  11.437  0.3218  0.0589 -0.0005
 1589W        W 5108   2.637   9.513   0.525 -0.0712 -0.0170 -0.1662
 1590W        W 5109   1.660   6.270   9.828 -0.1645  0.4089 -0.2689
 1591W        W 5110   2.550   8.347  10.877 -0.0225  0.2505 -0.2507
 1592W        W 5111   2.620   8.285   9.208  0.1469 -0.1013  0.1403
 1593W        W 5112   5.357   5.092  11.949  0.3215  0.0886 -0.0949
 1594W        W 5113   3.354   0.187   0.176  0.1515 -0.1993  0.1512
 1595W        W 5114   3.892   5.511   0.677 -0.0929 -0.0450 -0.3145
 1596W        W 5115   7.100   3.648   2.880  0.2124  0.1069 -0.2634
 1597W        W 5116   1.544   9.366  12.134 -0.2056  0.0948  0.0880
 1598W        W 5117   7.426   3.864  12.597  0.0572 -0.3115  0.2216
 1599W        W 5118   5.445   7.251   3.114 -0.0597 -0.0862 -0.3265
 1600W        W 5119   2.479   8.958   0.388 -0.0834  0.1934 -0.0488
 1601W        W 5120   3.362   0.953  11.694 -0.1473 -0.1441  0.1163
 1602W        W 5121   9.240   2.023  11.959  0.1066  0.1883 -0.3040
 1603W        W 5122   6.703   2.627   2.832  0.1595  0.0787 -0.1533
 1604W        W 5123   2.331   4.482   0.661 -0.0257  0.0903  0.0608
 1605W        W 5124   9.254   9.147   9.498 -0.4210  0.1291  0.1317
 1606W        W 5125   2.506   9.308   9.956 -0.1623 -0.3594  0.4095
 1607W        W 5126   4.734   0.885   1.544 -0.3647  0.2526 -0.2348
 1608W        W 5127   3.217   3.550   1.334  0.0122 -0.1229  0.2884
 1609W        W 5128   0.532   2.250  10.520  0.0512  0.1732  0.2013
 1610W        W 5129   2.553   3.161   9.902  0.1969  0.0877  0.0700
 1611W        W 5130   2.638   0.273   1.857 -0.0629 -0.1543 -0.1789
 1612W        W 5131   1.671   3.254   3.756 -0.0345  0.3395  0.2908
 1613W        W 5132   6.438   6.082  11.776  0.2370  0.0448 -0.2237
 1614W        W 5133   8.267   6.583  12.089 -0.0651 -0.2197  0.1510
 1615W        W 5134   2.840   3.012   3.436 -0.2943 -0.2554 -0.0166
 1616W        W 5135   4.627   1.501   2.751 -0.1274 -0.2771  0.1957
 1617W        W 5136   9.028   0.601   2.556 -0.0335 -0.0456  0.3052
 1618W        W 5137   3.276   4.085  11.528 -0.1696 -0.0595  0.1550
 1619W        W 5138   4.964   3.084  11.280  0.0194  0.0080 -0.1270
 1620W        W 5139   0.746   3.990   8.819 -0.1874  0.0384 -0.3567
 1621W        W 5140   0.685   9.007   3.471 -0.1179 -0.0014  0.1690
 1622W        W 5141   1.338   3.098  11.602  0.0532 -0.2879 -0.3501
 1623W        W 5142   4.311   8.436   2.027 -0.2106 -0.1247 -0.0487
 1624W        W 5143   3.244   1.011   9.084 -0.1756  0.1594  0.1158
 1625W        W 5144   6.079   0.384   3.137 -0.1333  0.0946  0.2445
 1626W        W 5145   1.650   3.132   9.248 -0.0289  0.1759  0.0535
 1627W        W 5146   8.594   2.484   0.987 -0.2658  0.1481 -0.3073
 1628W        W 5147   4.569   8.925   3.622 -0.1125  0.1910 -0.1493
 1629W        W 5148   8.432   7.294   3.350 -0.1910  0.1228 -0.1164
 1630W        W 5149   8.257   9.205  12.332 -0.1090 -0.0214  0.1303
 1631W        W 5150   0.139   6.954   1.341 -0.1910  0.1453 -0.2732
 1632W        W 5151   2.033   1.184  10.488  0.0250  0.2651  0.2333
 1633W        W 5152   0.713   6.325   3.914  0.4153  0.1046  0.2173
 1634W        W 5153   3.710   5.279   3.679  0.0259  0.3647 -0.3115
 1635W        W 5154   1.657   7.027   0.435  0.1663  0.0203 -0.0720
 1636W        W 5155   7.661   4.676   8.684  0.2139  0.0058  0.0487
 1637W        W 5156   9.577   7.787   0.498 -0.2801  0.0487  0.0609
 1638W        W 5157   7.610   5.832   9.913  0.0830  0.2737 -0.1462
 1639W        W 5158   4.563   2.313  11.799  0.0951 -0.0394 -0.0534
 1640W        W 5159   9.267   8.421  12.446  0.1670  0.0329  0.1241
 1641W        W 5160   4.323   9.100   8.148 -0.2724 -0.0998  0.1276
 1642W        W 5161   5.875   3.417  12.158 -0.0283  0.0906 -0.1227
 1643W        W 5162   2.206   7.284   3.971  0.2495  0.2180 -0.0858
 1644W        W 5163   5.473   9.315  12.276 -0.3563 -0.0291 -0.0355
 1645W        W 5164   4.054   5.973   4.251 -0.0001  0.0326 -0.1402
 1646W        W 5165   5.702   0.224   0.309  0.0555  0.0177  0.2631
 1647W        W 5166   1.371   5.491   2.508 -0.1539 -0.1539  0.1497
 1648W        W 5167   5.873   9.021  11.386  0.6115  0.0962  0.0505
 1649W        W 5168   9.152   7.958  11.773 -0.2802  0.0510 -0.0924
 1650W        W 5169   4.422   5.188   2.301 -0.2134  0.1569  0.0604
 1651W        W 5170   6.200   6.981   7.975 -0.0681 -0.3817 -0.3038
 1652W        W 5171   6.498   4.101   1.691  0.1073 -0.0039  0.0138
 1653W        W 5172   7.198   1.313   1.765  0.1612 -0.0552 -0.0668
 1654W        W 5173   6.334   9.383   0.305 -0.1807 -0.1397  0.2009
 1655W        W 5174   1.918   8.807   8.556  0.0379  0.1537  0.0631
 1656W        W 5175   1.886   4.460   4.116  0.0976  0.0048  0.1195
 1657W        W 5176   9.148   8.490   4.177  0.0553  0.1615  0.0705
 1658W        W 5177   3.395   2.878   0.503 -0.0757  0.3098  0.1477
 1659W        W 5178   2.381   0.622   0.001 -0.0777  0.1804  0.1129
 1660W        W 5179   4.286   6.084  11.999 -0.0769  0.2019  0.1208
 1661W        W 5180   9.189   3.811   0.028  0.0041 -0.3005  0.1685
 1662W        W 5181   3.995   4.901   2.344 -0.1472  0.0123  0.0340
 1663W        W 5182   7.656   4.096  10.938 -0.2209 -0.1594  0.0850
 1664W        W 5183   8.444   0.996   3.352 -0.1986 -0.2136  0.0980
 1665W        W 5184   1.078   9.570  11.912  0.2360  0.1766  0.0229
 1666W        W 5185   2.091   3.045   9.707  0.0518  0.1155 -0.0505
 1667W        W 5186   9.177   0.137   0.873 -0.2323 -0.1679 -0.1674
 1668W        W 5187   0.685   9.293   9.713 -0.2527 -0.2569 -0.0412
 1669W        W 5188   9.230   2.806   2.423  0.4159  0.0327 -0.1990
 1670W        W 5189   4.884   1.820  11.151  0.1898  0.2685  0.1430
 1671W        W 5190   2.839   7.593  10.518  0.1674 -0.0096  0.3115
 1672W        W 5191   6.663   8.831  12.428  0.0659 -0.1053  0.2264
 1673W        W 5192   0.938   0.237   0.872 -0.0718  0.2266 -0.0427
 1674W        W 5193   3.999   9.437   2.473 -0.2011 -0.0072  0.1223
 1675W        W 5194   6.480   5.567   4.965  0.0588 -0.1173 -0.0231
 1676W        W 5195   8.386   2.851  10.297  0.2395  0.0485 -0.2416
 1677W        W 5196   3.629   0.559  11.697 -0.1691  0.0783  0.0864
 1678W        W 5197   7.027   7.338   2.130 -0.3865 -0.0825 -0.0258
 1679W        W 5198   6.307   3.630   3.406 -0.2949  0.3004  0.1492
 1680W        W 5199   9.515   2.328   8.158  0.3808 -0.0953  0.2356
 1681W        W 5200   8.600   3.166  11.781 -0.0975 -0.0300  0.0918
 1682W        W 5201   0.500   8.254   2.581  0.0169 -0.1172  0.1604
 1683W        W 5202   0.957   5.001  11.043 -0.0160  0.0017 -0.2490
 1684W        W 5203   0.379   7.133  12.275  0.4584 -0.2773  0.1930
 1685W        W 5204   2.850   7.890  12.155  0.0713 -0.2933  0.3018
 1686W        W 5205   8.676   2.718   0.585  0.1422  0.0443  0.1147
 1687W        W 5206   9.466   5.114   2.457 -0.3532 -0.1998  0.0959
 1688W        W 5207   4.896   5.981   0.073  0.0324 -0.4088  0.1229
 1689W        W 5208   8.187   6.884   2.531  0.1046 -0.3097 -0.1860
 1690W        W 5209   0.492   3.647   1.346  0.2201  0.0596  0.2048
 1691W        W 5210   5.505   3.013   1.190 -0.1264 -0.3616 -0.0524
 1692W        W 5211   9.412   2.255   1.592 -0.0673 -0.0052 -0.1419
 1693W        W 5212   6.347   1.301   2.002  0.0707  0.1738 -0.2156
 1694W        W 5213   0.628   2.449  10.012 -0.0405 -0.0481  0.0369
 1695W        W 5214   4.195   0.173   2.730 -0.2750  0.0366 -0.0482
 1696W        W 5215   3.555   7.052  11.596  0.0610 -0.0531 -0.0856
 1697W        W 5216   8.144   2.221   9.903  0.1091  0.3495 -0.0389
 1698W        W 5217   7.733   4.754  11.693 -0.0653 -0.0781  0.0195
 1699W        W 5218   3.169   1.613   9.013  0.2170  0.0458 -0.1788
 1700W        W 5219   6.422   5.233   9.223 -0.0567  0.0840  0.1723
 1701W        W 5220   9.401   6.515   4.063 -0.2022 -0.3567  0.1791
 1702W        W 5221   2.505   3.097   0.477 -0.1549 -0.0571 -0.1234
 1703W        W 5222   2.877   2.038  11.693 -0.3327 -0.0273 -0.1600
 1704W        W 5223   6.853   7.632   9.975 -0.1634  0.0060  0.0193
 1705W        W 5224   7.746   7.251  10.078  0.1872 -0.2352 -0.0373
 1706W        W 5225   3.900   1.124  11.704  0.0766  0.1757 -0.0416
 1707W        W 5226   5.718   1.754   2.910 -0.2801  0.1719  0.3811
 1708W        W 5227   4.399   8.510  11.957 -0.0690 -0.0145 -0.0854
 1709W        W 5228   4.045   3.176  11.520 -0.0817  0.0589  0.1226
 1710W        W 5229   2.870   5.632   3.889  0.1901 -0.0452 -0.1170
 1711W        W 5230   3.049   4.688   4.434  0.0960  0.1557 -0.0029
 1712W        W 5231   8.793   2.950   1.031 -0.3288  0.1333  0.0108
 1713W        W 5232   3.082   4.842   9.768  0.1176 -0.1018 -0.2393
 1714W        W 5233   0.924   9.532   3.760  0.4819 -0.4732 -0.1708
 1715W        W 5234   4.319   1.890  12.152  0.0147  0.3831  0.5594
 1716W        W 5235   5.834   5.582   9.981  0.0492  0.0227 -0.2880
 1717W        W 5236   1.339   3.838   1.413 -0.0718  0.0964  0.2469
 1718W        W 5237   1.480   1.766   1.198 -0.0588  0.1544 -0.1223
 1719W        W 5238   2.937   2.532   9.423  0.2404 -0.0151 -0.0426
 1720W        W 5239   0.384   6.469   1.130  0.1365  0.3139  0.0086
 1721W        W 5240   2.133   8.195   2.394 -0.2588 -0.2537  0.2104
 1722W        W 5241   7.376   2.362   0.088 -0.3303 -0.1882 -0.1367
 1723W        W 5242   8.681   3.328   4.194  0.0000  0.0985 -0.0217
 1724W        W 5243   8.451   4.934   3.357  0.1579 -0.0272  0.1238
 1725W        W 5244   6.070   1.956   3.646 -0.2351 -0.2681 -0.0519
 1726W        W 5245   8.858   6.145   9.876  0.1017  0.0297 -0.0855
 1727W        W 5246   9.520   7.236  10.037 -0.0272  0.4571  0.3706
 1728W        W 5247   4.065   1.972  11.723  0.0603  0.5115  0.1165
 1729W        W 5248   9.587   9.241   2.291 -0.1120  0.4488  0.3431
 1730W        W 5249   8.503   1.435   4.223 -0.0857 -0.0148  0.2753
 1731W        W 5250   6.377   1.518  10.940 -0.0067 -0.0387 -0.0826
 1732W        W 5251   0.622   2.703   1.645  0.0636  0.0744  0.0460
 1733W        W 5252   8.629   2.624   2.399  0.0176 -0.0590  0.0238
 1734W        W 5253   1.502   3.203   0.564  0.2127  0.1237  0.0520
 1735W        W 5254   6.078   1.940  10.670  0.1936 -0.1456  0.0053
 1736W        W 5255   0.930   3.701  12.478  0.3362  0.4123  0.0888
 1737W        W 5256   7.801   9.571   0.184 -0.3767  0.0688  0.0980
 1738W        W 5257   9.039   2.442   9.841 -0.1282  0.2691 -0.1229
 1739W        W 5258   0.132   6.490   1.622  0.2727  0.1937 -0.1036
 1740W        W 5259   2.388   1.320   4.737 -0.1666 -0.1297 -0.0274
 1741W        W 5260   7.807   1.208   0.901 -0.0087 -0.3197 -0.2811
 1742W        W 5261   0.006   0.319   3.243  0.1729 -0.2641 -0.0584
 1743W        W 5262   8.103   7.920  12.121 -0.2945 -0.0865 -0.2040
 1744W        W 5263   8.907   3.253   2.367  0.0114  0.0062  0.0965
 1745W        W 5264   9.493   1.421   2.797 -0.2674 -0.1535  0.1271
 1746W        W 5265   4.772   2.795   8.959 -0.0534 -0.1220  0.1609
 1747W        W 5266   7.607   9.541   3.091  0.0254 -0.1133 -0.1092
 1748W        W 5267   0.030   7.842   9.254  0.0045 -0.0371 -0.4480
 1749W        W 5268   3.543   6.269   3.522 -0.1816 -0.2695  0.4482
 1750W        W 5269   3.547   3.572   3.139  0.1622  0.0287  0.2156
 1751W        W 5270   8.894   3.823   2.288  0.0700 -0.0299  0.0221
 1752W        W 5271   0.814   4.612   1.075 -0.2887  0.2776 -0.3915
 1753W        W 5272   0.762   6.034   1.235  0.0229 -0.0262 -0.2782
 1754W        W 5273   6.268   8.100  11.329 -0.1279  0.0034  0.1581
 1755W        W 5274   5.890   5.897   3.702 -0.2660 -0.0657  0.0753
 1756W        W 5275   6.424   6.722   1.541 -0.2896  0.0031 -0.0871
 1757W        W 5276   8.221   7.391  12.203 -0.0394  0.2648 -0.1237
 1758W        W 5277   8.080   6.895   0.797  0.2304  0.4059 -0.0372
 1759W        W 5278   6.902   5.510  12.497 -0.1222  0.1417  0.0613
 1760W        W 5279   2.452   1.746  11.612  0.1554  0.0256 -0.4089
 1761W        W 5280   3.778   0.201   2.456 -0.1023  0.1058 -0.3566
 1762W        W 5281   4.379   5.192  11.973  0.1601 -0.3618  0.1788
 1763W        W 5282   8.358   2.193   2.214 -0.0540  0.1037 -0.2600
 1764W        W 5283   1.821   6.022  10.761 -0.0150  0.0177  0.3039
 1765W        W 5284   1.086   2.454  10.862 -0.1185  0.1021 -0.4724
 1766W        W 5285   8.333   8.820   1.092  0.4338 -0.1297 -0.0866
 1767W        W 5286   7.673   7.578  12.163 -0.1881 -0.0168  0.0706
 1768W        W 5287   4.472   0.283   1.925  0.0098  0.0647 -0.0301
 1769W        W 5288   8.400   5.239  11.426 -0.0444 -0.0190  0.1648
 1770W        W 5289   9.159   7.168   9.597  0.0334 -0.1166 -0.0334
 1771W        W 5290   2.724   6.083   3.726  0.2086  0.1053 -0.0560
 1772W        W 5291   9.557   7.247   4.348 -0.1126 -0.1899 -0.0311
 1773W        W 5292   5.873   6.999   0.758 -0.1695 -0.1212 -0.1210
 1774W        W 5293   2.244   5.660   8.971 -0.2402 -0.0206 -0.0191
 1775W        W 5294   7.469   3.665   2.034 -0.1606  0.0725 -0.2318
 1776W        W 5295   9.286   4.055  11.209 -0.1111  0.0784  0.0387
 1777W        W 5296   9.417   7.038   4.784 -0.4377 -0.0651  0.2339
 1778W        W 5297   4.673   0.293   0.481 -0.1307 -0.2287  0.3811
 1779W        W 5298   7.643   2.152  10.468 -0.4658  0.1074  0.1949
 1780W        W 5299   1.724   2.103   1.804 -0.0589  0.1849  0.0201
 1781W        W 5300   5.406   8.166   9.397 -0.0376  0.1138  0.0542
 1782W        W 5301   9.144   4.289  12.066 -0.0696  0.0423 -0.1116
 1783W        W 5302   9.028   3.229   3.044 -0.3872 -0.1270  0.2493
 1784W        W 5303   9.557   0.524   4.075  0.3912  0.6999 -0.2895
 1785W        W 5304   3.609   6.214   2.634  0.0739  0.1189 -0.3351
 1786W        W 5305   3.371   5.442  12.131  0.0866  0.1435 -0.0510
 1787W        W 5306   8.457   3.437   1.073  0.0625 -0.2925  0.3629
 1788W        W 5307   2.979   5.375   4.726 -0.2034  0.0381  0.1658
 1789W        W 5308   7.995   1.671  10.790  0.0837  0.0143  0.1566
 1790W        W 5309   0.707   9.545  10.667 -0.0456  0.1120 -0.0914
 1791W        W 5310   2.243   5.132  11.377  0.0485  0.1715 -0.3375
 1792W        W 5311   0.812   7.590   0.560  0.0336 -0.1171 -0.2088
 1793W        W 5312   6.820   4.972   9.100 -0.0587  0.3162  0.0972
 1794W        W 5313   0.730   7.239   1.599 -0.1259  0.0617 -0.0068
 1795W        W 5314   8.416   6.939   2.056  0.1718 -0.0846 -0.3723
 1796W        W 5315   5.217   5.957   1.426  0.1811 -0.2023 -0.1292
 1797W        W 5316   8.972   0.550   8.752  0.0578  0.1399 -0.1239
 1798W        W 5317   5.916   2.770   1.574  0.0140 -0.0979  0.1864
 1799W        W 5318   4.975   0.228   2.103  0.0102  0.1980 -0.3079
 1800W        W 5319   4.235   8.057   9.612 -0.2970  0.1267  0.0467
 1801W        W 5320   2.066   0.824   9.550  0.2548 -0.0300 -0.2997
 1802W        W 5321   0.104   0.479   8.802  0.1571  0.0465  0.0403
 1803W        W 5322   5.648   7.196   1.657  0.2229 -0.1210  0.0447
 1804W        W 5323   6.309   2.844   0.631 -0.2074  0.1776 -0.2150
 1805W        W 5324   4.994   3.311   2.417  0.0760  0.1820 -0.0301
 1806W        W 5325   4.216   4.215   4.044 -0.0036 -0.0711  0.1851
 1807W        W 5326   0.543   3.514   9.470 -0.4340  0.3809  0.2722
 1808W        W 5327   8.719   7.365   0.521  0.0398  0.0041 -0.0290
 1809W        W 5328   0.601   7.743   1.463 -0.1007 -0.0723  0.0067
 1810W        W 5329   6.749   1.046  10.034  0.1936  0.3086 -0.1773
 1811W        W 5330   0.209   8.774   1.534  0.1772 -0.0301 -0.1417
 1812W        W 5331   1.151   9.456   2.458 -0.2353  0.2165  0.0564
 1813W        W 5332   6.473   2.438   0.246  0.2801  0.0547 -0.1063
 1814W        W 5333   9.318   5.567   0.496  0.0518  0.1728 -0.1364
 1815W        W 5334   4.760   6.425   2.471  0.1204  0.1041  0.0636
 1816W        W 5335   0.434   8.108   1.829 -0.2764  0.2220 -0.3619
 1817W        W 5336   3.916   0.182   1.972  0.1106  0.2966  0.0289
 1818W        W 5337   9.009   0.987  10.830  0.0666 -0.0830  0.2661
 1819W        W 5338   5.633   2.145   8.802 -0.0530  0.0901  0.0504
 1820W        W 5339   4.280   2.879   1.696  0.0786 -0.0375 -0.0087
 1821W        W 5340   7.079   2.868  10.259 -0.0201 -0.2909  0.2601
 1822W        W 5341   3.613   8.243   9.490  0.1963  0.1410  0.0410
 1823W        W 5342   0.442   2.975   2.036 -0.2228 -0.1644  0.2259
 1824W        W 5343   0.815   4.149   0.103 -0.0808 -0.0944 -0.1746
 1825W        W 5344   5.576   3.531   9.661 -0.2051  0.0458  0.0080
 1826W        W 5345   7.984   5.902   8.726  0.1421  0.0688  0.1992
 1827W        W 5346   2.812   9.077  10.264 -0.1536 -0.1072  0.0146
 1828W        W 5347   7.025   5.189  10.437 -0.3109 -0.2631 -0.4678
 1829W        W 5348   3.913   4.076  12.275 -0.0565 -0.0181  0.0514
 1830W        W 5349   7.019   8.100  10.156 -0.1112  0.0648  0.0950
 1831W        W 5350   9.484   1.796   2.471  0.2967  0.1895 -0.0207
 1832W        W 5351   1.800   0.369   2.078  0.0465 -0.1498 -0.1747
 1833W        W 5352   9.313   5.583  11.300 -0.1413 -0.3366 -0.2319
 1834W        W 5353   9.172   2.276   3.215 -0.1735 -0.1668  0.0092
 1835W        W 5354   1.967   1.414   8.396  0.1064  0.5252  0.0909
 1836W        W 5355   2.183   0.003   2.284 -0.2962 -0.1200 -0.1473
 1837W        W 5356   4.538   6.485  12.077  0.0376  0.0842 -0.1451
 1838W        W 5357   4.091   0.295   3.693  0.1074  0.1994  0.4122
 1839W        W 5358   2.457   2.200  11.447 -0.0741 -0.1736  0.1068
 1840W        W 5359   0.809   3.023   2.735  0.0080 -0.4010 -0.1818
 1841W        W 5360   6.873   5.893   5.083 -0.3354  0.0957 -0.1524
 1842W        W 5361   1.466   7.105   4.423  0.1818 -0.0496  0.2713
 1843W        W 5362   4.187   3.682   9.933  0.1271  0.0701  0.4540
 1844W        W 5363   3.312   5.850  10.465  0.2020  0.1090  0.1189
 1845W        W 5364   1.710   1.111   4.242  0.2413  0.0037  0.2212
 1846W        W 5365   5.982   5.159  11.354 -0.1298 -0.0631  0.0687
 1847W        W 5366   8.299   8.702  11.361 -0.3239 -0.0477 -0.1759
 1848W        W 5367   1.248   9.233   0.311 -0.1628 -0.3496 -0.2507
 1849W        W 5368   3.956   2.837   3.769  0.4537  0.0575  0.1977
 1850W        W 5369   3.566   0.978   1.796 -0.3294 -0.1395  0.3057
 1851W        W 5370   0.113   7.834   0.084 -0.0579  0.1064 -0.2206
 1852W        W 5371   4.878   3.700   0.023  0.1465  0.1474  0.0746
 1853W        W 5372   1.593   1.243   2.467 -0.1682 -0.1449  0.2260
 1854W        W 5373   9.302   0.351   3.598 -0.0419 -0.1195 -0.0168
 1855W        W 5374   3.218   5.293   2.652  0.0294 -0.2704  0.0113
 1856W        W 5375   7.062   0.680  11.228 -0.3461  0.2582 -0.0234
 1857W        W 5376   6.304   6.384   3.567 -0.1955  0.0860  0.1688
 1858W        W 5377   1.909   3.882   9.309 -0.1702  0.2439  0.0197
 1859W        W 5378   1.478   2.508   0.760 -0.0149  0.0265  0.0182
 1860W        W 5379   2.608   5.627   3.017  0.0551  0.0309  0.3264
 1861W        W 5380   7.513   1.617   0.715  0.0176 -0.2990 -0.4161
 1862W        W 5381   9.496   0.973   1.144  0.0898  0.1526  0.1121
 1863W        W 5382   3.071   4.564   1.251 -0.1160  0.0616 -0.0486
 1864W        W 5383   6.344   3.237  12.193 -0.1697 -0.1364 -0.1212
 1865W        W 5384   4.310   7.624   1.992  0.3256  0.0925  0.0750
 1866W        W 5385   2.068   4.293   2.357  0.0369  0.0783  0.1726
 1867W        W 5386   9.065   5.611   2.348 -0.3210  0.0826  0.0431
 1868W        W 5387   7.080   7.453   8.469 -0.0542 -0.1932  0.2912
 1869W        W 5388   3.469   6.654   1.631 -0.0814 -0.1717  0.1372
 1870W        W 5389   3.866   3.251  12.407  0.0255 -0.0838  0.0841
 1871W        W 5390   2.402   4.075   0.254 -0.0117 -0.0302  0.0608
 1872W        W 5391   2.627   8.773   9.907  0.0761 -0.1570  0.0337
 1873W        W 5392   6.157   8.392  12.045 -0.0490 -0.2948  0.1610
 1874W        W 5393   0.800   4.921   0.245  0.0836  0.3176  0.4452
 1875W        W 5394   7.976   2.573   9.024  0.1102  0.1915  0.2210
 1876W        W 5395   8.220   7.135   1.194  0.2084 -0.1251 -0.1126
 1877W        W 5396   5.629   7.523   9.482 -0.0550 -0.0205 -0.1626
 1878W        W 5397   8.027   3.665  12.374 -0.0177  0.2274 -0.0895
 1879W        W 5398   1.470   2.731   2.456  0.0340 -0.3099 -0.2204
 1880W        W 5399   3.415   4.476   3.691 -0.0415  0.0442 -0.0738
 1881W        W 5400   7.664   2.550   0.856 -0.1253  0.2235  0.2425
 1882W        W 5401   5.415   5.697   2.183  0.1460 -0.1188  0.0696
 1883W        W 5402   1.983   3.407   0.678  0.1267 -0.1282 -0.3039
 1884W        W 5403   7.247   6.107   1.055  0.0476  0.0270 -0.0068
 1885W        W 5404   0.022   7.881   2.790  0.0837 -0.0995 -0.2131
 1886W        W 5405   2.145   5.205   0.672  0.0075 -0.5549  0.0512
 1887W        W 5406   4.422   7.692   2.842  0.1174 -0.4232 -0.1185
 1888W        W 5407   5.858   4.008   0.157  0.0425 -0.0333 -0.0665
 1889W        W 5408   4.440   1.458  11.302  0.2129  0.2147 -0.2008
 1890W        W 5409   0.184   9.373  11.155 -0.2032 -0.2043 -0.1999
 1891W        W 5410   9.538   8.980   1.219 -0.0582  0.2292  0.2084
 1892W        W 5411   2.991   1.535  10.408 -0.0885  0.1291  0.1560
 1893W        W 5412   0.224   0.816  12.187  0.1371 -0.0309 -0.0841
 1894W        W 5413   9.302   4.684   1.400  0.0438  0.1941 -0.2068
 1895W        W 5414   5.359   3.148   4.062  0.0826 -0.0544  0.0961
 1896W        W 5415   9.200   4.414   2.996  0.1141 -0.4139 -0.3190
 1897W        W 5416   2.927   2.634   4.455 -0.1278  0.0565 -0.1052
 1898W        W 5417   2.488   8.871   1.695  0.1962 -0.1306 -0.1463
 1899W        W 5418   5.275   7.270  11.927 -0.4074 -0.0759  0.0643
 1900W        W 5419   5.727   4.956   9.951  0.1669  0.0617  0.0347
 1901W        W 5420   0.427   0.993   0.382  0.0484 -0.0544 -0.0027
 1902W        W 5421   0.350   2.912  11.312 -0.1167  0.0799 -0.1724
 1903W        W 5422   4.596   3.340  10.990  0.2041 -0.0724 -0.4808
 1904W        W 5423   9.595   1.700   3.874 -0.1281 -0.0609 -0.3897
 1905W        W 5424   8.777   0.246   9.144 -0.1184 -0.1851  0.0455
 1906W        W 5425   3.842   4.832   3.622  0.0897  0.3746  0.3692
 1907W        W 5426   6.881   6.134   4.599  0.0098  0.0784  0.1218
 1908W        W 5427   7.308   4.887   8.989 -0.1084 -0.1047 -0.0007
 1909W        W 5428   4.395   2.320  10.785 -0.1800 -0.1610 -0.0090
 1910W        W 5429   3.347   7.295  11.123 -0.1498  0.0292  0.0791
 1911W        W 5430   7.124   6.992   2.983  0.0829  0.1366  0.1353
 1912W        W 5431   0.370   7.589   4.525 -0.0014  0.0134  0.2135
 1913W        W 5432   6.103   4.977  10.382  0.0593  0.3832  0.0905
 1914W        W 5433   2.353   5.886   2.410  0.2222  0.3007 -0.2116
 1915W        W 5434   0.644   0.936   3.720 -0.0287  0.1101 -0.3006
 1916W        W 5435   8.448   7.068  11.669 -0.2177  0.2767 -0.1458
 1917W        W 5436   3.075   3.773   9.207 -0.4389 -0.1715  0.1197
 1918W        W 5437   9.023   0.084  11.322 -0.1566  0.3441  0.2447
 1919W        W 5438   9.043   4.188  10.288  0.0226 -0.2115 -0.3155
 1920W        W 5439   2.866   7.077   2.792  0.0152  0.1908 -0.1773
 1921W        W 5440   9.272   3.847   9.363 -0.3995  0.1848  0.0121
 1922W        W 5441   4.980   9.405   8.878  0.0352 -0.1025 -0.2312
 1923W        W 5442   6.478   5.153  11.578 -0.2779  0.2498  0.0662
 1924W        W 5443   6.878   4.516  11.068  0.1911  0.1733  0.1599
 1925W        W 5444   0.985   4.527  12.415  0.0485  0.1428 -0.2436
 1926W        W 5445   9.199   1.890   4.108 -0.2332  0.0341  0.2721
 1927W        W 5446   2.896   1.310  11.741  0.0303 -0.2629  0.1339
 1928W        W 5447   1.164   8.429   4.062 -0.1505 -0.2453 -0.0481
 1929W        W 5448   7.445   7.381   0.329 -0.0456 -0.0309  0.0948
 1930W        W 5449   2.563   5.298   1.687 -0.1101  0.0359  0.2023
 1931W        W 5450   2.972   3.038   2.201  0.0074  0.1856 -0.1762
 1932W        W 5451   0.756   8.297   0.548 -0.0085 -0.0808 -0.1624
 1933W        W 5452   7.117   7.061   8.177 -0.2283  0.0995 -0.0344
 1934W        W 5453   5.260   5.462   8.808 -0.0117 -0.2897 -0.1334
 1935W        W 5454   4.243   6.069   9.087 -0.0174 -0.0168  0.1194
 1936W        W 5455   3.604   6.417   0.266 -0.2103  0.1234  0.0004
 1937W        W 5456   7.915   6.274  10.759 -0.2929 -0.2731 -0.0737
 1938W        W 5457   3.687   0.606   4.422  0.1883 -0.0063  0.1548
 1939W        W 5458   5.239   6.410  10.354  0.1397 -0.0486  0.1575
 1940W        W 5459   4.081   6.808   9.317 -0.0566  0.0966 -0.0981
 1941W        W 5460   5.092   2.255   2.545 -0.2981  0.0690  0.2171
 1942W        W 5461   0.754   3.478   9.933 -0.3108  0.0671  0.0654
 1943W        W 5462   2.136   2.377   2.000 -0.1354  0.0802  0.1436
 1944W        W 5463   4.298   0.489   1.449 -0.0993  0.4839  0.3784
 1945W        W 5464   6.052   9.635   1.515  0.0476  0.2458 -0.2445
 1946W        W 5465   8.944   5.632   8.495  0.0367  0.4732  0.1342
 1947W        W 5466   2.464   3.398   0.912  0.0737 -0.0114  0.2514
 1948W        W 5467   2.421   4.124  11.436 -0.0503 -0.1927  0.0338
 1949W        W 5468   6.267   0.985  10.190 -0.0977 -0.0467  0.1413
 1950W        W 5469   6.389   0.410   9.413  0.0816  0.1083  0.2311
 1951W        W 5470   7.444   0.208   2.232  0.2382  0.1689 -0.2307
 1952W        W 5471   5.922   0.941   2.825 -0.1529  0.2104  0.0328
 1953W        W 5472   0.733   0.930   5.222 -0.1636  0.1492  0.0574
 1954W        W 5473   9.609   8.104  12.260 -0.2017  0.0950 -0.2666
 1955W        W 5474   2.306   7.835   0.118 -0.1107  0.1162  0.0819
 1956W        W 5475   7.205   0.236   8.843  0.1389  0.2516 -0.0843
 1957W        W 5476   5.259   9.630   9.178 -0.1818  0.2031  0.0743
 1958W        W 5477   7.727   3.698  11.381 -0.1187  0.1093  0.3708
 1959W        W 5478   1.794   3.058   4.213  0.3183  0.0964 -0.0446
 1960W        W 5479   7.227   1.221  10.072  0.1417 -0.0154 -0.0735
 1961W        W 5480   6.551   4.012   2.773 -0.0352  0.3191  0.2438
 1962W        W 5481   4.687   8.867  10.934  0.0943  0.0171  0.3474
 1963W        W 5482   7.487   8.141  12.237 -0.1778 -0.0473  0.1125
 1964W        W 5483   9.191   9.035  11.896  0.0922  0.2113  0.0111
 1965W        W 5484   8.333   4.833   1.170  0.1323 -0.0621 -0.0303
 1966W        W 5485   1.401   3.611  12.187  0.1158 -0.0273  0.1913
 1967W        W 5486   2.481   3.130   9.356  0.1121  0.2127  0.1369
 1968W        W 5487   9.549   2.879   1.483  0.1280  0.0380  0.1965
 1969W        W 5488   1.744   4.435   2.732 -0.1621 -0.2358 -0.3035
 1970W        W 5489   2.822   9.256   3.290  0.1081 -0.1311 -0.0068
 1971W        W 5490   2.698   2.359   0.132  0.1709 -0.1281 -0.0687
 1972W        W 5491   6.765   3.272   2.356  0.1512  0.2980  0.0030
 1973W        W 5492   4.000   7.827   1.093 -0.2125 -0.2251 -0.1311
 1974W        W 5493   5.268   4.389  10.435 -0.4136  0.5091 -0.0347
 1975W        W 5494   0.338   7.952  11.830  0.1667 -0.0494  0.1481
 1976W        W 5495   9.263   5.762  10.762 -0.0346  0.0678  0.0487
 1977W        W 5496   5.091   1.750  10.671 -0.1576  0.0764  0.0332
 1978W        W 5497   7.693   8.859   9.438 -0.1738  0.1795  0.4808
 1979W        W 5498   6.302   4.792   0.533 -0.1125 -0.1675  0.3630
 1980W        W 5499   2.107   8.437   1.714  0.0757  0.0015 -0.0983
 1981W        W 5500   6.447   7.441  10.770  0.2112  0.0141  0.1471
 1982W        W 5501   9.663   5.233  11.400 -0.0578 -0.0261  0.4005
 1983W        W 5502   2.507   4.884   0.461 -0.0603  0.0344 -0.2808
 1984W        W 5503   1.399   6.795  11.823  0.2420  0.2078  0.1742
 1985W        W 5504   7.714   4.532  12.182  0.4740  0.0683 -0.0101
 1986W        W 5505   1.860   7.336   2.656  0.2065  0.0827  0.2578
 1987W        W 5506   6.601   7.114  11.199 -0.0746 -0.3075  0.0265
 1988W        W 5507   5.529   4.718   3.334 -0.0975 -0.0849  0.0021
 1989W        W 5508   3.369   2.375  12.263  0.1839  0.3074 -0.3383
 1990W        W 5509   4.013   8.405  11.538 -0.0216  0.1628 -0.1530
 1991W        W 5510   7.338   5.592  11.656 -0.0672  0.1312  0.1972
 1992W        W 5511   3.423   8.677   9.627  0.1404 -0.0371 -0.4848
 1993W        W 5512   9.323   5.922   1.979  0.1692 -0.1960  0.0603
 1994W        W 5513   5.123   0.899   9.846  0.2087  0.0575  0.0212
 1995W        W 5514   4.566   2.565   1.344  0.0996 -0.3856 -0.3170
 1996W        W 5515   3.850   4.395   9.655 -0.2453 -0.1320 -0.2494
 1997W        W 5516   0.208   5.172   8.453  0.1078  0.0403 -0.1968
 1998W        W 5517   6.322   4.394   8.796 -0.0709 -0.1794  0.2076
 1999W        W 5518   3.737   6.822  12.019 -0.3041 -0.0639  0.1877
 2000W        W 5519   6.186   4.557   1.665 -0.2573 -0.2311  0.0696
 2001W        W 5520   8.079   1.308   2.478 -0.0812 -0.1212 -0.1766
 2002W        W 5521   9.398   8.716   1.689 -0.2911 -0.2157  0.0034
 2003W        W 5522   0.413   5.594   9.128 -0.2975  0.2650  0.0350
 2004W        W 5523   6.827   4.968   2.653 -0.0878 -0.4081  0.1407
 2005W        W 5524   0.632   2.262  11.091  0.1855 -0.1206  0.1078
 2006W        W 5525   1.622   6.749   3.845  0.2690 -0.0816 -0.0167
 2007W        W 5526   3.871   9.267   0.657 -0.0884 -0.1820 -0.1098
 2008W        W 5527   0.433   9.638   0.641  0.3318  0.1056  0.1396
 2009W        W 5528   4.768   4.581   9.042  0.0949  0.0147 -0.1611
 2010W        W 5529   5.639   5.171   9.030  0.0847 -0.2189 -0.1852
 2011W        W 5530   8.974   3.121  12.134 -0.0389 -0.2619 -0.2132
 2012W        W 5531   7.621   4.240  10.452  0.0132 -0.1158  0.2048
 2013W        W 5532   0.751   8.837   9.302 -0.1654 -0.0590 -0.0127
 2014W        W 5533   2.295   3.109   4.122  0.1200  0.1252 -0.0023
 2015W        W 5534   3.994   8.354  11.041  0.1625 -0.2851 -0.0358
 2016W        W 5535   8.678   7.315   9.682  0.3717  0.2213 -0.0723
 2017W        W 5536   0.116   6.980  10.818 -0.5795 -0.2022 -0.2189
 2018W        W 5537   5.510   7.474   2.029 -0.1041  0.1115  0.0346
 2019W        W 5538   6.862   0.053   9.338 -0.4481  0.1625 -0.1782
 2020W        W 5539   3.570   2.384   0.501 -0.2311  0.0868  0.0085
 2021W        W 5540   4.599   3.098   2.720 -0.4284 -0.1370 -0.0652
 2022W        W 5541   2.064   5.581   0.974  0.1993 -0.0927 -0.0801
 2023W        W 5542   1.970   6.883   4.737 -0.0334 -0.0245 -0.1354
 2024W        W 5543   8.676   0.857   0.150 -0.1955  0.2570  0.1057
 2025W        W 5544   2.106   3.631  12.293  0.0623 -0.0725  0.0454
 2026W        W 5545   6.811   6.708   0.582 -0.0037  0.0648  0.0056
 2027W        W 5546   1.014   2.705   2.209  0.0101 -0.2369 -0.0997
 2028W        W 5547   5.205   9.509   1.141 -0.0493  0.0534 -0.2160
 2029W        W 5548   9.351   6.132   3.426 -0.0714  0.0193 -0.3744
 2030W        W 5549   7.700   2.036   9.949  0.0068  0.1067 -0.1619
 2031W        W 5550   8.214   5.880   0.037  0.1832 -0.0973 -0.0800
 2032W        W 5551   9.212   8.298   1.449 -0.0471 -0.2563  0.0708
 2033W        W 5552   8.176   4.897   2.740 -0.1187 -0.2796 -0.3122
 2034W        W 5553   7.311   5.050   1.128 -0.2109  0.0365  0.2873
 2035W        W 5554   6.371   4.838  11.160 -0.0631 -0.1407 -0.1604
 2036W        W 5555   4.201   6.072   1.983 -0.4322 -0.1193  0.0844
 2037W        W 5556   0.205   9.526  10.670  0.0180 -0.2022  0.0861
 2038W        W 5557   1.953   7.789   8.593  0.2156 -0.0211 -0.1440
 2039W        W 5558   3.462   6.481  11.633 -0.2695  0.0092  0.1034
 2040W        W 5559   2.299   1.067   0.236  0.0218 -0.1149 -0.2032
 2041W        W 5560   1.530   2.375  11.611  0.0548  0.0885 -0.0188
 2042W        W 5561   5.332   9.500   2.213 -0.0660  0.1374 -0.0634
 2043W        W 5562   1.077   0.262   9.153 -0.1425  0.2138 -0.0283
 2044W        W 5563   1.023   2.176  10.281  0.2071  0.2918 -0.0795
 2045W        W 5564   0.235   5.645  10.019  0.1452  0.0102 -0.1750
 2046W        W 5565   0.406   4.915   3.593  0.3821  0.2764  0.2313
 2047W        W 5566   6.750   5.616   3.370 -0.3015  0.1599  0.2661
 2048W        W 5567   5.864   0.872   0.863  0.1970 -0.0552  0.0028
 2049W        W 5568   4.551   6.502   9.821 -0.3839  0.2126 -0.1012
 2050W        W 5569   3.621   6.778   0.614 -0.2173  0.0396  0.3076
 2051W        W 5570   0.935   9.438   0.671  0.0152 -0.1972  0.3531
 2052W        W 5571   6.032   8.543   2.238  0.2308 -0.2802  0.2841
 2053W        W 5572   1.824   8.409   0.620 -0.3142 -0.1713 -0.0784
 2054W        W 5573   4.995   5.928   3.041 -0.0894  0.2340  0.0057
 2055W        W 5574   7.050   7.101   9.922  0.1705  0.3702 -0.1392
 2056W        W 5575   8.788   7.170   9.184 -0.0145  0.2451 -0.0904
 2057W        W 5576   3.436   4.581   9.467  0.1984 -0.2660 -0.3476
 2058W        W 5577   8.351   9.593   3.176 -0.4186 -0.0788 -0.0619
 2059W        W 5578   4.733   8.785   1.030 -0.1435 -0.0172 -0.0112
 2060W        W 5579   2.189   7.287  11.811 -0.0563  0.0741  0.2230
 2061W        W 5580   1.614   5.361   3.012  0.1841  0.1836 -0.1079
 2062W        W 5581   0.333   6.503   4.681 -0.2328  0.1081 -0.3748
 2063W        W 5582   5.991   8.609  11.640 -0.0661  0.0222 -0.1236
 2064W        W 5583   4.344   9.121   3.239 -0.0193 -0.1464 -0.1743
 2065W        W 5584   1.066   4.439   4.082  0.0342  0.0580  0.0792
 2066W        W 5585   6.060   3.522   8.876  0.2485  0.1006  0.1329
 2067W        W 5586   2.415   2.290   1.103  0.1832  0.0490  0.0060
 2068W        W 5587   1.802   8.477   3.378  0.0170 -0.1599 -0.1628
 2069W        W 5588   0.881   5.000   0.755  0.1683  0.0377  0.1880
 2070W        W 5589   7.120   0.669  10.118  0.1745 -0.0234  0.0361
 2071W        W 5590   8.477   1.848   2.994 -0.0483  0.0356 -0.1002
 2072W        W 5591   4.201   1.266   2.888 -0.0834  0.0830 -0.1133
 2073W        W 5592   2.428   3.860  10.818 -0.0177 -0.0991  0.0595
 2074W        W 5593   8.877   5.722  12.338 -0.1376 -0.2094 -0.2856
 2075W        W 5594   7.140   4.128  10.708  0.1234 -0.3491  0.2808
 2076W        W 5595   8.374   8.287   0.164  0.0291  0.2038 -0.1206
 2077W        W 5596   5.052   0.299   3.319  0.0441 -0.0555  0.0853
 2078W        W 5597   3.764   8.273   1.282 -0.0006  0.2125  0.1288
 2079W        W 5598   8.572   6.402   3.687  0.2729  0.0031 -0.1726
 2080W        W 5599   0.633   6.448   5.125 -0.0664  0.0206  0.0063
 2081W        W 5600   1.683   0.847  10.632 -0.2732 -0.1489 -0.2227
 2082W        W 5601   4.011   1.898   3.584 -0.0904  0.2511 -0.1924
 2083W        W 5602   8.498   2.868   4.247  0.0869 -0.0364  0.0705
 2084W        W 5603   1.963   7.318   4.415 -0.2378 -0.1349  0.3522
 2085W        W 5604   5.279   2.991   2.040  0.1664  0.0858 -0.1430
 2086W        W 5605   6.694   9.598   8.746  0.1023 -0.1210 -0.3537
 2087W        W 5606   8.535   4.700   4.821  0.0757  0.0352  0.4802
 2088W        W 5607   4.597   7.012   1.031  0.3016 -0.0679  0.0599
 2089W        W 5608   3.759   1.469   9.694  0.1050 -0.1024 -0.1804
 2090W        W 5609   5.017   0.057  10.986 -0.2217 -0.1190 -0.0166
 2091W        W 5610   0.765   9.532   0.218  0.2365  0.0294  0.2755
 2092W        W 5611   6.550   0.162  12.026  0.1657 -0.1619 -0.3277
 2093W        W 5612   6.030   2.527   2.454  0.1586  0.0992 -0.2159
 2094W        W 5613   9.112   0.277   1.319  0.0875 -0.0596  0.1162
 2095W        W 5614   3.623   7.589  11.429 -0.0075 -0.1394  0.0967
 2096W        W 5615   9.421   7.479   3.133 -0.3597  0.1081 -0.0537
 2097W        W 5616   1.943   4.670  11.154  0.0765 -0.2375 -0.3486
 2098W        W 5617   9.500   7.369   2.692 -0.0245  0.1653  0.0695
 2099W        W 5618   4.192   0.776  11.489 -0.0208 -0.0878  0.2195
 2100W        W 5619   6.425   1.987  11.230  0.1538 -0.3320 -0.1747
 2101W        W 5620   0.111   9.028  10.744  0.1678  0.2589  0.1965
 2102W        W 5621   2.306   5.926  12.510  0.1482 -0.5480  0.0568
 2103W        W 5622   0.618   2.275   5.081 -0.0775  0.0418  0.0757
 2104W        W 5623   0.620   0.846   2.949  0.0044  0.2970  0.0324
 2105W        W 5624   0.215   8.400   2.240  0.2312 -0.2703 -0.0584
 2106W        W 5625   2.650   9.425  11.636  0.2110  0.1881 -0.0738
 2107W        W 5626   5.117   7.390   1.655 -0.0419  0.1916 -0.2946
 2108W        W 5627   0.378   6.102  11.829 -0.0615  0.0147 -0.2616
 2109W        W 5628   1.451   3.616   9.322 -0.0613  0.1491  0.1645
 2110W        W 5629   4.235   7.723   3.679 -0.0138  0.0459  0.1491
 2111W        W 5630   1.975   2.580  12.099  0.1449  0.1877 -0.1039
 2112W        W 5631   0.620   1.724   8.699 -0.1142 -0.0988 -0.1758
 2113W        W 5632   7.062   6.611   0.141  0.0847  0.2015  0.1583
 2114W        W 5633   1.914   5.020   2.818  0.2599 -0.4770 -0.0230
 2115W        W 5634   7.326   3.765   3.300  0.1422 -0.3285  0.2405
 2116W        W 5635   7.401   8.841  11.895 -0.0173 -0.2324 -0.2618
 2117W        W 5636   0.694   1.504   2.606  0.3067 -0.0613 -0.0368
 2118W        W 5637   1.065   5.950   3.491 -0.0619 -0.0667 -0.2199
 2119W        W 5638   6.015   7.823  10.001  0.0304 -0.0046 -0.2929
 2120W        W 5639   0.369   0.697   3.375 -0.3013  0.3591 -0.1555
 2121W        W 5640   6.574   1.226  10.486 -0.1114 -0.0280 -0.3261
 2122W        W 5641   1.822   8.257   2.821 -0.0339 -0.1910  0.0495
 2123W        W 5642   5.055   5.272  11.557  0.4332 -0.2393  0.1678
 2124W        W 5643   8.547   8.802   8.143 -0.0929 -0.1254  0.3275
 2125W        W 5644   7.242   7.022  12.496  0.0032 -0.2549  0.0395
 2126W        W 5645   7.652   6.494   1.987 -0.1364  0.1943 -0.3972
 2127W        W 5646   1.017   8.075   2.794 -0.2046  0.0136  0.0964
 2128W        W 5647   6.993   5.184   3.105 -0.0890  0.2742  0.2182
 2129W        W 5648   1.038   0.765  11.828 -0.2045 -0.2423 -0.2391
 2130W        W 5649   1.094   2.678   1.194 -0.0759 -0.2339 -0.2231
 2131W        W 5650   1.688   2.278   9.836  0.0360 -0.0726 -0.0464
 2132W        W 5651   8.344   3.411   0.104  0.0333 -0.3155 -0.3645
 2133W        W 5652   2.814   0.779  10.804 -0.0626 -0.1840  0.0695
 2134W        W 5653   1.256   4.916  12.445 -0.0889 -0.1920  0.1430
 2135W        W 5654   0.312   4.033  10.274  0.1204 -0.0915 -0.1222
 2136W        W 5655   8.342   8.343   9.670 -0.0799 -0.0692 -0.1039
 2137W        W 5656   1.876   6.855   9.148 -0.1505 -0.0769 -0.0377
 2138W        W 5657   3.863   8.008  11.847  0.3822 -0.2005  0.0247
 2139W        W 5658   2.411   6.925   4.398  0.1892  0.0636 -0.2140
 2140W        W 5659   7.534   6.171   9.494 -0.0139  0.3079  0.1450
 2141W        W 5660   7.990   3.283   1.354  0.0352 -0.0862 -0.1360
 2142W        W 5661   9.594   5.698   2.422  0.3786  0.0789 -0.0629
 2143W        W 5662   2.518   7.103   0.579  0.0128 -0.1183  0.2869
 2144W        W 5663   8.529   7.148   3.843  0.2975  0.1956  0.2514
 2145W        W 5664   1.015   4.869   9.034 -0.0297  0.0590  0.1997
 2146W        W 5665   4.202   7.205   3.744 -0.0199  0.1072 -0.0762
 2147W        W 5666   5.070   6.872  11.349 -0.2185 -0.2615 -0.0531
 2148W        W 5667   7.860   7.854   9.658 -0.1942 -0.3371 -0.1314
 2149W        W 5668   4.112   4.580   4.398 -0.2339  0.0337 -0.2208
 2150W        W 5669   7.252   3.405   2.434  0.2494  0.0109 -0.0386
 2151W        W 5670   4.548   3.223   9.070  0.3457  0.0274  0.2968
 2152W        W 5671   9.601   7.668  10.323 -0.2841  0.0295 -0.1677
 2153W        W 5672   5.927   7.697   8.636  0.1043 -0.1900  0.1288
 2154W        W 5673   3.792   7.663   2.062 -0.2453  0.1623  0.0066
 2155W        W 5674   5.219   3.741   8.716  0.2866  0.1849 -0.3377
 2156W        W 5675   6.563   3.358   0.334  0.2301  0.1341 -0.2908
 2157W        W 5676   5.275   3.467   9.260  0.2273 -0.0694  0.1762
 2158W        W 5677   4.852   8.903   9.553 -0.0840  0.3800 -0.0062
 2159W        W 5678   9.281   2.493   4.045  0.0849 -0.3017  0.0290
 2160W        W 5679   6.372   4.020   4.270 -0.1053 -0.1487 -0.0007
 2161W        W 5680   3.348   2.513   1.515  0.0858  0.2744  0.1335
 2162W        W 5681   6.742   9.529  10.294 -0.1069  0.4840  0.0165
 2163W        W 5682   2.228   1.558  11.188  0.0833 -0.4365 -0.2148
 2164W        W 5683   2.980   6.199  11.572 -0.0142 -0.0323 -0.1802
 2165W        W 5684   3.863   3.808  10.945 -0.1586 -0.1025  0.1861
 2166W        W 5685   5.247   3.711   2.475 -0.0725 -0.0096 -0.3904
 2167W        W 5686   0.249   4.983   0.183  0.0899 -0.1211  0.0554
 2168W        W 5687   3.876   5.552   9.624 -0.0570  0.3198 -0.0462
 2169W        W 5688   4.811   2.459   3.652 -0.1844  0.1562  0.3756
 2170W        W 5689   7.199   3.310  11.890 -0.0490  0.4724  0.0225
 2171W        W 5690   2.305   4.629  11.440  0.0192 -0.0842 -0.1079
 2172W        W 5691   0.112   4.745  11.463  0.3853  0.0570  0.0739
 2173W        W 5692   8.556   7.650  10.436  0.0910 -0.3177  0.0567
 2174W        W 5693   9.462   5.494   3.771  0.1514 -0.0271 -0.0074
 2175W        W 5694   3.254   0.084   1.464  0.1211  0.2290 -0.0143
 2176W        W 5695   0.807   3.447   9.050  0.4982  0.0483  0.3196
 2177W        W 5696   5.916   7.167   2.101 -0.2489  0.1129  0.0568
 2178W        W 5697   8.115   7.757  10.718  0.1643  0.0224 -0.3071
 2179W        W 5698   2.637   2.894   1.286  0.1617  0.1882 -0.0929
 2180W        W 5699   3.055   7.806   0.430 -0.0050  0.0986 -0.0606
 2181W        W 5700   8.042   9.540   0.616  0.2264 -0.1885  0.0862
 2182W        W 5701   5.415   8.999  11.221 -0.0752  0.0372  0.1765
 2183W        W 5702   1.661   1.645  10.976 -0.0376 -0.1435 -0.0648
 2184W        W 5703   1.802   3.352  11.401 -0.2044  0.2697 -0.1347
 2185W        W 5704   6.920   6.932   1.423 -0.2757 -0.4016  0.0539
 2186W        W 5705   5.909   7.603   1.793  0.1502  0.0621 -0.0643
 2187W        W 5706   3.414   1.567   0.767  0.1394  0.1307  0.0808
 2188W        W 5707   4.425   4.655   2.270 -0.0612 -0.0669  0.1619
 2189W        W 5708   4.828   2.271  11.303  0.0201 -0.1166 -0.2671
 2190W        W 5709   0.311   5.730   4.238  0.0035 -0.0948  0.0962
 2191W        W 5710   2.288   5.723   1.532  0.4465 -0.0337  0.1986
 2192W        W 5711   7.725   6.266   9.007  0.0308  0.5611 -0.1691
 2193W        W 5712   3.692   0.423  12.379  0.1200 -0.2210  0.0366
 2194W        W 5713   4.791   2.405   9.767  0.0853 -0.2238  0.1228
 2195W        W 5714   9.166   3.648  12.164 -0.0483  0.4710 -0.0433
 2196W        W 5715   6.599   2.822   9.532  0.1124 -0.0643  0.2661
 2197W        W 5716   0.170   1.064   2.008 -0.2517  0.0223 -0.0587
 2198W        W 5717   8.419   1.326   2.853 -0.4988 -0.1413  0.1508
 2199W        W 5718   9.249   6.677   3.623 -0.2149  0.1269 -0.3149
 2200W        W 5719   7.449   4.142  11.842 -0.0982  0.1705  0.5540
 2201W        W 5720   2.492   6.718   4.964  0.2252 -0.4815  0.0030
 2202W        W 5721   8.392   2.048  11.622  0.3116 -0.0467  0.0859
 2203W        W 5722   8.450   0.778  11.813  0.0667 -0.0442  0.2111
 2204W        W 5723   4.902   1.695   3.658 -0.0990  0.1409  0.2108
 2205W        W 5724   6.435   5.615  11.721 -0.1043  0.1145  0.2432
 2206W        W 5725   2.397   5.649   3.636  0.2026 -0.2032  0.3043
 2207W        W 5726   6.378   2.853   3.172 -0.0482  0.2028 -0.0237
 2208W        W 5727   1.494   7.823   2.750  0.0572  0.1359 -0.0374
 2209W        W 5728   5.673   4.778   2.750 -0.1945  0.1024 -0.1680
 2210W        W 5729   6.965   2.618   0.008  0.1325  0.0055 -0.1212
 2211W        W 5730   6.634   0.279   2.488 -0.1943  0.0548 -0.0160
 2212W        W 5731   6.630   7.952   0.167 -0.2486  0.0604  0.2235
 2213W        W 5732   7.936   8.097   0.393 -0.3118  0.0562 -0.1085
 2214W        W 5733   0.915   1.076   0.033  0.0724 -0.1067 -0.0395
 2215W        W 5734   1.471   1.405   3.039  0.1200  0.0552  0.2158
 2216W        W 5735   4.934   3.930  10.432 -0.0587  0.0678 -0.0529
 2217W        W 5736   8.531   9.673  12.220 -0.1415  0.0705 -0.0804
 2218W        W 5737   4.089   6.133   3.441  0.0462  0.0157 -0.2647
 2219W        W 5738   4.796   3.001   8.054 -0.1269 -0.1258 -0.3376
 2220W        W 5739   1.029   8.361   3.440 -0.3526  0.1227  0.0486
 2221W        W 5740   4.089   0.492  10.953  0.0420  0.1976  0.0682
 2222W        W 5741   4.466   7.905  10.961  0.1121 -0.2916 -0.0093
 2223W        W 5742   4.798   0.007   1.340  0.3948  0.1059 -0.3387
 2224W        W 5743   5.230   6.875   1.563 -0.0168 -0.0552 -0.2995
 2225W        W 5744   2.162   0.179   4.190  0.0073  0.0004 -0.1850
 2226W        W 5745   6.954   5.264   9.999 -0.0316  0.1327  0.1886
 2227W        W 5746   4.438   6.725   8.182 -0.1467 -0.0418 -0.0352
 2228W        W 5747   9.100   3.001   9.684 -0.0379 -0.2525  0.0283
 2229W        W 5748   7.052   7.910  10.919  0.1311 -0.0290  0.0031
 2230W        W 5749   4.588   0.838   9.810  0.0659 -0.1980  0.1438
 2231W        W 5750   7.459   7.638  10.934 -0.0046  0.2815 -0.0055
 2232W        W 5751   3.903   2.751  11.218  0.0341 -0.0714  0.0040
 2233W        W 5752   2.663   4.050   3.198 -0.4744 -0.1896  0.0683
 2234W        W 5753   5.715   9.365  10.983 -0.2377 -0.3215  0.0824
 2235W        W 5754   2.429   6.887  11.095  0.0187 -0.2891  0.2144
 2236W        W 5755   9.657   0.311  10.265 -0.4965 -0.1596  0.0769
 2237W        W 5756   5.330   2.775   1.575  0.1715 -0.0816  0.1992
 2238W        W 5757   9.376   3.319  12.469  0.0657 -0.2435 -0.2461
 2239W        W 5758   3.598   6.755   9.852 -0.0195  0.0688 -0.3267
 2240W        W 5759   2.952   4.374  10.764 -0.1066 -0.0584  0.0107
 2241W        W 5760   8.310   9.355   2.179 -0.0336  0.2168 -0.1843
 2242W        W 5761   3.028   0.498   3.057  0.0704  0.2281 -0.2639
 2243W        W 5762   1.190   5.455  11.995 -0.1430 -0.2464 -0.1948
 2244W        W 5763   2.736   4.968   8.970  0.0967  0.0252 -0.1368
 2245W        W 5764   8.824   8.063   1.808 -0.3664 -0.1798  0.0003
 2246W        W 5765   1.387   5.055   2.342 -0.0658 -0.2863 -0.1557
 2247W        W 5766   1.553   8.596   9.762  0.3417 -0.0097 -0.5536
 2248W        W 5767   9.419   8.031   3.988  0.2142 -0.0854 -0.3526
 2249W        W 5768   7.247   5.084   3.986  0.1039  0.1132  0.1966
 2250W        W 5769   5.274   8.980   3.295 -0.0234 -0.1351 -0.0621
 2251W        W 5770   5.903   3.712  11.780 -0.0700  0.3399  0.4618
 2252W        W 5771   3.168   7.926   2.507 -0.0636 -0.0907 -0.2297
 2253W        W 5772   0.159   0.604   2.450 -0.2474  0.2033 -0.1441
 2254W        W 5773   7.877   8.752  11.622  0.2449 -0.3759  0.0390
 2255W        W 5774   7.358   2.155   1.193 -0.3371  0.1984  0.0027
 2256W        W 5775   4.125   9.374   3.670 -0.1823 -0.1833  0.0172
 2257W        W 5776   6.538   6.190   0.467  0.1553  0.0249  0.1428
 2258W        W 5777   6.901   3.655  10.637 -0.0191  0.0443 -0.2222
 2259W        W 5778   2.443   8.065   1.935  0.2858 -0.1880 -0.0567
 2260W        W 5779   1.730   6.069  11.598  0.1085 -0.2963  0.1182
 2261W        W 5780   0.464   7.033  11.288  0.0052 -0.2064  0.1495
 2262W        W 5781   8.797   6.757   4.025 -0.0372 -0.0965  0.2042
 2263W        W 5782   3.314   2.132  11.493 -0.0900  0.0612 -0.0639
 2264W        W 5783   0.078   2.789  11.783  0.0364  0.1249  0.2605
 2265W        W 5784   1.560   2.187   8.864 -0.0434  0.0948 -0.2325
 2266W        W 5785   7.324   2.736  11.074  0.0913 -0.0052  0.2124
 2267W        W 5786   2.156   5.129   3.598  0.0208 -0.0288 -0.3097
 2268W        W 5787   2.883   6.459   2.546  0.0708 -0.1389  0.0937
 2269W        W 5788   2.649   5.312  11.155  0.1418 -0.4444 -0.2870
 2270W        W 5789   1.052   2.778  12.368 -0.1446 -0.1126  0.2177
 2271W        W 5790   3.110   0.608  11.347 -0.0125 -0.0145  0.0307
 2272W        W 5791   8.493   3.114   3.779 -0.2066  0.3065  0.0385
 2273W        W 5792   0.793   6.393  10.384 -0.0869 -0.3463 -0.1170
 2274W        W 5793   3.002   4.196  12.475 -0.1233 -0.1903 -0.3409
 2275W        W 5794   7.118   6.092   3.342 -0.1289  0.2888 -0.0467
 2276W        W 5795   4.637   3.699   8.725  0.1235 -0.3156 -0.0951
 2277W        W 5796   4.089   9.217  12.413  0.0347  0.0559  0.3250
 2278W        W 5797   5.560   4.184  10.906 -0.1426 -0.2062 -0.1572
 2279W        W 5798   8.816   6.557  10.301  0.0817  0.3273  0.0863
 2280W        W 5799   7.871   9.266  10.057  0.3395  0.0843 -0.3533
 2281W        W 5800   2.111   3.787   3.356 -0.4024 -0.0938 -0.0984
 2282W        W 5801   8.465   8.925   2.366  0.2696  0.1332 -0.2672
 2283W        W 5802   1.198   3.244  10.177 -0.1440 -0.0716  0.1853
 2284W        W 5803   7.448   2.987  10.520 -0.0317  0.1643  0.0515
 2285W        W 5804   4.503   7.400   2.398 -0.2468  0.0100 -0.0506
 2286W        W 5805   4.700   7.744   0.568 -0.0070  0.0771 -0.0193
 2287W        W 5806   2.757   2.437   3.990  0.0236  0.3579  0.0159
 2288W        W 5807   1.922   7.666   2.288 -0.3174  0.0068  0.0315
 2289W        W 5808   5.329   6.761   9.539  0.1880 -0.1048 -0.1542
 2290W        W 5809   3.377   5.629   3.523  0.1135 -0.5114 -0.3784
 2291W        W 5810   6.639   8.090   9.129  0.0228 -0.3251  0.0298
 2292W        W 5811   7.975   4.279   9.266 -0.0234 -0.1951 -0.2814
 2293W        W 5812   0.402   2.072   2.406 -0.1862 -0.1480 -0.2038
 2294W        W 5813   3.296   9.176  12.435 -0.1325 -0.0776 -0.0860
 2295W        W 5814   4.423   6.536   0.799 -0.1559 -0.2145  0.0483
 2296W        W 5815   6.683   1.548  11.446  0.0627  0.0603  0.1779
 2297W        W 5816   6.481   0.230  11.356 -0.0464  0.1600  0.0047
 2298W        W 5817   6.667   1.369   2.413 -0.1507 -0.0012  0.0045
 2299W        W 5818   0.899   4.769   9.565  0.1398 -0.0235  0.0092
 2300W        W 5819   4.690   6.321   1.942 -0.1140  0.0576 -0.1903
 2301W        W 5820   6.859   0.518  10.772  0.4810 -0.2847 -0.1664
 2302W        W 5821   1.093   2.334   0.393 -0.0933 -0.2347 -0.0009
 2303W        W 5822   4.193   3.613  11.269 -0.0778 -0.0739  0.1469
 2304W        W 5823   0.282   0.891   4.173 -0.0480  0.0202 -0.0879
 2305W        W 5824   7.772   7.821   2.823 -0.4193 -0.0621  0.2228
 2306W        W 5825   5.653   7.185   3.600 -0.0174 -0.1087 -0.1819
 2307W        W 5826   7.389   2.253   2.273  0.0093  0.1973  0.2481
 2308W        W 5827   6.243   5.366  12.584  0.0486 -0.0410 -0.0798
 2309W        W 5828   7.052   0.567   3.526 -0.0322 -0.0660  0.0695
 2310W        W 5829   3.992   6.684  11.628 -0.4051  0.0497 -0.1837
 2311W        W 5830   3.816   6.034   9.837 -0.3940  0.0939  0.4140
 2312W        W 5831   2.814   6.789   9.462  0.1216  0.0873 -0.0723
 2313W        W 5832   2.268   1.281   8.822  0.0234 -0.2922 -0.1775
 2314W        W 5833   2.696   0.179   9.931  0.0869  0.0442  0.4771
 2315W        W 5834   6.840   7.420  11.653  0.1521 -0.1555  0.0044
 2316W        W 5835   5.884   7.539   2.509  0.0816  0.0108  0.0220
 2317W        W 5836   7.051   8.212   2.985 -0.0372 -0.1053  0.3022
 2318W        W 5837   8.109   0.943   8.376  0.1888 -0.0656  0.0878
 2319W        W 5838   6.231   1.883   0.202  0.0678  0.1900 -0.2284
 2320W        W 5839   9.266   1.851   2.932 -0.1785 -0.1025 -0.0508
 2321W        W 5840   3.542   8.156   0.083 -0.1450  0.1627 -0.0193
 2322W        W 5841   2.604   6.114  11.903  0.0807 -0.0953  0.0590
 2323W        W 5842   5.354   4.777   3.815 -0.0168  0.4461 -0.1432
 2324W        W 5843   1.888   2.139   2.475  0.0838 -0.0828  0.2032
 2325W        W 5844   6.655   6.804   2.894 -0.0517  0.1365  0.1816
 2326W        W 5845   9.400   4.911  12.302 -0.2832 -0.1366  0.1088
 2327W        W 5846   3.340   2.968  12.070 -0.3299  0.1162 -0.1851
 2328W        W 5847   2.203   6.349   9.909  0.1528 -0.1431 -0.2639
 2329W        W 5848   7.116   6.083   0.526 -0.3125  0.2113 -0.0715
 2330W        W 5849   0.954   9.256   4.176  0.0473  0.1613  0.1180
 2331W        W 5850   4.350   4.235   1.307  0.2254  0.2466 -0.1510
 2332W        W 5851   4.880   7.915   0.043  0.1077  0.3304  0.0893
 2333W        W 5852   9.064   5.288   9.474 -0.2079  0.2139 -0.1237
 2334W        W 5853   7.064   8.811   0.125 -0.1017  0.2839 -0.0859
 2335W        W 5854   3.462   6.246   0.969 -0.0044  0.2085  0.1467
 2336W        W 5855   1.913   4.762   0.465 -0.1512 -0.0056  0.3389
 2337W        W 5856   6.841   8.534   9.997 -0.1603  0.0797  0.0188
 2338W        W 5857   3.472   9.570   2.769 -0.0411  0.2306  0.2157
 2339W        W 5858   1.800   0.176  12.128  0.0482  0.3467  0.0359
 2340W        W 5859   7.576   7.473  11.618 -0.2368 -0.1840 -0.1383
 2341W        W 5860   3.528   4.777   0.262 -0.1931  0.1645 -0.2486
 2342W        W 5861   5.038   5.867   9.120 -0.1405 -0.1150 -0.0671
 2343W        W 5862   2.986   1.252   9.818 -0.0936 -0.0537  0.3716
 2344W        W 5863   4.930   7.346  11.526 -0.0481 -0.1615 -0.1945
 2345W        W 5864   7.050   2.296  11.110  0.0793 -0.0685  0.0602
 2346W        W 5865   0.515   0.266  10.347  0.2486  0.0693  0.1159
 2347W        W 5866   8.620   6.995   0.903 -0.3289  0.1593 -0.0114
 2348W        W 5867   4.372   2.184   1.114  0.0085 -0.1191  0.1668
 2349W        W 5868   4.096   2.432  10.395  0.0544  0.0598  0.5018
 2350W        W 5869   8.393   8.435   2.500 -0.0304  0.1603  0.2750
 2351W        W 5870   1.632   4.017   3.124  0.2972  0.0604  0.0583
 2352W        W 5871   1.290   5.862  12.313 -0.0914  0.0370  0.0019
 2353W        W 5872   7.305   3.407  12.345 -0.0673  0.2505 -0.2702
 2354W        W 5873   4.829   4.913   9.410  0.1647 -0.0890 -0.1783
 2355W        W 5874   4.643   5.904  11.716  0.0522 -0.1348  0.1472
 2356W        W 5875   3.585   1.380  12.468 -0.0154  0.0326 -0.2567
 2357W        W 5876   3.439   2.669  11.160  0.1403 -0.1362  0.4161
 2358W        W 5877   9.146   3.025   1.640  0.2584 -0.0863 -0.2099
 2359W        W 5878   0.678   7.335  10.000 -0.0710 -0.0140 -0.2049
 2360W        W 5879   8.119   2.055   9.031  0.0763  0.1926  0.1478
 2361W        W 5880   8.135   7.845   9.182  0.4465 -0.1520 -0.0390
 2362W        W 5881   1.519   5.731   1.047 -0.1387  0.0566  0.1525
 2363W        W 5882   0.060   3.390   4.985  0.2462  0.2386  0.0582
 2364W        W 5883   3.017   4.162   4.562 -0.0289 -0.2056 -0.1842
 2365W        W 5884   5.227   6.563   1.105  0.1082 -0.1929 -0.1035
 2366W        W 5885   9.159   6.794   9.264  0.0068  0.0776  0.1762
 2367W        W 5886   9.411   5.439   9.882 -0.2707 -0.0369 -0.2355
 2368W        W 5887   7.561   0.683   9.810 -0.3790 -0.0576  0.1035
 2369W        W 5888   3.215   9.075   4.212  0.1965 -0.0815 -0.1452
 2370W        W 5889   5.705   3.358   8.110  0.3104 -0.4756 -0.3403
 2371W        W 5890   4.964   0.584  12.294  0.0343 -0.3749 -0.0746
 2372W        W 5891   1.336   5.191   5.458  0.0693  0.0958  0.0134
 2373W        W 5892   5.783   0.042   9.269 -0.3903 -0.2017  0.0537
 2374W        W 5893   6.789   7.154  12.591  0.0981  0.0527 -0.0589
 2375W        W 5894   8.295   1.481  10.308  0.1858  0.0196  0.0457
 2376W        W 5895   8.423   1.802   9.955 -0.2556 -0.1666 -0.1946
 2377W        W 5896   6.534   0.852  11.258  0.1088 -0.0423 -0.0123
 2378W        W 5897   3.112   5.965   1.828 -0.1503 -0.0271 -0.1456
 2379W        W 5898   7.515   2.787   2.466  0.1003 -0.1466  0.1271
 2380W        W 5899   5.094   2.006   8.900  0.2671  0.1753 -0.0454
 2381W        W 5900   2.569   7.644   5.026  0.0124  0.1980 -0.1349
 2382W        W 5901   5.713   6.979   9.287 -0.0603  0.1818  0.1420
 2383W        W 5902   2.856   7.851   2.066  0.1572 -0.2031 -0.1112
 2384W        W 5903   2.846   8.990   2.169  0.1368 -0.0072  0.0640
 2385W        W 5904   3.784   2.632   8.939 -0.1171  0.0278 -0.1304
 2386W        W 5905   7.386   1.668   3.609  0.0573 -0.1134  0.0943
 2387W        W 5906   3.711   7.131   0.232  0.1439  0.0870 -0.2228
 2388W        W 5907   8.180   8.345  11.696  0.1188  0.0616 -0.0167
 2389W        W 5908   4.072   7.929  10.652  0.0235  0.1576  0.1500
 2390W        W 5909   5.661   6.314   0.452 -0.3087 -0.0410 -0.3049
 2391W        W 5910   5.128   7.467  10.471 -0.2390  0.0158 -0.2151
 2392W        W 5911   3.864   3.106   4.643 -0.3882  0.1834  0.0255
 2393W        W 5912   6.560   8.032  10.010  0.0731 -0.2425 -0.1470
 2394W        W 5913   8.866   8.099   5.251 -0.2257 -0.1985  0.0577
 2395W        W 5914   1.757   6.247   2.909  0.1289 -0.0261 -0.2389
 2396W        W 5915   2.759   7.721   0.021 -0.0925  0.1222 -0.0721
 2397W        W 5916   9.137   8.017   0.562 -0.1197 -0.2082  0.1755
 2398W        W 5917   4.575   7.074   9.749 -0.1532  0.2438  0.0056
 2399W        W 5918   2.732   3.885   3.668  0.0609  0.0669  0.0042
 2400W        W 5919   7.614   7.825   2.355  0.1764  0.1124  0.0554
 2401W        W 5920   8.819   8.926  10.328 -0.1321 -0.2138 -0.3497
 2402W        W 5921   8.995   0.367   4.022 -0.1907  0.1191 -0.1345
 2403W        W 5922   0.605   6.829  10.159  0.0700  0.2008  0.1786
 2404W        W 5923   0.562   8.895   8.472  0.2486 -0.2286 -0.2382
 2405W        W 5924   5.179   2.572   9.471 -0.2232 -0.0060  0.1775
 2406W        W 5925   2.899   5.102  12.095  0.1193 -0.1788  0.2154
 2407W        W 5926   4.352   2.675   3.490 -0.1515 -0.0202  0.0357
 2408W        W 5927   3.418   1.426   1.605  0.0553 -0.1968  0.3876
 2409W        W 5928   7.866   6.467  12.423  0.2231  0.0147  0.2547
 2410W        W 5929   3.992   1.762  12.558  0.1715 -0.4192 -0.1759
 2411W        W 5930   6.289   3.374   0.805  0.2726  0.1111  0.0209
 2412W        W 5931   4.301   4.711   2.786  0.2301  0.0299 -0.0201
 2413W        W 5932   2.552   2.148  10.466  0.0245 -0.1699  0.0379
 2414W        W 5933   1.689   5.394   0.521 -0.2785  0.0706 -0.1817
 2415W        W 5934   5.909   1.945  11.140 -0.0385  0.0452 -0.0392
 2416W        W 5935   6.344   6.156  12.405  0.0555 -0.0608  0.1157
 2417W        W 5936   4.600   1.375   1.648 -0.0429 -0.0355  0.2063
 2418W        W 5937   1.816   5.910   0.490 -0.0595  0.3253 -0.0053
 2419W        W 5938   1.177   1.564   3.878  0.0211 -0.0158  0.4466
 2420W        W 5939   4.059   7.232   1.155 -0.0097  0.0655  0.0583
 2421W        W 5940   5.606   7.022   1.151  0.3019 -0.2987 -0.3157
 2422W        W 5941   9.386   4.872   1.967  0.2363  0.0314 -0.4435
 2423W        W 5942   4.919   4.782   2.085 -0.0230  0.1232 -0.2153
 2424W        W 5943   2.654   0.311   2.458  0.1811  0.2406  0.0198
 2425W        W 5944   4.506   3.495   8.003 -0.1283  0.0515 -0.1186
 2426W        W 5945   1.239   5.566  10.340  0.0871  0.0578 -0.0064
 2427W        W 5946   4.551   8.531  11.419 -0.3366 -0.1832 -0.2006
 2428W        W 5947   3.934   2.201   1.358  0.1577 -0.0271 -0.0043
 2429W        W 5948   5.408   5.451   1.625 -0.0684  0.1714  0.0968
 2430W        W 5949   1.206   6.548  10.044  0.1065  0.2935  0.1252
 2431W        W 5950   5.228   2.454  12.587 -0.1142  0.1314  0.3108
 2432W        W 5951   7.307   0.682   2.537 -0.0727  0.3909 -0.0759
 2433W        W 5952   1.657   8.562   5.215 -0.2222 -0.3885 -0.0205
 2434W        W 5953   2.599   5.775  10.933  0.2024  0.0330 -0.2614
 2435W        W 5954   8.901   2.892   2.041 -0.0930  0.1577  0.0013
 2436W        W 5955   0.573   5.753  11.127 -0.0940 -0.0323  0.1659
 2437W        W 5956   0.092   4.803   2.693 -0.2707  0.3206 -0.1230
 2438W        W 5957   0.018   7.259  11.384  0.0091  0.1538 -0.0540
 2439W        W 5958   8.756   6.444  12.017 -0.0833 -0.1132 -0.2030
 2440W        W 5959   9.481   8.363   0.376  0.1773  0.1115 -0.0051
 2441W        W 5960   0.491   5.384   1.340 -0.0773  0.0573 -0.1659
 2442W        W 5961   6.927   0.258  12.508  0.1269 -0.0865 -0.1125
 2443W        W 5962   8.137   8.265   3.626  0.1005  0.2617  0.3214
 2444W        W 5963   5.645   5.355  12.251 -0.0900  0.2533  0.0781
 2445W        W 5964   6.631   2.566   1.110 -0.2442 -0.1386  0.0061
 2446W        W 5965   2.443   4.775   8.576  0.3360  0.0718 -0.2782
 2447W        W 5966   3.487   3.980  12.531  0.2036 -0.1538 -0.0960
 2448W        W 5967   9.155   6.493   0.858 -0.1173 -0.0967  0.0592
 2449W        W 5968   4.541   3.276  11.564  0.2181 -0.4002  0.1429
 2450W        W 5969   0.837   2.294   4.190  0.0394 -0.1273 -0.1781
 2451W        W 5970   3.565   1.189   0.454  0.1507 -0.0332 -0.1728
 2452W        W 5971   0.504   4.494   9.210  0.1774  0.1087  0.1040
 2453W        W 5972   0.174   7.024   2.412  0.0470  0.2171 -0.1189
 2454W        W 5973   5.838   1.267   2.085  0.1452  0.3195 -0.2101
 2455W        W 5974   8.540   5.745   2.121 -0.0226  0.2356 -0.0852
 2456W        W 5975   8.182   6.196   1.042  0.1370  0.0232  0.1893
 2457W        W 5976   2.055   3.200   1.840 -0.0841  0.1548  0.0494
 2458W        W 5977   0.705   6.285   3.359  0.1186  0.0478  0.1544
 2459W        W 5978   1.898   5.532   2.681  0.0171  0.2523  0.3423
 2460W        W 5979   0.034   1.265   4.710  0.1980  0.1612 -0.0971
 2461W        W 5980   4.015   7.339  11.566  0.0343 -0.1687  0.0809
 2462W        W 5981   3.548   5.106  10.810  0.1714  0.0056 -0.1174
 2463W        W 5982   1.001   5.659   1.124 -0.1737 -0.0013  0.1874
 2464W        W 5983   6.637   7.068   9.140  0.1447  0.0653  0.0550
 2465W        W 5984   6.134   2.311   1.698  0.0066 -0.0522 -0.1742
 2466W        W 5985   4.389   1.547   2.294 -0.0597 -0.0868 -0.3420
 2467W        W 5986   6.298   8.566  12.560  0.2220  0.2830 -0.1757
 2468W        W 5987   5.507   3.535   1.423  0.3074  0.0414 -0.1689
 2469W        W 5988   3.550   4.472   2.646  0.0068 -0.1422 -0.0816
 2470W        W 5989   1.521   7.090  12.201  0.2678  0.1305 -0.0984
 2471W        W 5990   3.632   3.048   2.482 -0.1055 -0.1116  0.1996
 2472W        W 5991   9.316   2.852   0.189 -0.5154  0.5302 -0.1028
 2473W        W 5992   4.314   4.217   9.760 -0.3513  0.1284 -0.1319
 2474W        W 5993   8.499   6.215   5.064  0.3426 -0.1997 -0.0189
 2475W        W 5994   4.935   3.730  10.875 -0.1841  0.1870 -0.1028
 2476W        W 5995   7.757   7.419   4.230  0.1600  0.0076 -0.1490
 2477W        W 5996   7.499   1.991  10.922 -0.3842 -0.4399  0.2495
 2478W        W 5997   3.598   9.207  10.655  0.6700 -0.1813  0.2087
 2479W        W 5998   7.860   4.081   2.210 -0.0868  0.1254 -0.0414
 2480W        W 5999   3.215   6.764   0.229 -0.0719 -0.1957  0.0102
 2481W        W 6000   2.626   7.792   4.067  0.3480  0.3008  0.2400
 2482W        W 6001   1.399   1.032   8.834  0.0401 -0.0855  0.2140
 2483W        W 6002   8.541   8.723  10.686  0.0604  0.2823  0.1810
 2484W        W 6003   2.234   1.532   0.321  0.1304 -0.2105  0.0420
 2485W        W 6004   7.692   5.047  12.184 -0.0083  0.1700 -0.2205
 2486W        W 6005   1.720   5.808   4.771  0.4288  0.0554 -0.2121
 2487W        W 6006   2.337   4.168   1.620 -0.0505 -0.2482 -0.1798
 2488W        W 6007   7.475   8.309   2.168  0.1989 -0.3608  0.0624
 2489W        W 6008   7.628   3.102  12.095 -0.0292 -0.0990 -0.0687
 2490W        W 6009   8.362   7.685   3.637  0.1227 -0.4402 -0.1383
 2491W        W 6010   8.784   2.198   0.645  0.1570 -0.0832  0.0694
 2492W        W 6011   3.148   8.722   2.936  0.1980 -0.2597  0.2473
 2493W        W 6012   1.241   1.055   4.329 -0.2747  0.3911  0.1508
 2494W        W 6013   5.334   1.419   2.147 -0.2674  0.1007 -0.1708
 2495W        W 6014   8.820   4.019   9.566  0.2328 -0.1544 -0.3294
 2496W        W 6015   9.086   7.080   3.899 -0.4790  0.0205 -0.2258
 2497W        W 6016   6.339   9.601   9.308 -0.0595  0.0975 -0.0693
 2498W        W 6017   0.753   8.710  12.327  0.1196 -0.0570  0.2770
 2499W        W 6018   2.341   7.099  12.257 -0.1382  0.0096  0.2192
 2500W        W 6019   4.669   2.055  10.250  0.3709  0.0176 -0.0644
 2501W        W 6020   6.140   6.900   4.462 -0.0174 -0.3677  0.0415
 2502W        W 6021   0.415   6.234  12.356  0.0324 -0.3870 -0.1472
 2503W        W 6022   9.562   0.960   1.643 -0.0371 -0.0420 -0.2658
 2504W        W 6023   6.518   0.125   9.827  0.3005 -0.1084  0.0410
 2505W        W 6024   6.565   4.172   9.418 -0.1237  0.0404 -0.2447
 2506W        W 6025   8.723   0.008   9.865 -0.0573  0.0505 -0.2498
 2507W        W 6026   0.159   2.318   0.604  0.3554 -0.1767  0.4588
 2508W        W 6027   1.383   2.249   2.650 -0.4586 -0.0235  0.1518
 2509W        W 6028   8.281   4.647   1.962  0.1914 -0.2735 -0.0119
 2510W        W 6029   5.229   8.864   1.253 -0.1377 -0.0337  0.0380
 2511W        W 6030   1.049   1.115   0.634 -0.1630 -0.0506  0.0347
 2512W        W 6031   0.094   8.433   2.818 -0.0054  0.1620  0.0231
 2513W        W 6032   8.123   4.224   3.317  0.2651  0.1440 -0.2527
 2514W        W 6033   5.321   7.575  12.447  0.0887 -0.2551  0.1800
 2515W        W 6034   4.374   2.039   9.462 -0.0163 -0.0491  0.2534
 2516W        W 6035   5.007   6.863   9.899 -0.0285 -0.1637 -0.1789
 2517W        W 6036   8.962   3.781   1.697 -0.1699  0.0027  0.3416
 2518W        W 6037   0.051   5.563  11.036 -0.1886  0.2472  0.0447
 2519W        W 6038   4.752   4.872   3.870 -0.0192 -0.0058 -0.1206
 2520W        W 6039   0.153   6.129   2.174  0.4143 -0.0828  0.0886
 2521W        W 6040   4.623   1.138   9.334 -0.2676  0.2094  0.1990
 2522W        W 6041   2.359   0.330   0.455  0.3624 -0.0141  0.0720
 2523W        W 6042   2.851   2.812   9.793 -0.0179  0.0057 -0.0985
 2524W        W 6043   4.547   2.722  11.418  0.1450  0.4005  0.1159
 2525W        W 6044   7.777   1.469   1.630  0.1007 -0.2391  0.1522
 2526W        W 6045   0.126   9.430   4.724 -0.2958  0.0733  0.2460
 2527W        W 6046   3.198   0.402   9.726 -0.1916  0.0339 -0.0239
 2528W        W 6047   8.184   5.185   4.002 -0.2356  0.2115 -0.1392
 2529W        W 6048   2.089   5.219   1.368  0.0528 -0.0418 -0.1249
 2530W        W 6049   4.377   6.851  10.156  0.0777  0.0727 -0.1144
 2531W        W 6050   2.749   3.221   4.350 -0.1557 -0.0342 -0.0856
 2532W        W 6051   7.144   5.779   3.785  0.2252 -0.1719 -0.3976
 2533W        W 6052   3.893   9.566   0.277  0.0469 -0.2031 -0.0703
 2534W        W 6053   2.131   6.030  11.201 -0.0127 -0.1084  0.2856
 2535W        W 6054   9.587   7.764   4.398 -0.2861 -0.0605 -0.1020
 2536W        W 6055   1.607   9.371   3.488 -0.0346 -0.0229  0.2584
 2537W        W 6056   8.478   5.639   8.760 -0.1130 -0.0674  0.0650
 2538W        W 6057   9.653   8.782  11.753 -0.0664  0.1080 -0.3660
 2539W        W 6058   6.852   8.056  11.863  0.2839  0.0007  0.0594
 2540W        W 6059   8.289   6.321   4.598 -0.4007  0.1637 -0.3653
 2541W        W 6060   9.267   4.943   9.225  0.1464  0.0693 -0.0298
 2542W        W 6061   1.644   7.740   4.563 -0.1119  0.0290  0.0713
 2543W        W 6062   3.086   7.179  10.647  0.2444  0.2019  0.0418
 2544W        W 6063   0.489   4.900   1.537  0.4190  0.0514  0.0274
 2545W        W 6064   3.134   8.511  11.549  0.0201 -0.0298 -0.2164
 2546W        W 6065   9.677   8.984   9.736  0.0012 -0.2849 -0.0291
 2547W        W 6066   1.822   1.678  10.476 -0.2553 -0.1699  0.0270
 2548W        W 6067   4.435   3.944  12.592  0.3324  0.1742  0.1619
 2549W        W 6068   5.076   8.222   2.423 -0.2900  0.0469 -0.3310
 2550W        W 6069   6.567   2.846  10.040  0.0146  0.2646 -0.0737
 2551W        W 6070   3.664   2.135  11.956 -0.1318 -0.0512 -0.3778
 2552W        W 6071   5.130   2.635  11.206 -0.1659 -0.2963  0.0454
 2553W        W 6072   5.779   9.151   1.052 -0.1530 -0.0291 -0.2301
 2554W        W 6073   8.197   0.401  12.068  0.0630  0.2712 -0.2340
 2555W        W 6074   7.972   1.724   0.481 -0.1093  0.2178  0.2465
 2556W        W 6075   1.432   0.445  10.503 -0.3185  0.1619 -0.0686
 2557W        W 6076   0.760   3.990   3.740 -0.0621  0.2320 -0.3377
 2558W        W 6077   8.334   7.370   9.229  0.2606  0.0051 -0.2512
 2559W        W 6078   3.000   9.080   0.263  0.2994 -0.0888  0.0381
 2560W        W 6079   4.753   4.671  12.433  0.3122 -0.3177 -0.2331
 2561W        W 6080   3.898   1.298   2.565  0.0646 -0.0500 -0.1996
 2562W        W 6081   2.717   6.579   8.816  0.0344  0.0630 -0.0071
 2563W        W 6082   2.865   0.840   8.159 -0.0902  0.0319 -0.1698
 2564W        W 6083   0.217   9.675   4.172 -0.2446 -0.1519  0.1131
 2565W        W 6084   0.869   2.544   8.983  0.0112  0.1508 -0.0057
 2566W        W 6085   9.398   6.076   1.497  0.1627  0.2572  0.1056
 2567W        W 6086   2.544   4.341  11.903  0.0296  0.1703  0.0104
 2568W        W 6087   0.794   4.722   2.365  0.1909 -0.1497 -0.1359
 2569W        W 6088   4.004   0.265  11.562 -0.1589 -0.1340 -0.1022
 2570W        W 6089   8.173   0.613   3.576  0.1517  0.5427 -0.0434
 2571W        W 6090   4.082   7.686   2.509 -0.1012 -0.4062 -0.0210
 2572W        W 6091   8.823   6.922   3.500  0.1681 -0.1969  0.1458
 2573W        W 6092   6.601   4.627  11.605  0.2061  0.2385  0.1201
 2574W        W 6093   9.212   7.025  10.893 -0.1059  0.2312 -0.0048
 2575W        W 6094   2.747   1.515  11.224  0.4234 -0.0852 -0.3214
 2576W        W 6095   2.450   7.055   1.879 -0.0419  0.2872 -0.3835
 2577W        W 6096   8.187   7.753   0.946  0.2048  0.1084 -0.2080
 2578W        W 6097   4.177   5.218   3.822 -0.1370 -0.0904  0.0869
 2579W        W 6098   6.085   8.488  10.660  0.1468 -0.0645  0.2627
 2580W        W 6099   4.419   3.163   4.726  0.2934  0.3761 -0.1644
 2581W        W 6100   5.217   3.331   3.624  0.1773  0.3455 -0.1570
 2582W        W 6101   8.141   3.064  10.813  0.0925  0.1764  0.1744
 2583W        W 6102   6.362   3.230  11.316  0.1410  0.1216  0.2494
 2584W        W 6103   9.028   6.328  10.690  0.3553  0.0344 -0.1007
 2585W        W 6104   1.283   2.747   0.202 -0.1675  0.0026 -0.0716
 2586W        W 6105   2.754   7.690   9.164 -0.0377 -0.1621  0.1019
 2587W        W 6106   8.053   3.919   4.242  0.3272 -0.1571  0.1019
 2588W        W 6107   6.344   7.510   0.845  0.0470 -0.0544  0.0033
 2589W        W 6108   4.942   4.752   1.169 -0.0629  0.4015 -0.2029
 2590W        W 6109   1.217   2.252   3.178  0.1236 -0.0570 -0.2599
 2591W        W 6110   9.624   7.025  11.934 -0.4535 -0.0137 -0.4277
 2592W        W 6111   5.062   7.040   1.138  0.0567  0.3314  0.1569
 2593W        W 6112   6.783   6.250  12.161 -0.1655 -0.0561  0.0456
 2594W        W 6113   8.774   8.217   9.510  0.2578 -0.0676  0.3328
 2595W        W 6114   9.315   7.484   0.702  0.1495  0.0789 -0.5017
 2596W        W 6115   0.160   8.297  10.458  0.0684 -0.0723 -0.0140
 2597W        W 6116   0.276   8.509  12.237 -0.2243 -0.0448 -0.0583
 2598W        W 6117   2.996   9.591   0.096  0.0983  0.4374  0.1290
 2599W        W 6118   7.229   5.273   2.654  0.0534 -0.1259  0.0776
 2600W        W 6119   8.498   6.883   1.501 -0.1966 -0.1643  0.1386
 2601W        W 6120   3.492   6.077   8.558  0.3807 -0.0336 -0.0947
 2602W        W 6121   4.694   6.122   8.852  0.2280 -0.1076 -0.3992
 2603W        W 6122   0.331   5.345   0.489  0.2727  0.2065 -0.2791
 2604W        W 6123   8.284   6.801   3.591  0.2004  0.2133 -0.1402
 2605W        W 6124   0.288   8.689   3.979  0.1589 -0.0040 -0.1506
 2606W        W 6125   5.464   4.395   0.045  0.2516 -0.2221  0.2135
 2607W        W 6126   7.411   7.883   8.352 -0.1239  0.0683 -0.2238
 2608W        W 6127   6.750   4.747  12.070  0.1533  0.0543 -0.0613
 2609W        W 6128   9.028   1.180   1.044  0.1841  0.2756 -0.1687
 2610W        W 6129   7.458   2.513  10.074 -0.1188 -0.1626 -0.0752
 2611W        W 6130   5.015   5.747   1.908 -0.0465  0.1572  0.2367
 2612W        W 6131   7.836   3.460   9.480 -0.1343 -0.0121 -0.0616
 2613W        W 6132   2.642   1.014   3.077 -0.4648 -0.0043 -0.1719
 2614W        W 6133   9.536   2.868  12.364 -0.1341  0.2058  0.2583
 2615W        W 6134   6.464   9.467   1.808 -0.1583  0.4238  0.1352
 2616W        W 6135   3.085   5.267   9.347 -0.3040  0.2197  0.1604
 2617W        W 6136   0.698   6.967   2.196  0.1306 -0.2147 -0.0344
 2618W        W 6137   8.949   2.182   1.128  0.0130  0.1229  0.2474
 2619W        W 6138   1.030   1.559   1.014 -0.1962 -0.4915 -0.0325
 2620W        W 6139   2.504   8.328   1.501 -0.0224  0.0349 -0.1269
 2621W        W 6140   3.490   4.279   0.991 -0.1176  0.0304 -0.0632
 2622W        W 6141   9.184   4.792   0.904  0.2099  0.2730  0.0747
 2623W        W 6142   7.851   4.804   9.131 -0.0429  0.2424  0.1399
 2624W        W 6143   9.530   7.943   2.267 -0.0387  0.0598 -0.1079
 2625W        W 6144   5.830   1.791  12.504 -0.0341 -0.2960  0.1612
 2626W        W 6145   7.061   6.778  10.427 -0.1283 -0.2143  0.3032
 2627W        W 6146   2.897   8.828  12.367  0.1942  0.0135 -0.0448
 2628W        W 6147   6.953   6.633   8.913  0.1726  0.2409 -0.1516
 2629W        W 6148   5.767   4.514   2.254  0.2003 -0.1765 -0.0169
 2630W        W 6149   4.372   7.426   0.819  0.1516 -0.2131 -0.2927
 2631W        W 6150   6.888   5.975   2.116 -0.0087 -0.0359 -0.1561
 2632W        W 6151   3.222   8.782  11.976  0.1092  0.0281 -0.2908
 2633W        W 6152   6.198   9.579  11.143  0.3662 -0.4501 -0.0820
 2634W        W 6153   4.756   1.342  11.856 -0.1003  0.0154  0.2584
 2635W        W 6154   8.946   9.560   1.730  0.0110 -0.2246  0.1132
 2636W        W 6155   8.663   2.454  10.672  0.0890 -0.3812  0.0400
 2637W        W 6156   1.499   5.651   0.134  0.1318  0.1699  0.0112
 2638W        W 6157   6.337   5.972   0.858  0.0833 -0.4086 -0.3531
 2639W        W 6158   4.693   8.126   1.796  0.1707 -0.0738 -0.1295
 2640W        W 6159   1.848   7.324   9.487  0.1546  0.1908  0.0398
 2641W        W 6160   0.542   4.591   4.407  0.3114  0.3121 -0.0259
 2642W        W 6161   2.563   3.918   9.930 -0.4043  0.2044  0.0039
 2643W        W 6162   5.555   0.755   0.522 -0.0364  0.0731 -0.1917
 2644W        W 6163   7.214   2.555   0.555 -0.0897  0.1798  0.1253
 2645W        W 6164   1.960   6.957  10.744  0.0251  0.1418 -0.0666
 2646W        W 6165   4.140   7.320   9.033  0.1029 -0.4339  0.1843
 2647W        W 6166   5.598   7.088  11.535  0.1544 -0.0019  0.1741
 2648W        W 6167   7.603   3.620  11.906 -0.2665  0.0022  0.3007
 2649W        W 6168   0.619   1.554  11.956 -0.1607 -0.0194 -0.1469
 2650W        W 6169   3.627   8.544  11.313  0.1369 -0.2198 -0.0786
 2651W        W 6170   1.071   7.886   9.397 -0.0595 -0.0413  0.3846
 2652W        W 6171   4.325   6.880   2.501 -0.1447  0.0998 -0.1979
 2653W        W 6172   8.488   3.951   3.478 -0.2103  0.1001 -0.0844
 2654W        W 6173   2.324   5.684   0.516 -0.0546  0.0405  0.1889
 2655W        W 6174   4.091   7.050  10.692 -0.1049  0.3879 -0.0826
 2656W        W 6175   5.563   3.801   3.636 -0.0142 -0.1420 -0.0851
 2657W        W 6176   2.399   1.778   4.474  0.0590 -0.3078  0.1096
 2658W        W 6177   9.324   6.850   0.092  0.0235 -0.0869 -0.1059
 2659W        W 6178   2.827   8.179  11.282  0.2213 -0.2980 -0.1143
 2660W        W 6179   7.270   1.006  10.923  0.1958 -0.3150 -0.3940
 2661W        W 6180   6.230   7.811  12.155 -0.0934 -0.1636  0.1546
 2662W        W 6181   3.914   0.252   1.270  0.0611 -0.5875 -0.3090
 2663W        W 6182   9.396   9.553   1.440  0.0713  0.0153 -0.3101
 2664W        W 6183   5.171   0.060  12.275  0.1807 -0.0949  0.1153
 2665W        W 6184   8.758   4.576   4.027  0.1189  0.2570  0.3437
 2666W        W 6185   2.391   1.834   9.164 -0.1236 -0.1167  0.1293
 2667W        W 6186   2.020   6.833  11.988 -0.1213 -0.1724 -0.0956
 2668W        W 6187   8.590   9.534   9.385 -0.0335  0.0921  0.0669
 2669W        W 6188   3.352   0.750   3.886 -0.2096  0.1298 -0.2908
 2670W        W 6189   0.870   5.467   0.462  0.0592  0.0422 -0.0226
 2671W        W 6190   7.653   8.276   3.174  0.0223  0.0388  0.0495
 2672W        W 6191   9.256   8.120   9.631 -0.0978  0.1956  0.1824
 2673W        W 6192   7.939   6.594   3.130  0.4099  0.2604 -0.1773
 2674W        W 6193   7.646   5.147   4.378 -0.1933 -0.2782 -0.0725
 2675W        W 6194   2.946   9.545   1.806 -0.0837 -0.1170 -0.2223
 2676W        W 6195   2.717   8.215   3.327  0.0512 -0.0911 -0.0359
 2677W        W 6196   3.638   7.857   2.763 -0.0697 -0.2316  0.0830
 2678W        W 6197   2.420   9.489   3.987 -0.5276  0.0684  0.2683
 2679W        W 6198   3.729   9.397  11.562 -0.4614 -0.3395 -0.0735
 2680W        W 6199   1.396   0.807   1.450  0.2402 -0.0352 -0.0685
 2681W        W 6200   8.662   5.288   9.037  0.1743 -0.2416 -0.2487
 2682W        W 6201   0.111   1.910   2.863  0.2414 -0.0893  0.2355
 2683W        W 6202   0.282   6.474  10.601 -0.0508  0.0764 -0.0353
 2684W        W 6203   6.761   5.572   9.011 -0.2304 -0.1349 -0.1154
 2685W        W 6204   1.283   4.130   3.615  0.0872  0.2372  0.1890
 2686W        W 6205   0.753   4.362   3.309 -0.0733  0.0269 -0.2912
 2687W        W 6206   1.833   5.197   2.298  0.0853 -0.3631 -0.0617
 2688W        W 6207   0.273   2.476   4.243 -0.2414  0.1751 -0.0321
 2689W        W 6208   4.743   8.011   9.338 -0.2518 -0.1470  0.1255
 2690W        W 6209   5.296   1.930   1.735 -0.3252 -0.3088  0.0868
 2691W        W 6210   5.264   1.477   0.107  0.0297 -0.0352 -0.0491
 2692W        W 6211   5.057   2.828   3.403 -0.0178 -0.0105 -0.1000
 2693W        W 6212   3.402   3.485   9.517 -0.3136 -0.1869  0.1354
 2694W        W 6213   3.084   5.319  11.628  0.3033  0.4978 -0.0535
 2695W        W 6214   7.639   8.110   3.666 -0.1187  0.0995  0.2372
 2696W        W 6215   9.461   2.456   9.573  0.1308 -0.2554 -0.1045
 2697W        W 6216   8.537   0.424   3.305  0.3870  0.0859  0.0023
 2698W        W 6217   5.616   1.206   1.233 -0.0062  0.2140 -0.1624
 2699W        W 6218   6.583   9.466   2.362 -0.4890 -0.2612 -0.0585
 2700W        W 6219   7.672   2.134  11.785 -0.0242  0.5159  0.1102
 2701W        W 6220   0.567   2.620   2.534  0.2309  0.2873 -0.1608
 2702W        W 6221   3.410   4.519   1.581  0.1383 -0.3391 -0.1474
 2703W        W 6222   6.661   7.314   1.651  0.0386 -0.1374 -0.1451
 2704W        W 6223   9.661   4.198   4.402 -0.1004  0.0337  0.3040
 2705W        W 6224   2.422   4.903   0.980 -0.1335  0.0085 -0.2151
 2706W        W 6225   7.194   5.649   3.103  0.1616  0.2494 -0.0235
 2707W        W 6226   6.094   3.109  10.329  0.0324 -0.0695 -0.1498
 2708W        W 6227   8.803   5.128   0.983  0.0323 -0.1024 -0.2826
 2709W        W 6228   4.152   5.281  10.441 -0.2948 -0.1001 -0.2745
 2710W        W 6229   0.956   6.791   4.315  0.2269 -0.0806  0.1036
 2711W        W 6230   3.224   2.711   3.967  0.2993  0.2771 -0.2203
 2712W        W 6231   9.245   7.658  12.256 -0.0594 -0.0604  0.0349
 2713W        W 6232   8.585   0.727   9.060  0.0640 -0.1772 -0.1929
 2714W        W 6233   2.498   9.130   0.900  0.0222  0.4158  0.0388
 2715W        W 6234   8.106   2.442  11.539 -0.1346 -0.2058 -0.0709
 2716W        W 6235   2.437   9.606   2.782 -0.0747 -0.2303  0.2469
 2717W        W 6236   6.643   6.018   3.139 -0.0351 -0.0045 -0.1037
 2718W        W 6237   9.461   2.988  11.334  0.0674 -0.0964  0.2764
 2719W        W 6238   3.408   1.227  10.270 -0.0790 -0.1639 -0.1010
 2720W        W 6239   3.794   4.530   4.017 -0.0630 -0.0397 -0.1336
 2721W        W 6240   4.836   1.300   2.215 -0.0733 -0.0016 -0.3326
 2722W        W 6241   4.291   2.853   8.766 -0.1598 -0.2385  0.0510
 2723W        W 6242   0.673   1.150   1.008 -0.0330  0.1037  0.1669
 2724W        W 6243   2.006   1.556   2.490 -0.2464 -0.4253 -0.1616
 2725W        W 6244   2.947   5.069   1.220  0.0889  0.0562 -0.0814
 2726W        W 6245   7.423   7.605   1.382  0.0114 -0.1737  0.1455
 2727W        W 6246   4.723   3.055   1.505 -0.1560  0.1473  0.1073
 2728W        W 6247   3.306   7.135  12.527 -0.0794 -0.0054  0.2753
 2729W        W 6248   5.204   4.809   8.958  0.1928 -0.1665  0.2237
 2730W        W 6249   3.711   8.876  12.299 -0.2553  0.0013  0.1317
 2731W        W 6250   0.973   4.059  11.442 -0.2758 -0.2997  0.1671
 2732W        W 6251   1.905   7.374  10.422 -0.0366  0.1428  0.0645
 2733W        W 6252   1.104   5.941  11.143  0.3838 -0.2610  0.0124
 2734W        W 6253   5.456   6.470   3.175  0.3121 -0.1064 -0.2270
 2735W        W 6254   3.760   5.962   9.313  0.0802 -0.4062  0.2110
 2736W        W 6255   4.676   9.461   1.912  0.1146 -0.1947  0.0505
 2737W        W 6256   6.616   2.232   1.617  0.1065 -0.1098  0.0704
 2738W        W 6257   0.680   8.364   3.022 -0.0157  0.0113 -0.0193
 2739W        W 6258   2.731   9.668  12.198  0.0783 -0.1259  0.0693
 2740W        W 6259   7.501   8.315   0.748  0.2865 -0.0242 -0.1578
 2741W        W 6260   0.632   8.259   3.917  0.0645 -0.1888 -0.2319
 2742W        W 6261   5.371   9.564   0.105  0.1644  0.1768 -0.0117
 2743W        W 6262   1.933   9.124  11.164 -0.1362  0.0940  0.1829
 2744W        W 6263   4.344   7.380   0.332  0.1129  0.0316 -0.2898
 2745W        W 6264   3.090   1.901   8.581  0.0730  0.1783  0.3025
 2746W        W 6265   2.343   8.466   0.705  0.0667 -0.0394  0.0340
 2747W        W 6266   6.684   9.310   9.649 -0.1337 -0.3169 -0.0285
 2748W        W 6267   7.949   4.620   3.553  0.0926 -0.1655  0.1059
 2749W        W 6268   2.490   2.979  11.708 -0.0877 -0.1151  0.2039
 2750W        W 6269   9.242   5.063   3.048  0.1254 -0.0453 -0.0091
 2751W        W 6270   8.263   9.083  10.377 -0.0044 -0.0623 -0.0459
 2752W        W 6271   5.625   3.827   2.797  0.1307 -0.0544 -0.0414
 2753W        W 6272   1.249   0.166  10.055 -0.3552  0.1824 -0.0922
 2754W        W 6273   6.757   8.770   2.433  0.1043 -0.1248  0.0873
 2755W        W 6274   7.132   0.766   3.064  0.1650 -0.1329  0.2471
 2756W        W 6275   1.724   7.519  10.921 -0.0388  0.0151 -0.0010
 2757W        W 6276   4.240   5.886  10.559  0.3062 -0.2581  0.2384
 2758W        W 6277   8.644   8.207  10.071 -0.2365  0.2936  0.1873
 2759W        W 6278   8.547   9.533   2.545 -0.1268  0.0032 -0.1286
 2760W        W 6279   0.498   2.661   3.758 -0.0485  0.3091  0.1241
 2761W        W 6280   6.393   7.644   2.511 -0.2609 -0.0826 -0.1700
 2762W        W 6281   2.810   7.467  11.020  0.1060  0.0263 -0.0027
 2763W        W 6282   9.188   2.968   4.000  0.1044  0.2747  0.1540
 2764W        W 6283   1.724   7.189   1.341 -0.1711  0.1549  0.3523
 2765W        W 6284   2.051   4.576   1.428  0.1299 -0.2667 -0.1432
 2766W        W 6285   3.518   5.760  10.903 -0.1820  0.0950  0.1601
 2767W        W 6286   0.917   5.230   2.288  0.0165 -0.2038 -0.0212
 2768W        W 6287   0.530   5.676   0.925 -0.2609 -0.4798  0.3574
 2769W        W 6288   7.488   8.513   9.065 -0.1102  0.0195  0.0440
 2770W        W 6289   3.905   1.343  10.320  0.0830 -0.1711  0.0877
 2771W        W 6290   1.727   1.418   8.905 -0.0654  0.1004  0.3208
 2772W        W 6291   1.400   1.962   0.198  0.1789 -0.1250  0.0671
 2773W        W 6292   9.588   8.227  11.760  0.0840  0.0054 -0.4774
 2774W        W 6293   9.252   4.312  12.545 -0.0733 -0.0452 -0.0352
 2775W        W 6294   9.424   0.725   3.297  0.3234 -0.4887 -0.2644
 2776W        W 6295   0.793   7.347  11.426  0.1994 -0.0998  0.0586
 2777W        W 6296   2.880   2.072   2.303 -0.0925  0.4212  0.0289
 2778W        W 6297   1.900   4.379  11.664 -0.1435 -0.2005  0.3041
 2779W        W 6298   1.832   4.778   0.990  0.2637  0.0840  0.0042
 2780W        W 6299   4.036   5.908   2.449 -0.1123 -0.1679  0.2026
 2781W        W 6300   4.841   1.405   9.850  0.0452  0.3615 -0.0420
 2782W        W 6301   5.571   3.581  10.953 -0.3140 -0.1737 -0.0558
 2783W        W 6302   8.872   3.262   8.339 -0.1017  0.0259  0.1921
 2784W        W 6303   7.304   5.540   1.026  0.0635  0.0768  0.2834
 2785W        W 6304   2.112   2.224   1.489 -0.0545 -0.0833  0.0715
 2786W        W 6305   8.648   3.357  11.245 -0.1016 -0.0176 -0.2377
 2787W        W 6306   9.297   6.490   2.923  0.2925 -0.0405 -0.2764
 2788W        W 6307   2.067   0.557   9.039  0.0533  0.4633 -0.0729
 2789W        W 6308   3.992   6.324  11.286  0.0886 -0.0695 -0.0258
 2790W        W 6309   1.759   6.006  12.396  0.0599  0.2339 -0.3612
 2791W        W 6310   8.090   4.117  10.087  0.0542  0.0968 -0.1003
 2792W        W 6311   0.267   3.224   3.628 -0.0637 -0.0123  0.0483
 2793W        W 6312   1.205   2.083  11.184  0.0890  0.1870 -0.1284
 2794W        W 6313   3.594   3.059   1.305  0.3525  0.2719  0.1744
 2795W        W 6314   0.686   0.500  12.144 -0.0071  0.0977  0.3445
 2796W        W 6315   1.474   1.313  10.594  0.0280  0.1972  0.1060
 2797W        W 6316   0.485   3.739   0.831 -0.0590 -0.2051 -0.0962
 2798W        W 6317   6.790   3.561  11.933  0.2149  0.2433  0.3920
 2799W        W 6318   6.408   5.851   9.378 -0.3208 -0.1602  0.0970
 2800W        W 6319   6.825   0.842   2.607 -0.0730 -0.1416 -0.1197
 2801W        W 6320   5.911   4.080   8.880 -0.1545  0.0232 -0.0305
 2802W        W 6321   9.642   1.831   1.976 -0.1543 -0.2016 -0.4702
 2803W        W 6322   9.290   6.945   3.173  0.2493 -0.2102  0.3184
 2804W        W 6323   0.021   6.856   8.750  0.0890  0.3488  0.1364
 2805W        W 6324   8.882   1.218   2.004 -0.0353  0.1730 -0.0221
 2806W        W 6325   3.430   3.728  10.023  0.2071  0.2504 -0.0127
 2807W        W 6326   3.812   9.310   9.404 -0.1698  0.2483  0.0814
 2808W        W 6327   1.585   8.594   1.131  0.0055  0.2652  0.2184
 2809W        W 6328   3.594   8.449  11.829 -0.2130  0.1835  0.0279
 2810W        W 6329   3.917   3.683  10.345  0.2046 -0.1041 -0.2901
 2811W        W 6330   1.470   0.088   8.817 -0.1215 -0.1782 -0.0794
 2812W        W 6331   3.108   2.620   0.027  0.3294  0.1778 -0.0659
 2813W        W 6332   8.823   7.026  11.300 -0.1727  0.1937  0.2393
 2814W        W 6333   4.856   6.057  12.145  0.0722  0.1951 -0.1281
 2815W        W 6334   3.633   7.465   3.059  0.0465 -0.1707  0.0307
 2816W        W 6335   8.287   0.445   2.273  0.1550 -0.1745  0.1132
 2817W        W 6336   7.968   4.810   7.903 -0.0465 -0.2454 -0.1963
 2818W        W 6337   2.331   9.348   1.898  0.1768 -0.1159 -0.0053
 2819W        W 6338   2.165   7.982   0.597 -0.0559 -0.0907 -0.0376
 2820W        W 6339   2.168   1.292  12.410 -0.2405 -0.0820 -0.1983
 2821W        W 6340   1.695   5.732  11.984 -0.0085  0.0718 -0.4205
 2822W        W 6341   3.136   7.643   8.907 -0.1019  0.2311  0.0806
 2823W        W 6342   0.766   3.128   3.775  0.0850  0.3481 -0.0081
 2824W        W 6343   7.869   8.237   2.512 -0.3542  0.2598  0.2071
 2825W        W 6344   2.795   8.624   8.843 -0.4904  0.1139  0.0075
 2826W        W 6345   6.914   5.923  11.637  0.1017 -0.1577 -0.0908
 2827W        W 6346   8.693   8.074   2.756 -0.0262 -0.0393  0.3827
 2828W        W 6347   8.716   7.755   4.658  0.0002  0.0672  0.2123
 2829W        W 6348   5.536   5.165   4.077  0.2242  0.0620 -0.0167
 2830W        W 6349   7.359   0.349   9.372  0.0605  0.0063 -0.1284
 2831W        W 6350   3.304   1.538   0.240  0.1743 -0.1453  0.1192
 2832W        W 6351   3.317   0.633  10.367 -0.0183  0.2970  0.1137
 2833W        W 6352   9.629   2.296  11.746  0.3038 -0.3871 -0.2424
 2834W        W 6353   3.530   5.264   0.357 -0.0131  0.0726 -0.3150
 2835W        W 6354   4.696   5.512   0.157  0.1961 -0.0597  0.1829
 2836W        W 6355   3.853   2.880   9.712  0.2004  0.0770  0.4595
 2837W        W 6356   1.942   8.262   9.786  0.3003 -0.5162  0.2466
 2838W        W 6357   1.274   4.191   2.769  0.2871 -0.0531 -0.2712
 2839W        W 6358   9.019   5.990  10.364 -0.3040  0.4395 -0.0299
 2840W        W 6359   2.781   8.996  10.743  0.1597  0.2932  0.0772
 2841W        W 6360   4.938   0.803   3.288 -0.0472  0.1411 -0.1700
 2842W        W 6361   4.352   5.863  11.239 -0.2801 -0.1740  0.1918
 2843W        W 6362   6.279   6.506  10.055  0.0597  0.1875 -0.0087
 2844W        W 6363   8.834   1.688  12.062  0.4483 -0.1577  0.5061
 2845W        W 6364   7.272   4.293  12.349  0.0093 -0.0319  0.0983
 2846W        W 6365   2.406   0.596   4.179 -0.2913  0.0645 -0.2049
 2847W        W 6366   9.366   6.636  10.568 -0.1974  0.2994  0.1985
 2848W        W 6367   3.176   1.925  12.055 -0.0562  0.1742  0.1362
 2849W        W 6368   6.509   3.448   2.954 -0.1155 -0.0361 -0.2287
 2850W        W 6369   1.983   9.310   2.602  0.0254  0.1641 -0.3043
 2851W        W 6370   3.278   1.059   0.055  0.4078 -0.1155 -0.1222
 2852W        W 6371   3.522   0.134  11.493  0.0954 -0.1210 -0.2132
 2853W        W 6372   8.645   6.047   0.796  0.0854  0.0224  0.1165
 2854W        W 6373   7.663   3.138   9.167  0.0406  0.1728  0.2193
 2855W        W 6374   9.071   8.376  10.047  0.2438  0.1025  0.2906
 2856W        W 6375   0.286   3.194   1.497  0.2043 -0.0368 -0.0179
 2857W        W 6376   3.867   7.703   9.347  0.0539  0.0151 -0.0538
 2858W        W 6377   0.613   3.541  12.001  0.1190 -0.0844  0.1891
 2859W        W 6378   1.361   1.638   1.783  0.0273  0.2274  0.1492
 2860W        W 6379   0.080   1.771  11.895 -0.1508  0.3161 -0.0864
 2861W        W 6380   2.458   1.577   1.726 -0.2261 -0.1397 -0.0340
 2862W        W 6381   7.420   4.621   3.233  0.1161  0.0057 -0.0088
 2863W        W 6382   0.977   6.263  12.446 -0.0483  0.0463 -0.1617
 2864W        W 6383   0.657   5.811   3.737  0.1067  0.1540 -0.1468
 2865W        W 6384   9.462   7.648   8.722 -0.4005  0.3110 -0.1892
 2866W        W 6385   1.598   5.605   2.064 -0.1601 -0.3085 -0.3201
 2867W        W 6386   7.892   7.632  11.231 -0.2924  0.0968 -0.0399
 2868W        W 6387   9.471   2.272   0.083  0.2628  0.1779  0.1610
 2869W        W 6388   5.079   4.085   9.007 -0.2054  0.2079  0.0108
 2870W        W 6389   6.577   5.821   8.622  0.1816 -0.2111  0.0521
 2871W        W 6390   7.806   4.532   2.084  0.3965 -0.1974 -0.1095
 2872W        W 6391   6.019   3.848  10.955 -0.0288 -0.0909 -0.1440
 2873W        W 6392   7.062   9.214   8.712  0.2171  0.0637  0.0139
 2874W        W 6393   4.689   3.987   4.066 -0.1434  0.0306 -0.0238
 2875W        W 6394   9.259   8.429   9.216 -0.0905 -0.0501  0.0540
 2876W        W 6395   1.630   3.676   0.001 -0.1498 -0.1850 -0.0045
 2877W        W 6396   0.117   4.580   1.707  0.1638 -0.0831 -0.0889
 2878W        W 6397   7.497   9.543  10.366  0.0724  0.4605 -0.0633
 2879W        W 6398   6.975   0.361   2.796  0.0253 -0.0245  0.2586
 2880W        W 6399   1.498   8.238  11.621 -0.0268 -0.0820  0.1417
 2881W        W 6400   4.474   4.665  11.920 -0.1965 -0.0489  0.1349
 2882W        W 6401   8.655   3.928  11.791  0.0902 -0.2273  0.0700
 2883W        W 6402   6.266   3.815  11.393 -0.0861  0.1281  0.5124
 2884W        W 6403   5.423   7.008  12.390 -0.1064  0.0917 -0.0133
 2885W        W 6404   8.959   5.244  11.574  0.3287  0.2418  0.3527
 2886W        W 6405   4.383   7.880   4.538  0.1780  0.3169  0.1994
 2887W        W 6406   0.649   9.129   2.436 -0.0254 -0.1317  0.2261
 2888W        W 6407   2.294   5.643  10.576 -0.0143 -0.1986 -0.0988
 2889W        W 6408   8.914   5.537   1.227 -0.0391  0.0492 -0.2278
 2890W        W 6409   7.017   1.796  11.003  0.2567  0.3448 -0.1779
 2891W        W 6410   7.704   6.184   7.868 -0.1057  0.0215  0.3443
 2892W        W 6411   6.867   5.409   2.256  0.4856  0.0647  0.1606
 2893W        W 6412   7.338   2.891   1.663 -0.1014 -0.0012  0.0152
 2894W        W 6413   2.340   6.383   2.483  0.0052 -0.1303 -0.0915
 2895W        W 6414   6.062   4.880   8.419  0.1877  0.0597 -0.1886
 2896W        W 6415   6.267   3.241   8.470 -0.1411  0.3736  0.1074
 2897W        W 6416   8.077   8.615   2.147 -0.0344 -0.1912 -0.0335
 2898W        W 6417   8.948   9.543   4.016 -0.1068 -0.1798 -0.2460
 2899W        W 6418   2.814   7.444   2.393 -0.0904 -0.1057  0.0929
 2900W        W 6419   4.633   4.548   3.132 -0.0417 -0.0147 -0.0231
 2901W        W 6420   4.431   1.012  10.247 -0.1447  0.1544  0.3381
 2902W        W 6421   0.546   7.124   9.406  0.2095  0.1232  0.0653
 2903W        W 6422   1.992   8.932   1.395  0.3316  0.0195  0.2694
 2904W        W 6423   2.827   6.255   4.199  0.2773 -0.1397 -0.0309
 2905W        W 6424   9.316   3.834  10.687  0.0204  0.0647  0.0975
 2906W        W 6425   6.070   5.654  11.301  0.2831 -0.1250  0.1663
 2907W        W 6426   5.828   1.520  10.882  0.0232  0.1614 -0.2292
 2908W        W 6427   3.880   8.445   1.717  0.1090 -0.1780  0.1488
 2909W        W 6428   9.392   9.389   0.956 -0.0086  0.3357  0.1194
 2910W        W 6429   2.279   7.475   9.359 -0.2938 -0.3169 -0.0621
 2911W        W 6430   7.544   5.997  10.433  0.0953 -0.3828  0.0037
 2912W        W 6431   5.870   9.321  12.595 -0.1568  0.1887  0.1036
 2913W        W 6432   7.377   5.374  12.530  0.0879  0.0894  0.1808
 2914W        W 6433   4.335   2.619   7.836  0.2261  0.0390  0.1404
 2915W        W 6434   3.835   3.232   1.706 -0.1378  0.3260  0.0120
 2916W        W 6435   4.254   6.437  10.407 -0.0938  0.1425  0.3364
 2917W        W 6436   0.793   0.739  10.863 -0.0282 -0.0680 -0.1144
 2918W        W 6437   8.499   2.327  10.212  0.1146  0.4552  0.0154
 2919W        W 6438   0.699   9.608  10.107 -0.0937  0.2010  0.3171
 2920W        W 6439   5.315   2.887   0.744  0.0794 -0.0690  0.0365
 2921W        W 6440   9.090   4.072   8.926  0.3392 -0.2544  0.0616
 2922W        W 6441   7.484   4.322   0.184 -0.0372 -0.4647  0.1342
 2923W        W 6442   6.385   1.686   1.411  0.1804  0.0514 -0.1220
 2924W        W 6443   9.520   0.173   4.522  0.1059  0.0786 -0.1954
 2925W        W 6444   1.948   0.912  10.092 -0.2129  0.1272 -0.0387
 2926W        W 6445   4.962   6.154   9.949 -0.2531 -0.0237  0.1956
 2927W        W 6446   9.346   0.414   8.492 -0.1408 -0.2716  0.1327
 2928W        W 6447   1.228   6.707  12.290  0.1599 -0.0575  0.0377
 2929W        W 6448   3.208   7.094   1.408 -0.0837 -0.2604 -0.0538
 2930W        W 6449   9.328   2.140  11.056  0.1509  0.3185  0.3218
 2931W        W 6450   6.241   6.703  11.900  0.1462 -0.1722  0.3522
 2932W        W 6451   0.446   9.645   5.085  0.0310  0.0104 -0.0951
 2933W        W 6452   1.001   5.112   2.825 -0.2132 -0.1066 -0.1429
 2934W        W 6453   0.310   7.586  11.258 -0.1822 -0.0553 -0.1551
 2935W        W 6454   4.595   8.266   0.306  0.0290  0.1660  0.2778
 2936W        W 6455   0.896   7.295  10.537  0.0461  0.1180  0.0931
 2937W        W 6456   8.627   6.425   1.199 -0.0282 -0.1044 -0.5015
 2938W        W 6457   2.597   5.424  11.811 -0.0146 -0.1152  0.0954
 2939W        W 6458   8.696   9.115  12.086 -0.0611 -0.2516 -0.1147
 2940W        W 6459   3.236   4.826  11.672 -0.0684 -0.0388  0.2209
 2941W        W 6460   0.859   3.486  11.498 -0.0372  0.2829  0.1248
 2942W        W 6461   3.778   3.205   3.426  0.0966 -0.0951  0.1222
 2943W        W 6462   6.102   2.631  10.063  0.3172  0.0713 -0.1873
 2944W        W 6463   8.809   9.579   2.997 -0.1170  0.2012  0.1636
 2945W        W 6464   2.897   2.923  12.079  0.2252  0.2156 -0.2034
 2946W        W 6465   4.856   3.871   7.869 -0.1238 -0.1742  0.1243
 2947W        W 6466   6.076   4.976   9.430 -0.0714 -0.0072  0.0321
 2948W        W 6467   9.678   6.338  12.015  0.3337 -0.0827  0.1693
 2949W        W 6468   1.057   9.377  10.969  0.0763  0.1927 -0.3792
 2950W        W 6469   8.413   4.640   8.377  0.1331  0.2318 -0.1033
 2951W        W 6470   2.341   6.597  12.500 -0.0220 -0.1352 -0.2041
 2952W        W 6471   2.874   6.289   9.210  0.2509 -0.3583  0.2190
 2953W        W 6472   2.002   4.067  12.559  0.0747 -0.1176  0.1509
 2954W        W 6473   2.301   0.684  11.826  0.1256  0.1673 -0.0053
 2955W        W 6474   4.760   3.737   2.731  0.2274 -0.2163 -0.0859
 2956W        W 6475   6.809   3.725   2.474  0.1878 -0.2411  0.2314
 2957W        W 6476   1.870   0.491   8.219 -0.0232  0.1463 -0.1406
 2958W        W 6477   2.612   2.665   0.860 -0.1099 -0.1342  0.0447
 2959W        W 6478   4.345   1.586  10.247 -0.3281 -0.0228  0.1232
 2960W        W 6479   3.025   6.893   0.645 -0.0932  0.1499 -0.0505
 2961W        W 6480   0.113   6.354   8.801  0.0802  0.1822 -0.1592
 2962W        W 6481   0.531   8.688   0.243 -0.0666 -0.0348  0.1570
 2963W        W 6482   0.837   0.312  11.699  0.2105 -0.0059 -0.1167
 2964W        W 6483   6.358   4.676   4.036  0.4616 -0.1149 -0.2711
 2965W        W 6484   2.264   7.940   9.609 -0.1980  0.1010  0.1012
 2966W        W 6485   6.691   4.597   1.864  0.2888 -0.0854  0.0394
 2967W        W 6486   2.720   4.912   4.784 -0.1719  0.4837 -0.2765
 2968W        W 6487   4.527   9.341  11.740  0.0805  0.2834 -0.1926
 2969W        W 6488   5.338   5.378   9.697  0.1302 -0.0399 -0.0111
 2970W        W 6489   4.613   8.859   1.990 -0.3451  0.0784 -0.0426
 2971W        W 6490   6.459   8.931   9.793 -0.0929  0.3179 -0.1897
 2972W        W 6491   9.146   6.372   9.545 -0.1743 -0.1484 -0.0018
 2973W        W 6492   9.652   5.958   0.367 -0.2926 -0.2165 -0.0088
 2974W        W 6493   9.508   3.182   2.901  0.0390 -0.0402 -0.0362
 2975W        W 6494   2.499   6.738  10.003  0.0482  0.2823 -0.2875
 2976W        W 6495   8.435   5.683   8.240 -0.2955 -0.1612  0.2061
 2977W        W 6496   1.213   7.660   8.571 -0.1400 -0.2508  0.2039
 2978W        W 6497   4.464   8.337  10.633 -0.0414  0.2028  0.1469
 2979W        W 6498   9.377   0.875  11.189  0.1358  0.1116 -0.1502
 2980W        W 6499   0.208   1.235   1.196  0.1383  0.2607 -0.2107
 2981W        W 6500   0.039   1.504   8.649  0.0791  0.4183 -0.0166
 2982W        W 6501   2.244   2.966   0.857 -0.3233 -0.4272 -0.4412
 2983W        W 6502   4.366   9.557   0.580  0.2137  0.0366 -0.1394
 2984W        W 6503   8.245   9.120   8.795 -0.1550 -0.0307  0.2600
 2985W        W 6504   6.353   3.573  10.224 -0.0822 -0.1863  0.0749
 2986W        W 6505   4.700   6.540   1.237  0.0672 -0.1536 -0.0382
 2987W        W 6506   7.556   1.705  10.333  0.2639 -0.0373  0.0474
 2988W        W 6507   2.479   4.565   1.966 -0.1684 -0.1269 -0.2098
 2989W        W 6508   3.737   3.746   4.880  0.1724 -0.1940  0.0016
 2990W        W 6509   6.213   5.574   8.972  0.2339 -0.0620  0.1291
 2991W        W 6510   7.359   1.296   9.571 -0.2950  0.0662 -0.2331
 2992W        W 6511   2.943   2.007  11.197 -0.1093 -0.0575  0.1442
 2993W        W 6512   9.185   2.037   9.419 -0.1868 -0.0408 -0.1212
 2994W        W 6513   8.574   3.356  10.442 -0.0515  0.0521  0.4342
 2995W        W 6514   9.605   0.346   1.427  0.1472 -0.3055  0.0426
 2996W        W 6515   9.130   0.742   1.517 -0.0431  0.2531 -0.0207
 2997W        W 6516   7.917   0.563   1.870 -0.0264 -0.0972 -0.1458
 2998W        W 6517   0.359   9.477  12.187  0.2111 -0.0047 -0.2478
 2999W        W 6518   3.095   1.177   3.831  0.0566 -0.0658 -0.1314
 3000W        W 6519   7.972   0.045   2.271 -0.2014  0.0100 -0.1021
 3001W        W 6520   9.271   7.280  11.685 -0.2188  0.1380 -0.1062
 3002W        W 6521   2.161   2.436  10.952  0.1586 -0.0142 -0.3250
 3003W        W 6522   3.947   1.513   0.512 -0.3044  0.1744 -0.2082
 3004W        W 6523   2.862   2.913   9.047  0.0256  0.1958  0.1941
 3005W        W 6524   2.328   1.797  12.522  0.0632  0.0617  0.0147
 3006W        W 6525   3.748   5.823   3.779 -0.2264  0.0086  0.0777
 3007W        W 6526   7.118   7.749   2.397 -0.0305 -0.1115  0.0299
 3008W        W 6527   3.425   9.440  11.132  0.2006 -0.2556 -0.1260
 3009W        W 6528   2.621   7.113  10.694 -0.0297  0.0185  0.0478
 3010W        W 6529   2.989   2.469  11.340 -0.0088  0.0585  0.1292
 3011W        W 6530   9.200   0.247  10.065 -0.0562 -0.2394 -0.2033
 3012W        W 6531   7.807   9.550   9.029 -0.2704  0.1531 -0.2896
 3013W        W 6532   1.002   6.000  10.577  0.2268 -0.0996 -0.1481
 3014W        W 6533   0.560   4.567  11.557  0.0206 -0.1825  0.3228
 3015W        W 6534   1.464   3.773  11.048 -0.1990 -0.2551 -0.4292
 3016W        W 6535   6.892   7.118   0.938  0.1256  0.0796 -0.0132
 3017W        W 6536   1.154   3.558   0.736  0.0969 -0.0505  0.4092
 3018W        W 6537   9.615   0.065   1.866 -0.0350  0.1742 -0.0447
 3019W        W 6538   0.155   7.328   9.069 -0.0492 -0.3415  0.0867
 3020W        W 6539   0.510   0.256   7.932 -0.4147  0.2827 -0.0260
 3021W        W 6540   5.515   8.912  12.535  0.1311  0.0048 -0.0902
 3022W        W 6541   5.781   3.634   1.832  0.0791  0.1809 -0.0448
 3023W        W 6542   8.932   3.442   1.328 -0.0080 -0.1302 -0.1865
 3024W        W 6543   6.155   5.515  10.391  0.0467  0.1465 -0.0348
 3025W        W 6544   5.940   4.939   3.806  0.1535  0.0643  0.0719
 3026W        W 6545   7.108   9.232  10.478  0.4472  0.2297  0.0586
 3027W        W 6546   3.333   7.742   9.404 -0.1723 -0.1255  0.0222
 3028W        W 6547   1.671   8.760   2.818 -0.2296  0.0895 -0.3829
 3029W        W 6548   4.209   5.398   8.091  0.2111 -0.1037 -0.1175
 3030W        W 6549   8.385   3.776   9.817 -0.0244 -0.1497 -0.0640
 3031W        W 6550   0.098   5.750   9.550  0.0661 -0.0141  0.0442
 3032W        W 6551   3.042   6.352  10.435 -0.0020  0.0904  0.0229
 3033W        W 6552   5.061   9.191  10.838  0.2195  0.3037 -0.4889
 3034W        W 6553   5.052   8.682   2.630  0.1942  0.1750  0.0478
 3035W        W 6554   8.915   5.631   9.835 -0.2156 -0.0388  0.1580
 3036W        W 6555   8.082   4.517   9.723  0.1466 -0.0154  0.0001
 3037W        W 6556   0.705   9.303   8.933 -0.1671  0.1609 -0.1355
 3038W        W 6557   2.920   3.528   0.775  0.1906 -0.1603 -0.0061
 3039W        W 6558   7.534   5.730   3.538 -0.0980  0.0373 -0.1028
 3040W        W 6559   8.879   6.409   8.416  0.0453 -0.0290 -0.1599
 3041W        W 6560   4.682   4.724   9.834 -0.0918 -0.0045  0.3930
 3042W        W 6561   5.606   6.156   9.172  0.0437 -0.2384  0.0767
 3043W        W 6562   7.511   8.050  10.061  0.1404 -0.0048 -0.3008
 3044W        W 6563   5.936   8.481   2.906 -0.3916  0.1058  0.0720
 3045W        W 6564   5.540   1.919  10.764 -0.1319  0.4600  0.1224
 3046W        W 6565   0.751   9.644   2.757  0.0821 -0.1503 -0.1317
 3047W        W 6566   1.359   6.174   4.455 -0.4217 -0.1445  0.1674
 3048W        W 6567   0.872   9.081   0.069  0.1646 -0.0302 -0.0330
 3049W        W 6568   9.248   7.447   0.226  0.0356  0.1760 -0.1297
 3050W        W 6569   9.228   4.164   2.500  0.2974 -0.0032  0.0056
 3051W        W 6570   8.563   0.228  10.939  0.0790 -0.0257  0.0618
 3052W        W 6571   8.173   6.435   2.008  0.1023 -0.2272 -0.0319
 3053W        W 6572   8.891   8.650   1.698 -0.3015  0.0924  0.0920
 3054W        W 6573   6.953   5.000  11.700 -0.0196  0.3591  0.0005
 3055W        W 6574   8.756   1.538   1.619  0.3413  0.1364 -0.0369
 3056W        W 6575   8.969   7.154   4.364 -0.1404 -0.0592 -0.0991
 3057W        W 6576   9.348   0.925   2.879  0.2200 -0.1968  0.4179
 3058W        W 6577   9.438   8.553   9.666 -0.2478 -0.2910  0.0965
 3059W        W 6578   8.375   4.002   0.096  0.0883 -0.0214 -0.1341
 3060W        W 6579   0.103   0.141   3.718 -0.2608 -0.1861 -0.2081
 3061W        W 6580   8.035   5.387   8.544  0.1729  0.1775  0.1422
 3062W        W 6581   3.090   8.729   1.172 -0.2004 -0.1292 -0.2579
 3063W        W 6582   4.699   7.763   9.781 -0.0055 -0.0291 -0.2217
 3064W        W 6583   5.849   7.636   3.015 -0.1162  0.2328  0.4926
 3065W        W 6584   8.210   8.450  10.902  0.0255  0.3166 -0.2512
 3066W        W 6585   3.678   3.615   2.627  0.0142  0.2123 -0.3327
 3067W        W 6586   0.005   3.954   3.951  0.1309  0.1622  0.2526
 3068W        W 6587   0.727   5.722   1.624  0.0280  0.2825  0.2029
 3069W        W 6588   7.910   6.047   5.110 -0.2130  0.2013 -0.0372
 3070W        W 6589   6.412   1.901   9.547  0.0491 -0.1226  0.0687
 3071W        W 6590   5.404   4.854   0.614 -0.1214  0.0996  0.1364
 3072W        W 6591   1.379   6.539   1.816 -0.1136  0.1496  0.1510
 3073W        W 6592   3.054   8.349  12.150  0.0395  0.1837  0.1890
 3074W        W 6593   3.277   2.250   4.224  0.0509  0.0044 -0.3817
 3075W        W 6594   2.267   8.633  12.005  0.1304  0.3276  0.0305
 3076W        W 6595   0.163   7.870  10.782 -0.2021 -0.1034  0.5334
 3077W        W 6596   7.745   5.166   9.428  0.1302 -0.0780 -0.3583
 3078W        W 6597   9.514   8.844  12.258  0.0791  0.1115  0.2036
 3079W        W 6598   3.085   5.800  11.259  0.0772  0.1147 -0.0613
 3080W        W 6599   4.017   4.093   9.264 -0.2820 -0.0373  0.1536
 3081W        W 6600   4.008   4.282   2.632 -0.0844  0.1148  0.0205
 3082W        W 6601   8.665   1.521   8.893 -0.1776 -0.0031 -0.0456
 3083W        W 6602   8.218   7.345   2.338 -0.3401  0.1040  0.0090
 3084W        W 6603   0.905   5.270   1.674 -0.2486 -0.2154  0.2511
 3085W        W 6604   0.421   8.082  10.077  0.0693 -0.0123 -0.1116
 3086W        W 6605   2.760   3.827   1.595 -0.3796 -0.0426  0.0306
 3087W        W 6606   5.626   3.403   8.681  0.0416 -0.2251  0.0123
 3088W        W 6607   0.940   3.786  10.262 -0.0114 -0.1312  0.0181
 3089W        W 6608   5.338   2.633  10.756 -0.5556  0.0764 -0.5856
 3090W        W 6609   6.505   5.414   4.461  0.0636 -0.2932  0.2562
 3091W        W 6610   8.751   3.778   0.854 -0.2415  0.0294  0.0732
 3092W        W 6611   2.285   3.665   9.061  0.1163  0.3536 -0.0144
 3093W        W 6612   8.524   5.836   1.259  0.4186  0.5646 -0.2356
 3094W        W 6613   1.627   8.597   2.245  0.0727  0.0903 -0.1769
 3095W        W 6614   4.386   7.454  10.574  0.1463  0.0463  0.0298
 3096W        W 6615   4.188   3.238   1.365 -0.0585 -0.0026  0.3601
 3097W        W 6616   0.936   1.856   3.366 -0.1136  0.1875  0.0025
 3098W        W 6617   9.101   9.611   9.524  0.1238 -0.1047  0.0274
 3099W        W 6618   1.803   1.749   0.417 -0.1949  0.0154 -0.0865
 3100W        W 6619   1.596   2.949   3.347  0.1285 -0.1474  0.2981
 3101W        W 6620   9.540   9.361  12.484  0.0087  0.0580 -0.1338
 3102W        W 6621   4.404   6.256  10.908  0.1547 -0.1279  0.0708
 3103W        W 6622   5.982   3.364   2.873  0.2938 -0.0971 -0.0657
 3104W        W 6623   8.390   8.245   9.116  0.0478 -0.0906  0.0110
 3105W        W 6624   6.861   8.378   1.016 -0.3019 -0.0679 -0.2667
 3106W        W 6625   1.882   8.001   3.306 -0.0917 -0.0830 -0.0409
 3107W        W 6626   0.997   5.184   9.800 -0.4177  0.1052  0.1580
 3108W        W 6627   8.227   5.692  11.591  0.1212 -0.1284 -0.0905
 3109W        W 6628   7.765   7.946   1.003 -0.1775  0.1106 -0.3770
 3110W        W 6629   5.032   8.347   1.076 -0.1038  0.3421 -0.2742
 3111W        W 6630   3.606   0.598   3.499 -0.3384 -0.0564  0.0127
 3112W        W 6631   2.159   7.411   1.443 -0.2843 -0.0277  0.1232
 3113W        W 6632   6.396   7.119   1.180  0.0510 -0.1241  0.3994
 3114W        W 6633   3.343   4.016   2.632 -0.0342  0.3177  0.1335
 3115W        W 6634   1.141   9.437  10.496 -0.1910  0.0746 -0.0522
 3116W        W 6635   7.952   0.540  10.142 -0.0999 -0.1158 -0.0455
 3117W        W 6636   8.916   2.495  11.165 -0.0076 -0.1371  0.0422
 3118W        W 6637   2.303   5.475   2.092 -0.3354 -0.1101 -0.2099
 3119W        W 6638   9.539   2.167   3.805  0.2497  0.2083 -0.2317
 3120W        W 6639   6.698   5.733   9.921  0.1051  0.0489  0.2431
 3121W        W 6640   4.037   7.265   2.746 -0.1251 -0.2408  0.0270
 3122W        W 6641   5.988   7.085  10.965  0.1300  0.2846  0.0645
 3123W        W 6642   5.845   6.631   2.384 -0.0235  0.2752 -0.2702
 3124W        W 6643   0.504   5.334  10.300 -0.1736 -0.0011 -0.0170
 3125W        W 6644   2.807   6.943   7.976  0.0395  0.1950 -0.0243
 3126W        W 6645   1.650   1.222   1.565  0.0768  0.2496 -0.4180
 3127W        W 6646   9.431   6.100  11.245  0.1395  0.3298 -0.1344
 3128W        W 6647   5.661   5.157   4.873  0.0044 -0.1128 -0.1171
 3129W        W 6648   3.035   7.569   9.792  0.0765 -0.0278 -0.1188
 3130W        W 6649   5.750   0.247  11.271 -0.1628  0.2979  0.3027
 3131W        W 6650   1.371   2.010  10.666  0.0143  0.2027  0.5637
 3132W        W 6651   2.196   0.060   9.990  0.0777  0.1212  0.1143
 3133W        W 6652   3.272   2.398   3.056  0.1473 -0.2122 -0.0555
 3134W        W 6653   4.951   7.156  12.280  0.0508 -0.0447  0.1801
 3135W        W 6654   1.251   1.039  11.041  0.0291 -0.1766 -0.1446
 3136W        W 6655   9.137   7.457   2.387  0.5118  0.0546  0.3160
 3137W        W 6656   8.556   9.489  11.273  0.1675 -0.1747 -0.2766
 3138W        W 6657   0.405   1.602  10.605  0.0976  0.2214  0.1222
 3139W        W 6658   1.313   2.320   2.135 -0.2049 -0.1914  0.1081
 3140W        W 6659   2.832   2.337  12.225 -0.1558 -0.2202  0.0009
 3141W        W 6660   1.993   2.172   0.714  0.0957 -0.2929  0.0211
 3142W        W 6661   0.744   2.588   9.463  0.4022  0.4204 -0.3085
 3143W        W 6662   2.721   0.501   3.826  0.3042 -0.2680 -0.0298
 3144W        W 6663   0.339   2.121   3.801 -0.0364 -0.1054  0.3522
 3145W        W 6664   7.162   7.507  12.410 -0.3997 -0.0303 -0.0477
 3146W        W 6665   8.274   8.815  11.986  0.1286 -0.2363  0.0094
 3147W        W 6666   9.385   9.445  11.013  0.1137 -0.0375 -0.0413
 3148W        W 6667   0.633   7.010   2.908 -0.0585  0.4021  0.2844
 3149W        W 6668   1.542   3.182  12.047 -0.1113 -0.0092 -0.1205
 3150W        W 6669   3.541   2.021   1.579  0.0659  0.1981  0.1967
 3151W        W 6670   4.824   7.949  10.600 -0.3009 -0.1556 -0.0509
 3152W        W 6671   2.887   4.267   9.399 -0.0006 -0.1321  0.0586
 3153W        W 6672   2.694   2.525   3.411  0.1588  0.1772 -0.1492
 3154W        W 6673   4.059   9.451   1.142 -0.0638  0.2881  0.0402
 3155W        W 6674   3.782   8.623   0.154 -0.0040  0.3579  0.2792
 3156W        W 6675   4.199   1.146   0.152  0.2801  0.0366 -0.1042
 3157W        W 6676   5.531   5.741  12.002  0.2942  0.1549 -0.1616
 3158W        W 6677   0.869   3.871   0.522  0.1349 -0.2601  0.0695
 3159W        W 6678   1.666   7.739  10.178 -0.1000  0.3150 -0.0961
 3160W        W 6679   4.997   1.278  11.189  0.1802 -0.1229 -0.1396
 3161W        W 6680   5.962   8.902   0.209 -0.1554  0.0763 -0.1637
 3162W        W 6681   8.281   2.083   1.699  0.0616  0.2086 -0.4461
 3163W        W 6682   4.420   2.176   2.787 -0.1779 -0.1359  0.2003
 3164W        W 6683   6.921   9.579   6.836  0.0617 -0.5358 -0.3117
 3165W        W 6684   8.050   3.284  11.992  0.0666 -0.1995  0.1326
 3166W        W 6685   6.107   3.863   0.607  0.3039  0.0230 -0.1549
 3167W        W 6686   8.678   5.789   2.637  0.0279 -0.2539 -0.0600
 3168W        W 6687   0.755   2.127   9.658  0.3322 -0.2163 -0.2512
 3169W        W 6688   0.153   8.234   3.744 -0.0692  0.0653 -0.0407
 3170W        W 6689   3.886   0.098   0.789 -0.1262  0.2982 -0.0792
 3171W        W 6690   4.581   6.866  12.530 -0.0070  0.3761 -0.1949
 3172W        W 6691   9.371   5.579   1.494 -0.0075 -0.1429  0.2003
 3173W        W 6692   3.036   4.795   3.420 -0.1051  0.0319  0.0295
 3174W        W 6693   3.209   8.939  11.089 -0.1278 -0.1529  0.4185
 3175W        W 6694   4.871   7.387  10.037 -0.1840  0.1155 -0.0080
 3176W        W 6695   2.736   2.966   3.940 -0.0274 -0.0194  0.2402
 3177W        W 6696   4.159   5.681   2.875 -0.0793 -0.1055 -0.1252
 3178W        W 6697   2.848   1.665   3.726 -0.0038  0.0277  0.2549
 3179W        W 6698   4.062   5.665  11.825 -0.2736  0.0284  0.5271
 3180W        W 6699   1.408   6.152   0.149  0.2039 -0.2015 -0.3797
 3181W        W 6700   9.500   0.292  10.725  0.0062  0.1177 -0.0319
 3182W        W 6701   0.564   5.355   0.035 -0.1958  0.4325  0.1196
 3183W        W 6702   2.862   5.611   3.428 -0.1862 -0.0929  0.1131
 3184W        W 6703   4.574   3.298   9.561  0.3187  0.0917  0.0389
 3185W        W 6704   1.436   1.320   8.402  0.1068  0.2277 -0.1073
 3186W        W 6705   2.337   7.377   2.935  0.0636 -0.1639 -0.1028
 3187W        W 6706   8.948   9.425  10.257  0.2034  0.1139 -0.1164
 3188W        W 6707   7.489   7.598   8.818 -0.0314 -0.1217  0.0309
 3189W        W 6708   1.791   0.519   2.900 -0.1173  0.0670 -0.1817
 3190W        W 6709   4.888   2.152   9.329  0.1853  0.2153  0.4201
 3191W        W 6710   4.197   9.039   0.308  0.2427 -0.1800  0.0375
 3192W        W 6711   5.493   1.308  10.220  0.0350 -0.1938  0.1520
 3193W        W 6712   8.066   8.824   9.776 -0.3186  0.1087 -0.2586
 3194W        W 6713   4.625   8.291   0.852  0.3121 -0.0192  0.0106
 3195W        W 6714   5.416   1.317  10.734  0.1531  0.2480 -0.2149
 3196W        W 6715   8.250   9.417  11.887  0.2826  0.0756 -0.0137
 3197W        W 6716   6.731   7.941   2.725 -0.1788 -0.1749  0.0837
 3198W        W 6717   2.967   8.857   1.696 -0.1236  0.2297  0.1028
 3199W        W 6718   1.027   2.431  11.509 -0.3048  0.3993  0.1596
 3200W        W 6719   3.509   3.113   8.666 -0.0509 -0.2296  0.1903
 3201W        W 6720   1.659   3.072   8.744 -0.0056 -0.1689 -0.2344
 3202W        W 6721   2.629   1.206   3.645 -0.0724 -0.0917  0.1493
 3203W        W 6722   5.326   4.099   1.865  0.0318 -0.0854 -0.1142
 3204W        W 6723   3.349   5.743   0.872 -0.1754 -0.0624  0.0475
 3205W        W 6724   3.451   2.170   4.781  0.4209 -0.2177 -0.1775
 3206W        W 6725   7.932   4.034   2.693 -0.0578  0.1551 -0.0124
 3207W        W 6726   2.224   0.416   2.606  0.1545  0.0570  0.0622
 3208W        W 6727   1.890   3.917   2.085 -0.0472  0.0307  0.0222
 3209W        W 6728   8.891   2.454   0.207 -0.0894  0.0384  0.1939
 3210W        W 6729   3.587   9.060   8.919  0.2678 -0.1556  0.1600
 3211W        W 6730   0.224   7.656   9.935  0.0200 -0.0282 -0.1565
 3212W        W 6731   6.115   1.388  10.462  0.0426 -0.1007 -0.3215
 3213W        W 6732   7.166   6.441  11.775 -0.1221  0.2136 -0.2483
 3214W        W 6733   1.155   4.310   1.373  0.0052 -0.0542  0.1417
 3215W        W 6734   8.058   2.435   4.882 -0.1031  0.1432  0.0462
 3216W        W 6735   4.662   8.771   0.140 -0.2963 -0.1806  0.0510
 3217W        W 6736   1.720   2.232  11.143 -0.3789 -0.0121  0.2857
 3218W        W 6737   5.855   1.837   1.441  0.2927 -0.3381  0.0979
 3219W        W 6738   1.704   7.169  11.681  0.2392  0.1901  0.1612
 3220W        W 6739   2.001   6.373   2.135 -0.1775  0.1973  0.0023
 3221W        W 6740   2.649   4.827  11.081  0.0524  0.1001 -0.2320
 3222W        W 6741   6.778   6.586   9.962  0.2952 -0.0635  0.1039
 3223W        W 6742   7.670   8.002   9.063  0.1350  0.1231 -0.0064
 3224W        W 6743   2.456   0.668   1.507 -0.0559  0.0650 -0.3968
 3225W        W 6744   0.313   2.996   4.140 -0.1075  0.2643  0.2205
 3226W        W 6745   8.396   3.036   2.564 -0.3536  0.0125 -0.2542
 3227W        W 6746   3.157   6.241   2.915 -0.2130 -0.0329 -0.2277
 3228W        W 6747   8.073   5.676   3.824  0.1621 -0.2075 -0.0788
 3229W        W 6748   2.562   2.089   3.654  0.3270  0.1201 -0.1189
 3230W        W 6749   5.653   0.614  11.594  0.3498  0.0778  0.1673
 3231W        W 6750   4.147   2.354  12.137 -0.1691  0.1435  0.4478
 3232W        W 6751   8.845   3.513   9.623 -0.1239  0.0717  0.1548
 3233W        W 6752   6.282   6.807   2.083  0.0367 -0.0057  0.0949
 3234W        W 6753   5.130   4.351  11.332 -0.0071  0.0787  0.3902
 3235W        W 6754   7.524   5.084   8.481 -0.0824 -0.2142 -0.5118
 3236W        W 6755   3.554   7.395   4.070 -0.1650 -0.0618  0.1523
 3237W        W 6756   3.511   3.451   4.531 -0.1790  0.0395  0.3505
 3238W        W 6757   6.658   7.691  10.422  0.1036 -0.2512 -0.0599
 3239W        W 6758   5.386   4.999   9.411  0.2741 -0.0783 -0.2546
 3240W        W 6759   6.410   0.859  10.785 -0.2429 -0.1134 -0.2670
 3241W        W 6760   8.354   6.888  11.194  0.1132  0.0918 -0.1854
 3242W        W 6761   6.479   8.908   1.623 -0.0519 -0.0226  0.0584
 3243W        W 6762   9.656   9.234   3.987 -0.0179 -0.2196 -0.1181
 3244W        W 6763   6.947   1.894   9.635  0.1852 -0.0363  0.0557
 3245W        W 6764   0.577   9.108   1.698  0.0584  0.1060 -0.1160
 3246W        W 6765   1.951   8.425  11.052  0.0141  0.1938 -0.0531
 3247W        W 6766   4.090   0.537   2.306  0.2965  0.4757 -0.0204
 3248W        W 6767   8.705   6.646   9.722 -0.0604  0.0624  0.2017
 3249W        W 6768   6.151   8.903  10.305  0.0831  0.1531 -0.4080
 3250W        W 6769   1.656   5.760  11.176 -0.1063  0.2360 -0.1483
 3251W        W 6770   9.199   9.585   2.188 -0.0832 -0.0041 -0.0080
 3252W        W 6771   0.434   8.726  10.504 -0.0703  0.3795  0.1887
 3253W        W 6772   1.990   2.446  11.621 -0.1921 -0.1616 -0.1203
 3254W        W 6773   0.051   3.603   9.323 -0.1060  0.0116  0.0627
 3255W        W 6774   5.937   7.172  12.450  0.1935 -0.2754  0.3298
 3256W        W 6775   9.447   5.260   0.096  0.2106  0.1663  0.1050
 3257W        W 6776   5.637   5.665   4.184 -0.3338  0.1245  0.0171
 3258W        W 6777   7.757   4.310   4.010 -0.4163  0.2510 -0.2713
 3259W        W 6778   3.698   6.909   8.923 -0.1109  0.0519 -0.0110
 3260W        W 6779   2.858   2.691   0.427 -0.1797 -0.1053 -0.0102
 3261W        W 6780   6.473   7.100  11.732 -0.1905 -0.1855  0.2384
 3262W        W 6781   5.972   6.795   3.432 -0.1239  0.1189 -0.0922
 3263W        W 6782   5.203   2.657   3.890 -0.0751  0.3887 -0.1720
 3264W        W 6783   0.771   3.508   0.278 -0.0144  0.1495 -0.0637
 3265W        W 6784   1.156   8.823   8.240 -0.3290  0.1512 -0.3389
 3266W        W 6785   2.939   4.782   1.771  0.1631  0.1326 -0.0642
 3267W        W 6786   9.378   0.808   8.848  0.2117  0.1693 -0.0349
 3268W        W 6787   6.765   6.953  10.785  0.1096 -0.2443 -0.0693
 3269W        W 6788   8.687   1.421   3.340 -0.0542 -0.0120  0.0598
 3270W        W 6789   0.188   9.186   8.663 -0.2146 -0.4559  0.0925
 3271W        W 6790   6.145   8.085   1.736 -0.1196 -0.0426  0.1162
 3272W        W 6791   1.756   3.336   2.421  0.2831 -0.3921  0.1926
 3273W        W 6792   0.528   4.223   0.583  0.0074 -0.4673 -0.0805
 3274W        W 6793   4.842   2.257   1.035 -0.0690  0.3296 -0.2718
 3275W        W 6794   8.243   0.888  10.399  0.1744 -0.3344  0.0748
 3276W        W 6795   1.500   8.030  12.165 -0.0935  0.0807 -0.0672
 3277W        W 6796   6.649   7.150   9.621 -0.3069 -0.0190  0.0175
 3278W        W 6797   1.419   0.070   0.734 -0.0109  0.0998 -0.3818
 3279W        W 6798   8.633   4.699   0.743 -0.1905 -0.1771 -0.1918
 3280W        W 6799   4.361   4.670   9.483  0.1161  0.0137 -0.0928
 3281W        W 6800   2.373   8.385   8.726 -0.0898 -0.0111  0.1868
 3282W        W 6801   8.499   8.789   0.002  0.2199 -0.2683  0.0094
 3283W        W 6802   3.408   8.007  12.120  0.0117 -0.1194  0.1836
 3284W        W 6803   2.778   1.287   9.288 -0.3601 -0.0684 -0.2777
 3285W        W 6804   9.346   2.300   2.685 -0.0980  0.1043  0.0614
 3286W        W 6805   1.667   1.065  12.379 -0.1597  0.4039 -0.0280
 3287W        W 6806   7.421   5.636   0.546 -0.5795 -0.1511  0.4727
 3288W        W 6807   5.619   4.014   2.251 -0.4087  0.1618  0.1222
 3289W        W 6808   5.531   6.025   1.808 -0.2213  0.0128  0.2484
 3290W        W 6809   5.068   3.263   2.966 -0.0116 -0.0677  0.2041
 3291W        W 6810   7.482   8.899   1.920 -0.2129  0.0943 -0.2915
 3292W        W 6811   8.422   5.382   3.561 -0.1074 -0.1623 -0.0527
 3293W        W 6812   8.961   2.464   8.096 -0.0713  0.3063 -0.0923
 3294W        W 6813   8.574   4.383  11.429  0.1094  0.1755  0.1900
 3295W        W 6814   1.001   4.614   2.961  0.2362  0.1810  0.0817
 3296W        W 6815   5.742   7.963  11.207  0.2124 -0.5580 -0.0097
 3297W        W 6816   3.577   3.662  11.432 -0.1111 -0.2390  0.1260
 3298W        W 6817   2.092   0.368   1.256  0.1043  0.0924 -0.2606
 3299W        W 6818   2.140   1.347   9.905 -0.3697 -0.0132  0.2352
 3300W        W 6819   1.131   5.707   2.068  0.2627  0.0733  0.3692
 3301W        W 6820   4.621   2.134   0.579 -0.1197 -0.1314 -0.1732
 3302W        W 6821   1.615   9.103   0.011  0.2245  0.3142  0.0888
 3303W        W 6822   4.422   8.074   3.143 -0.0537  0.0205  0.1085
 3304W        W 6823   7.434   3.119   2.117  0.0227 -0.1436  0.2518
 3305W        W 6824   9.368   4.591  10.131 -0.2278 -0.2409 -0.3771
 3306W        W 6825   2.041   3.547   1.277 -0.1391 -0.0787  0.0593
 3307W        W 6826   5.415   0.755   0.975  0.4461  0.2401 -0.1075
 3308W        W 6827   8.361   3.965   2.457  0.3187  0.2193 -0.0252
 3309W        W 6828   7.116   1.555   2.197 -0.1264  0.0391 -0.1813
 3310W        W 6829   7.749   4.862   3.994 -0.0120  0.1545  0.0746
 3311W        W 6830   3.638   5.419   3.068 -0.0036  0.1826 -0.3547
 3312W        W 6831   2.941   7.642   8.453 -0.1642  0.2279  0.2386
 3313W        W 6832   3.792   2.253   0.024  0.2124 -0.3603 -0.1450
 3314W        W 6833   3.915   3.082   0.826  0.4090  0.0265  0.0620
 3315W        W 6834   6.875   5.672   0.442  0.0283  0.0816  0.1208
 3316W        W 6835   1.279   2.699  11.883 -0.0611  0.1511 -0.2173
 3317W        W 6836   0.615   9.396   1.028  0.0841  0.0501 -0.1872
 3318W        W 6837   6.610   1.914   2.376  0.2404  0.0335  0.3633
 3319W        W 6838   7.351   6.294   2.316  0.1349  0.1403  0.0845
 3320W        W 6839   6.971   6.384   2.928  0.3555  0.0216 -0.4023
 3321W        W 6840   6.504   6.197  10.767  0.0443 -0.3518  0.3292
 3322W        W 6841   4.537   3.996   1.664  0.0233 -0.1642 -0.1823
 3323W        W 6842   8.050   0.360   0.475 -0.1835  0.2013 -0.0938
 3324W        W 6843   0.131   5.255   9.596 -0.2120  0.1085 -0.0747
 3325W        W 6844   7.658   0.990   1.607  0.0094 -0.0388  0.1098
 3326W        W 6845   7.937   1.650  11.701 -0.2271 -0.0186 -0.1011
 3327W        W 6846   8.303   1.266  10.767 -0.1623  0.0531  0.2350
 3328W        W 6847   2.114   5.925   3.947  0.1929 -0.0170  0.0782
 3329W        W 6848   6.323   3.775   1.059 -0.1026 -0.1914 -0.2057
 3330W        W 6849   1.509   5.038  11.989  0.1383 -0.2527  0.3214
 3331W        W 6850   1.079   5.637   3.077  0.1879 -0.0801  0.3858
 3332W        W 6851   6.328   6.339   2.979 -0.0813 -0.2658  0.0264
 3333W        W 6852   9.189   2.731   1.121  0.0560  0.1178 -0.1421
 3334W        W 6853   3.448   5.609   1.751  0.1969 -0.0222 -0.0934
 3335W        W 6854   0.912   6.094  12.026 -0.0072  0.0799 -0.0481
 3336W        W 6855   5.687   8.821   9.378 -0.1857 -0.1311 -0.2848
 3337W        W 6856   0.728   1.989   8.267 -0.1617  0.2827 -0.0510
 3338W        W 6857   7.446   6.746  12.104  0.0134 -0.2781 -0.4679
 3339W        W 6858   3.117   7.764  11.312  0.0054 -0.2251  0.2444
 3340W        W 6859   4.858   0.579  11.074  0.1573  0.1285  0.0196
 3341W        W 6860   5.864   8.307  10.210 -0.1019 -0.2090 -0.0519
 3342W        W 6861   1.075   5.245   4.968 -0.0669  0.2885  0.0436
 3343W        W 6862   1.346   7.192   0.050 -0.0798 -0.1977 -0.0890
 3344W        W 6863   4.942   4.943   3.354 -0.1057  0.2237  0.3817
 3345W        W 6864   4.091   5.145  11.508 -0.1540  0.0556 -0.2943
 3346W        W 6865   6.341   5.351   1.179  0.0052  0.2238 -0.0692
 3347W        W 6866   2.601   8.287  12.474  0.2357  0.0235  0.0310
 3348W        W 6867   8.770   2.616   3.330 -0.1296 -0.4242  0.3673
 3349W        W 6868   5.269   6.756  11.909  0.0909 -0.1094  0.2106
 3350W        W 6869   7.896   4.904   3.144  0.0280 -0.1792  0.2328
 3351W        W 6870   1.957   2.955  11.723  0.1636  0.3089  0.2789
 3352W        W 6871   3.266   3.949   3.841  0.0329 -0.0671  0.0155
 3353W        W 6872   3.389   1.239   9.521  0.1593 -0.1042  0.0760
 3354W        W 6873   2.748   2.366  10.070 -0.5587  0.1849  0.0966
 3355W        W 6874   7.260   0.332  11.573  0.0806  0.1725  0.1828
 3356W        W 6875   3.524   6.666   3.768  0.2548 -0.0753  0.4224
 3357W        W 6876   7.877   7.030   2.041  0.1267 -0.4165 -0.0910
 3358W        W 6877   4.378   3.305  12.471  0.1233  0.0081 -0.0796
 3359W        W 6878   7.883   5.217  11.594 -0.0782  0.1116  0.1398
 3360W        W 6879   6.954   1.182   0.938  0.1220 -0.0966 -0.2925
 3361W        W 6880   3.773   3.165   0.266 -0.1798  0.0954  0.1506
 3362W        W 6881   9.583   0.752  11.735 -0.3053 -0.0982 -0.2646
 3363W        W 6882   4.416   6.271   3.797  0.1654  0.0554  0.1412
 3364W        W 6883   3.014   6.612   9.956 -0.0445  0.1040 -0.1056
 3365W        W 6884   3.721   4.904  11.246  0.1605  0.1407  0.1033
 3366W        W 6885   2.431   1.100  11.066 -0.1475 -0.3073 -0.0072
 3367W        W 6886   6.263   2.408  10.885  0.2165 -0.3532  0.0726
 3368W        W 6887   7.676   6.377  11.459 -0.1469  0.3388  0.0698
 3369W        W 6888   1.409   7.791   0.034 -0.0805 -0.3374  0.2201
 3370W        W 6889   9.129   0.678  12.505 -0.1507 -0.1368 -0.0592
 3371W        W 6890   4.420   3.160   4.119 -0.0219 -0.0386 -0.2321
 3372W        W 6891   9.384   3.446   1.571  0.0154  0.2657  0.2880
 3373W        W 6892   2.349   2.907   3.579 -0.2218 -0.4861 -0.0073
 3374W        W 6893   1.388   6.810   3.241  0.0941 -0.0166  0.2575
 3375W        W 6894   5.434   1.910  11.939  0.1154  0.1051  0.0810
 3376W        W 6895   6.401   3.867  12.059  0.0357  0.1339 -0.1939
 3377W        W 6896   6.203   8.092  12.563  0.0950 -0.3118 -0.0355
 3378W        W 6897   3.279   0.948   0.857  0.2980 -0.0719  0.3146
 3379W        W 6898   6.676   3.896  11.596  0.4188 -0.2660  0.0870
 3380W        W 6899   3.647   4.725   2.025 -0.1759 -0.0291 -0.0438
 3381W        W 6900   6.334   8.478  10.108  0.0255 -0.0126  0.0073
 3382W        W 6901   6.461   7.267   2.133  0.0141 -0.0349  0.0622
 3383W        W 6902   9.649   9.277  11.946  0.0621  0.2699  0.0761
 3384W        W 6903   5.814   6.514   9.578  0.4311  0.0157 -0.2481
 3385W        W 6904   5.755   6.918  11.980 -0.0221 -0.1202 -0.0149
 3386W        W 6905   0.303   2.018   3.282 -0.1508  0.2416 -0.0885
 3387W        W 6906   5.607   4.112   9.652 -0.0200  0.0013 -0.2566
 3388W        W 6907   1.589   4.414   0.800  0.1420 -0.0405 -0.1226
 3389W        W 6908   8.400   7.594   8.781  0.1212 -0.0979  0.4535
 3390W        W 6909   2.307   8.984   3.540 -0.3148  0.1250 -0.0870
 3391W        W 6910   6.776   5.200   3.704  0.1862 -0.1449  0.1224
 3392W        W 6911   7.901   9.009   0.754  0.2751  0.1899  0.0157
 3393W        W 6912   8.087   5.093   1.616  0.2629 -0.1086 -0.2663
 3394W        W 6913   3.207   5.195  12.565 -0.0371  0.1033 -0.5174
 3395W        W 6914   4.758   3.538   3.345 -0.1298  0.2098 -0.0795
 3396W        W 6915   0.604   0.422   2.594  0.2136  0.1793  0.2031
 3397W        W 6916   8.703   5.830   4.497 -0.3492  0.0697 -0.1364
 3398W        W 6917   3.230   6.721  10.769  0.3694 -0.3556  0.1517
 3399W        W 6918   7.872   9.292  10.585  0.1475 -0.1564  0.1073
 3400W        W 6919   5.664   0.486   1.410  0.2152  0.0921 -0.0475
 3401W        W 6920   0.082   3.535   2.669 -0.0611  0.1109 -0.1519
 3402W        W 6921   2.962   9.237  12.041 -0.1273  0.2434 -0.1684
 3403W        W 6922   2.924   3.896  10.700 -0.0016 -0.0461 -0.0659
 3404W        W 6923   6.586   4.507   2.671 -0.0296  0.2419  0.2612
 3405W        W 6924   9.475   2.448  12.219  0.3206 -0.2153  0.2974
 3406W        W 6925   5.371   3.451   0.847  0.2741 -0.1234 -0.0804
 3407W        W 6926   2.836   3.891  11.650  0.0320 -0.1144  0.4691
 3408W        W 6927   2.005   0.710  12.245  0.0609  0.1846 -0.1024
 3409W        W 6928   5.520   4.896   0.046 -0.5061 -0.1362 -0.1131
 3410W        W 6929   4.140   0.539   0.943  0.3100 -0.0004  0.3608
 3411W        W 6930   0.425   0.366  11.452  0.2255 -0.1664 -0.1122
 3412W        W 6931   8.342   4.637   9.229  0.1703  0.1365  0.0356
 3413W        W 6932   8.315   6.352   0.094 -0.1589 -0.1355  0.1814
 3414W        W 6933   3.069   4.335   0.785 -0.1882  0.4155  0.0768
 3415W        W 6934   8.527   1.396  12.379  0.0812  0.4059  0.1064
 3416W        W 6935   7.759   2.694  10.819 -0.0935  0.0577 -0.0886
 3417W        W 6936   5.915   8.393   0.976  0.0716  0.4330  0.5587
 3418W        W 6937   3.546   6.000   3.082  0.1318 -0.0017  0.0988
 3419W        W 6938   8.916   5.539   0.176 -0.0074  0.2495  0.0534
 3420W        W 6939   3.000   8.050  11.733  0.0698 -0.3571 -0.2712
 3421W        W 6940   6.951   1.114  11.685 -0.2710  0.2212  0.0968
 3422W        W 6941   1.099   7.590   1.560  0.0109 -0.1723  0.1504
 3423W        W 6942   3.247   0.668   0.373 -0.0383  0.0040 -0.0846
 3424W        W 6943   3.828   9.596   3.075 -0.1456  0.0687 -0.3363
 3425W        W 6944   3.766   0.757   1.326 -0.2254  0.0096 -0.0883
 3426W        W 6945   0.679   4.918  12.356 -0.3256 -0.2590 -0.0519
 3427W        W 6946   0.829   1.744  10.530  0.0215 -0.2943  0.1379
 3428W        W 6947   6.925   0.954   0.422  0.0712  0.1803  0.2884
 3429W        W 6948   0.052   6.647  10.118 -0.0503 -0.1197 -0.0140
 3430W        W 6949   5.094   6.267   0.549  0.1662 -0.1148 -0.1648
 3431W        W 6950   3.032   5.317   1.801 -0.0863  0.0849  0.2104
 3432W        W 6951   2.521   6.074   8.954 -0.0585  0.1300 -0.1234
 3433W        W 6952   6.442   7.701   1.859 -0.2684 -0.3163 -0.0660
 3434W        W 6953   6.007   1.672  11.951  0.0187  0.0477  0.1424
 3435W        W 6954   6.404   7.707  11.674  0.1798  0.1985  0.1223
 3436W        W 6955   1.431   7.193   1.788 -0.0616  0.3120  0.1485
 3437W        W 6956   9.065   1.986   0.249  0.0808  0.0030  0.0882
 3438W        W 6957   9.021   6.257   3.816 -0.1989 -0.1188 -0.2711
 3439W        W 6958   8.721   1.205   0.598  0.0508 -0.0233 -0.1744
 3440W        W 6959   8.258   5.044   9.449 -0.0228 -0.0540  0.0608
 3441W        W 6960   3.119   3.553  10.391 -0.0247  0.3404 -0.0579
 3442W        W 6961   7.586   1.397  12.405 -0.0577  0.4888 -0.1753
 3443W        W 6962   2.736   0.954   4.095  0.2293  0.1432 -0.1048
 3444W        W 6963   2.067   8.699   9.037 -0.1280  0.1037  0.3202
 3445W        W 6964   8.934   8.050  12.306 -0.2259 -0.0945  0.2542
 3446W        W 6965   3.242   2.652   4.914 -0.2055  0.2790 -0.1754
 3447W        W 6966   1.945   8.098   4.457 -0.0209 -0.2753  0.0998
 3448W        W 6967   7.573   6.330   0.722 -0.1173 -0.1459  0.3929
 3449W        W 6968   0.460   8.202   1.220 -0.2499  0.0328 -0.1263
 3450W        W 6969   4.818   1.749   0.913  0.1109 -0.0022 -0.1756
 3451W        W 6970   1.499   1.240   4.800 -0.1408  0.0125  0.1148
 3452W        W 6971   1.062   7.179   3.415 -0.1114  0.1721  0.1943
 3453W        W 6972   6.751   2.645   0.614 -0.1777  0.1297 -0.3064
 3454W        W 6973   5.436   0.072  11.787 -0.1790 -0.1011  0.1693
 3455W        W 6974   7.375   7.212  12.023 -0.0953  0.2291 -0.3845
 3456W        W 6975   1.552   2.701   1.442 -0.0645 -0.0323  0.0185
 3457W        W 6976   6.602   8.078   2.243  0.3182  0.1064  0.1079
 3458W        W 6977   9.376   3.408   8.355 -0.2264  0.1862 -0.1429
 3459W        W 6978   8.542   0.904   0.958  0.0286 -0.1332  0.0900
 3460W        W 6979   9.113   1.245   1.520  0.1569  0.3249 -0.1730
 3461W        W 6980   8.826   4.747   1.305 -0.1263 -0.0706  0.0483
 3462W        W 6981   8.394   5.578   1.651 -0.1338 -0.1742 -0.3635
 3463W        W 6982   4.214   3.651   9.072 -0.1906  0.1591 -0.0153
 3464W        W 6983   2.906   2.644  10.441 -0.1264  0.1952 -0.0035
 3465W        W 6984   0.650   7.846  11.535 -0.0108  0.2541  0.4772
 3466W        W 6985   6.997   7.609   0.248 -0.0386  0.1463 -0.1106
 3467W        W 6986   9.402   1.381   0.138 -0.1089  0.0802  0.4425
 3468W        W 6987   2.921   3.140  10.327  0.2160  0.4952 -0.1205
 3469W        W 6988   3.801   6.079  10.415  0.1904 -0.2012  0.2361
 3470W        W 6989   4.018   3.402   9.481  0.0689 -0.1156  0.3001
 3471W        W 6990   2.644   5.380  10.167  0.0344  0.0205  0.2922
 3472W        W 6991   3.837   0.930   9.571 -0.0070  0.0534  0.0109
 3473W        W 6992   2.004   0.161   0.789 -0.0250 -0.1578 -0.1377
 3474W        W 6993   6.487   8.448  11.000 -0.2345 -0.0128 -0.1951
 3475W        W 6994   1.403   7.524   9.376 -0.4568 -0.2199  0.2284
 3476W        W 6995   9.298   1.992   0.698 -0.3633 -0.1934  0.1804
 3477W        W 6996   0.046   0.707   9.795  0.1323 -0.0508  0.0345
 3478W        W 6997   1.431   8.128   3.613 -0.1832 -0.0341  0.1458
 3479W        W 6998   3.898   6.386   0.832 -0.1817  0.2037 -0.1562
 3480W        W 6999   0.831   0.348   3.664  0.2099  0.1507 -0.0556
 3481W        W 7000   1.524   5.407  11.615 -0.2205 -0.2389 -0.2923
 3482W        W 7001   5.406   3.395  11.389 -0.1637  0.2188  0.0922
 3483W        W 7002   2.197   7.021   0.920 -0.0461 -0.1889 -0.3053
 3484W        W 7003   1.290   7.489   3.879  0.2105  0.0421  0.1861
 3485W        W 7004   2.016   8.891   1.979 -0.4355  0.2335 -0.1934
 3486W        W 7005   6.938   2.998   4.016  0.0977  0.0295 -0.0146
 3487W        W 7006   2.237   2.070   3.276 -0.1207 -0.0647  0.1333
 3488W        W 7007   3.477   0.036  10.580  0.1639 -0.0700  0.0149
 3489W        W 7008   1.951   2.844   0.462 -0.1807  0.3217 -0.1095
 3490W        W 7009   8.011   7.547   1.934  0.2410  0.0103  0.0883
 3491W        W 7010   4.708   6.027   1.464  0.4630 -0.1505 -0.2371
 3492W        W 7011   8.444   5.857   9.899  0.1661  0.2520 -0.2620
 3493W        W 7012   9.507   5.438   1.980 -0.0936  0.0218 -0.0043
 3494W        W 7013   6.992   9.106  11.674  0.1772  0.0990 -0.4723
 3495W        W 7014   5.128   4.740   2.959 -0.1785 -0.2542 -0.0859
 3496W        W 7015   2.246   3.678   2.472 -0.0411  0.1136  0.1361
 3497W        W 7016   6.122   7.907   2.177  0.3668  0.0790  0.3286
 3498W        W 7017   5.083   3.281   1.222  0.0557  0.0595  0.0901
 3499W        W 7018   8.889   8.011   4.258  0.1071 -0.0406 -0.0345
 3500W        W 7019   0.397   8.114   4.633  0.0538  0.3193  0.0616
 3501W        W 7020   3.061   6.480   3.796 -0.0446 -0.0716 -0.2461
 3502W        W 7021   2.695   2.400  10.865 -0.2927 -0.1796 -0.3913
 3503W        W 7022   4.558   1.864  11.575 -0.0217  0.0351  0.3045
 3504W        W 7023   5.338   5.937   8.685 -0.0310 -0.0055 -0.1301
 3505W        W 7024   6.036   5.320  11.816  0.0049 -0.0118 -0.1413
 3506W        W 7025   2.931   3.048   0.793 -0.0546 -0.0581 -0.0030
 3507W        W 7026   1.742   4.947  11.491  0.2512  0.0791 -0.2636
 3508W        W 7027   4.723   3.531   3.891  0.2556 -0.0373  0.2123
 3509W        W 7028   5.717   1.847   9.762 -0.0879 -0.1578  0.0503
 3510W        W 7029   1.036   8.872   8.845  0.1049  0.3371 -0.1959
 3511W        W 7030   8.117   8.077  10.095  0.0135 -0.2931 -0.2396
 3512W        W 7031   4.900   1.763   0.409  0.1736  0.0099  0.0799
 3513W        W 7032   5.551   4.328   2.672 -0.1354  0.0986  0.1651
 3514W        W 7033   2.108   4.892   4.061 -0.3068 -0.0021 -0.0032
 3515W        W 7034   5.137   9.280   2.802 -0.2064  0.2351 -0.2657
 3516W        W 7035   1.490   3.171   2.031  0.0133 -0.0495  0.0206
 3517W        W 7036   6.101   2.022   1.078 -0.1615 -0.1931  0.0388
 3518W        W 7037   3.311   2.760   9.051 -0.1993  0.1059 -0.1373
 3519W        W 7038   9.373   4.503  11.598 -0.0958  0.0414  0.4958
 3520W        W 7039   6.749   5.435   9.529  0.1203  0.1258 -0.3231
 3521W        W 7040   7.419   1.598   0.208  0.1333  0.1481  0.0831
 3522W        W 7041   4.068   7.640   9.802  0.1383  0.0646 -0.1846
 3523W        W 7042   2.242   3.251   0.098  0.1691  0.2369  0.2151
 3524W        W 7043   4.376   2.164   0.018 -0.1625  0.0494  0.0763
 3525W        W 7044   5.208   2.193  10.340  0.1418 -0.0621 -0.2378
 3526W        W 7045   8.161   1.155   1.334  0.1966  0.1669 -0.1298
 3527W        W 7046   3.384   4.129  10.889 -0.2074 -0.0115 -0.0738
 3528W        W 7047   3.872   6.083  12.539 -0.0553 -0.2897 -0.1904
 3529W        W 7048   0.203   5.704  11.539 -0.2010 -0.1991  0.0797
 3530W        W 7049   8.589   6.323  10.922 -0.0107  0.0166 -0.2653
 3531W        W 7050   6.622   5.230   0.588 -0.2510 -0.1060  0.2088
 3532W        W 7051   1.964   1.342   0.713  0.2288  0.2097 -0.0397
 3533W        W 7052   3.497   1.461   3.738  0.0101 -0.1320  0.0683
 3534W        W 7053   6.420   1.434  10.043  0.1497  0.0728 -0.4621
 3535W        W 7054   6.513   4.254  11.306  0.0005 -0.3494  0.4496
 3536W        W 7055   1.063   1.658   8.469 -0.0311  0.0891 -0.0206
 3537W        W 7056   5.407   8.266   1.409  0.2676 -0.0724  0.1930
 3538W        W 7057   4.393   8.073  11.730 -0.2747  0.2239 -0.1441
 3539W        W 7058   6.400   3.242   9.837 -0.3503  0.2216 -0.1566
 3540W        W 7059   1.835   1.647  12.499 -0.1830 -0.0120 -0.0344
 3541W        W 7060   6.798   0.572  11.614  0.0862  0.1500 -0.1687
 3542W        W 7061   4.833   2.986   3.842 -0.0898 -0.0259 -0.0797
 3543W        W 7062   4.842   8.292  11.029  0.0355 -0.0318  0.4025
 3544W        W 7063   8.527   7.656   2.998  0.1173  0.0103 -0.2771
 3545W        W 7064   7.875   7.089   3.390  0.0792  0.3623 -0.0134
 3546W        W 7065   8.493   2.795   8.974 -0.0226  0.1083 -0.2363
 3547W        W 7066   5.386   0.091   2.707 -0.0492  0.0927 -0.0936
 3548W        W 7067   1.819   2.790  10.109  0.0084  0.1305 -0.0208
 3549W        W 7068   9.498   0.535  12.209 -0.0029 -0.1320 -0.3388
 3550W        W 7069   6.606   2.043   1.131 -0.0735 -0.2366 -0.1488
 3551W        W 7070   8.490   8.118   3.339  0.1145 -0.0790 -0.0228
 3552W        W 7071   4.763   3.960   9.902  0.2002 -0.1480  0.1891
 3553W        W 7072   0.124   5.632   0.039  0.2137 -0.0667 -0.1276
 3554W        W 7073   8.647   0.498   0.559 -0.4289  0.5125 -0.1361
 3555W        W 7074   0.940   9.481   5.031 -0.0527 -0.1883 -0.0713
 3556W        W 7075   9.437   6.427  11.581 -0.2642  0.2848 -0.4043
 3557W        W 7076   6.427   0.265  10.772 -0.0298  0.2561 -0.1403
 3558W        W 7077   2.134   9.450  12.100 -0.2917 -0.0515 -0.1389
 3559W        W 7078   0.388   3.346   0.492  0.0000  0.3586 -0.0400
 3560W        W 7079   5.919   4.452   3.169  0.0125  0.0287 -0.0743
 3561W        W 7080   8.267   4.533  10.211 -0.0012 -0.2762 -0.1837
 3562W        W 7081   1.997   5.574   0.135 -0.1771 -0.1173 -0.1913
 3563W        W 7082   8.709   9.556  11.760  0.1630 -0.0920 -0.0927
 3564W        W 7083   1.909   8.297  11.874  0.1512 -0.1904 -0.2811
 3565W        W 7084   2.715   3.472   9.022 -0.0523 -0.1096  0.0287
 3566W        W 7085   8.735   1.159  11.947 -0.1943 -0.0273  0.0570
 3567W        W 7086   1.677   1.751   9.949 -0.6881  0.0879  0.2190
 3568W        W 7087   2.454   1.469   1.256 -0.0062  0.3411 -0.1586
 3569W        W 7088   3.293   7.566   2.166  0.2346  0.4771 -0.0633
 3570W        W 7089   2.523   2.749   2.612  0.1644  0.2540  0.1698
 3571W        W 7090   1.366   8.228   2.431  0.0250 -0.2516  0.1842
 3572W        W 7091   0.278   7.068   9.849  0.1033  0.1282 -0.1821
 3573W        W 7092   9.068   2.734  12.418 -0.1089 -0.0549 -0.0300
 3574W        W 7093   7.905   2.158   2.025 -0.0792 -0.1201 -0.3763
 3575W        W 7094   3.767   1.627  11.025  0.1446  0.3527 -0.0079
 3576W        W 7095   3.570   1.707  10.469 -0.0352  0.0834  0.0055
 3577W        W 7096   7.988   5.916  11.215  0.2302 -0.0315 -0.0522
 3578W        W 7097   0.206   1.881   8.918  0.0685 -0.3797 -0.1773
 3579W        W 7098   1.686   5.731   4.233  0.2303  0.2323  0.1530
 3580W        W 7099   4.636   2.478   2.463 -0.0713  0.1179  0.0163
 3581W        W 7100   9.228   3.855   3.744 -0.0574 -0.0919  0.4683
 3582W        W 7101   3.346   2.871   9.577 -0.1789  0.3756  0.1775
 3583W        W 7102   4.581   3.483   0.387 -0.1338  0.1709 -0.1054
 3584W        W 7103   5.423   4.925  11.493  0.1165 -0.1956 -0.1005
 3585W        W 7104   2.525   1.099   9.713 -0.0062  0.0293 -0.0307
 3586W        W 7105   7.933   9.041   1.947  0.0428 -0.0702  0.0054
 3587W        W 7106   5.017   7.671   8.231  0.2854  0.1554  0.2427
 3588W        W 7107   0.516   8.914   9.932 -0.2216  0.1141  0.2013
 3589W        W 7108   7.217   4.677  11.403  0.0106 -0.0961  0.1027
 3590W        W 7109   0.179   2.530  10.102  0.1265 -0.2658 -0.0272
 3591W        W 7110   8.532   7.195   2.730 -0.0509 -0.2284 -0.1962
 3592W        W 7111   8.605   7.430   1.916 -0.3655  0.0738 -0.0256
 3593W        W 7112   3.251   3.176   9.925  0.0639 -0.2104 -0.1979
 3594W        W 7113   7.548   6.090  11.045  0.0909  0.1414 -0.0734
 3595W        W 7114   4.018   2.965  10.309  0.0921  0.0921 -0.2436
 3596W        W 7115   5.226   6.572   3.981  0.0172  0.0229  0.1232
 3597W        W 7116   8.213   6.414   2.675  0.1699 -0.1665 -0.4350
 3598W        W 7117   2.839   5.643   0.982  0.1299  0.3235  0.0058
 3599W        W 7118   4.724   5.417   8.236 -0.0761 -0.0553 -0.1804
 3600W        W 7119   5.164   4.513   9.454 -0.3081 -0.1387  0.0164
 3601W        W 7120   5.882   5.904  11.675  0.0186  0.1184  0.0389
 3602W        W 7121   5.545   3.155  10.626 -0.0496  0.1314 -0.1222
 3603W        W 7122   5.580   7.639  10.792 -0.2577 -0.0259  0.1575
 3604W        W 7123   7.262   7.495   2.891 -0.1499 -0.0693  0.0394
 3605W        W 7124   1.005   1.153   2.998  0.0026 -0.0755 -0.0085
 3606W        W 7125   9.332   1.532  11.925 -0.0387 -0.1027 -0.1891
 3607W        W 7126   7.230   5.412   9.100  0.0044  0.1277  0.1817
 3608W        W 7127   2.878   1.527   1.445 -0.4089  0.0659  0.0256
 3609W        W 7128   3.104   5.213   3.679  0.0471 -0.0732 -0.1366
 3610W        W 7129   7.995   7.894   3.978 -0.0214  0.3293  0.0130
 3611W        W 7130   5.938   3.937  12.203  0.1109  0.3515 -0.2174
 3612W        W 7131   6.519   7.992   1.145 -0.0636  0.1566  0.2222
 3613W        W 7132   9.462   8.807   0.161  0.1334 -0.1360  0.0762
 3614W        W 7133   9.661   4.207   0.240  0.0483  0.1124 -0.0449
 3615W        W 7134   4.452   7.855  10.298  0.1462 -0.0376 -0.2332
 3616W        W 7135   2.037   4.615   3.646  0.3071  0.1609 -0.1795
 3617W        W 7136   2.875   7.411  12.266  0.0503  0.1636  0.0969
 3618W        W 7137   8.454   1.569  11.592 -0.0360 -0.2982  0.0134
 3619W        W 7138   3.598   8.754   4.256  0.3064  0.2989 -0.0462
 3620W        W 7139   4.129   1.169   9.919 -0.1508  0.0905 -0.0984
 3621W        W 7140   4.626   9.208   9.179  0.3322 -0.0087 -0.0937
 3622W        W 7141   5.452   4.764   1.982  0.1018 -0.2664 -0.1495
 3623W        W 7142   2.231   7.261   2.338 -0.1607  0.2828  0.1992
 3624W        W 7143   7.950   4.752  12.552  0.0033 -0.0287 -0.3644
 3625W        W 7144   0.728   8.863  11.755  0.3405 -0.1909  0.1470
 3626W        W 7145   6.892   1.548  10.225  0.0347  0.1778 -0.1475
 3627W        W 7146   3.820   0.311  10.210 -0.3906  0.1803 -0.2023
 3628W        W 7147   8.033   5.515  10.144 -0.2366 -0.0572  0.1499
 3629W        W 7148   4.277   1.701   1.807  0.2890 -0.0858 -0.5986
 3630W        W 7149   9.477   0.450   2.808 -0.0108  0.0025  0.0576
 3631W        W 7150   0.705   8.692   2.634 -0.2012 -0.0887  0.0385
 3632W        W 7151   3.964   4.861  10.512  0.0603 -0.2397  0.0062
 3633W        W 7152   2.934   0.095   0.943  0.0478  0.1991  0.3060
 3634W        W 7153   1.718   6.314   0.897  0.2919 -0.3100 -0.2424
 3635W        W 7154   3.944   1.814  10.075  0.0250 -0.2522 -0.0397
 3636W        W 7155   2.047   7.031   3.566 -0.0592 -0.3145 -0.2026
 3637W        W 7156   8.814   8.201   8.867  0.0333 -0.1949  0.1951
 3638W        W 7157   1.924   2.929  10.596  0.0434  0.0849  0.2177
 3639W        W 7158   2.348   6.951   8.695  0.3836 -0.0437  0.1880
 3640W        W 7159   7.089   2.550   1.380 -0.1610  0.0986 -0.0270
 3641W        W 7160   8.188   2.686   3.891  0.0774  0.1871  0.0722
 3642W        W 7161   6.071   3.384   9.453 -0.3519 -0.1107  0.1229
 3643W        W 7162   7.713   0.933  12.487  0.2526 -0.2962  0.0372
 3644W        W 7163   0.982   9.336   9.338 -0.3505  0.0346 -0.1894
 3645W        W 7164   4.503   2.069   3.312  0.2458 -0.0430  0.1901
 3646W        W 7165   7.197   4.806   9.963 -0.2504 -0.0885  0.0461
 3647W        W 7166   1.599   6.272   4.922  0.1147 -0.2510 -0.1353
 3648W        W 7167   7.433   4.782  12.573 -0.0735 -0.0718  0.0847
 3649W        W 7168   8.765   3.370   1.880 -0.0061 -0.1565  0.0003
 3650W        W 7169   8.967   2.321  10.310  0.2726 -0.1026  0.0411
 3651W        W 7170   9.391   7.760   3.594  0.1517  0.3012 -0.0137
 3652W        W 7171   3.302   9.387  10.201  0.0192  0.0525  0.0309
 3653W        W 7172   7.152   3.469   4.249  0.1732  0.0404  0.3886
 3654W        W 7173   2.116   1.858   2.023 -0.0704  0.2260 -0.2345
 3655W        W 7174   3.921   6.731   1.792 -0.1427 -0.1003 -0.1307
 3656W        W 7175   1.036   1.468   4.734 -0.0498 -0.1065 -0.0835
 3657W        W 7176   3.707   7.491  11.921  0.3897 -0.0901  0.0760
 3658W        W 7177   5.832   0.994  10.705  0.0918 -0.0137  0.0220
 3659W        W 7178   1.362   6.294  11.930  0.0097 -0.1103 -0.1187
 3660W        W 7179   1.195   4.225  10.930  0.3590 -0.0206 -0.0174
 3661W        W 7180   0.546   4.395   9.764 -0.0794 -0.2696 -0.0914
 3662W        W 7181   1.316   0.529   3.658  0.1776  0.1438  0.1220
 3663W        W 7182   1.113   6.388  11.473  0.1095 -0.1230  0.1575
 3664W        W 7183   3.396   8.299   2.804 -0.0708 -0.1140 -0.0073
 3665W        W 7184   6.820   5.010  11.225 -0.3537  0.0806  0.0355
 3666W        W 7185   8.490   3.505   2.267 -0.1696 -0.0305  0.4101
 3667W        W 7186   2.089   8.730   2.546 -0.0558  0.1280 -0.2396
 3668W        W 7187   2.978   1.728   9.664 -0.0328 -0.0996  0.0695
 3669W        W 7188   7.475   0.256  11.993 -0.1295  0.2149 -0.4453
 3670W        W 7189   1.041   7.589  10.905  0.0455  0.2086  0.0156
 3671W        W 7190   8.003   3.320   3.188 -0.3204  0.2087 -0.1655
 3672W        W 7191   5.685   8.805  10.221  0.1235 -0.2183  0.1116
 3673W        W 7192   2.360   8.461  10.155 -0.0264 -0.1567 -0.1903
 3674W        W 7193   6.420   6.253   2.095  0.0905 -0.2773  0.1416
 3675W        W 7194   1.936   4.049   4.415 -0.0100 -0.4469  0.0122
 3676W        W 7195   3.097   0.296   2.157  0.2489  0.1061 -0.3206
 3677W        W 7196   6.738   2.066   2.871 -0.0206 -0.0885  0.0582
 3678W        W 7197   9.563   4.519   2.327  0.2816  0.0300  0.0414
 3679W        W 7198   5.329   2.997   8.925  0.2830  0.0271  0.1055
 3680W        W 7199   7.253   5.903   0.077  0.3194  0.3593 -0.0769
 3681W        W 7200   4.070   2.739   2.611  0.1126  0.2999  0.0110
 3682W        W 7201   0.537   1.243  10.175  0.0444  0.1872  0.1297
 3683W        W 7202   4.062   7.706   3.191  0.1274 -0.4082 -0.1422
 3684W        W 7203   0.722   0.490   9.501 -0.0051 -0.0737 -0.1049
 3685W        W 7204   2.709   6.664  11.471  0.2390 -0.1713 -0.2295
 3686W        W 7205   3.923   1.603   3.194 -0.0697  0.4487  0.0865
 3687W        W 7206   1.726   1.330   3.677  0.0602  0.0647  0.1864
 3688W        W 7207   5.752   9.183   2.100  0.3609 -0.0853  0.0397
 3689W        W 7208   7.672   1.533   3.195  0.1750 -0.1565  0.0961
 3690W        W 7209   4.251   3.516   0.944 -0.0586 -0.0679 -0.0121
 3691W        W 7210   3.630   6.685   1.179  0.1783 -0.0259 -0.0393
 3692W        W 7211   0.878   3.420   4.244  0.6249  0.1430 -0.0850
 3693W        W 7212   7.145   5.125   9.486 -0.4800  0.0671 -0.1712
 3694W        W 7213   9.324   7.002   1.016 -0.0858  0.0726  0.3386
 3695W        W 7214   4.457   4.877  10.265 -0.1247  0.0479 -0.0801
 3696W        W 7215   1.517   9.345  10.194  0.0497 -0.1162  0.0610
 3697W        W 7216   9.563   7.127   0.454 -0.1273 -0.2610  0.2283
 3698W        W 7217   2.154   3.034  11.095 -0.1874 -0.0346  0.1334
 3699W        W 7218   0.967   8.766   9.759  0.0905 -0.1938 -0.0749
 3700W        W 7219   7.453   9.394   1.926  0.1771  0.0236  0.0881
 3701W        W 7220   5.973   6.177   4.138 -0.0676 -0.1193  0.0760
 3702W        W 7221   0.974   5.878   0.123 -0.0455  0.0918 -0.1596
 3703W        W 7222   5.663   2.257  12.396 -0.0047  0.1374 -0.3507
 3704W        W 7223   3.710   8.983   3.842 -0.0125  0.0005  0.4015
 3705W        W 7224   1.331   3.647  11.587  0.2526  0.1421 -0.1145
 3706W        W 7225   7.387   3.893   0.516 -0.0542  0.1188 -0.0403
 3707W        W 7226   0.873   4.240   2.362 -0.1141 -0.1810  0.1363
 3708W        W 7227   4.551   3.948   1.000 -0.0567 -0.4218  0.1740
 3709W        W 7228   8.212   0.840   9.758 -0.1572  0.1115 -0.0372
 3710W        W 7229   0.538   0.942   2.473  0.0811  0.1243 -0.0406
 3711W        W 7230   0.282   4.184   8.774  0.2178 -0.1490 -0.1488
 3712W        W 7231   7.016   2.042   1.980 -0.1188  0.0016  0.2524
 3713W        W 7232   7.847   4.244   1.169 -0.1926 -0.0752 -0.0110
 3714W        W 7233   4.105   2.453   9.584 -0.0060 -0.1469 -0.3942
 3715W        W 7234   7.451   6.656   8.853 -0.2250  0.0994  0.0164
 3716W        W 7235   6.437   8.436   1.392 -0.1408  0.2503  0.1840
 3717W        W 7236   4.256   0.590  10.439 -0.4077 -0.1487  0.1909
 3718W        W 7237   5.582   8.535  10.598 -0.0893 -0.1205  0.4112
 3719W        W 7238   1.766   5.293   3.992  0.1630  0.0044  0.1217
 3720W        W 7239   6.938   9.393   1.208 -0.1357  0.1413 -0.0581
 3721W        W 7240   8.114   0.946  11.255  0.2034 -0.0108 -0.0417
 3722W        W 7241   5.324   9.538   3.207  0.3637 -0.1089  0.1846
 3723W        W 7242   0.368   6.632  12.037  0.0687  0.0881  0.4484
 3724W        W 7243   8.580   6.602   2.459 -0.0930  0.1296 -0.2820
 3725W        W 7244   8.422   6.596   8.816  0.1740 -0.0296 -0.2461
 3726W        W 7245   1.322   0.293  11.755 -0.1792 -0.0903 -0.1724
 3727W        W 7246   9.289   2.863  11.821  0.0195 -0.1906 -0.0178
 3728W        W 7247   4.247   2.326  11.328 -0.0417  0.3655  0.2120
 3729W        W 7248   8.494   3.100  12.339 -0.1218 -0.0972 -0.1149
 3730W        W 7249   2.305   0.298  12.194  0.0113  0.3338 -0.0157
 3731W        W 7250   6.413   2.345   2.149  0.0160 -0.1602  0.0072
 3732W        W 7251   2.425   0.378  10.778  0.2927 -0.0012 -0.0665
 3733W        W 7252   7.277   3.242  11.289 -0.1686 -0.1502 -0.1122
 3734W        W 7253   3.705   4.214  11.285 -0.1316  0.1644  0.0225
 3735W        W 7254   6.983   7.674   1.680  0.1190  0.2750  0.0242
 3736W        W 7255   0.417   0.180   1.792  0.0841 -0.0403 -0.1686
 3737W        W 7256   3.985   4.160  11.737  0.3317 -0.0721 -0.0144
 3738W        W 7257   7.136   9.022  12.296  0.2592  0.2615  0.1312
 3739W        W 7258   4.644   8.383   9.661 -0.1500 -0.0166  0.1062
 3740W        W 7259   5.089   8.365   0.051 -0.0158 -0.0926  0.3890
 3741W        W 7260   5.425   7.539   1.245  0.1522  0.2892  0.1586
 3742W        W 7261   2.044   3.175   3.271 -0.1359  0.0496 -0.1840
 3743W        W 7262   2.207   4.582  10.100 -0.0551  0.2359  0.2727
 3744W        W 7263   4.087   6.260   2.954 -0.0754 -0.4008 -0.0233
 3745W        W 7264   8.019   9.442   2.819  0.0625 -0.0361 -0.1159
 3746W        W 7265   0.369   0.932   9.331 -0.0893 -0.1746 -0.0347
 3747W        W 7266   0.431   4.985   4.065  0.1189 -0.1809 -0.0354
 3748W        W 7267   6.798   9.236   0.239 -0.0492 -0.0583  0.1541
 3749W        W 7268   9.417   1.274   8.995 -0.1872  0.1595 -0.0656
 3750W        W 7269   2.585   4.822   4.286  0.1790 -0.0414  0.1913
 3751W        W 7270   9.271   3.532  11.153  0.0129  0.0325 -0.1652
 3752W        W 7271   1.949   0.011   9.009  0.0193  0.0595 -0.1358
 3753W        W 7272   7.861   6.060   2.448 -0.0789  0.4468  0.2122
 3754W        W 7273   6.720   6.890   8.449 -0.0471  0.0158 -0.0581
 3755W        W 7274   7.484   2.966   9.871  0.0337 -0.1283  0.1411
 3756W        W 7275   1.726   4.031  12.157  0.1336  0.0086 -0.0282
 3757W        W 7276   2.646   3.824  12.100  0.1228  0.3578  0.2634
 3758W        W 7277   1.478   7.079  10.827 -0.1240 -0.0716 -0.1935
 3759W        W 7278   5.841   0.792  12.001  0.0257 -0.1806  0.1130
 3760W        W 7279   0.986   3.779   9.371  0.2288 -0.0157  0.0564
 3761W        W 7280   6.160   3.877   2.515 -0.0757  0.0450  0.0935
 3762W        W 7281   8.563   4.952   4.357 -0.2167 -0.1823 -0.0953
 3763W        W 7282   4.692   6.051  10.339 -0.4455 -0.0416 -0.1989
 3764W        W 7283   2.526   3.090   8.694  0.1334  0.1573 -0.0957
 3765W        W 7284   2.833   2.339   2.750 -0.1055 -0.0858 -0.2980
 3766W        W 7285   2.028   5.872   2.010  0.1166  0.3082 -0.0276
 3767W        W 7286   1.447   7.077   8.810  0.3801 -0.0341 -0.0366
 3768W        W 7287   5.159   5.212   0.989 -0.2756 -0.1449 -0.1109
 3769W        W 7288   4.990   1.481   9.016  0.1050  0.1516 -0.2166
 3770W        W 7289   4.635   5.434   4.070 -0.0805  0.1828  0.1122
 3771W        W 7290   1.833   6.472   9.425  0.1078  0.0621 -0.1551
 3772W        W 7291   3.110   6.797   1.969  0.0774  0.0133  0.1948
 3773W        W 7292   2.465   6.149   1.740  0.0743  0.0284  0.0354
 3774W        W 7293   5.242   5.678  10.554 -0.1393 -0.0945  0.0138
 3775W        W 7294   9.460   4.907   8.663 -0.1231  0.0840 -0.2600
 3776W        W 7295   2.367   9.255  10.914 -0.1555 -0.1668 -0.2356
 3777W        W 7296   6.000   0.659   0.414 -0.2557  0.0451 -0.1910
 3778W        W 7297   5.093   2.438  11.722  0.0137  0.1534  0.4565
 3779W        W 7298   5.668   5.790  10.788  0.0699  0.2732 -0.1455
 3780W        W 7299   2.398   9.159   2.925  0.2986 -0.0307  0.0414
 3781W        W 7300   8.061   3.449   8.408  0.0547 -0.0952  0.0140
 3782W        W 7301   3.008   2.901  11.542  0.0626  0.0233  0.0366
 3783W        W 7302   5.358   8.965   9.752 -0.0031 -0.0643 -0.1716
 3784W        W 7303   3.212   7.464   2.785  0.2153 -0.0121 -0.1309
 3785W        W 7304   1.924   6.096   4.471  0.0218  0.0852  0.2387
 3786W        W 7305   3.968   4.963   9.547 -0.0569  0.2412  0.0376
 3787W        W 7306   6.297   7.605   1.403 -0.2030  0.2399  0.1552
 3788W        W 7307   2.557   8.087  10.407 -0.1027  0.0241  0.0193
 3789W        W 7308   5.872   2.696  11.673  0.0994  0.0220 -0.6130
 3790W        W 7309   0.253   6.194  11.345  0.1119 -0.1399  0.0127
 3791W        W 7310   1.924   1.452  11.676 -0.2998  0.0256  0.2757
 3792W        W 7311   6.402   6.986  10.018  0.0777  0.1151 -0.3747
 3793W        W 7312   2.484   7.456   4.398  0.0618  0.0219  0.0024
 3794W        W 7313   9.118   7.881  10.162 -0.2556  0.0894  0.1488
 3795W        W 7314   5.181   3.944   9.518  0.0085  0.3568  0.1531
 3796W        W 7315   6.904   1.577   8.718  0.0420  0.1421  0.2872
 3797W        W 7316   3.680   2.432   2.170  0.0180 -0.0599 -0.0716
 3798W        W 7317   4.126   2.922   9.269  0.0163  0.0864  0.1288
 3799W        W 7318   8.904   7.925   3.776  0.1097  0.2329  0.1053
 3800W        W 7319   5.219   8.938  12.052 -0.2844  0.2233  0.5161
 3801W        W 7320   2.979   2.864   8.591 -0.0966 -0.1317 -0.0685
 3802W        W 7321   2.659   6.050   0.670 -0.4904 -0.2230  0.0761
 3803W        W 7322   4.182   5.444  12.447 -0.0594  0.1718 -0.0848
 3804W        W 7323   0.507   7.546  12.490 -0.3520 -0.1986  0.1371
 3805W        W 7324   5.091   6.409   1.580 -0.0282  0.0564  0.1862
 3806W        W 7325   5.946   0.072  10.669  0.1869 -0.0903 -0.1510
 3807W        W 7326   2.714   2.538   2.213  0.2099  0.0051 -0.2904
 3808W        W 7327   8.179   0.897  12.307 -0.2865  0.1845  0.0528
 3809W        W 7328   7.598   5.634   9.463  0.1287 -0.0877  0.0129
 3810W        W 7329   3.442   8.056   2.034  0.3940  0.1132 -0.4564
 3811W        W 7330   4.858   5.102  11.970 -0.0502 -0.0117  0.1375
 3812W        W 7331   7.506   7.780   0.025  0.0013 -0.2504 -0.1636
 3813W        W 7332   6.480   6.650  11.082  0.0174 -0.0618 -0.0517
 3814W        W 7333   1.353   8.313  11.121  0.1947  0.2160  0.2923
 3815W        W 7334   5.530   2.172   9.362  0.3123  0.0232  0.3110
 3816W        W 7335   1.385   4.631  11.681  0.0610 -0.1578 -0.0111
 3817W        W 7336   7.745   8.721   3.214 -0.1788 -0.1861 -0.1215
 3818W        W 7337   7.032   0.450   1.667 -0.1671  0.0188  0.1016
 3819W        W 7338   4.145   6.260   4.753 -0.1706 -0.1422 -0.1981
 3820W        W 7339   7.228   3.064   8.954  0.1726 -0.2779  0.1861
 3821W        W 7340   0.828   1.958   3.854 -0.0611  0.2606  0.1041
 3822W        W 7341   1.798   7.751   9.659 -0.1201  0.0244 -0.2112
 3823W        W 7342   2.366   2.398   2.922  0.3304 -0.0788 -0.0662
 3824W        W 7343   3.083   1.390  12.287 -0.0278 -0.0335  0.0946
 3825W        W 7344   6.634   6.122   2.614 -0.0371  0.1553  0.0887
 3826W        W 7345   7.434   0.570   1.344  0.0211  0.1755  0.2183
 3827W        W 7346   6.959   4.624  12.540  0.1907  0.3221 -0.2127
 3828W        W 7347   0.139   1.963  10.370 -0.1793  0.2182 -0.0854
 3829W        W 7348   1.768   6.819   0.908 -0.0847  0.0017  0.3615
 3830W        W 7349   3.892   1.981   9.590 -0.0108 -0.0290  0.0716
 3831W        W 7350   9.017   9.627  10.748  0.1483 -0.0846 -0.1457
 3832W        W 7351   5.705   8.712   1.378  0.0707 -0.0333 -0.0138
 3833W        W 7352   7.271   3.486   4.748 -0.1785 -0.2770 -0.3919
 3834W        W 7353   6.863   6.975   2.421  0.2292  0.0825  0.2055
 3835W        W 7354   9.060   6.514  11.165  0.1718 -0.2099  0.2135
 3836W        W 7355   5.184   6.923  10.417  0.1966 -0.3419  0.2591
 3837W        W 7356   5.393   4.118   4.154  0.1179  0.4879  0.0548
 3838W        W 7357   5.192   8.640  10.912 -0.1836  0.0353  0.2712
 3839W        W 7358   3.122   3.974   9.747 -0.0956 -0.1699 -0.3623
 3840W        W 7359   0.660   5.279   5.219 -0.2394  0.1565 -0.0257
 3841W        W 7360   5.645   4.457  10.055  0.1524  0.3579  0.0754
 3842W        W 7361   1.199   0.480   0.518  0.0515 -0.0593  0.1415
 3843W        W 7362   3.915   2.209   2.606  0.1178 -0.3275  0.1038
 3844W        W 7363   3.297   8.673   2.058 -0.2713  0.1782  0.3223
 3845W        W 7364   5.136   4.827   9.937  0.0794 -0.2969 -0.2504
 3846W        W 7365   9.510   1.389  11.438 -0.3171 -0.1175 -0.0732
 3847W        W 7366   4.629   4.396  11.524 -0.0331  0.1610 -0.1163
 3848W        W 7367   7.285   2.921   3.673 -0.0533 -0.0364  0.0829
 3849W        W 7368   0.922   5.521  11.534  0.2360  0.2590 -0.0067
 3850W        W 7369   6.161   1.908   9.984  0.5123 -0.0456 -0.1146
 3851W        W 7370   1.194   6.849   2.306 -0.0516  0.3229  0.0441
 3852W        W 7371   2.764   7.944   9.587 -0.1758  0.0701 -0.0558
 3853W        W 7372   0.287   6.071   9.240 -0.1957  0.0462  0.0081
 3854W        W 7373   7.929   8.339   9.392 -0.1265  0.1410  0.1818
 3855W        W 7374   8.738   0.761  10.045 -0.0336 -0.1810  0.2492
 3856W        W 7375   0.554   8.027   5.488 -0.1152 -0.2511 -0.0165
 3857W        W 7376   4.844   2.105   0.095 -0.1135  0.0563  0.0864
 3858W        W 7377   7.967   3.110   9.793  0.2405  0.1028  0.1636
 3859W        W 7378   5.860   3.007   2.499 -0.2391 -0.1354  0.1618
 3860W        W 7379   9.311   8.932  11.052 -0.1773 -0.0268  0.1082
 3861W        W 7380   3.173   6.986  12.031 -0.4170  0.1191 -0.4423
 3862W        W 7381   0.811   4.100   1.119  0.2928 -0.0113 -0.1588
 3863W        W 7382   0.061   5.307   1.199 -0.1405 -0.3731  0.1246
 3864W        W 7383   0.929   3.276   2.104 -0.0642 -0.0373 -0.3159
 3865W        W 7384   1.364   4.103   9.253 -0.0522  0.1477  0.0141
 3866W        W 7385   7.980   4.169   0.625 -0.1113  0.0744 -0.0544
 3867W        W 7386   1.946   0.743   3.353 -0.1059 -0.2263 -0.2601
 3868W        W 7387   9.187   5.072   3.568 -0.3147  0.1315 -0.0269
 3869W        W 7388   8.691   0.158  10.395 -0.0359 -0.1600  0.1196
 3870W        W 7389   8.797   6.202  12.517  0.0459 -0.0035  0.2545
 3871W        W 7390   7.016   0.226  11.148  0.1591 -0.0127  0.1968
 3872W        W 7391   1.869   0.972   8.672 -0.0331  0.0004  0.2262
 3873W        W 7392   3.621   2.701   0.952  0.3121  0.0042 -0.2623
 3874W        W 7393   9.267   7.878   1.736 -0.0135 -0.2095 -0.0237
 3875W        W 7394   8.531   3.213   9.951  0.0714 -0.2517 -0.0495
 3876W        W 7395   0.033   8.741  11.289 -0.2692 -0.0540 -0.1065
 3877W        W 7396   2.494   7.208   9.736  0.0438 -0.1031 -0.1131
 3878W        W 7397   4.069   6.998   9.786  0.1634 -0.1035 -0.2004
 3879W        W 7398   0.008   2.299   8.704 -0.0399  0.3316  0.2116
 3880W        W 7399   8.159   5.362  10.664  0.1316 -0.0280  0.3483
 3881W        W 7400   6.606   0.229   1.989 -0.0932  0.0888  0.0880
 3882W        W 7401   2.201   6.882  11.534 -0.1046  0.3122 -0.2641
 3883W        W 7402   3.879   6.966  10.270 -0.0184 -0.4062 -0.0027
 3884W        W 7403   4.117   2.189   0.414  0.1355 -0.1044 -0.2588
 3885W        W 7404   8.370   6.127   2.333 -0.2089 -0.0158  0.0388
 3886W        W 7405   9.542   9.212   8.183  0.2660 -0.0440  0.2478
 3887W        W 7406   5.836   7.898   1.383 -0.0036 -0.0094  0.1675
 3888W        W 7407   1.886   2.883   5.129  0.0990 -0.1470 -0.1082
 3889W        W 7408   1.321   9.569   1.667 -0.1673 -0.3377 -0.1908
 3890W        W 7409   4.224   3.630   3.958 -0.1482 -0.0205  0.0634
 3891W        W 7410   1.548   2.267   9.345 -0.0525  0.0569 -0.1844
 3892W        W 7411   7.179   9.554   0.292 -0.0262  0.1891  0.2691
 3893W        W 7412   0.425   7.999  12.314 -0.0350  0.3583  0.3446
 3894W        W 7413   3.664   0.157  11.947 -0.1707  0.2815 -0.1711
 3895W        W 7414   2.193   6.430   3.074  0.2036  0.0039 -0.4068
 3896W        W 7415   7.179   0.719   9.024  0.1963  0.0920 -0.0637
 3897W        W 7416   7.291   3.332   9.438 -0.0046 -0.0979 -0.2045
 3898W        W 7417   2.341   7.635  10.475  0.2468 -0.2035 -0.2508
 3899W        W 7418   0.478   5.342  11.394  0.1888 -0.3007  0.0310
 3900W        W 7419   3.446   5.788  11.687 -0.0254 -0.1539 -0.1427
 3901W        W 7420   5.541   4.241   9.177  0.2007 -0.1198  0.0786
 3902W        W 7421   0.081   0.609   4.531 -0.1205  0.2292  0.0067
 3903W        W 7422   8.571   4.900  11.811  0.2022  0.1814 -0.0031
 3904W        W 7423   1.819   9.338   1.748 -0.0176  0.3711  0.0322
 3905W        W 7424   4.336   7.445   9.447 -0.1309 -0.1886  0.1407
 3906W        W 7425   7.525   3.395   0.209  0.0156 -0.0453 -0.1598
 3907W        W 7426   0.966   7.538   0.045  0.2738  0.1311  0.2448
 3908W        W 7427   4.191   0.742  12.497 -0.0314 -0.0802 -0.1018
 3909W        W 7428   7.503   3.901   4.985 -0.1083 -0.1308 -0.3524
 3910W        W 7429   0.204   8.115  11.231  0.2883 -0.0914  0.0934
 3911W        W 7430   0.351   7.733   5.067 -0.1582  0.0536  0.2549
 3912W        W 7431   6.165   1.849   3.152 -0.0172  0.0716  0.0590
 3913W        W 7432   2.187   5.865   2.965 -0.1623 -0.0704  0.1752
 3914W        W 7433   5.299   0.912   2.088 -0.0298  0.1737  0.1892
 3915W        W 7434   7.646   1.045   2.488 -0.2851 -0.0416 -0.0498
 3916W        W 7435   7.784   4.449   2.914 -0.1461 -0.1106 -0.0389
 3917W        W 7436   3.274   5.250   0.862  0.0360  0.0343  0.0745
 3918W        W 7437   1.510   5.955   9.427  0.3040 -0.1627  0.0303
 3919W        W 7438   0.407   8.767   8.922  0.3534 -0.0980  0.1014
 3920W        W 7439   8.413   6.805   3.119  0.3004 -0.1004 -0.2020
 3921W        W 7440   9.339   0.241   9.107 -0.3332  0.1290  0.0170
 3922W        W 7441   3.440   7.615   8.523  0.0864  0.0912 -0.0511
 3923W        W 7442   9.648   4.309  11.917 -0.0121 -0.0231 -0.0395
 3924W        W 7443   1.911   1.195  10.949 -0.2227  0.2591 -0.0021
 3925W        W 7444   0.024   2.999  10.356 -0.3853 -0.2774  0.2371
 3926W        W 7445   6.968   6.468  10.837  0.2090  0.0224  0.0381
 3927W        W 7446   3.572   4.473  11.697  0.1744  0.0972 -0.2724
 3928W        W 7447   1.295   1.106   2.049  0.2270 -0.1436 -0.0966
 3929W        W 7448   5.104   6.344   2.804  0.1452 -0.0003 -0.0731
 3930W        W 7449   8.343   7.223  10.814 -0.0065  0.2274 -0.0139
 3931W        W 7450   5.111   0.890   0.393 -0.0746 -0.4136  0.1240
 3932W        W 7451   9.349   1.726   1.603 -0.1168 -0.2683 -0.0710
 3933W        W 7452   2.464   4.754  12.217  0.0344  0.0779 -0.2729
 3934W        W 7453   0.050   2.537  11.175 -0.2753 -0.0256 -0.0754
 3935W        W 7454   5.451   2.962   9.436 -0.5084 -0.2162  0.2521
 3936W        W 7455   6.369   5.176   3.995 -0.2367 -0.1468 -0.0640
 3937W        W 7456   7.457   3.168   1.236  0.0494 -0.3141 -0.0024
 3938W        W 7457   4.824   7.485   1.121 -0.1474  0.0154 -0.1968
 3939W        W 7458   2.566   0.123   1.377  0.0098 -0.0557 -0.0128
 3940W        W 7459   7.178   2.883   9.406  0.1438  0.1039 -0.5533
 3941W        W 7460   6.551   4.163  10.815 -0.0017 -0.1045 -0.0910
 3942W        W 7461   4.151   4.881  12.398  0.1210  0.3904  0.0501
 3943W        W 7462   7.037   5.868  11.116  0.2966 -0.1820 -0.2474
 3944W        W 7463   1.637   8.263   1.463  0.0148  0.2011  0.0891
 3945W        W 7464   0.492   4.694   0.648 -0.1673  0.0756 -0.1695
 3946W        W 7465   7.183   2.488   2.828 -0.2369  0.0669  0.2008
 3947W        W 7466   1.263   0.106   0.201 -0.1283 -0.0899 -0.3208
 3948W        W 7467   4.603   5.675  12.319  0.0444 -0.0018  0.1027
 3949W        W 7468   5.819   4.692   0.867  0.1678  0.0124 -0.0883
 3950W        W 7469   2.424   3.949   4.417 -0.2093  0.0209  0.0492
 3951W        W 7470   3.651   0.882  12.123 -0.2806  0.1785 -0.0900
 3952W        W 7471   1.819   0.569  11.755  0.1252  0.1311 -0.0473
 3953W        W 7472   9.418   1.063  12.173 -0.1662 -0.0610 -0.0532
 3954W        W 7473   8.802   5.903   1.679 -0.0163  0.2457 -0.0609
 3955W        W 7474   7.018   6.744  11.262  0.2824  0.3403  0.1687
 3956W        W 7475   9.451   1.453   1.158 -0.3338 -0.1265 -0.0226
 3957W        W 7476   4.421   0.121  11.772  0.0428 -0.0153 -0.0147
 3958W        W 7477   7.421   7.433   8.067 -0.0033 -0.0473  0.4598
 3959W        W 7478   3.660   1.247   1.099 -0.1708 -0.2701  0.2976
 3960W        W 7479   2.484   4.347  10.999 -0.0187 -0.4578  0.0493
 3961W        W 7480   3.303   3.011   3.099 -0.0839 -0.0223 -0.0175
 3962W        W 7481   6.891   7.184  12.113  0.0364 -0.2749 -0.0350
 3963W        W 7482   0.958   1.768   4.296  0.2207  0.3734  0.2048
 3964W        W 7483   3.807   6.385   2.174 -0.1590 -0.2715  0.1896
 3965W        W 7484   3.923   8.511   9.715 -0.0356 -0.1705  0.0529
 3966W        W 7485   4.522   8.049   2.289 -0.0081 -0.2254  0.1427
 3967W        W 7486   1.252   5.116   4.466 -0.2430 -0.2504 -0.1493
 3968W        W 7487   6.612   9.340  11.216  0.2953 -0.1218  0.2020
 3969W        W 7488   2.542   2.322   9.186 -0.1119 -0.1348 -0.1606
 3970W        W 7489   1.041   8.391  10.667  0.0632 -0.0909 -0.1875
 3971W        W 7490   7.826   6.254   1.529 -0.1450  0.0366  0.0110
 3972W        W 7491   6.727   3.571   1.589 -0.1630 -0.0306 -0.0893
 3973W        W 7492   9.065   3.412   0.796 -0.0349 -0.2315 -0.4164
 3974W        W 7493   5.447   9.301  10.129 -0.2994 -0.0404 -0.0782
 3975W        W 7494   6.757   7.206  10.338  0.0317 -0.4831  0.1299
 3976W        W 7495   3.211   0.101  12.282 -0.0471  0.0577 -0.1787
 3977W        W 7496   3.175   0.212  10.175  0.1658  0.0282 -0.0187
 3978W        W 7497   7.210   6.635   9.765 -0.0396 -0.0229  0.0109
 3979W        W 7498   1.368   1.779  12.284  0.0324 -0.1421  0.4594
 3980W        W 7499   6.815   7.548   1.199  0.1889  0.1569 -0.1495
 3981W        W 7500   7.508   5.256   3.197 -0.3333 -0.2944 -0.2157
 3982W        W 7501   2.631   3.647  11.236  0.0997 -0.0038 -0.0036
 3983W        W 7502   3.914   2.116   1.900  0.3373  0.4005  0.1849
 3984W        W 7503   4.069   8.763   2.348 -0.1819 -0.0460  0.2368
 3985W        W 7504   1.028   1.356   3.445 -0.0345  0.1341  0.0570
 3986W        W 7505   4.933   7.049   3.268  0.4803  0.0797  0.0854
 3987W        W 7506   6.384   9.337   1.299 -0.0317 -0.2293 -0.1906
 3988W        W 7507   1.863   6.977  12.559  0.1938 -0.0228  0.0391
 3989W        W 7508   6.344   5.766   2.815 -0.1975 -0.0748  0.0493
 3990W        W 7509   0.484   6.701   4.217 -0.2433 -0.1640 -0.2724
 3991W        W 7510   8.362   1.757   2.548 -0.0807  0.1062  0.4177
 3992W        W 7511   5.272   2.080   9.830 -0.1091 -0.3115  0.0020
 3993W        W 7512   5.853   2.210   0.223 -0.0126 -0.2961 -0.0159
 3994W        W 7513   0.472   3.827   2.451  0.0640  0.2019 -0.0737
 3995W        W 7514   3.711   4.002   2.955  0.3208 -0.4719 -0.0478
 3996W        W 7515   1.213   3.672   9.842  0.4042 -0.0478 -0.2324
 3997W        W 7516   5.707   1.737   1.998  0.1351  0.0215  0.0950
 3998W        W 7517   9.654   2.780   3.887  0.2755 -0.0486  0.2412
 3999W        W 7518   6.039   4.362  10.990 -0.1804 -0.0305 -0.0548
 4000W        W 7519   3.408   9.308   0.524  0.1200 -0.2815 -0.3432
 4001W        W 7520   8.972   1.486  10.683 -0.2180 -0.3815  0.2323
 4002W        W 7521   4.524   1.135  12.326  0.4210 -0.3118  0.2808
 4003W        W 7522   3.249   4.814   2.328  0.0099  0.0156  0.1181
 4004W        W 7523   3.347   0.844   9.892 -0.2005  0.1633 -0.0192
 4005W        W 7524   8.796   7.393  11.669 -0.0650  0.1514 -0.1226
 4006W        W 7525   6.212   5.925   3.371 -0.0571  0.0201  0.2690
 4007W        W 7526   3.389   6.426   4.170 -0.0886  0.0561 -0.0161
 4008W        W 7527   0.143   6.977   1.857 -0.3572  0.3779  0.1813
 4009W        W 7528   1.103   3.927   4.179 -0.1231  0.0479  0.1485
 4010W        W 7529   2.532   6.504   3.498 -0.2989  0.0799 -0.0608
 4011W        W 7530   0.920   4.935   4.145  0.0179  0.2099 -0.2383
 4012W        W 7531   5.927   3.667  10.472  0.3095  0.0100 -0.1664
 4013W        W 7532   1.318   0.142  12.281  0.0768  0.0289  0.1116
 4014W        W 7533   4.121   6.801   0.144 -0.2437 -0.2180 -0.3242
 4015W        W 7534   4.983   7.862   1.432  0.0332 -0.3418 -0.1717
 4016W        W 7535   5.867   7.642  12.583  0.2654  0.1234  0.2166
 4017W        W 7536   4.925   6.421  10.813  0.2759  0.0229 -0.0054
 4018W        W 7537   8.355   1.245   9.386  0.0288  0.1441 -0.1134
 4019W        W 7538   7.239   0.966  12.182 -0.1153 -0.1322  0.0536
 4020W        W 7539   2.410   4.091   9.451 -0.0030 -0.1413 -0.1306
 4021W        W 7540   3.576   2.861  10.175  0.3666  0.3368  0.0138
 4022W        W 7541   3.258   5.043   8.846 -0.1205  0.1912  0.5221
 4023W        W 7542   4.690   7.615   3.923  0.1402  0.0989  0.0082
 4024W        W 7543   2.272   5.397   9.773  0.0426 -0.1828  0.0088
 4025W        W 7544   7.821   7.040  11.241  0.4641 -0.0039  0.0761
 4026W        W 7545   6.387   6.537   2.512  0.1667 -0.1387  0.0962
 4027W        W 7546   0.766   6.844   4.812  0.1962 -0.1688 -0.0952
 4028W        W 7547   2.121   4.562  10.662  0.0481 -0.2367 -0.2248
 4029W        W 7548   7.641   0.777  11.130  0.0092  0.0825  0.0360
 4030W        W 7549   4.988   3.094   9.316 -0.0356 -0.0987 -0.2668
 4031W        W 7550   6.892   3.894  11.132  0.0073  0.1709  0.1554
 4032W        W 7551   2.770   6.341  12.361 -0.1266  0.1790 -0.5043
 4033W        W 7552   4.511   6.776  10.691  0.0392  0.0120 -0.0635
 4034W        W 7553   5.743   2.915   3.021  0.4709  0.0445  0.0852
 4035W        W 7554   6.187   3.382   2.369 -0.2472  0.0522 -0.0772
 4036W        W 7555   0.447   5.331  10.861 -0.0939 -0.1275 -0.3666
 4037W        W 7556   3.400   7.063   0.970  0.0165 -0.0057 -0.0534
 4038W        W 7557   0.471   4.981   9.834 -0.0101 -0.1381 -0.0669
 4039W        W 7558   0.968   3.126   0.456 -0.0236  0.2282 -0.1213
 4040W        W 7559   5.599   7.875  10.294  0.0034  0.0598 -0.0501
 4041W        W 7560   7.746   9.054   8.983  0.1887  0.1065  0.1655
 4042W        W 7561   8.073   3.715   1.915 -0.0557  0.2387 -0.0855
 4043W        W 7562   1.363   5.949   2.742 -0.0473  0.0288 -0.2023
 4044W        W 7563   8.848   5.351  11.091  0.0312  0.1167  0.1659
 4045W        W 7564   3.900   6.287   3.923 -0.0282 -0.1645  0.0588
 4046W        W 7565   0.147   1.935   1.382  0.1516  0.2787  0.0799
 4047W        W 7566   8.916   6.920   1.287 -0.2193  0.0138 -0.0398
 4048W        W 7567   2.243   1.155   2.140  0.1864 -0.2917 -0.0195
 4049W        W 7568   4.526   4.409   3.607 -0.0595  0.0729  0.2336
 4050W        W 7569   0.023   4.572  12.479 -0.0159  0.3271 -0.1987
 4051W        W 7570   3.428   1.156   2.522 -0.0641 -0.0566 -0.3339
 4052W        W 7571   8.792   1.705  10.267  0.2633  0.0786 -0.0797
 4053W        W 7572   4.564   0.335  10.713  0.5020 -0.1589  0.0706
 4054W        W 7573   9.337   6.920  11.380 -0.1216  0.0489 -0.0317
 4055W        W 7574   7.798   0.557   2.339  0.1834  0.0334  0.1699
 4056W        W 7575   4.354   4.715   1.259  0.1680 -0.0331 -0.2985
 4057W        W 7576   4.410   0.481   8.555  0.2169 -0.0504 -0.1235
 4058W        W 7577   6.453   4.671   9.294 -0.4156 -0.0202  0.0500
 4059W        W 7578   6.376   5.349   2.032  0.0180  0.0253  0.2865
 4060W        W 7579   5.598   5.996  10.156 -0.4041 -0.2254  0.1355
 4061W        W 7580   2.764   3.408  11.664 -0.1176 -0.2712 -0.0839
 4062W        W 7581   4.244   6.970  12.031  0.3614 -0.2210  0.0819
 4063W        W 7582   9.448   5.487   8.601 -0.3394 -0.1265  0.3228
 4064W        W 7583   9.393   8.573  10.375 -0.0291 -0.0645  0.1489
 4065W        W 7584   2.325   6.749  10.531 -0.1863  0.2523 -0.3047
 4066W        W 7585   0.247   0.461   0.571  0.1090  0.2043  0.2422
 4067W        W 7586   8.716   3.675   9.116 -0.1286 -0.0073  0.0814
 4068W        W 7587   2.093   3.614  11.094  0.1119 -0.0173  0.0678
 4069W        W 7588   0.532   7.897   3.639 -0.1131  0.1282  0.2408
 4070W        W 7589   9.678   6.911   9.292  0.0895 -0.1816 -0.0038
 4071W        W 7590   2.498   4.776   1.482  0.1099  0.1583 -0.2408
 4072W        W 7591   4.285   8.435  10.140  0.2099  0.0183  0.2747
 4073W        W 7592   0.004   2.479  10.579 -0.0316  0.0264  0.2512
 4074W        W 7593   9.380   7.427   1.285 -0.1370 -0.0654  0.0329
 4075W        W 7594   0.581   6.753   1.700 -0.0392  0.0291  0.2712
 4076W        W 7595   1.205   9.511   1.157  0.5935  0.0248 -0.0547
 4077W        W 7596   0.765   8.310   0.036 -0.1123 -0.1796 -0.0851
 4078W        W 7597   9.469   4.905   9.700  0.2243  0.1495 -0.2976
 4079W        W 7598   3.557   7.916   3.264 -0.2393 -0.1309  0.0112
 4080W        W 7599   4.193   3.816   2.646  0.2308 -0.0345  0.0457
 4081W        W 7600   3.214   1.794   4.014 -0.0616 -0.0768  0.0441
 4082W        W 7601   2.661   5.618  12.266 -0.2612 -0.2052  0.0190
 4083W        W 7602   7.792   1.172  10.797 -0.0083 -0.0000  0.0701
 4084W        W 7603   9.541   4.751  10.571 -0.2327 -0.1748  0.4547
 4085W        W 7604   8.787   0.710   2.005  0.1876  0.1034 -0.0526
 4086W        W 7605   5.119   3.339  11.870 -0.0253 -0.1029 -0.2063
 4087W        W 7606   3.113   8.053   3.699  0.0563  0.1772  0.3362
 4088W        W 7607   8.267   3.646   0.668 -0.1700  0.4239  0.0199
 4089W        W 7608   4.003   6.659   3.450 -0.0323  0.0096 -0.0091
 4090W        W 7609   8.986   0.999   3.303 -0.0226  0.1324  0.0299
 4091W        W 7610   2.973   1.302   0.987  0.1732  0.0460  0.1068
 4092W        W 7611   3.635   7.995  10.870 -0.2506 -0.2150 -0.0479
 4093W        W 7612   4.975   3.444  10.442 -0.2572 -0.2482  0.2263
 4094W        W 7613   8.645   2.483  11.583 -0.5740  0.0559 -0.2563
 4095W        W 7614   9.662   5.179   3.420 -0.0166  0.3064  0.0439
 4096W        W 7615   8.492   4.414   3.582 -0.3037  0.0878  0.0041
 4097W        W 7616   1.509   4.216   2.208  0.0638 -0.2337  0.0113
 4098W        W 7617   1.376   4.126  11.763 -0.1735  0.0902 -0.0715
 4099W        W 7618   4.285   4.973   9.059 -0.1785  0.1750  0.1808
 4100W        W 7619   4.248   8.711  12.455 -0.2268  0.0261 -0.3561
 4101W        W 7620   0.816   0.063  12.372 -0.3454 -0.1586  0.1935
 4102W        W 7621   4.751   3.466   0.867  0.1742  0.1485  0.3227
 4103W        W 7622   1.077   6.143   9.088  0.3094 -0.1742 -0.0952
 4104W        W 7623   3.969   4.745  11.945  0.2230 -0.2854 -0.0026
 4105W        W 7624   7.568   2.705   1.262  0.0570  0.0084 -0.0134
 4106W        W 7625   7.024   4.187   2.585 -0.0503 -0.0082  0.0016
 4107W        W 7626   7.985   6.102   9.844 -0.0631  0.0727 -0.2834
 4108W        W 7627   4.685   3.633  11.888  0.0700  0.0982 -0.1737
 4109W        W 7628   2.135   0.155   1.712 -0.3255 -0.1067 -0.1989
 4110W        W 7629   9.101   3.092  11.005  0.0674  0.0549  0.0779
 4111W        W 7630   5.506   6.912  10.033 -0.0306 -0.0390 -0.1081
 4112W        W 7631   0.178   3.223  12.125  0.0085 -0.1305 -0.1826
 4113W        W 7632   5.264   0.817   1.462 -0.0476 -0.0510  0.0137
 4114W        W 7633   0.496   2.468  11.537 -0.4344 -0.0067 -0.0184
 4115W        W 7634   2.987   8.982  11.558 -0.4644 -0.3862  0.0560
 4116W        W 7635   5.230   6.051  10.930  0.0612  0.0164  0.1103
 4117W        W 7636   0.252   7.851   8.833  0.0244  0.3089 -0.1843
 4118W        W 7637   0.638   1.676  11.062  0.0240 -0.1913  0.2421
 4119W        W 7638   4.389   1.673   0.250 -0.3099 -0.0182 -0.0638
 4120W        W 7639   4.160   8.929   0.941 -0.1663 -0.0001 -0.0715
 4121W        W 7640   9.573   5.971   4.082 -0.2345  0.2197 -0.2159
 4122W        W 7641   5.232   5.887  11.587  0.1534 -0.0480 -0.1765
 4123W        W 7642   0.919   2.125   2.540  0.1121 -0.1023 -0.2042
 4124W        W 7643   0.919   9.119  10.151 -0.1393  0.1488 -0.1856
 4125W        W 7644   6.323   8.790   2.908 -0.1339 -0.0114  0.2904
 4126W        W 7645   7.858   1.340   8.624  0.2811  0.1784 -0.0384
 4127W        W 7646   2.620   8.697   2.676  0.0960 -0.2151 -0.3099
 4128W        W 7647   8.679   6.256   4.210  0.1708 -0.1484  0.0942
 4129W        W 7648   5.247   4.499   1.549 -0.0027  0.4552 -0.0938
 4130W        W 7649   8.717   4.280   3.138 -0.0100 -0.0741 -0.0614
 4131W        W 7650   5.886   7.418   9.002 -0.1226 -0.1857  0.3406
 4132W        W 7651   6.434   8.879   0.304 -0.1667  0.1041 -0.0077
 4133W        W 7652   3.776   3.616   8.590 -0.2041 -0.2247 -0.0751
 4134W        W 7653   5.269   6.048  12.340 -0.2059  0.0362  0.2871
 4135W        W 7654   0.510   4.506  12.061 -0.3415 -0.0515  0.0136
 4136W        W 7655   9.296   0.369  11.752 -0.1427 -0.0109 -0.0081
 4137W        W 7656   6.629   5.053   0.067 -0.0039 -0.2619  0.1671
 4138W        W 7657   7.896   8.493  12.048  0.1939 -0.0456  0.0952
 4139W        W 7658   8.126   6.164  11.755  0.3760 -0.0218  0.1295
 4140W        W 7659   5.475   9.209  11.710 -0.1715 -0.0766  0.0735
 4141W        W 7660   6.404   3.605  10.768  0.2150 -0.1401  0.3445
 4142W        W 7661   2.916   3.912   1.096  0.1071 -0.2916  0.0277
 4143W        W 7662   3.928   3.993   0.880  0.0576  0.1134 -0.1661
 4144W        W 7663   3.545   1.650   2.645 -0.1420 -0.3313 -0.1757
 4145W        W 7664   7.671   2.663  11.734  0.0848 -0.0622 -0.0071
 4146W        W 7665   1.249   3.118   9.039  0.2517 -0.4890 -0.4615
 4147W        W 7666   2.442   7.396   3.449  0.2626 -0.2003  0.4145
 4148W        W 7667   0.627   6.123   2.287  0.2939 -0.1390 -0.0884
 4149W        W 7668   8.060   2.644   1.089 -0.4050  0.1006 -0.1630
 4150W        W 7669   1.253   8.126   1.177  0.2720 -0.3527 -0.3911
 4151W        W 7670   3.337   2.206   8.842 -0.2300  0.0025  0.0104
 4152W        W 7671   2.080   7.412   8.938 -0.0168 -0.1449  0.0820
 4153W        W 7672   1.924   6.443  10.448  0.2039 -0.2509 -0.1410
 4154W        W 7673   5.438   6.387   9.839 -0.0832 -0.0133 -0.2343
 4155W        W 7674   8.787   7.265   0.033  0.1574 -0.2597  0.2286
 4156W        W 7675   1.788   5.217   4.462 -0.4482  0.0924  0.1454
 4157W        W 7676   3.053   6.479  11.172 -0.4367  0.3104  0.1416
 4158W        W 7677   4.600   7.016   2.001  0.4170 -0.1780 -0.1200
 4159W        W 7678   5.826   3.648   1.003  0.1461 -0.0180 -0.0264
 4160W        W 7679   2.262   4.047   2.908 -0.1968 -0.0827 -0.1065
 4161W        W 7680   2.403   9.624   9.536  0.2393 -0.3199 -0.2058
 4162W        W 7681   5.016   4.755   4.696  0.1512  0.2238  0.0873
 4163W        W 7682   3.073   7.486   1.156 -0.0165 -0.1689  0.1980
 4164W        W 7683   6.340   3.481  11.730  0.2114  0.0586 -0.0747
 4165W        W 7684   7.037   2.801   2.456  0.0816 -0.2807 -0.0568
 4166W        W 7685   6.221   7.806   9.023  0.0468  0.0151 -0.3417
 4167W        W 7686   3.213   6.499  12.373  0.1689  0.2310 -0.0191
 4168W        W 7687   7.498   3.812   1.019  0.0583  0.1010  0.0377
 4169W        W 7688   2.013   9.314  10.198  0.2975  0.0788 -0.3138
 4170W        W 7689   2.818   8.559   0.236 -0.0231 -0.0131 -0.0931
 4171W        W 7690   2.696   5.010   0.013  0.3688  0.1422  0.0013
 4172W        W 7691   5.593   5.262   0.736 -0.1490 -0.3499 -0.2265
 4173W        W 7692   9.399   0.372   2.284  0.1659 -0.2256  0.0260
 4174W        W 7693   9.467   1.663   4.512 -0.0418 -0.1522  0.2164
 4175W        W 7694   1.278   6.522   2.738  0.3283 -0.0302  0.1468
 4176W        W 7695   8.965   7.340   0.994  0.0084 -0.3353  0.1390
 4177W        W 7696   2.313   6.612   1.664  0.0198 -0.2047 -0.0622
 4178W        W 7697   8.867   1.908   3.255 -0.1138  0.1525 -0.1465
 4179W        W 7698   0.249   4.342   1.027  0.1193  0.1259 -0.0411
 4180W        W 7699   3.908   8.703   9.222 -0.0471  0.1556 -0.1013
 4181W        W 7700   1.387   1.926   0.731 -0.1171  0.2084 -0.0301
 4182W        W 7701   7.222   2.833  11.581  0.0388 -0.0954  0.3164
 4183W        W 7702   6.974   4.718   1.053  0.0829 -0.1752  0.0971
 4184W        W 7703   6.679   2.144  12.507 -0.1203 -0.3339 -0.2658
 4185W        W 7704   1.317   1.666  10.253 -0.0383 -0.0071  0.1638
 4186W        W 7705   8.739   5.699  11.534 -0.1373 -0.2729 -0.0455
 4187W        W 7706   0.768   1.179  11.131 -0.1051 -0.0584  0.0426
 4188W        W 7707   1.566   5.580   9.869  0.4297  0.1962  0.0868
 4189W        W 7708   5.081   1.039  12.505  0.3816  0.1677 -0.0595
 4190W        W 7709   7.933   7.021   9.242  0.0143  0.2312  0.1655
 4191W        W 7710   3.941   6.446  10.777 -0.3011  0.1074 -0.0555
 4192W        W 7711   6.639   4.760   8.618 -0.1353  0.3126  0.1220
 4193W        W 7712   6.655   8.460  10.516  0.1209  0.1578  0.0086
 4194W        W 7713   3.682   1.188  10.801  0.1556 -0.0741  0.1317
 4195W        W 7714   0.752   1.510   0.254  0.0556 -0.2798 -0.2070
 4196W        W 7715   0.682   1.043  12.112 -0.0111  0.1804  0.2574
 4197W        W 7716   5.465   6.510   1.954  0.2080 -0.0391 -0.1535
 4198W        W 7717   9.600   8.441  10.897 -0.1861  0.1212  0.1080
 4199W        W 7718   0.156   2.356   1.795 -0.1226 -0.0500  0.0476
 4200W        W 7719   7.839   1.749   3.623 -0.4225  0.0502  0.1403
 4201W        W 7720   2.661   4.995  11.601 -0.1118 -0.1638 -0.0804
 4202W        W 7721   6.196   0.403   2.219  0.0425  0.1654  0.1515
 4203W        W 7722   7.277   6.192   1.679  0.4984 -0.0314  0.3066
 4204W        W 7723   9.156   1.693  11.117 -0.1710  0.1923 -0.2285
 4205W        W 7724   0.137   3.734  11.888  0.1107 -0.4542  0.1227
 4206W        W 7725   2.235   1.864   2.776 -0.1218  0.0115  0.1326
 4207W        W 7726   5.883   4.848  10.973  0.0656 -0.0068 -0.0019
 4208W        W 7727   4.708   2.330  12.263  0.0553  0.1022  0.0519
 4209W        W 7728   4.504   9.400   0.085 -0.3273 -0.1404 -0.1307
 4210W        W 7729   6.431   5.191   8.657 -0.0067  0.1512  0.0831
 4211W        W 7730   2.134   6.059  10.292 -0.0309 -0.1086  0.0112
 4212W        W 7731   6.097   4.466   3.665 -0.2869  0.0465 -0.0347
 4213W        W 7732   2.990   3.244   9.464 -0.1846  0.0053 -0.1703
 4214W        W 7733   2.719   0.577  12.125  0.0544  0.1406  0.1025
 4215W        W 7734   7.160   3.886  12.140  0.1440 -0.0762  0.0108
 4216W        W 7735   4.767   2.241   2.026  0.2490 -0.0300  0.0826
 4217W        W 7736   7.061   8.494  11.700  0.3498 -0.0481 -0.2899
 4218W        W 7737   2.449   8.477  11.466 -0.3279  0.3777 -0.0733
 4219W        W 7738   1.816   8.090   0.206 -0.2559  0.0533 -0.3301
 4220W        W 7739   6.570   7.512   3.591  0.2867 -0.1050 -0.1158
 4221W        W 7740   0.780   5.999  11.549 -0.3537 -0.1802 -0.1246
 4222W        W 7741   0.861   5.732   2.560 -0.1833 -0.0927 -0.0441
 4223W        W 7742   7.992   4.991   9.891 -0.0086  0.2101 -0.1409
 4224W        W 7743   6.348   5.611   0.550  0.1197  0.1808 -0.1351
 4225W        W 7744   1.679   3.388   9.770  0.1843 -0.2093 -0.1637
 4226W        W 7745   1.501   3.817   4.477  0.1157  0.1424  0.1757
 4227W        W 7746   0.304   7.423   0.341 -0.1686  0.1111 -0.2594
 4228W        W 7747   6.184   2.760   1.114  0.0320 -0.2943  0.0066
 4229W        W 7748   2.778   2.963   4.792 -0.3323  0.1093 -0.1883
 4230W        W 7749   7.107   5.322   0.670  0.0427  0.0614  0.1187
 4231W        W 7750   2.182   9.343  11.595  0.0037  0.0942 -0.0150
 4232W        W 7751   0.660   7.870  10.999  0.3067  0.2122  0.1932
 4233W        W 7752   7.862   0.318   3.263 -0.0455  0.1882 -0.1039
 4234W        W 7753   4.468   2.826  12.248  0.2437  0.2059  0.1548
 4235W        W 7754   6.579   0.640  10.336 -0.0924 -0.1857  0.2899
 4236W        W 7755   4.684   6.659  11.163  0.0566 -0.0994  0.3268
 4237W        W 7756   4.414   5.189   8.603  0.0242 -0.1632 -0.2133
 4238W        W 7757   4.136   1.013  10.660 -0.0624  0.1590  0.1088
 4239W        W 7758   4.439   6.535   9.089 -0.2952  0.1182 -0.0283
 4240W        W 7759   9.527   5.951  11.786  0.2942  0.0676 -0.4271
 4241W        W 7760   2.872   8.285   1.212 -0.1541  0.0005 -0.1812
 4242W        W 7761   4.155   4.537  11.424  0.3668  0.2782  0.4071
 4243W        W 7762   5.462   0.260  10.865 -0.0072 -0.0362 -0.2180
 4244W        W 7763   4.061   5.380   9.182  0.2177  0.0982  0.1797
 4245W        W 7764   9.459   3.776   4.356  0.3196 -0.4053  0.2990
 4246W        W 7765   1.601   1.305  11.310  0.0775  0.0128  0.0450
 4247W        W 7766   6.219   1.790   1.892  0.3380  0.0260  0.0080
 4248W        W 7767   5.770   4.488   1.309  0.1931  0.2115  0.0917
 4249W        W 7768   5.203   6.357  11.317 -0.1441  0.0771  0.0260
 4250W        W 7769   8.061   7.052  10.374 -0.2587 -0.0680  0.0882
 4251W        W 7770   5.297   1.020  12.039  0.0465  0.1321  0.1994
 4252W        W 7771   5.016   9.181  11.432  0.1502  0.1703 -0.4565
 4253W        W 7772   8.196   2.343   0.658  0.1134  0.0666  0.3639
 4254W        W 7773   4.038   8.230   9.126  0.2611 -0.1402 -0.1205
 4255W        W 7774   6.267   2.368   0.729 -0.0976  0.0301 -0.2483
 4256W        W 7775   3.243   2.578   9.993  0.1362 -0.3769  0.2972
 4257W        W 7776   0.246   2.837   3.315  0.1096  0.0408 -0.1749
 4258W        W 7777   7.627   3.444  10.062  0.1024  0.0044 -0.1455
 4259W        W 7778   2.455   1.982  10.974 -0.1037 -0.1344  0.0959
 4260W        W 7779   0.248   9.281   1.360 -0.1644 -0.3050 -0.0634
 4261W        W 7780   4.175   9.303   9.013 -0.1030 -0.1481 -0.1839
 4262W        W 7781   7.619   4.168   3.532  0.1653  0.1088  0.0490
 4263W        W 7782   4.260   3.412   8.527 -0.1005 -0.0968  0.2766
 4264W        W 7783   1.989   6.898  10.060 -0.0528  0.0650  0.1011
 4265W        W 7784   9.356   2.514   0.608  0.1999  0.0520  0.1516
 4266W        W 7785   9.175   1.381   4.105  0.0413 -0.0132 -0.0960
 4267W        W 7786   2.044   9.370   0.045 -0.0919  0.1309  0.3005
 4268W        W 7787   4.351   4.427   1.794  0.2954  0.0477  0.0324
 4269W        W 7788   6.205   7.273   9.338  0.1592  0.0810 -0.0342
 4270W        W 7789   1.846   2.234   2.999  0.0881 -0.1683  0.2193
 4271W        W 7790   6.220   2.250  12.318  0.0137 -0.0218  0.0984
 4272W        W 7791   8.985   7.983   2.327  0.0281 -0.2166  0.2836
 4273W        W 7792   6.868   2.970  11.165  0.0643 -0.1820 -0.1116
 4274W        W 7793   1.404   4.741  11.087  0.0119  0.1494 -0.3171
 4275W        W 7794   1.456   4.828   2.798 -0.3578  0.2291  0.1531
 4276W        W 7795   9.529   2.104   9.917  0.0334  0.2541  0.1246
 4277W        W 7796   3.691   9.491   1.519  0.4722  0.0202 -0.0463
 4278W        W 7797   0.464   4.574   0.091 -0.0002 -0.0218  0.0773
 4279W        W 7798   7.667   3.452   2.895 -0.2955  0.2468 -0.0811
 4280W        W 7799   6.714   7.713  12.230 -0.0724  0.1096 -0.0248
 4281W        W 7800   2.506   4.936  10.006 -0.2461 -0.1163  0.2459
 4282W        W 7801   0.477   5.861   3.168 -0.2035  0.0398  0.3149
 4283W        W 7802   2.983   6.317   0.200  0.2990  0.0192  0.0424
 4284W        W 7803   3.202   3.285   4.138 -0.1989 -0.1680  0.1933
 4285W        W 7804   4.810   0.759   2.090  0.1430 -0.0593  0.0040
 4286W        W 7805   2.439   6.265   0.316 -0.0625  0.1233  0.1300
 4287W        W 7806   0.339   6.667   9.586  0.1937  0.0460 -0.1686
 4288W        W 7807   2.187   0.143  11.724 -0.1068  0.0001 -0.2651
 4289W        W 7808   5.126   7.883  10.141  0.0262  0.1203  0.1348
 4290W        W 7809   6.073   6.276   1.699  0.3302 -0.1740 -0.0807
 4291W        W 7810   2.223   1.361   9.390  0.3727  0.0918  0.2464
 4292W        W 7811   4.648   4.363  10.238 -0.1713  0.0622  0.2542
 4293W        W 7812   0.595   5.656   2.139 -0.0012 -0.1779  0.2015
 4294W        W 7813   5.694   0.218   2.285 -0.1776  0.2345 -0.0161
 4295W        W 7814   8.954   5.994  11.159  0.1597 -0.0569  0.1483
 4296W        W 7815   2.307   5.284   9.255  0.1593 -0.1496  0.2241
 4297W        W 7816   2.083   0.427  11.357 -0.3459  0.0822 -0.1806
 4298W        W 7817   8.014   6.731   1.655  0.3922  0.2942 -0.1327
 4299W        W 7818   4.656   3.071   8.499  0.0658  0.0820  0.0872
 4300W        W 7819   5.185   0.896  10.865 -0.1956  0.0202 -0.3179
 4301W        W 7820   3.901   5.269  12.112  0.0396  0.0374 -0.1657
 4302W        W 7821   9.661   3.132   9.408  0.3434  0.2839  0.0459
 4303W        W 7822   6.715   2.095  10.724  0.1449 -0.3182  0.1560
 4304W        W 7823   6.351   7.476   9.763  0.0702 -0.3409  0.1683
 4305W        W 7824   1.825   6.739   1.812 -0.3391  0.2352  0.0261
 4306W        W 7825   4.695   6.407   0.252 -0.3075 -0.0241  0.1011
 4307W        W 7826   8.330   0.011   1.385 -0.2214  0.1604 -0.3258
 4308W        W 7827   2.616   3.360   1.432  0.5251  0.1308 -0.0469
 4309W        W 7828   0.493   7.070   0.669  0.0101  0.1335 -0.1495
 4310W        W 7829   1.659   7.909  11.267  0.0303  0.3327 -0.0889
 4311W        W 7830   6.751   2.597  10.825  0.0185  0.0939  0.3835
 4312W        W 7831   4.879   1.950   2.959 -0.2000 -0.0676 -0.0652
 4313W        W 7832   3.484   2.599   8.561 -0.0800 -0.1886  0.1338
 4314W        W 7833   0.138   9.488   9.601 -0.1403  0.1599 -0.2353
 4315W        W 7834   6.988   4.288   1.623 -0.2218  0.2409 -0.0917
 4316W        W 7835   0.712   9.591   1.480 -0.1295 -0.0512  0.0647
 4317W        W 7836   6.378   4.874   3.540  0.0492  0.1035 -0.0558
 4318W        W 7837   3.600   3.518   3.823  0.2192  0.1571  0.1594
 4319W        W 7838   3.178   4.558  10.334 -0.1083 -0.0229 -0.0480
 4320W        W 7839   0.924   4.824   1.906 -0.0320 -0.1521  0.0537
 4321W        W 7840   8.837   3.737  10.135  0.0932  0.2827  0.1023
 4322W        W 7841   6.764   1.914   9.097 -0.3389 -0.1387  0.1169
 4323W        W 7842   2.472   3.327  10.810 -0.1035  0.1713  0.1707
 4324W        W 7843   7.545   8.936  10.329  0.2094  0.2029  0.1035
 4325W        W 7844   6.797   5.586   2.727 -0.1615  0.3291 -0.2874
 4326W        W 7845   6.933   0.794  12.525  0.0586 -0.0578  0.1728
 4327W        W 7846   9.052   5.635   9.037 -0.0535 -0.0956  0.0839
 4328W        W 7847   5.589   7.979   9.837 -0.0504 -0.2551  0.1181
 4329W        W 7848   2.566   4.726  10.493  0.0324  0.1153  0.0531
 4330W        W 7849   1.094   7.892  11.842 -0.1255 -0.2939  0.0519
 4331W        W 7850   0.138   1.404   4.252 -0.2731  0.4073  0.0208
 4332W        W 7851   4.308   3.484   3.160  0.0006  0.0019  0.1270
 4333W        W 7852   2.730   5.881   0.152 -0.2018  0.3184  0.0197
 4334W        W 7853   6.714   8.924   1.164  0.1528  0.0378 -0.1466
 4335W        W 7854   9.402   8.421   0.869 -0.0374  0.1056 -0.1347
 4336W        W 7855   7.315   7.837   3.274 -0.0040 -0.0026 -0.0340
 4337W        W 7856   8.103   2.214  12.046 -0.1791 -0.0696 -0.4293
 4338W        W 7857   8.931   5.124  12.545  0.0709  0.2805  0.0359
 4339W        W 7858   6.895   3.125  12.381  0.1817  0.1757  0.1163
 4340W        W 7859   4.327   5.587   1.142 -0.2655 -0.1158 -0.0606
 4341W        W 7860   8.230   3.643  11.691 -0.0956 -0.0448 -0.2453
 4342W        W 7861   8.433   6.272   9.564  0.2438  0.0118 -0.0322
 4343W        W 7862   3.957   5.899   8.290  0.0573  0.3564  0.1727
 4344W        W 7863   2.153   3.864   0.750 -0.3747  0.0190  0.0997
 4345W        W 7864   2.145   6.427   4.722 -0.0556 -0.2650  0.0378
 4346W        W 7865   5.560   3.745  12.441 -0.0012  0.2855 -0.0099
 4347W        W 7866   9.390   8.013   3.163 -0.2909 -0.2140  0.3218
 4348W        W 7867   2.294   3.398  11.517  0.0545  0.2616  0.2462
 4349W        W 7868   0.024   6.744   3.415  0.3608 -0.2265  0.1436
 4350W        W 7869   2.235   9.181   9.138  0.0995 -0.0879 -0.3614
 4351W        W 7870   6.118   0.334   1.215  0.3045 -0.0782  0.2862
 4352W        W 7871   2.216   3.192   2.761  0.2167 -0.1972  0.1503
 4353W        W 7872   6.259   4.058  10.416  0.0084 -0.0457  0.3706
 4354W        W 7873   3.197   7.090   2.402  0.1785 -0.2885 -0.0814
 4355W        W 7874   0.106   8.835   1.983 -0.0070 -0.1972 -0.2309
 4356W        W 7875   3.765   0.836   0.164 -0.0911 -0.0776  0.4229
 4357W        W 7876   8.388   6.247   3.222 -0.3801  0.2829 -0.0420
 4358W        W 7877   6.103   8.396   3.479  0.1014 -0.0118 -0.0517
 4359W        W 7878   8.212   6.879  12.488  0.0968 -0.0321 -0.5729
 4360W        W 7879   5.472   6.105   3.931 -0.1490  0.1686  0.0531
 4361W        W 7880   8.205   0.004  12.532 -0.0868 -0.3443  0.0044
 4362W        W 7881   8.657   5.412   4.149  0.0333 -0.0341 -0.2024
 4363W        W 7882   0.709   3.602   2.818 -0.0870 -0.2063 -0.0045
 4364W        W 7883   6.063   4.366   9.234 -0.1864  0.2538  0.1078
 4365W        W 7884   3.948   4.435  10.909  0.1168 -0.3939  0.0345
 4366W        W 7885   1.571   6.160   8.994  0.2452  0.0686 -0.0829
 4367W        W 7886   7.107   1.866   2.601 -0.2064  0.0392 -0.0427
 4368W        W 7887   9.122   4.402   0.614  0.3023 -0.0158 -0.2118
 4369W        W 7888   4.858   5.666  11.295  0.1491 -0.0726  0.1112
 4370W        W 7889   0.806   0.769   1.370  0.1269 -0.0846  0.0620
 4371W        W 7890   4.089   9.331   1.966  0.0572 -0.1629  0.4140
 4372W        W 7891   8.460   5.193   1.977 -0.3911 -0.0963  0.0805
 4373W        W 7892   6.048   4.933   1.252 -0.2351  0.1471 -0.2058
 4374W        W 7893   8.991   7.804   1.285 -0.0981  0.1193 -0.4395
 4375W        W 7894   6.860   5.477  11.390  0.1812  0.1297 -0.0069
 4376W        W 7895   2.714   6.954   2.323  0.2917  0.2632  0.0382
 4377W        W 7896   3.828   7.928   3.869 -0.1704 -0.4096 -0.1369
 4378W        W 7897   7.394   4.500  10.978 -0.0635  0.1093  0.0334
 4379W        W 7898   7.182   3.260   3.283 -0.1635 -0.1238  0.1308
 4380W        W 7899   7.141   1.501  12.223 -0.0231  0.2251 -0.0198
 4381W        W 7900   3.145   4.827   2.888  0.3180  0.1860  0.1317
 4382W        W 7901   6.078   5.976   0.323  0.4059  0.2356  0.2121
 4383W        W 7902   9.020   1.923   9.903  0.0050 -0.0123  0.1598
 4384W        W 7903   9.400   5.017  11.718  0.0314 -0.0996 -0.0557
 4385W        W 7904   5.797   8.888  10.872 -0.1674  0.1158 -0.2798
 4386W        W 7905   3.100   5.743   2.938  0.1567 -0.3495  0.0105
 4387W        W 7906   6.001   5.675   0.984  0.4558  0.2902 -0.0402
 4388W        W 7907   1.147   9.665  11.382  0.3002  0.1380  0.2694
 4389W        W 7908   5.174   1.504  12.099 -0.0535 -0.0468  0.0635
 4390W        W 7909   5.079   9.160   0.796 -0.0291  0.3782  0.1349
 4391W        W 7910   4.258   3.693  12.202  0.0833 -0.3510  0.0694
 4392W        W 7911   6.479   8.419   2.628  0.2323  0.2017 -0.0740
 4393W        W 7912   5.606   6.068  11.285  0.1073 -0.1505 -0.3225
 4394W        W 7913   6.756   8.993  10.867 -0.1815 -0.1352 -0.1424
 4395W        W 7914   7.093   5.854   9.287 -0.1188 -0.0534 -0.0318
 4396W        W 7915   4.093   7.850  11.347  0.3241 -0.0950  0.0360
 4397W        W 7916   8.664   5.115   0.400  0.1693 -0.0776 -0.3013
 4398W        W 7917   1.024   1.255   1.560 -0.1606  0.1137 -0.0349
 4399W        W 7918   9.594   4.216  10.449  0.0841  0.0164 -0.1077
 4400W        W 7919   7.281   5.171  11.356 -0.2004  0.0402 -0.1376
 4401W        W 7920   8.948   1.309   2.907  0.2069 -0.2480  0.0683
 4402W        W 7921   1.663   9.505   2.247 -0.0717  0.1336  0.1245
 4403W        W 7922   8.588   0.372   2.739  0.1595  0.2689 -0.0593
 4404W        W 7923   3.074   8.163   0.020 -0.1175  0.0642  0.0503
 4405W        W 7924   9.543   1.190  10.896 -0.4134 -0.1123 -0.1688
 4406W        W 7925   2.124   5.441   3.178  0.3284 -0.0199  0.1800
 4407W        W 7926   7.327   4.859   2.327  0.3603 -0.0516  0.1318
 4408W        W 7927   4.547   2.083   3.826  0.1330  0.3642  0.0098
 4409W        W 7928   7.945   4.615   1.556  0.1971 -0.0387  0.2570
 4410W        W 7929   2.625   4.039   0.736 -0.0334 -0.2688  0.0171
 4411W        W 7930   3.056   7.238  11.531  0.4625  0.1823  0.0764
 4412W        W 7931   0.048   1.099   3.246  0.0658  0.2390 -0.1048
 4413W        W 7932   2.144   7.983  10.138 -0.8076  0.0722  0.0056
 4414W        W 7933   3.435   5.914   1.347  0.1082 -0.0266  0.3643
 4415W        W 7934   4.014   4.270   3.538  0.0833 -0.0730 -0.0585
 4416W        W 7935   7.865   8.580   1.005 -0.0876 -0.0431 -0.1577
 4417W        W 7936   1.934   6.185   1.662 -0.0964  0.2208  0.1422
 4418W        W 7937   0.517   2.913   8.256 -0.4886  0.3346 -0.0714
 4419W        W 7938   6.586   4.441   1.328  0.1111  0.2818 -0.0358
 4420W        W 7939   5.816   9.212  10.457 -0.0361 -0.3137 -0.4250
 4421W        W 7940   4.053   1.150  11.191 -0.1051  0.2424  0.0966
 4422W        W 7941   8.890   0.420   9.680 -0.1307  0.1677  0.1648
 4423W        W 7942   4.874   3.277   4.754  0.2084 -0.1302  0.0910
 4424W        W 7943   7.904   9.450   1.110  0.3437 -0.0286  0.0044
 4425W        W 7944   6.066   0.345  12.165 -0.0051 -0.1979 -0.1619
 4426W        W 7945   3.972   3.293  10.796  0.1711 -0.0582 -0.0368
 4427W        W 7946   7.931   9.556   1.787  0.0371  0.2098 -0.1158
 4428W        W 7947   8.600   2.697  12.036  0.0497 -0.1160  0.1929
 4429W        W 7948   6.449   6.240   1.317  0.0910 -0.1710 -0.2476
 4430W        W 7949   3.092   4.174   8.458  0.0324 -0.0538  0.0864
 4431W        W 7950   3.170   3.838   1.951  0.2197 -0.1641 -0.2924
 4432W        W 7951   9.384   2.522  10.187  0.0586  0.1124  0.0318
 4433W        W 7952   8.063   5.499   9.065  0.1743  0.1242 -0.1681
 4434W        W 7953   5.846   1.488   3.407  0.1001 -0.4231 -0.1875
 4435W        W 7954   2.225   5.105  10.860 -0.2446 -0.3995  0.0964
 4436W        W 7955   8.696   4.412   2.601  0.2512 -0.1350 -0.1889
 4437W        W 7956   7.093   7.091   0.397 -0.1679  0.1641  0.2924
 4438W        W 7957   2.560   0.540   2.896 -0.6247 -0.0886 -0.0470
 4439W        W 7958   8.989   2.408  11.937  0.0212 -0.0700  0.1501
 4440W        W 7959   7.911   2.464   1.587  0.1866 -0.0359 -0.1911
 4441W        W 7960   0.238   8.890   2.480  0.0795 -0.2695  0.0880
 4442W        W 7961   2.196   4.195   9.024  0.0092 -0.1396  0.1932
 4443W        W 7962   3.199   6.243   4.617  0.1239  0.0460 -0.1640
 4444W        W 7963   9.269   6.412  10.125 -0.3537  0.2095  0.0166
 4445W        W 7964   2.376   4.231   3.530  0.4367  0.0967  0.1973
 4446W        W 7965   1.040   0.649   2.764  0.2517 -0.0865 -0.0139
 4447W        W 7966   9.495   1.010   4.285  0.1686 -0.0902  0.2171
 4448W        W 7967   0.018   4.011   0.712  0.3751 -0.2101  0.0677
 4449W        W 7968   1.763   9.021  11.710 -0.1191 -0.5965 -0.2772
 4450W        W 7969   0.565   9.178  10.956 -0.1304 -0.0899  0.0463
 4451W        W 7970   7.922   6.801   8.767 -0.1077  0.0004  0.0889
 4452W        W 7971   8.838   0.330   8.291  0.0822  0.3401 -0.2177
 4453W        W 7972   5.362   8.314  10.218 -0.0488  0.0683  0.0842
 4454W        W 7973   6.231   3.219   1.825  0.1140 -0.2041 -0.0567
 4455W        W 7974   6.992   4.491   9.512 -0.2318 -0.1922  0.1667
 4456W        W 7975   2.871   8.716   0.723  0.2451 -0.0020  0.0474
 4457W        W 7976   8.650   7.757  10.931 -0.2607 -0.3995  0.0792
 4458W        W 7977   0.136   5.164   8.974 -0.0497  0.0746  0.3186
 4459W        W 7978   8.862   0.590  10.500 -0.3365  0.0018 -0.0809
 4460W        W 7979   6.776   1.208  11.034 -0.2050  0.1275  0.1488
 4461W        W 7980   6.104   6.495  10.678 -0.1428 -0.0469  0.5245
 4462W        W 7981   6.423   9.208   0.741 -0.0203  0.1859  0.1008
 4463W        W 7982   1.842   7.823   9.180 -0.0445  0.0890  0.4556
 4464W        W 7983   5.733   1.536   2.477 -0.0987 -0.0876 -0.0041
 4465W        W 7984   0.919   1.763   2.081 -0.1496 -0.0198 -0.3250
 4466W        W 7985   6.189   1.977   2.674  0.0158 -0.2538  0.1582
 4467W        W 7986   6.564   2.149   3.439  0.0385 -0.3134  0.1790
 4468W        W 7987   5.726   8.073  12.278 -0.0256  0.5339  0.0609
 4469W        W 7988   0.344   9.099   9.296 -0.1928  0.1039  0.1663
 4470W        W 7989   8.089   1.428  11.246  0.0867 -0.0812 -0.0405
 4471W        W 7990   8.522   7.620   4.146  0.0512  0.0100  0.0289
 4472W        W 7991   7.470   4.260   9.654 -0.1255 -0.1267 -0.0576
 4473W        W 7992   3.263   0.593  12.498  0.0648  0.3374 -0.3273
 4474W        W 7993   3.200   0.843   2.182  0.1561  0.2924  0.1406
 4475W        W 7994   5.722   5.293   1.209  0.3460 -0.2716  0.1881
 4476W        W 7995   3.160   9.469  11.639  0.0292 -0.1498  0.0288
 4477W        W 7996   1.257   5.905  11.630 -0.2225 -0.2437 -0.0870
 4478W        W 7997   7.032   4.302   3.258  0.0419 -0.2878 -0.4006
 4479W        W 7998   5.133   3.943   3.471  0.1155  0.2514 -0.0098
 4480W        W 7999   1.973   0.253   9.545 -0.1242 -0.0207  0.2468
 4481W        W 8000   3.332   1.678   1.216  0.1225 -0.2791  0.1662
 4482W        W 8001   6.026   2.801   3.763  0.0079  0.0673  0.3340
 4483W        W 8002   4.849   2.993   0.569 -0.0042 -0.0727  0.0553
 4484W        W 8003   4.757   4.295   9.542  0.1867  0.3492  0.1712
 4485W        W 8004   3.121   0.606   1.718 -0.0523 -0.1784  0.1240
 4486W        W 8005   6.326   2.329   3.014  0.0753 -0.0589 -0.1770
 4487W        W 8006   2.056   0.979  11.426 -0.0777  0.2528  0.2040
 4488W        W 8007   4.728   6.706   4.209 -0.1495  0.0426 -0.0059
 4489W        W 8008   0.973   1.794   1.463 -0.2263 -0.0297  0.0390
 4490W        W 8009   2.985   4.532   4.963 -0.0791  0.1117  0.2903
 4491W        W 8010   3.992   5.002   3.139 -0.1627 -0.1116  0.0990
 4492W        W 8011   5.305   5.284  10.165  0.0008 -0.1967 -0.1474
 4493W        W 8012   5.201   1.531   1.165 -0.0417  0.0027 -0.1440
 4494W        W 8013   0.772   4.772  10.144  0.0597  0.1374  0.0489
 4495W        W 8014   5.248   4.710  12.260 -0.2422 -0.2200 -0.0653
 4496W        W 8015   0.204   5.199  12.340  0.0562 -0.3809  0.2525
 4497W        W 8016   0.670   2.343   0.947 -0.1458  0.1747  0.1890
 4498W        W 8017   7.723   4.551  10.078  0.1440  0.2228  0.4780
 4499W        W 8018   6.741   1.618   1.816 -0.1149  0.0922 -0.1707
 4500W        W 8019   7.004   4.506   8.110 -0.0172 -0.3409 -0.2258
 4501W        W 8020   5.197   1.935   2.207 -0.1402 -0.0339  0.1444
 4502W        W 8021   8.273   8.817   9.332 -0.0762 -0.3334  0.1469
 4503W        W 8022   7.622   1.506  11.105  0.1097  0.1400  0.0153
 4504W        W 8023   9.360   5.940  10.005 -0.1178  0.2336 -0.0524
 4505W        W 8024   7.526   6.588   4.094  0.2979 -0.2188  0.0100
 4506W        W 8025   1.695   3.023   0.988  0.0232 -0.1688  0.0988
 4507W        W 8026   9.042   0.460  10.971 -0.3203  0.0367  0.3591
 4508W        W 8027   6.990   2.581   1.916  0.0175  0.1405 -0.0202
 4509W        W 8028   0.740   7.828   9.714  0.0567  0.0811  0.2622
 4510W        W 8029   0.219   0.163   2.821 -0.0339  0.0657 -0.0635
 4511W        W 8030   6.008   6.047   9.811  0.3570 -0.1216  0.0062
 4512W        W 8031   3.047   5.685   4.360  0.0273  0.2163 -0.0818
 4513W        W 8032   8.948   2.003  10.751  0.3375  0.1426 -0.2370
 4514W        W 8033   7.143   3.368  10.252  0.0849  0.1231 -0.2497
 4515W        W 8034   2.832   5.050   2.141 -0.0698  0.1892  0.1419
 4516W        W 8035   8.843   2.826  10.133  0.1012  0.3348  0.0069
 4517W        W 8036   8.737   9.640   0.766 -0.2156  0.1203  0.0728
 4518W        W 8037   6.640   2.610  12.252  0.0374 -0.2355 -0.3792
 4519W        W 8038   7.131   7.877   1.008  0.1695 -0.2166  0.1922
 4520W        W 8039   7.499   2.961   0.447  0.1062  0.1424 -0.1553
 4521W        W 8040   8.728   5.760  10.709 -0.1443  0.0773 -0.1740
 4522W        W 8041   0.660   0.497   8.993  0.2478  0.0305 -0.3193
 4523W        W 8042   8.399   7.468  11.314  0.0212  0.0146  0.1278
 4524W        W 8043   7.397   0.816  11.690 -0.1786  0.0476 -0.1089
 4525W        W 8044   4.627   5.339   3.527 -0.2769  0.0026  0.1428
 4526W        W 8045   1.216   6.776   0.921  0.2252  0.2220 -0.1175
 4527W        W 8046   2.806   2.064   3.232  0.1112 -0.2104 -0.3409
 4528W        W 8047   0.240   8.518   8.453 -0.1030  0.0047  0.2538
 4529W        W 8048   1.144   1.608  11.877  0.0104  0.3654  0.1298
 4530W        W 8049   9.381   7.038   1.591  0.2048 -0.0237 -0.3327
 4531W        W 8050   9.042   4.821  10.756  0.5383 -0.2115 -0.1227
 4532W        W 8051   8.507   9.474   3.790  0.0239  0.2962 -0.3897
 4533W        W 8052   9.590   8.501   3.351 -0.2824 -0.0050  0.0533
 4534W        W 8053   4.923   9.460   0.325  0.1395 -0.1107 -0.1627
 4535W        W 8054   7.676   1.155  11.452 -0.1892  0.0867 -0.3953
 4536W        W 8055   7.420   7.823   1.875 -0.1117 -0.2061  0.0991
 4537W        W 8056   4.270   4.444   8.855 -0.3360 -0.3128 -0.0431
 4538W        W 8057   3.521   9.264  11.999  0.2087  0.0768  0.3009
 4539W        W 8058   5.230   8.192   2.882 -0.2479 -0.0658 -0.2179
 4540W        W 8059   8.561   6.870   0.402 -0.3832 -0.0767 -0.0659
 4541W        W 8060   2.514   0.498   9.488  0.1689 -0.1514 -0.2496
 4542W        W 8061   2.534   1.069  12.054 -0.2332 -0.2876 -0.0439
 4543W        W 8062   9.043   5.464   1.828 -0.0083 -0.0052  0.0950
 4544W        W 8063   0.991   0.805   3.417  0.0329 -0.1288  0.0396
 4545W        W 8064   7.828   8.852  11.154  0.1881 -0.0274  0.3668
 4546W        W 8065   5.671   0.030   1.225  0.1052  0.2142 -0.1487
 4547W        W 8066   3.260   9.218   2.976 -0.0618  0.2332 -0.2748
 4548W        W 8067   1.252   8.383  12.367  0.0908  0.0461 -0.3483
 4549W        W 8068   4.385   3.932   3.581  0.1358  0.0801 -0.2756
 4550W        W 8069   6.067   6.757   1.167  0.0661 -0.1596 -0.1780
 4551W        W 8070   4.063   0.551  11.950 -0.0835  0.0033 -0.0477
 4552W        W 8071   0.959   5.114  10.483 -0.1621  0.2042  0.2241
 4553W        W 8072   0.368   1.521  11.470  0.1143  0.1362 -0.4279
 4554W        W 8073   5.028   3.751   1.602 -0.0706 -0.0806 -0.1114
 4555W        W 8074   5.726   9.450   2.516 -0.2476  0.1229  0.0352
 4556W        W 8075   2.650   2.022   1.877 -0.0283  0.1954  0.1251
 4557W        W 8076   7.760   9.612  11.649  0.2129  0.0635  0.2043
 4558W        W 8077   4.371   9.153   2.352  0.0017  0.0411 -0.3011
 4559W        W 8078   7.758   5.495   1.807 -0.0361  0.1234  0.1311
 4560W        W 8079   6.316   9.383  10.131 -0.2262  0.1931 -0.1078
 4561W        W 8080   9.581   4.499  11.004  0.0075  0.1345 -0.1087
 4562W        W 8081   6.355   7.337  12.206 -0.0287 -0.2116 -0.1327
 4563W        W 8082   7.141   5.048   0.265 -0.0581  0.3086  0.0643
 4564W        W 8083   7.053   1.731   0.956  0.2467  0.0562 -0.1030
 4565W        W 8084   8.422   7.782   0.473 -0.1889  0.0103  0.2948
 4566W        W 8085   0.035   7.407   9.533 -0.2331  0.1370  0.3755
 4567W        W 8086   1.360   8.681  11.502 -0.0983 -0.2626  0.2477
 4568W        W 8087   9.521   9.155  11.451 -0.2496 -0.3258  0.0682
 4569W        W 8088   1.866   1.858   9.165 -0.0278  0.4154 -0.0707
 4570W        W 8089   7.082   9.606   2.208  0.1148 -0.2630 -0.0855
 4571W        W 8090   6.994   8.101   9.674 -0.1132  0.2120  0.2034
 4572W        W 8091   1.033   6.109   1.776 -0.1666 -0.0010  0.4006
 4573W        W 8092   2.112   7.761   4.195 -0.0214  0.2462  0.2439
 4574W        W 8093   0.178   1.714   4.777  0.3536  0.3695  0.0011
 4575W        W 8094   7.247   8.596   9.588 -0.0081 -0.0531  0.0295
 4576W        W 8095   6.760   3.056  11.881 -0.3704  0.0265 -0.4088
 4577W        W 8096   8.240   5.863  10.752  0.1241 -0.0683 -0.1009
 4578W        W 8097   4.599   4.733   8.629  0.1392  0.3269  0.1478
 4579W        W 8098   0.300   1.270   9.696  0.0289  0.1258  0.0099
 4580W        W 8099   8.888   9.093  10.864 -0.1419  0.1629 -0.0776
 4581W        W 8100   5.749   2.437  11.053 -0.0108  0.2903 -0.1509
 4582W        W 8101   0.143   8.779   0.518  0.0689 -0.1231  0.1004
 4583W        W 8102   2.852   6.806  10.389  0.1129 -0.3178  0.1043
 4584W        W 8103   8.212   3.748   9.232 -0.1008  0.1248 -0.0365
 4585W        W 8104   7.847   7.311  10.770 -0.2060  0.2998  0.2027
 4586W        W 8105   6.355   2.976   2.683 -0.1819  0.1373  0.2742
 4587W        W 8106   1.279   7.702   3.323 -0.2468 -0.0721 -0.0145
 4588W        W 8107   5.443   8.597   0.333  0.1929  0.1029  0.0989
 4589W        W 8108   7.495   0.395  10.234 -0.1779  0.0322  0.0819
 4590W        W 8109   4.471   3.785   9.519 -0.1293 -0.2277  0.0745
 4591W        W 8110   7.312   8.211  10.544  0.0629 -0.1192 -0.0873
 4592W        W 8111   0.873   8.505   1.067 -0.1513 -0.0723  0.0329
 4593W        W 8112   0.964   2.790  10.136 -0.1506  0.0832 -0.1759
 4594W        W 8113   2.415   8.118  12.008 -0.0866  0.2186 -0.2695
 4595W        W 8114   4.194   0.642   9.953  0.0336  0.2008  0.2858
 4596W        W 8115   4.034   4.742   0.277 -0.1899  0.0840  0.0571
 4597W        W 8116   7.376   9.058  10.907  0.1121  0.3101 -0.2044
 4598W        W 8117   1.222   6.110   1.052  0.2182  0.2549  0.0970
 4599W        W 8118   3.601   3.842  11.880  0.1881 -0.1404 -0.1216
 4600W        W 8119   2.685   6.056   2.718 -0.1947  0.0327 -0.2385
 4601W        W 8120   1.113   5.932   3.975 -0.0833 -0.1561  0.0686
 4602W        W 8121   4.326   1.073   2.457 -0.2409 -0.0399 -0.0245
 4603W        W 8122   3.343   7.910   1.288 -0.0634 -0.0290  0.0995
 4604W        W 8123   6.991   4.584   5.206 -0.1344 -0.1865  0.3019
 4605W        W 8124   0.009   3.973   2.512 -0.5027  0.4435 -0.3514
 4606W        W 8125   6.195   3.631  12.595 -0.0123 -0.0899 -0.1092
 4607W        W 8126   8.198   8.250   0.811 -0.1970 -0.1534 -0.0107
 4608W        W 8127   1.662   4.405  10.823  0.0955 -0.2353  0.1521
 4609W        W 8128   0.505   4.000   9.337  0.0332  0.0363 -0.1024
 4610W        W 8129   3.859   0.366   0.347  0.0056 -0.2325 -0.1150
 4611W        W 8130   3.239   2.646   2.552  0.0696 -0.2476  0.1653
 4612W        W 8131   9.350   0.139  12.597 -0.2771  0.1198  0.0047
 4613W        W 8132   4.609   7.531   1.564  0.1854  0.2597 -0.4648
 4614W        W 8133   7.643   0.626   2.936 -0.1695 -0.0130 -0.1019
 4615W        W 8134   4.323   9.619   3.206  0.1127  0.0931  0.1206
 4616W        W 8135   6.399   1.461   3.439 -0.2481 -0.0133  0.0533
 4617W        W 8136   2.882   2.718   1.695  0.0276 -0.3753  0.1108
 4618W        W 8137   8.900   8.298   0.116  0.1642  0.0732 -0.3354
 4619W        W 8138   8.603   4.234  10.077 -0.0523  0.0980 -0.1120
 4620W        W 8139   0.029   3.616   3.592  0.0273  0.0475  0.1447
 4621W        W 8140   2.415   7.299   0.109 -0.0900  0.1976  0.1703
 4622W        W 8141   5.382   7.332   2.540  0.4145 -0.1986 -0.0530
 4623W        W 8142   6.849   6.585   3.350  0.1043 -0.0885 -0.0859
 4624W        W 8143   5.979   4.036   3.435 -0.0593 -0.0256 -0.0329
 4625W        W 8144   2.953   9.488   8.873 -0.4611  0.0523  0.1720
 4626W        W 8145   1.224   7.013   3.944  0.2744 -0.0369  0.0197
 4627W        W 8146   8.618   0.628  12.286 -0.1796  0.0669 -0.1367
 4628W        W 8147   4.830   3.342  12.229 -0.2927 -0.0146  0.1962
 4629W        W 8148   9.296   2.541  11.477  0.1987  0.0947  0.1937
 4630W        W 8149   3.769   2.664   1.724 -0.0287 -0.1458  0.3443
 4631W        W 8150   3.182   2.145   9.726 -0.0912  0.0323 -0.2749
 4632W        W 8151   5.759   5.468   3.310  0.0304  0.1204 -0.3468
 4633W        W 8152   5.906   1.374   9.905  0.0373 -0.0994 -0.2126
 4634W        W 8153   7.105   6.983  11.697  0.3382  0.2260 -0.0945
 4635W        W 8154   8.584   6.970  10.296 -0.3030 -0.1138 -0.1463
 4636W        W 8155   5.716   3.357   2.251  0.4398 -0.1511 -0.1888
 4637W        W 8156   3.884   4.591   9.186 -0.0446 -0.1315  0.2624
 4638W        W 8157   2.603   5.656   8.626 -0.0613  0.0947  0.3084
 4639W        W 8158   5.408   8.926   2.408  0.2335 -0.3084 -0.1149
 4640W        W 8159   6.802   1.093   1.806  0.0468 -0.1279  0.0750
 4641W        W 8160   6.788   6.401   1.792  0.3514 -0.0723  0.1785
 4642W        W 8161   7.091   1.775  11.816  0.0547  0.0261 -0.0692
 4643W        W 8162   6.655   6.703   1.049 -0.2135  0.2320 -0.1060
 4644W        W 8163   2.663   6.590   1.983 -0.2331  0.0862 -0.2098
 4645W        W 8164   6.372   6.983   0.713  0.1447  0.1578  0.0715
 4646W        W 8165   1.416   4.541   9.515 -0.3068  0.1437 -0.3704
 4647W        W 8166   6.856   1.634   0.014 -0.3310  0.0623  0.0133
 4648W        W 8167   0.969   7.003   9.099  0.0184 -0.1032 -0.0553
 4649W        W 8168   7.599   6.181   3.371  0.1504 -0.0371  0.0572
 4650W        W 8169   3.194   5.400  10.326 -0.0126  0.1455 -0.1755
 4651W        W 8170   8.677   1.398   2.396  0.1023 -0.0074 -0.3887
 4652W        W 8171   3.966   3.273   8.920 -0.1642  0.0717  0.3414
 4653W        W 8172   7.838   0.376  12.533 -0.0251  0.1727 -0.0213
 4654W        W 8173   3.591   3.731   7.971 -0.0793  0.0389  0.1323
 4655W        W 8174   6.625   9.267  12.025  0.1554 -0.0634  0.2943
 4656W        W 8175   0.843   8.624  10.242  0.0090  0.2229 -0.0322
 4657W        W 8176   0.016   4.534   0.603 -0.2782 -0.6412  0.2212
 4658W        W 8177   2.799   9.253  11.149  0.0694 -0.1588 -0.1591
 4659W        W 8178   5.042   4.874   0.200  0.0213  0.3396  0.1640
 4660W        W 8179   0.992   2.692   0.690  0.1164  0.0760 -0.3504
 4661W        W 8180   8.251   1.259  11.956 -0.0230 -0.2320  0.0998
 4662W        W 8181   3.656   6.348  12.138 -0.1735 -0.0744 -0.0171
 4663W        W 8182   2.802   9.554  10.285 -0.3084 -0.0084  0.0809
 4664W        W 8183   8.427   3.736   3.999  0.1772 -0.5216 -0.0973
 4665W        W 8184   3.121   8.838   9.182 -0.0218 -0.1003 -0.2178
 4666W        W 8185   8.193   2.557   1.948  0.1120 -0.0618 -0.1141
 4667W        W 8186   9.149   0.365   1.854 -0.2119  0.0571  0.1223
 4668W        W 8187   8.347   5.344   1.115  0.0382 -0.3465  0.1551
 4669W        W 8188   7.396   0.004   1.235  0.1090  0.0558  0.0042
 4670W        W 8189   2.665   8.806   3.156 -0.1473 -0.0349  0.1647
 4671W        W 8190   2.955   6.103   1.076  0.0845 -0.0374 -0.0512
 4672W        W 8191   5.367   7.473   9.967  0.1578 -0.3511  0.1293
 4673W        W 8192   0.350   3.825   0.336  0.1358 -0.1665 -0.0202
 4674W        W 8193   4.021   9.655   9.792  0.2704 -0.0524 -0.1208
 4675W        W 8194   8.459   6.823   9.356 -0.1581 -0.1097 -0.0249
 4676W        W 8195   1.277   3.017   4.209 -0.2299 -0.1843 -0.2222
 4677W        W 8196   3.352   6.101   9.025 -0.1315  0.4807  0.3074
 4678W        W 8197   9.598   9.252   0.467 -0.0490 -0.0653  0.0934
 4679W        W 8198   7.155   2.116  10.020  0.1082 -0.2346  0.0723
 4680W        W 8199   8.688   9.372  12.588 -0.0143  0.1904  0.0574
 4681W        W 8200   7.498   0.251   0.451  0.0754  0.3474  0.1132
 4682W        W 8201   2.329   1.595   3.566  0.4618  0.2321  0.1672
 4683W        W 8202   6.466   3.685   2.076 -0.0432 -0.2320  0.0348
 4684W        W 8203   7.422   3.487  10.679 -0.2461  0.3447 -0.1175
 4685W        W 8204   7.860   2.924  10.268 -0.0261 -0.2430 -0.0265
 4686W        W 8205   4.944   4.794  11.527  0.1627 -0.3325 -0.1473
 4687W        W 8206   4.021   1.344   3.617 -0.0097 -0.0781  0.4660
 4688W        W 8207   9.086   2.823   9.177 -0.0772 -0.0568 -0.1603
 4689W        W 8208   5.652   7.503   0.723 -0.0336 -0.0590  0.0261
 4690W        W 8209   0.712   3.016   9.771 -0.3567 -0.0433 -0.2541
 4691W        W 8210   0.009   2.323   2.289  0.0564 -0.1606  0.0546
 4692W        W 8211   9.669   2.386   3.238  0.2045 -0.0432 -0.3406
 4693W        W 8212   6.978   1.506   0.470  0.1054  0.0235 -0.2654
 4694W        W 8213   2.706   4.666   3.086 -0.2583  0.1953  0.0944
 4695W        W 8214   1.501   2.887   4.688  0.5307 -0.1384  0.3646
 4696W        W 8215   0.722   6.614   2.521  0.2167 -0.1927 -0.0934
 4697W        W 8216   5.660   0.969   1.715 -0.2906  0.2482 -0.1843
 4698W        W 8217   0.383   2.187  12.078 -0.1171 -0.1867  0.3851
 4699W        W 8218   4.769   7.533   9.145  0.0542  0.0441  0.1640
 4700W        W 8219   7.045   0.463   0.373  0.0369 -0.0598 -0.0578
 4701W        W 8220   4.977   4.058  11.736  0.1458  0.1698  0.1121
 4702W        W 8221   4.290   7.293  12.412 -0.0675  0.0142 -0.3704
 4703W        W 8222   4.923   3.488   8.339  0.2161 -0.0732  0.0807
 4704W        W 8223   1.559   6.514   2.267 -0.1216  0.3244  0.0084
 4705W        W 8224   1.853   9.390  10.701 -0.0568 -0.0407  0.1673
 4706W        W 8225   4.322   6.732   3.839 -0.1471  0.0392  0.0125
 4707W        W 8226   7.347   4.261   4.248  0.2710 -0.0571  0.3375
 4708W        W 8227   7.238   6.610   1.044 -0.1961  0.2276  0.0679
 4709W        W 8228   9.171   3.327   4.328  0.2454 -0.1396 -0.4714
 4710W        W 8229   0.553   2.050   9.188 -0.2979  0.0965  0.1639
 4711W        W 8230   5.374   1.611  11.128 -0.0199  0.4645 -0.1082
 4712W        W 8231   5.756   7.696   3.553 -0.0742  0.0364 -0.3147
 4713W        W 8232   4.321   5.803   9.634  0.2907  0.2481  0.0626
 4714W        W 8233   4.660   1.368   1.146  0.2476  0.0924  0.1936
 4715W        W 8234   6.010   7.780   9.473 -0.0710 -0.0698 -0.2274
 4716W        W 8235   8.045   2.465  10.434  0.2637 -0.1764 -0.2446
 4717W        W 8236   6.057   3.969   2.988 -0.2391 -0.1200  0.1450
 4718W        W 8237   2.038   5.487   5.019  0.0069 -0.0714  0.3354
 4719W        W 8238   5.655   2.296   1.680 -0.0928  0.1073 -0.0427
 4720W        W 8239   6.407   4.075   4.793  0.1466 -0.1227 -0.1275
 4721W        W 8240   7.548   6.962   0.745 -0.1061 -0.0145  0.3751
 4722W        W 8241   7.573   0.782   0.824  0.3222  0.1698  0.0839
 4723W        W 8242   0.390   4.415  10.613  0.3550 -0.3452  0.0388
 4724W        W 8243   6.054   2.859   9.482 -0.4664 -0.0503 -0.3959
 4725W        W 8244   6.279   8.011  10.445  0.0052  0.0713 -0.1844
 4726W        W 8245   2.506   2.686  11.278 -0.0750  0.0994 -0.2484
 4727W        W 8246   4.425   9.377   9.740 -0.1044 -0.0529  0.2091
 4728W        W 8247   7.027   1.855   1.455  0.2040 -0.1413  0.0317
 4729W        W 8248   4.374   7.365  10.105  0.0049 -0.0358  0.0292
 4730W        W 8249   2.972   3.462   8.613 -0.1907  0.1853 -0.0472
 4731W        W 8250   0.814   2.795   4.184 -0.1810  0.0507 -0.0468
 4732W        W 8251   2.910   1.641   0.533  0.0287 -0.0351  0.1127
 4733W        W 8252   8.032   5.562   2.259  0.3421  0.2215  0.2045
 4734W        W 8253   9.155   6.661   4.518  0.3112 -0.0682  0.0859
 4735W        W 8254   1.078   6.896   1.724  0.0884 -0.2026 -0.3118
 4736W        W 8255   0.692   0.052   4.178 -0.1922 -0.0199  0.0142
 4737W        W 8256   7.218   3.870   1.542  0.2899  0.3066 -0.0674
 4738W        W 8257   8.922   7.450   3.584  0.0078 -0.0219  0.1837
 4739W        W 8258   8.696   1.190  10.345 -0.0650  0.1414  0.4653
 4740W        W 8259   0.133   0.020   1.037 -0.0809 -0.5186  0.0565
 4741W        W 8260   3.541   8.400   0.837  0.1393  0.0976  0.1999
 4742W        W 8261   6.173   6.650   3.999 -0.3274 -0.1851 -0.0006
 4743W        W 8262   0.031   9.419   5.304 -0.0293 -0.2069  0.3453
 4744W        W 8263   2.474   3.577   2.989  0.3412 -0.0500  0.2353
 4745W        W 8264   6.895   5.903  10.625 -0.0364  0.1639 -0.0532
 4746W        W 8265   3.234   6.653   8.773 -0.0749 -0.1432 -0.1127
 4747W        W 8266   8.744   0.704   3.717  0.0648  0.0253 -0.2226
 4748W        W 8267   2.354   7.975   8.377  0.1507 -0.1689 -0.0102
 4749W        W 8268   4.522   4.894   0.235 -0.3738 -0.2582  0.0823
 4750W        W 8269   5.275   0.531   2.417 -0.0481 -0.0574 -0.2286
 4751W        W 8270   9.147   2.973   0.661  0.0885 -0.1001  0.1557
 4752W        W 8271   3.666   1.907   0.353 -0.2292  0.0253  0.0013
 4753W        W 8272   0.213   3.100   0.084  0.1249  0.0217  0.2421
 4754W        W 8273   0.760   0.297   3.154 -0.0332 -0.0070  0.2128
 4755W        W 8274   0.494   7.738   9.265  0.0885 -0.1169 -0.0945
 4756W        W 8275   0.414   3.349  11.590 -0.1392 -0.1289 -0.1939
 4757W        W 8276   1.578   0.296  11.307 -0.0563 -0.3031  0.2363
 4758W        W 8277   3.719   5.868  12.144  0.3548 -0.1904 -0.0842
 4759W        W 8278   3.429   1.695  10.020  0.1302  0.1699  0.2169
 4760W        W 8279   2.310   8.951  10.455  0.0307 -0.1016  0.1812
 4761W        W 8280   2.506   5.891   4.260  0.0693  0.1831  0.1587
 4762W        W 8281   2.130   8.460   1.153 -0.0068  0.0773  0.4366
 4763W        W 8282   2.091   5.074  10.298  0.0961 -0.2044 -0.3009
 4764W        W 8283   0.286   7.232   3.588  0.0344  0.2199  0.3021
 4765W        W 8284   8.701   0.367  11.840 -0.2730  0.0821  0.0717
 4766W        W 8285   7.886   6.652   9.735  0.1722 -0.1215  0.0074
 4767W        W 8286   4.491   5.483   0.631  0.1446 -0.1138 -0.0833
 4768W        W 8287   0.878   8.442  11.490  0.1067 -0.2557 -0.0444
 4769W        W 8288   1.469   3.567   3.361  0.2475  0.4979 -0.3475
 4770W        W 8289   1.956   7.457   3.208  0.0357 -0.0356 -0.2716
 4771W        W 8290   2.922   4.312   1.687  0.4231  0.0430  0.0979
 4772W        W 8291   2.459   8.941  11.536  0.0416  0.1319 -0.1955
 4773W        W 8292   6.104   4.366   0.530  0.0175 -0.0490  0.1334
 4774W        W 8293   3.716   5.508  10.533 -0.0904 -0.2389  0.4174
 4775W        W 8294   0.344   8.945  12.068 -0.2265 -0.1613  0.4086
 4776W        W 8295   8.559   2.628  12.517 -0.3978 -0.1183 -0.0040
 4777W        W 8296   5.569   3.472  10.222  0.0359 -0.0617  0.0259
 4778W        W 8297   6.476   8.637   0.795  0.1851  0.4182  0.0707
 4779W        W 8298   8.394   3.671  10.871  0.0635  0.0471  0.3740
 4780W        W 8299   7.139   0.037   0.790 -0.0891  0.2062  0.2900
 4781W        W 8300   4.201   5.882   0.728 -0.0733  0.2679  0.0063
 4782W        W 8301   8.807   5.339   2.780  0.1819 -0.2510 -0.0110
 4783W        W 8302   4.974   6.484  12.419  0.1774  0.1552  0.3280
 4784W        W 8303   4.452   7.611  11.578  0.1279  0.0053  0.1414
 4785W        W 8304   9.415   1.926   3.394  0.2138 -0.1327  0.0722
 4786W        W 8305   0.156   4.261  11.340  0.0666  0.1252 -0.3101
 4787W        W 8306   2.432   2.793  12.175 -0.0832  0.1186  0.1400
 4788W        W 8307   9.156   5.133   1.402  0.0046 -0.1819 -0.2068
 4789W        W 8308   7.772   3.186  11.598 -0.3436 -0.1680  0.0849
 4790W        W 8309   0.060   7.556  12.168 -0.0329  0.0669  0.1727
 4791W        W 8310   8.198   5.327   3.017  0.0110  0.2993 -0.4020
 4792W        W 8311   0.217   1.451   0.292 -0.2696 -0.2005  0.1349
 4793W        W 8312   7.425   0.161   2.740 -0.1493  0.1296 -0.0958
 4794W        W 8313   5.056   8.136   0.522 -0.0217  0.2954  0.1672
 4795W        W 8314   7.723   6.443   2.719  0.0294  0.1122  0.3552
 4796W        W 8315   5.112   9.546   1.697 -0.0257 -0.4596 -0.2535
 4797W        W 8316   7.932   3.974   9.615 -0.2805 -0.0682 -0.0566
 4798W        W 8317   3.207   2.059  10.297  0.6336  0.0429 -0.1877
 4799W        W 8318   5.193   8.053  12.212  0.1474  0.3318 -0.3827
 4800W        W 8319   2.426   7.539   1.989 -0.2097 -0.1621 -0.1536
 4801W        W 8320   6.940   5.427  11.935  0.4819 -0.0735  0.0099
 4802W        W 8321   5.678   6.862   4.762  0.2083 -0.3035 -0.1670
 4803W        W 8322   3.014   4.336   2.763 -0.2367 -0.0936  0.0052
 4804W        W 8323   9.435   6.446   1.938  0.3642  0.2168  0.0784
 4805W        W 8324   8.472   4.827  10.656  0.3330 -0.0357  0.0022
 4806W        W 8325   7.959   6.567   0.367  0.2948 -0.2998 -0.1125
 4807W        W 8326   0.098   0.826   3.723  0.5624  0.2131  0.0926
 4808W        W 8327   1.536   6.636   4.343 -0.0368  0.0468 -0.4014
 4809W        W 8328   6.523   2.884   0.036  0.2475  0.0654  0.0810
 4810W        W 8329   1.905   4.033   1.474 -0.0278  0.0611 -0.0754
 4811W        W 8330   6.316   3.086   9.103 -0.0615  0.0583  0.0086
 4812W        W 8331   0.191   9.155   0.877 -0.1842 -0.2481 -0.0890
 4813W        W 8332   1.094   5.634   9.691 -0.1435 -0.1498 -0.1859
 4814W        W 8333   4.380   9.200   1.511 -0.2134  0.2134  0.1011
 4815W        W 8334   1.019   0.583   2.282  0.0735 -0.0213  0.0461
 4816W        W 8335   5.529   7.607  11.626  0.0917  0.0625 -0.5906
 4817W        W 8336   8.522   5.752  11.153  0.3065  0.0750 -0.0953
 4818W        W 8337   8.605   1.803   2.040 -0.2347  0.1168  0.3362
 4819W        W 8338   1.075   7.234   0.825  0.1773  0.1019 -0.0413
 4820W        W 8339   1.625   7.639   1.531 -0.2979 -0.0307 -0.1739
 4821W        W 8340   8.788   7.560  12.145  0.1048  0.3597  0.0483
 4822W        W 8341   5.577   3.614   4.119  0.2537  0.1798 -0.0048
 4823W        W 8342   3.817   8.667   2.816 -0.0424  0.0161 -0.4267
 4824W        W 8343   4.396   0.924   1.113 -0.2123  0.0168  0.2457
 4825W        W 8344   5.631   1.169   0.182  0.0361  0.0741 -0.2349
 4826W        W 8345   4.426   6.169  12.466 -0.2188  0.0087 -0.3648
 4827W        W 8346   6.017   2.820  12.138 -0.1799  0.0447 -0.2391
 4828W        W 8347   2.463   4.236  12.402 -0.3501  0.1966  0.0495
 4829W        W 8348   0.964   7.035   8.582  0.3084 -0.0173  0.2504
 4830W        W 8349   2.538   1.367  10.232  0.1536 -0.0616 -0.0052
 4831W        W 8350   3.155   7.567   1.640 -0.1207  0.1276 -0.1398
 4832W        W 8351   7.181   4.345  10.218 -0.4029 -0.0572 -0.1826
 4833W        W 8352   3.679   0.340   4.004  0.1187 -0.0386  0.0272
 4834W        W 8353   9.565   3.290   8.860 -0.1344  0.0839 -0.1810
 4835W        W 8354   1.596   0.909   9.643 -0.0150  0.1712 -0.0917
 4836W        W 8355   1.760   2.204  12.427 -0.2666  0.0475  0.4218
 4837W        W 8356   7.561   4.923   4.861  0.1656 -0.2083  0.3025
 4838W        W 8357   4.208   5.908   1.527  0.2906  0.1254  0.0310
 4839W        W 8358   5.221   4.351   0.997 -0.0512  0.1925 -0.1639
 4840W        W 8359   8.897   7.743   9.677 -0.0324  0.2228 -0.1040
 4841W        W 8360   7.000   1.178   9.194 -0.0684  0.2665  0.2050
 4842W        W 8361   6.317   4.155  12.561 -0.1725  0.0728  0.0690
 4843W        W 8362   7.748   1.822  12.159  0.1739 -0.5307  0.0046
 4844W        W 8363   8.150   2.490   0.122 -0.0979  0.1550  0.3174
 4845W        W 8364   9.358   3.424   3.897  0.1875  0.3565 -0.1754
 4846W        W 8365   8.913   8.283  11.474  0.2320 -0.1344 -0.0018
 4847W        W 8366   3.578   5.893   2.213 -0.2945  0.0845  0.1098
 4848W        W 8367   3.644   2.427   9.727 -0.3607  0.2656  0.1605
 4849W        W 8368   5.189   6.151   2.199 -0.2693 -0.1148  0.4476
 4850W        W 8369   0.322   8.563   9.496  0.3512  0.1157 -0.0545
 4851W        W 8370   2.912   8.284   2.863  0.2227 -0.3043 -0.4481
 4852W        W 8371   2.298   6.236  10.735 -0.0384  0.1857  0.2646
 4853W        W 8372   0.720   5.068   4.624  0.3897  0.0184 -0.0115
 4854W        W 8373   0.689   5.401   4.199 -0.0407  0.0994  0.1506
 4855W        W 8374   3.585   6.628  11.170  0.0221  0.0953  0.1659
 4856W        W 8375   8.761   6.806  10.786 -0.2657 -0.1585 -0.2125
 4857W        W 8376   0.353   6.328   0.221  0.2679  0.1958  0.3666
 4858W        W 8377   8.832   7.786   0.160  0.0565 -0.0372 -0.1190
 4859W        W 8378   0.851   4.246   8.342  0.2304  0.1061 -0.0029
 4860W        W 8379   4.102   6.343   0.376 -0.2640 -0.1286  0.1027
 4861W        W 8380   0.601   9.646  11.245 -0.1193 -0.1317  0.0430
 4862W        W 8381   3.218   1.453  10.947 -0.1989  0.0139  0.1458
 4863W        W 8382   0.787   1.193   9.323  0.0104 -0.2092  0.2302
 4864W        W 8383   6.947   2.581   9.833 -0.0925  0.0241  0.2098
 4865W        W 8384   5.270   0.474   9.364 -0.0541  0.2131 -0.2732
 4866W        W 8385   1.091   7.064  10.045 -0.0692  0.1742 -0.2782
 4867W        W 8386   2.782   7.004   1.036 -0.0804 -0.1598 -0.2682
 4868W        W 8387   9.662   6.740   4.425  0.1286  0.3036  0.2140
 4869W        W 8388   7.721   9.428  11.079 -0.1836  0.1080 -0.0450
 4870W        W 8389   1.137   7.233   8.167 -0.1979 -0.2912  0.1654
 4871W        W 8390   4.501   5.655   5.357  0.0123 -0.4399 -0.0208
 4872W        W 8391   3.307   4.309   2.161 -0.0261 -0.0124 -0.1175
 4873W        W 8392   0.655   5.602  11.933 -0.3207 -0.0319 -0.0411
 4874W        W 8393   0.007   3.785  11.368  0.2620 -0.1571  0.0188
 4875W        W 8394   1.368   8.786  10.229 -0.2910  0.1096 -0.0086
 4876W        W 8395   5.100   4.219   2.817 -0.2344  0.2495 -0.0078
 4877W        W 8396   9.049   4.389   1.803 -0.2111  0.1724 -0.1988
 4878W        W 8397   3.542   7.992   9.020 -0.2473 -0.4282  0.3515
 4879W        W 8398   6.784   8.741  11.339 -0.0430  0.1949  0.0855
 4880W        W 8399   5.344   2.158   2.920 -0.0174 -0.0713 -0.0054
 4881W        W 8400   2.559   8.826   9.238  0.1850 -0.1565 -0.3449
 4882W        W 8401   7.669   9.242  12.457 -0.1864  0.0349 -0.1062
 4883W        W 8402   2.902   3.201   0.251 -0.1711  0.0632 -0.1621
 4884W        W 8403   7.761   9.393   9.527  0.2537  0.0911  0.1666
 4885W        W 8404   9.200   5.720   4.516 -0.1432  0.3286  0.0542
 4886W        W 8405   4.008   8.897  11.755  0.1020  0.0358 -0.0153
 4887W        W 8406   9.392   2.080  10.545 -0.1971 -0.2855  0.1650
 4888W        W 8407   4.577   2.664   0.277  0.2599  0.2529 -0.0035
 4889W        W 8408   6.133   9.558   0.963  0.2210  0.1135 -0.3677
 4890W        W 8409   8.033   8.065   2.071  0.0119 -0.1367  0.0020
 4891W        W 8410   3.011   0.029  11.142  0.0386 -0.0929 -0.0466
 4892W        W 8411   3.980   2.353   0.876 -0.0578 -0.0318 -0.1273
 4893W        W 8412   2.505   1.501   4.059 -0.5491 -0.0383  0.0728
 4894W        W 8413   5.409   0.035   9.753 -0.3538  0.0784 -0.1425
 4895W        W 8414   4.979   3.299   8.831 -0.2230 -0.1075 -0.2187
 4896W        W 8415   6.756   8.314   8.711 -0.3794  0.1430  0.1006
 4897W        W 8416   6.511   1.072   2.874  0.1129 -0.5502 -0.0081
 4898W        W 8417   4.073   5.192   1.069 -0.3410 -0.0592  0.0146
 4899W        W 8418   3.139   5.486   1.358 -0.4343 -0.1811  0.1832
 4900W        W 8419   4.823   6.627   9.427  0.2050  0.0422 -0.1060
 4901W        W 8420   1.024   8.454   4.853  0.0769 -0.2761  0.0277
 4902W        W 8421   3.096   0.921  12.144  0.0871 -0.0363 -0.2416
 4903W        W 8422   3.856   7.444   0.784 -0.2435 -0.3550 -0.1171
 4904W        W 8423   2.705   1.424   0.087 -0.2276  0.2090  0.3761
 4905W        W 8424   4.831   8.716  12.258 -0.0468 -0.2947 -0.0346
 4906W        W 8425   2.553   6.370  10.336  0.1204  0.0051  0.2727
 4907W        W 8426   2.463   8.855   8.531  0.1256  0.1956  0.1951
 4908W        W 8427   0.343   1.083  10.789 -0.2068  0.0013  0.1931
 4909W        W 8428   4.098   8.151   0.140 -0.0068 -0.1857  0.0860
 4910W        W 8429   3.709   2.454   4.020 -0.1284  0.2463  0.1648
 4911W        W 8430   0.319   1.964   0.919  0.1496 -0.4213  0.3307
 4912W        W 8431   7.005   5.834   7.952  0.0345  0.3263  0.1379
 4913W        W 8432   4.680   7.080   3.765 -0.0229  0.2917  0.0381
 4914W        W 8433   0.210   0.334  11.902 -0.4490 -0.1379 -0.1304
 4915W        W 8434   2.027   2.675   3.183 -0.1398  0.1066  0.2847
 4916W        W 8435   3.545   3.308  10.386 -0.0850 -0.2501 -0.1738
 4917W        W 8436   4.687   0.815  10.645  0.4533  0.1319  0.1692
 4918W        W 8437   3.886   8.294   3.118 -0.0376  0.1240  0.0330
 4919W        W 8438   1.862   5.516   9.346 -0.0690 -0.0427  0.1870
 4920W        W 8439   5.011   8.343   9.044  0.0899 -0.0183  0.0017
 4921W        W 8440   8.098   0.044   8.634 -0.0135  0.1410 -0.0475
 4922W        W 8441   1.990   3.083  12.293 -0.3396  0.0114  0.0974
 4923W        W 8442   2.367   3.194  10.355  0.0874  0.0469 -0.1297
 4924W        W 8443   8.836   9.168   9.842 -0.2491 -0.2382  0.0111
 4925W        W 8444   5.112   5.159  12.388  0.0680  0.2647 -0.1251
 4926W        W 8445   2.013   7.556  11.350  0.0931  0.0636 -0.1139
 4927W        W 8446   1.214   2.439   9.710  0.1063  0.3367  0.1447
 4928W        W 8447   3.343   5.082   1.502 -0.0273  0.3046 -0.2973
 4929W        W 8448   5.699   5.740   0.580  0.1005 -0.1903  0.0687
 4930W        W 8449   5.596   6.774   0.200  0.2294 -0.0067 -0.1720
 4931W        W 8450   7.298   9.657  10.805  0.5123  0.0161  0.2399
 4932W        W 8451   5.988   7.952  11.726 -0.0610 -0.0023 -0.1386
 4933W        W 8452   9.677   4.766   1.066 -0.1976  0.0028  0.4724
 4934W        W 8453   4.673   1.034  11.495  0.0864 -0.0837 -0.1841
 4935W        W 8454   0.134   2.797   2.411  0.2402  0.0934  0.2237
 4936W        W 8455   8.451   8.899   1.855  0.0696 -0.0311  0.3473
 4937W        W 8456   1.796   4.502   9.834  0.0849 -0.2379  0.0633
 4938W        W 8457   5.984   0.889   1.335  0.2245  0.1773  0.0694
 4939W        W 8458   9.189   1.732  12.428  0.0402  0.2148  0.2726
 4940W        W 8459   0.000   5.728  10.435 -0.0454 -0.0408 -0.1165
 4941W        W 8460   1.924   8.999   3.229  0.1007  0.1714 -0.0995
 4942W        W 8461   0.761   0.166   2.207  0.0772 -0.2086  0.2015
 4943W        W 8462   1.193   4.819   1.519  0.0066  0.0292  0.0177
 4944W        W 8463   7.176   7.722  11.363 -0.0097  0.1763  0.1822
 4945W        W 8464   4.218   4.146   3.103 -0.3611  0.3052 -0.3252
 4946W        W 8465   0.080   1.282  10.431 -0.1123  0.2742  0.1297
 4947W        W 8466   1.185   5.999  10.079  0.4213 -0.0683  0.1673
 4948W        W 8467   2.585   7.767  11.385  0.2377 -0.3396  0.1133
 4949W        W 8468   4.687   1.228   0.179  0.1143 -0.0514 -0.1916
 4950W        W 8469   6.919   2.638   3.286 -0.4713  0.1152 -0.1669
 4951W        W 8470   9.471   7.231  10.490 -0.3273 -0.0259  0.0149
 4952W        W 8471   3.798   0.934   2.279 -0.3731 -0.1511 -0.1235
 4953W        W 8472   3.076   8.474   2.452 -0.0042 -0.1342  0.0879
 4954W        W 8473   4.588   5.687   9.169  0.1170  0.0656  0.2424
 4955W        W 8474   5.123   1.168   9.412 -0.1957 -0.0204 -0.0714
 4956W        W 8475   8.703   2.464   1.952  0.0931  0.1153  0.1773
 4957W        W 8476   6.331   4.545  10.566 -0.3289 -0.0183 -0.0431
 4958W        W 8477   1.975   5.626  11.538 -0.1786 -0.1188 -0.0223
 4959W        W 8478   0.268   4.289   8.207  0.0150  0.0088  0.3361
 4960W        W 8479   7.027   8.139   0.521  0.2423 -0.1799  0.0232
 4961W        W 8480   1.558   7.719  11.726 -0.1662  0.0616 -0.2067
 4962W        W 8481   3.912   9.057   1.416 -0.1972  0.2838 -0.0097
 4963W        W 8482   0.615   3.925   9.847  0.0704  0.0608 -0.1660
 4964W        W 8483   2.783   0.411  12.602 -0.1098  0.2535  0.2335
 4965W        W 8484   1.725   5.245  11.086  0.1635 -0.0892 -0.3217
 4966W        W 8485   5.027   6.423   9.015 -0.0564  0.2495 -0.2050
 4967W        W 8486   6.350   2.242  10.332  0.1722 -0.0137  0.1437
 4968W        W 8487   3.659   7.937  10.367  0.0977 -0.2765  0.0112
 4969W        W 8488   5.758   3.960  10.115  0.1324 -0.0398  0.1295
 4970W        W 8489   3.585   0.282   8.535 -0.1404  0.1528 -0.2450
 4971W        W 8490   3.459   4.101   9.325 -0.1150 -0.0159 -0.1394
 4972W        W 8491   4.235   7.098   1.639  0.0994  0.2574 -0.0411
 4973W        W 8492   1.922   5.129   8.969  0.2689 -0.1821 -0.0911
 4974W        W 8493   1.710   7.226   3.966 -0.0231  0.2819 -0.1002
 4975W        W 8494   8.952   3.076   3.532  0.0560 -0.0557  0.0558
 4976W        W 8495   2.778   5.813   1.443  0.2704  0.0896 -0.2376
 4977W        W 8496   4.019   3.426   2.179 -0.1925 -0.1789  0.4222
 4978W        W 8497   7.027   3.514   1.198  0.2368  0.0055  0.0218
 4979W        W 8498   3.835   1.800   0.923  0.2106  0.2087 -0.0193
 4980W        W 8499   0.916   7.915  12.309 -0.1614  0.2471 -0.3864
 4981W        W 8500   9.247   3.584   2.614 -0.1086  0.1422  0.3500
 4982W        W 8501   8.065   2.556   2.423 -0.1007 -0.1541 -0.0437
 4983W        W 8502   2.435   0.897   9.162 -0.1589  0.3133  0.2392
 4984W        W 8503   3.138   3.589  11.305  0.0835 -0.1492 -0.0782
 4985W        W 8504   3.207   2.832   8.143 -0.3600 -0.2071 -0.0898
 4986W        W 8505   5.440   4.818   1.115  0.3723 -0.1011  0.0195
 4987W        W 8506   3.621   0.017   3.508  0.0988 -0.0373  0.0720
 4988W        W 8507   8.120   8.261   1.311 -0.1650  0.1607  0.2045
 4989W        W 8508   8.870   1.767   2.694  0.1231 -0.0884  0.1247
 4990W        W 8509   8.173   8.146   2.925 -0.0142  0.1670  0.1842
 4991W        W 8510   1.436   0.963   2.820  0.0423 -0.4070  0.0484
 4992W        W 8511   8.702   7.817   9.189 -0.2119 -0.0899  0.0912
 4993W        W 8512   6.530   9.585  12.474 -0.0274  0.1877  0.3829
 4994W        W 8513   7.299   7.167   2.507  0.3207 -0.3635  0.1281
 4995W        W 8514   7.770   8.394  10.349  0.2018 -0.1888 -0.0663
 4996W        W 8515   4.504   9.583  12.224 -0.1420  0.0104 -0.0617
 4997W        W 8516   3.380   6.655   9.280  0.1309  0.1998  0.0865
 4998W        W 8517   6.995   4.805   3.415  0.0323  0.1149  0.1445
 4999W        W 8518   7.500   8.989   9.858  0.2529 -0.2103  0.0765
 5000W        W 8519   4.885   4.469  12.002  0.1304 -0.1967 -0.2100
 5001W        W 8520   4.063   7.138   2.121  0.2556 -0.0349  0.0623
 5002W        W 8521   9.641   4.331   2.850 -0.1190  0.2642 -0.0548
 5003W        W 8522   7.439   4.607   1.327  0.0587 -0.0910  0.3339
 5004W        W 8523   1.766   0.897   2.046  0.2137 -0.0395 -0.2444
 5005W        W 8524   7.959   3.774   0.289 -0.0522  0.1163  0.0753
 5006W        W 8525   4.027   6.526   9.941  0.0516 -0.2984  0.1493
 5007W        W 8526   2.261   6.941   8.146 -0.1665  0.2185 -0.0805
 5008W        W 8527   9.522   2.232   1.083  0.1022 -0.4492  0.1640
 5009W        W 8528   5.796   6.296   3.455  0.1310  0.1590 -0.0717
 5010W        W 8529   2.809   5.795  10.452 -0.0107  0.3541  0.0532
 5011W        W 8530   3.898   5.837   1.099  0.2088 -0.1731  0.0085
 5012W        W 8531   3.046   8.790   3.524  0.6220  0.1187 -0.0705
 5013W        W 8532   5.626   0.285   3.091  0.2074  0.1618  0.2180
 5014W        W 8533   8.053   5.796   1.387 -0.1170  0.3062  0.1990
 5015W        W 8534   1.183   3.567  10.666  0.1714  0.3952 -0.2506
 5016W        W 8535   4.436   1.524   3.842 -0.2625  0.1764  0.1266
 5017W        W 8536   9.464   9.512   3.551 -0.0637  0.0716 -0.2408
 5018W        W 8537   4.656   0.739   0.134 -0.4130 -0.2472 -0.0439
 5019W        W 8538   5.511   8.397   2.404  0.1540  0.0495 -0.0004
 5020W        W 8539   5.796   4.968   1.628  0.1937 -0.0238  0.0098
 5021W        W 8540   8.508   8.084   2.212 -0.0566 -0.0479  0.1250
 5022W        W 8541   7.960   6.361   4.167  0.2029  0.1362 -0.0028
 5023W        W 8542   1.201   9.095   3.711 -0.0317 -0.1666  0.1257
 5024W        W 8543   5.768   8.464  12.574 -0.0100  0.0468 -0.0690
 5025W        W 8544   7.911   5.683   0.396 -0.0981 -0.0805  0.1617
 5026W        W 8545   5.630   6.286  10.618  0.0695 -0.0736 -0.0067
 5027W        W 8546   5.206   8.121   8.084  0.1109  0.3536 -0.1433
 5028W        W 8547   2.619   5.133   3.878  0.3098 -0.0028 -0.3621
 5029W        W 8548   9.451   2.658   1.949  0.1939  0.0202  0.0502
 5030W        W 8549   4.282   6.109  10.001  0.2194  0.0379  0.2705
 5031W        W 8550   2.235   2.232   9.926 -0.0965  0.0313 -0.4992
 5032W        W 8551   4.950   7.213   0.572 -0.0864  0.1399  0.3004
 5033W        W 8552   1.016   6.664   3.633  0.0697  0.0728  0.3900
 5034W        W 8553   5.242   8.932  10.456 -0.1260  0.1015 -0.0501
 5035W        W 8554   8.720   8.647   3.337 -0.0180  0.1833 -0.1389
 5036W        W 8555   9.429   9.583  10.416  0.2428  0.1764  0.2060
 5037W        W 8556   1.323   1.292   9.309  0.1412  0.0431 -0.1992
 5038W        W 8557   7.788   0.487  11.604 -0.1238  0.1522  0.0267
 5039W        W 8558   4.051   2.746   1.203  0.2248 -0.0645 -0.1792
 5040W        W 8559   3.108   0.371  10.746  0.0127 -0.0247 -0.3212
 5041W        W 8560   0.840   6.551  12.039  0.0529  0.0404  0.1635
 5042W        W 8561   0.719   2.858   0.098  0.1639 -0.0537  0.2158
 5043W        W 8562   3.168   0.364   4.138  0.3982 -0.2793 -0.1461
 5044W        W 8563   1.741   5.984   2.424 -0.1822 -0.3065  0.2642
 5045W        W 8564   9.016   8.738   9.571 -0.0063  0.0398  0.2570
 5046W        W 8565   0.223   6.874   0.223  0.3549  0.1304  0.1385
 5047W        W 8566   1.569   8.648   3.796 -0.0407  0.0129  0.1059
 5048W        W 8567   9.242   7.534   9.319 -0.2277 -0.0687  0.0792
 5049W        W 8568   8.677   8.247  11.023  0.1240 -0.1784 -0.2123
 5050W        W 8569   5.124   1.215   1.721  0.1910  0.1131  0.0118
 5051W        W 8570   7.924   5.416  12.459 -0.4400  0.0373 -0.0708
 5052W        W 8571   1.610   4.433   1.318 -0.0670 -0.0273 -0.2425
 5053W        W 8572   7.655   3.894   9.204 -0.2604 -0.3583 -0.1127
 5054W        W 8573   2.079   3.539   9.964 -0.1577 -0.1758  0.0130
 5055W        W 8574   4.526   5.023  10.711 -0.1557 -0.2314  0.0098
 5056W        W 8575   8.612   5.175   1.466  0.0526 -0.0308 -0.0751
 5057W        W 8576   3.514   8.741   3.381 -0.0238  0.0934 -0.1214
 5058W        W 8577   4.198   6.207   8.610 -0.0970  0.0581 -0.0596
 5059W        W 8578   9.642   4.437   3.821 -0.0583 -0.2693 -0.0342
 5060W        W 8579   3.485   7.061   3.424 -0.0642  0.2294  0.0788
 5061W        W 8580   2.165   3.873  11.801 -0.4530  0.0759  0.0330
 5062W        W 8581   1.279   0.545  10.968 -0.2875  0.1760  0.0650
 5063W        W 8582   0.366   3.249   9.120  0.3464  0.3601 -0.1818
 5064W        W 8583   5.640   7.486   4.006 -0.2480  0.0665 -0.0618
 5065W        W 8584   2.732   1.031   1.344 -0.2367 -0.4597 -0.1816
 5066W        W 8585   4.892   5.738   3.663 -0.1180 -0.1343 -0.4340
 5067W        W 8586   4.720   8.842  10.428 -0.2484  0.2711  0.0354
 5068W        W 8587   3.414   1.777   9.423 -0.2324  0.1617 -0.0397
 5069W        W 8588   3.427   4.936  12.145 -0.2092 -0.2132  0.0489
 5070W        W 8589   8.862   6.755   2.874  0.1046 -0.0652  0.0185
 5071W        W 8590   6.778   8.105  11.311  0.0154  0.1834  0.0841
 5072W        W 8591   8.059   1.844   9.466 -0.0995  0.5353  0.4748
 5073W        W 8592   5.823   6.185  12.527  0.0975 -0.2551 -0.2919
 5074W        W 8593   2.586   6.207  11.181 -0.2556 -0.0537  0.1070
 5075W        W 8594   2.027   2.687   1.621  0.1035  0.1210 -0.0183
 5076W        W 8595   4.137   7.015   0.662  0.0802 -0.1149 -0.1713
 5077W        W 8596   6.722   3.568   7.814 -0.1740 -0.1712  0.0392
 5078W        W 8597   2.851   6.826  12.419  0.3200  0.0265  0.1828
 5079W        W 8598   2.809   9.097   3.862 -0.2729 -0.0352 -0.1124
 5080W        W 8599   4.100   3.296   2.674  0.1439  0.0740  0.0541
 5081W        W 8600   2.430   2.934   1.795 -0.1114 -0.0791 -0.1043
 5082W        W 8601   9.612   8.998   4.930 -0.0234 -0.2384  0.1914
 5083W        W 8602   6.113   1.376   2.967  0.3565  0.0759 -0.0908
 5084W        W 8603   1.180   0.156   4.073 -0.2031  0.0656 -0.1335
 5085W        W 8604   3.619   5.244  11.657  0.2034  0.0141  0.2686
 5086W        W 8605   8.667   7.623   2.441 -0.0803  0.1560  0.1077
 5087W        W 8606   0.756   0.355   0.356  0.0738  0.2625 -0.0173
 5088W        W 8607   5.620   2.539   1.246 -0.4636 -0.0549  0.1080
 5089W        W 8608   6.969   4.075   9.862  0.0058 -0.0870 -0.0712
 5090W        W 8609   6.444   3.934   9.881 -0.1360 -0.2580  0.0555
 5091W        W 8610   1.569   2.712  12.354  0.1670 -0.1580 -0.0976
 5092W        W 8611   1.947   0.989   4.774 -0.1843  0.1819  0.3124
 5093W        W 8612   1.779   8.438  10.228  0.2397  0.0046 -0.1360
 5094W        W 8613   0.637   5.822  12.403  0.2714  0.1153 -0.0515
 5095W        W 8614   4.459   9.033  12.120  0.2136  0.1131 -0.1171
 5096W        W 8615   5.000   6.685   2.014  0.0499 -0.1111 -0.0266
 5097W        W 8616   1.183   7.661   9.972  0.3987  0.3447  0.1064
 5098W        W 8617   1.934   1.035  11.926  0.0671  0.0508  0.1234
 5099W        W 8618   8.416   5.531   0.358  0.0026  0.0774 -0.1307
 5100W        W 8619   3.499   4.915   3.266 -0.2540 -0.0610  0.1838
 5101W        W 8620   1.511   4.503  12.147  0.2184 -0.4253 -0.0905
 5102W        W 8621   5.047   8.626   2.126 -0.0902  0.0188  0.0923
 5103W        W 8622   2.285   2.201  11.909 -0.1591 -0.0764 -0.3358
 5104W        W 8623   8.094   6.117   0.524  0.1147 -0.3248 -0.1651
 5105W        W 8624   9.331   7.977   0.102 -0.2027 -0.0217  0.1329
 5106W        W 8625   9.057   5.897   2.976  0.5065 -0.0274 -0.0268
 5107W        W 8626   5.209   8.660   9.381 -0.1115  0.2254  0.1195
 5108W        W 8627   3.123   7.697   4.095  0.0235 -0.0240 -0.2149
 5109W        W 8628   7.279   3.984   8.789 -0.0182  0.0700 -0.0189
 5110W        W 8629   6.080   6.940   8.981 -0.0989 -0.0587  0.3458
 5111W        W 8630   4.483   0.571   3.090  0.0944  0.0918  0.2411
 5112W        W 8631   1.352   0.905   0.182 -0.0204 -0.1397 -0.0789
 5113W        W 8632   0.803   7.874   1.028  0.0011 -0.0772  0.0041
 5114W        W 8633   8.416   0.027   0.373 -0.2024  0.1244 -0.0443
 5115W        W 8634   7.482   8.524  10.900 -0.1847 -0.2988  0.0082
 5116W        W 8635   2.709   1.734   4.940 -0.1317  0.2480  0.2144
 5117W        W 8636   9.128   5.508  10.316 -0.2877  0.1823 -0.2682
 5118W        W 8637   6.265   4.809  12.033  0.4963  0.1329  0.1951
 5119W        W 8638   4.754   0.192   0.004  0.1462  0.0425 -0.0925
 5120W        W 8639   2.115   3.953   3.938 -0.1462  0.0666 -0.1848
 5121W        W 8640   4.943   5.668   5.059  0.0532  0.0963 -0.1789
 5122W        W 8641   0.071   6.827   2.852  0.0848 -0.0954  0.3167
 5123W        W 8642   3.221   2.038   0.695  0.0487  0.2380 -0.0416
 5124W        W 8643   2.752   0.287  11.705 -0.2743 -0.3737  0.3931
 5125W        W 8644   1.715   7.770   0.513 -0.1284  0.2947  0.0118
 5126W        W 8645   8.918   4.652  12.337  0.1075  0.0951  0.2614
 5127W        W 8646   2.177   5.067   0.185 -0.3030  0.0960  0.1115
 5128W        W 8647   6.262   0.144  10.277 -0.3011 -0.0253  0.0653
 5129W        W 8648   0.988   4.535  11.296 -0.1075 -0.0947  0.1244
 5130W        W 8649   0.351   3.145  10.679  0.1905  0.0281 -0.1400
 5131W        W 8650   4.089   3.930   1.841 -0.2639  0.1440  0.1005
 5132W        W 8651   0.050   5.888   4.608 -0.1332  0.1175 -0.0754
 5133W        W 8652   5.034   6.965   9.081  0.1733 -0.0243  0.0929
 5134W        W 8653   2.660   6.546   2.991 -0.2496  0.1883  0.0924
 5135W        W 8654   1.613   1.775   4.024  0.2273 -0.3383  0.1059
 5136W        W 8655   1.838   7.120  11.193 -0.0811  0.0767  0.0509
 5137W        W 8656   4.903   3.882   2.172  0.0214  0.1547  0.1137
 5138W        W 8657   8.925   2.123  11.461 -0.0678  0.0514 -0.0389
 5139W        W 8658   7.978   3.000   2.845  0.3105  0.0295 -0.1996
 5140W        W 8659   1.852   9.091   0.964 -0.0862 -0.0400 -0.1083
 5141W        W 8660   1.711   8.183   1.980 -0.0002 -0.1261 -0.1346
 5142W        W 8661   7.309   9.089   1.111 -0.2771 -0.1054 -0.0003
 5143W        W 8662   0.652   1.307   2.142  0.1534 -0.3101 -0.4382
 5144W        W 8663   7.285   5.366   1.493  0.1259 -0.0653 -0.2103
 5145W        W 8664   6.343   2.563   9.204  0.1034  0.1785  0.0057
 5146W        W 8665   1.490   3.293   5.059  0.1224  0.1588  0.0103
 5147W        W 8666   9.194   4.683   2.628  0.1667  0.0312  0.1153
 5148W        W 8667   2.339   6.898   2.685 -0.2144  0.0480 -0.2415
 5149W        W 8668   7.797   2.016   0.887 -0.0928 -0.1434 -0.1177
 5150W        W 8669   2.173   6.213   0.724  0.1399  0.0835  0.1000
 5151W        W 8670   2.666   5.110   9.539 -0.0424 -0.0221  0.0137
 5152W        W 8671   7.669   5.265   8.906 -0.3186 -0.2881 -0.2590
 5153W        W 8672   1.313   2.332   8.408  0.2051 -0.0389  0.1456
 5154W        W 8673   5.707   6.584  11.615 -0.2209 -0.2797 -0.0342
 5155W        W 8674   2.940   5.020  10.203  0.1818 -0.0117  0.0501
 5156W        W 8675   4.511   4.931  11.269 -0.0826 -0.0112 -0.1897
 5157W        W 8676   4.998   7.327   2.887 -0.0242 -0.4432  0.1563
 5158W        W 8677   6.043   0.105   9.764  0.1862 -0.1737 -0.1348
 5159W        W 8678   8.624   3.253   0.623 -0.1408  0.2138 -0.0463
 5160W        W 8679   0.327   8.460  11.626 -0.1581 -0.2643  0.0065
 5161W        W 8680   4.621   8.597   2.400  0.1120 -0.0766  0.0323
 5162W        W 8681   5.063   5.205   3.814 -0.2006 -0.0906  0.0450
 5163W        W 8682   5.629   4.539  11.324 -0.0103  0.1826  0.0900
 5164W        W 8683   7.366   3.556   9.028  0.1202  0.0121  0.1080
 5165W        W 8684   8.421   2.247   3.269  0.0278  0.0893  0.2268
 5166W        W 8685   8.303   1.870   0.838 -0.1524 -0.2645  0.0677
 5167W        W 8686   4.846   8.799   9.060  0.1357  0.2370  0.0388
 5168W        W 8687   1.743   0.453   9.922  0.0539  0.1399  0.3647
 5169W        W 8688   3.804   4.552   3.066 -0.0017 -0.0585  0.2035
 5170W        W 8689   8.082   3.794   1.152 -0.4377 -0.0111  0.0049
 5171W        W 8690   6.355   0.951   0.997 -0.3267  0.0888 -0.0110
 5172W        W 8691   5.696   7.871   9.052  0.0874  0.3382 -0.0768
 5173W        W 8692   6.009   3.147  12.555  0.1167  0.1430  0.0931
 5174W        W 8693   3.238   2.515  11.832  0.2316  0.2028  0.0222
 5175W        W 8694   2.280   4.563   0.104 -0.0927 -0.1380 -0.1818
 5176W        W 8695   3.804   3.423   9.991 -0.2114 -0.1770  0.0369
 5177W        W 8696   3.482   9.215   9.771 -0.2561 -0.1968 -0.1145
 5178W        W 8697   6.574   6.632  10.444  0.0335 -0.1934  0.3291
 5179W        W 8698   7.475   7.125   9.026  0.0516  0.0426  0.0076
 5180W        W 8699   7.037   8.363   9.203  0.1337  0.2191  0.1066
 5181W        W 8700   5.839   5.639   0.046 -0.3406  0.0031 -0.1040
 5182W        W 8701   3.202   7.061   9.763 -0.0491  0.3181  0.2664
 5183W        W 8702   3.017   5.501   0.333 -0.0357 -0.1419  0.0496
 5184W        W 8703   2.077   1.681  12.061  0.0622  0.1224  0.0240
 5185W        W 8704   4.853   4.242   1.351 -0.1366 -0.1551  0.0168
 5186W        W 8705   3.151   1.920   2.894  0.1844  0.1733 -0.0123
 5187W        W 8706   1.497   4.764   4.175 -0.2323  0.5745 -0.2683
 5188W        W 8707   0.959   3.624   1.201  0.3909  0.3494 -0.4067
 5189W        W 8708   1.616   4.048   9.709 -0.2042  0.0747  0.2125
 5190W        W 8709   8.504   1.846   3.547 -0.1535 -0.0684 -0.0374
 5191W        W 8710   2.907   0.560   1.269 -0.0692 -0.1286 -0.3428
 5192W        W 8711   3.203   3.599   3.523  0.1859  0.1384  0.0473
 5193W        W 8712   7.289   2.007   0.636  0.3633 -0.1532 -0.1070
 5194W        W 8713   1.363   7.549  12.200 -0.0712  0.0907  0.3079
 5195W        W 8714   7.937   0.449   9.523 -0.2563  0.0583 -0.3083
 5196W        W 8715   9.242   3.809   1.022  0.1249  0.1669 -0.0464
 5197W        W 8716   6.966   4.028   0.149  0.0011  0.1639  0.1195
 5198W        W 8717   8.938   5.254   4.614 -0.2822 -0.0714 -0.2203
 5199W        W 8718   9.180   7.368   8.353  0.1149 -0.1142  0.1196
 5200W        W 8719   0.519   9.178   0.446 -0.1384 -0.1099 -0.0251
 5201W        W 8720   6.462   7.939   9.549 -0.0444 -0.1887  0.2807
 5202W        W 8721   5.322   6.622   2.451 -0.2133 -0.0323  0.0983
 5203W        W 8722   7.267   2.334  11.579  0.1580  0.0931 -0.3236
 5204W        W 8723   8.755   9.004   1.216  0.2444  0.1125  0.0444
 5205W        W 8724   5.708   4.639   4.121  0.0375  0.2196  0.1128
 5206W        W 8725   8.860   7.810  11.423 -0.2855  0.1180 -0.0685
 5207W        W 8726   3.455   2.970   2.025 -0.5024  0.1287  0.2617
 5208W        W 8727   1.258   0.537   9.559  0.3948  0.0748  0.0600
 5209W        W 8728   8.865   1.167   9.241  0.3328  0.0315  0.1440
 5210W        W 8729   7.495   7.040   9.700  0.0756 -0.0890 -0.2778
 5211W        W 8730   8.756   4.662   0.199 -0.0292  0.2981 -0.0288
 5212W        W 8731   2.752   9.334   9.429 -0.2263  0.0284  0.2372
 5213W        W 8732   7.061   5.701   8.650  0.0892  0.1045  0.0722
 5214W        W 8733   4.585   5.477   2.706  0.2156  0.3317 -0.3658
 5215W        W 8734   7.826   8.037   4.441  0.1194  0.0084 -0.0864
 5216W        W 8735   0.538   2.379   0.346 -0.2722 -0.2071  0.0644
 5217W        W 8736   3.270   7.655  10.771  0.1521 -0.2799  0.0187
 5218W        W 8737   5.934   6.142   1.174 -0.0813 -0.3045  0.2014
 5219W        W 8738   7.538   3.172   4.081  0.1055  0.0177  0.0433
 5220W        W 8739   5.962   9.155   1.638  0.0485 -0.1429  0.2224
 5221W        W 8740   9.091   1.142   2.467 -0.1625  0.0045  0.1924
 5222W        W 8741   5.254   1.392  11.613  0.2178 -0.0776 -0.1040
 5223W        W 8742   7.184   5.015  10.890 -0.0626 -0.0527 -0.1807
 5224W        W 8743   5.156   1.914  12.371  0.2789 -0.0716  0.2298
 5225W        W 8744   1.943   2.599   1.106  0.1059 -0.3497  0.1944
 5226W        W 8745   2.667   0.731   0.405  0.1133  0.0696  0.1084
 5227W        W 8746   4.385   8.092   4.063 -0.2098 -0.0800 -0.3120
 5228W        W 8747   9.610   7.454  10.907  0.0640 -0.2214 -0.0883
 5229W        W 8748   1.809   0.142   2.566 -0.2095 -0.0481  0.0716
 5230W        W 8749   7.965   2.013  11.329 -0.2578  0.2672  0.0372
 5231W        W 8750   1.908   4.575   8.875 -0.1371  0.0568  0.2213
 5232W        W 8751   5.193   4.799  11.065  0.0152  0.0833  0.0016
 5233W        W 8752   0.410   6.613  11.056  0.2618 -0.1707 -0.2270
 5234W        W 8753   5.126   4.388   0.367  0.2639  0.0103 -0.2183
 5235W        W 8754   4.881   3.616  11.429  0.5041 -0.0460 -0.2710
 5236W        W 8755   0.918   8.067   4.457  0.5003 -0.1273 -0.4831
 5237W        W 8756   2.997   1.286   2.785  0.0663 -0.2106  0.0695
 5238W        W 8757   8.869   0.160   3.553  0.1260  0.3972 -0.0065
 5239W        W 8758   3.885   4.548   1.550 -0.1669 -0.1180 -0.2188
 5240W        W 8759   2.298   5.271   2.629  0.0298  0.1022 -0.1358
 5241W        W 8760   1.297   8.228  10.291 -0.3262  0.0882  0.1837
 5242W        W 8761   1.473   5.212   9.521 -0.0418 -0.0375 -0.0508
 5243W        W 8762   4.343   4.853   0.740  0.4511  0.0066  0.2628
 5244W        W 8763   6.450   1.424   0.415  0.0099 -0.2646  0.1180
 5245W        W 8764   8.238   0.344  10.580 -0.0740  0.1237  0.0927
 5246W        W 8765   8.504   4.842   2.356 -0.0974 -0.3173 -0.0485
 5247W        W 8766   4.723   4.689   1.634 -0.1890 -0.2532  0.3271
 5248W        W 8767   8.144   3.359  11.293  0.2090 -0.1832 -0.1433
 5249W        W 8768   9.511   1.658  10.684 -0.0684 -0.2540 -0.0600
 5250W        W 8769   6.252   6.833   9.587  0.0304  0.0378  0.1765
 5251W        W 8770   7.930   8.913   4.108  0.1327  0.0931  0.0641
 5252W        W 8771   0.160   0.255   9.238 -0.0972 -0.2008  0.0976
 5253W        W 8772   3.471   3.555  12.290 -0.2191 -0.2432  0.0384
 5254W        W 8773   6.508   1.825   3.884 -0.0801  0.2561 -0.1995
 5255W        W 8774   0.250   8.832   3.073  0.2464  0.1439  0.0046
 5256W        W 8775   2.045   5.848   9.742 -0.3629 -0.2151  0.0805
 5257W        W 8776   4.865   5.227   9.781 -0.3434 -0.1209 -0.1071
 5258W        W 8777   3.991   0.384   9.443 -0.0396 -0.2693  0.3543
 5259W        W 8778   6.542   0.624   9.792 -0.0725 -0.2851 -0.2171
 5260W        W 8779   2.901   1.558   1.958 -0.0687 -0.1755  0.0494
 5261W        W 8780   6.121   0.603  11.058  0.2503  0.2688 -0.1067
 5262W        W 8781   1.652   5.839   3.177  0.2585  0.0714 -0.0359
 5263W        W 8782   4.903   9.138   1.436  0.2286 -0.0411  0.1994
 5264W        W 8783   6.840   5.469  10.860 -0.1476  0.1794 -0.0212
 5265W        W 8784   1.811   1.416   2.003  0.0282 -0.1357  0.2887
 5266W        W 8785   6.516   0.154   1.456  0.3439  0.2838 -0.0800
 5267W        W 8786   2.579   0.418   8.872  0.0013 -0.0078 -0.0328
 5268W        W 8787   6.580   6.172   9.701  0.1396  0.1312  0.0226
 5269W        W 8788   2.709   1.675  12.051  0.0915  0.2087 -0.0316
 5270W        W 8789   7.484   4.733   9.487 -0.0327  0.1071  0.1541
 5271W        W 8790   4.818   7.527  10.868 -0.0520 -0.2283 -0.0373
 5272W        W 8791   4.364   1.728   1.346 -0.0859 -0.3975  0.0701
 5273W        W 8792   0.030   5.149  10.143  0.1967  0.0326  0.0289
 5274W        W 8793   4.221   6.316   9.484 -0.2380  0.0416  0.0393
 5275W        W 8794   1.173   1.938   9.841  0.1275  0.2025  0.1346
 5276W        W 8795   5.708   5.773   1.407 -0.2390 -0.0998  0.1473
 5277W        W 8796   5.830   9.494  11.551 -0.1972  0.0222  0.0488
 5278W        W 8797   0.452   8.539   3.479 -0.3162 -0.1486 -0.2115
 5279W        W 8798   8.541   5.720   3.114  0.3736  0.0793 -0.0257
 5280W        W 8799   3.393   6.078  12.589 -0.1613 -0.1700  0.2741
 5281W        W 8800   9.673   2.708   0.960 -0.1419 -0.0325  0.0575
 5282W        W 8801   0.268   6.102   3.775 -0.0167  0.0503  0.3539
 5283W        W 8802   7.593   5.233  10.763 -0.1312  0.3228 -0.1939
 5284W        W 8803   9.404   4.341   1.029  0.0224 -0.0775  0.2702
 5285W        W 8804   8.100   5.737   3.309 -0.0881  0.1509  0.0126
 5286W        W 8805   8.000   5.963   1.911  0.2582  0.1026 -0.0854
 5287W        W 8806   8.524   2.353   3.711  0.0142  0.1532  0.2942
 5288W        W 8807   1.692   0.745  11.137 -0.0183 -0.0684  0.0741
 5289W        W 8808   4.796   1.823   4.207 -0.1113 -0.0227 -0.0566
 5290W        W 8809   3.574   4.046   3.457  0.3433 -0.1890  0.4017
 5291W        W 8810   8.015   5.049   2.237  0.2217  0.5624  0.0518
 5292W        W 8811   3.118   0.345   3.607  0.0252  0.1319 -0.2800
 5293W        W 8812   2.132   9.176   9.678  0.0609 -0.1145 -0.1590
 5294W        W 8813   0.446   1.377   9.018  0.5516 -0.3597 -0.4446
 5295W        W 8814   9.503   6.302   4.732 -0.2708  0.1209  0.2894
 5296W        W 8815   8.616   7.088  12.187 -0.0185 -0.0080 -0.1209
 5297W        W 8816   6.490   3.042  10.855  0.1767  0.0385  0.0707
 5298W        W 8817   4.589   7.456   3.245 -0.1384  0.0389 -0.4100
 5299W        W 8818   3.947   9.031   9.804  0.2750  0.4875 -0.0175
 5300W        W 8819   7.625   9.602   3.646 -0.0308  0.2068 -0.0351
 5301W        W 8820   7.539   0.233  11.149  0.2726 -0.1297  0.0816
 5302W        W 8821   4.827   4.823   0.658  0.0158  0.0567 -0.0073
 5303W        W 8822   6.345   9.492  11.667  0.0379 -0.1370  0.1402
 5304W        W 8823   0.921   6.537   2.023 -0.1896 -0.1130 -0.0136
 5305W        W 8824   1.987   9.675   4.687  0.2371  0.1899  0.1717
 5306W        W 8825   3.280   4.326   0.331  0.2972 -0.0293  0.0198
 5307W        W 8826   7.564   4.374   2.491 -0.2844 -0.2076 -0.0675
 5308W        W 8827   1.608   7.540   8.870  0.1425 -0.2592 -0.0840
 5309W        W 8828   2.655   9.523   2.281 -0.1019 -0.1121  0.0503
 5310W        W 8829   4.435   2.905   2.252 -0.0914  0.1327 -0.0539
 5311W        W 8830   8.469   1.243   9.865  0.1663 -0.0364 -0.1817
 5312W        W 8831   4.020   1.996  10.587 -0.2396 -0.2810  0.0368
 5313W        W 8832   6.602   5.028  10.203 -0.2805 -0.1924 -0.0960
 5314W        W 8833   0.966   0.050   9.669  0.1636  0.0086 -0.0726
 5315W        W 8834   6.007   6.637  12.388  0.2980 -0.1657  0.2170
 5316W        W 8835   3.658   4.216   1.863  0.2602  0.1582 -0.1478
 5317W        W 8836   4.493   7.146   2.894 -0.3177 -0.0955 -0.1343
 5318W        W 8837   7.519   9.355   0.731  0.0808  0.1659  0.0016
 5319W        W 8838   7.313   4.615  11.967  0.2837  0.1345 -0.0097
 5320W        W 8839   1.387   8.220   3.080 -0.1561 -0.2488 -0.1409
 5321W        W 8840   0.816   8.827   3.895 -0.4592 -0.0003  0.1817
 5322W        W 8841   4.705   0.813   0.698  0.2368  0.0444  0.2635
 5323W        W 8842   9.663   6.749  12.355  0.1808 -0.1270  0.0991
 5324W        W 8843   2.393   8.986   4.254 -0.0840 -0.4047 -0.1007
 5325W        W 8844   7.973   0.259   2.766 -0.1901 -0.0893  0.1915
 5326W        W 8845   9.075   9.218   0.354  0.0669  0.0586 -0.0947
 5327W        W 8846   6.982   2.051   0.279  0.3559  0.2582 -0.0402
 5328W        W 8847   7.191   5.686   9.710  0.1239 -0.2046 -0.0208
 5329W        W 8848   1.488   0.965   3.346  0.1222 -0.0217  0.2195
 5330W        W 8849   8.351   0.532   1.351 -0.1552 -0.1994 -0.3596
 5331W        W 8850   7.543   5.925   1.990  0.0165  0.0329  0.2343
 5332W        W 8851   8.573   5.193   5.020 -0.2461  0.0721 -0.1492
 5333W        W 8852   3.105   4.164   8.953  0.1975 -0.1499  0.2015
 5334W        W 8853   1.537   9.041   2.449 -0.3861 -0.0559  0.0831
 5335W        W 8854   9.280   6.942   2.678  0.0478 -0.0743 -0.0860
 5336W        W 8855   7.504   1.998   2.876  0.0930  0.1943  0.0479
 5337W        W 8856   9.300   5.850   9.469  0.0806  0.2237  0.3159
 5338W        W 8857   6.043   7.888   0.926  0.1022 -0.0117  0.2095
 5339W        W 8858   8.335   3.988  12.167 -0.0760 -0.1990  0.0901
 5340W        W 8859   7.277   8.751  11.345 -0.1083 -0.1316  0.0685
 5341W        W 8860   4.043   6.811   2.959 -0.0274 -0.1292 -0.0576
 5342W        W 8861   2.522   5.439   0.175 -0.1005  0.1314 -0.2542
 5343W        W 8862   7.274   9.489   9.125 -0.2061  0.0330 -0.0970
 5344W        W 8863   1.073   4.329   1.927 -0.1329 -0.0343  0.1407
 5345W        W 8864   1.364   5.202   1.886 -0.0722  0.1352  0.0832
 5346W        W 8865   8.304   8.527   4.118 -0.1538  0.2177 -0.3574
 5347W        W 8866   3.805   4.932   0.706 -0.4223  0.0245 -0.1334
 5348W        W 8867   6.956   8.587   1.590 -0.1190  0.1889  0.1710
 5349W        W 8868   9.188   7.948   9.041 -0.0635 -0.2055 -0.3368
 5350W        W 8869   9.124   4.604   8.888 -0.1268  0.3240  0.2823
 5351W        W 8870   8.134   0.668   3.066  0.5001 -0.2884 -0.0568
 5352W        W 8871   0.957   0.202  10.975  0.4332  0.1207  0.0299
 5353W        W 8872   9.309   5.311   0.956 -0.1531  0.0221  0.2106
 5354W        W 8873   1.481   7.559   2.164  0.0091  0.3156  0.3334
 5355W        W 8874   0.893   8.133   1.563  0.0471  0.1293 -0.0303
 5356W        W 8875   1.696   7.679   3.637 -0.2930  0.2690 -0.0641
 5357W        W 8876   7.795   7.347   2.555  0.0149  0.1275  0.2502
 5358W        W 8877   1.901   7.397  12.184  0.0364 -0.0121  0.2177
 5359W        W 8878   8.660   3.061   9.408  0.1883  0.1603  0.0093
 5360W        W 8879   5.315   2.005   0.213 -0.0419  0.1266  0.1370
 5361W        W 8880   2.004   0.680   1.661  0.0763  0.1790  0.0516
 5362W        W 8881   8.223   2.595  10.943 -0.2690 -0.1110 -0.0640
 5363W        W 8882   5.126   1.958  11.536  0.0668 -0.1704 -0.2856
 5364W        W 8883   4.801   6.601   3.727  0.0523 -0.2374 -0.0971
 5365W        W 8884   9.010   8.696   0.373 -0.0045  0.1525 -0.0178
 5366W        W 8885   1.487   8.814   0.479 -0.0163  0.0071 -0.2238
 5367W        W 8886   1.739   3.150   0.102  0.1656 -0.0238 -0.4470
 5368W        W 8887   3.761   3.859   9.634 -0.3298 -0.1057 -0.1714
 5369W        W 8888   2.856   4.977   8.278  0.3136 -0.2536 -0.1003
 5370W        W 8889   5.497   5.909   9.628  0.3520  0.0782 -0.1120
 5371W        W 8890   3.315   7.255   0.464 -0.1429 -0.1446 -0.2425
 5372W        W 8891   9.221   2.440   8.582 -0.1662 -0.1567  0.4284
 5373W        W 8892   9.586   2.019  12.292  0.0913 -0.1320  0.2489
 5374W        W 8893   4.465   0.872  11.070  0.0294 -0.0968  0.1632
 5375W        W 8894   4.078   2.349   3.078  0.4117 -0.1721  0.0400
 5376W        W 8895   3.585   5.181   1.894  0.1133 -0.3603  0.0710
 5377W        W 8896   9.033   1.230   9.996 -0.0101 -0.1670 -0.0402
 5378W        W 8897   5.723   8.801  12.065 -0.2333 -0.0842  0.0672
 5379W        W 8898   5.584   2.922  11.122 -0.3072 -0.0735 -0.0582
 5380W        W 8899   7.174   9.022   2.561 -0.1497 -0.2245 -0.1362
 5381W        W 8900   2.716   4.986   2.684 -0.1503  0.0428 -0.0959
 5382W        W 8901   8.390   0.301   9.986  0.1179  0.1219 -0.3222
 5383W        W 8902   9.498   0.229  11.241  0.1692  0.0297 -0.1566
 5384W        W 8903   1.403   2.473  10.206 -0.0828  0.0399  0.0009
 5385W        W 8904   0.827   8.919   0.750  0.1366  0.0023 -0.3310
 5386W        W 8905   6.187   8.004   2.826  0.1286 -0.1154 -0.0265
 5387W        W 8906   3.541   8.957  11.582  0.0141  0.3230 -0.0289
 5388W        W 8907   7.263   4.161  11.324 -0.0175  0.1125 -0.0181
 5389W        W 8908   2.818   9.181   2.644 -0.3615 -0.2577  0.0399
 5390W        W 8909   3.623   3.964   0.461 -0.0277  0.3797  0.0629
 5391W        W 8910   2.408   5.949   1.092 -0.2214  0.0123  0.2889
 5392W        W 8911   3.661   9.103   0.176 -0.0148 -0.1135 -0.0819
 5393W        W 8912   3.841   6.673   2.587  0.1545 -0.0214 -0.1130
 5394W        W 8913   8.683   4.815   2.870 -0.0981  0.1465 -0.0027
 5395W        W 8914   4.195   4.329   0.611  0.2295 -0.2765  0.1862
 5396W        W 8915   9.261   3.477   2.083 -0.0523  0.0437 -0.0283
 5397W        W 8916   6.133   5.658   4.229 -0.1554 -0.0992 -0.1497
 5398W        W 8917   7.526   1.345  11.925 -0.3025  0.1886  0.2228
 5399W        W 8918   1.074   3.352  11.950  0.0894  0.1334  0.1229
 5400W        W 8919   5.788   5.334   9.521 -0.0572 -0.1053 -0.2003
 5401W        W 8920   8.800   8.595   2.214  0.3435  0.0801 -0.1149
 5402W        W 8921   6.401   5.375  11.148 -0.5284 -0.2609  0.1234
 5403W        W 8922   0.998   0.657   4.035 -0.2093 -0.0227  0.2097
 5404W        W 8923   5.942   6.277  12.065 -0.0902 -0.2662 -0.2770
 5405W        W 8924   5.157   0.862  11.453 -0.0771 -0.0776  0.0503
 5406W        W 8925   6.095   7.145   2.951 -0.0668  0.3788  0.3682
 5407W        W 8926   3.755   8.090   0.550  0.2445  0.1003 -0.1306
 5408W        W 8927   5.076   5.681   4.197  0.1039 -0.2914 -0.2090
 5409W        W 8928   9.205   2.271   2.149  0.2782 -0.1568  0.0153
 5410W        W 8929   0.443   6.606   0.598 -0.0300 -0.1099 -0.2765
 5411W        W 8930   7.131   2.162   3.186 -0.1885  0.0697 -0.1214
 5412W        W 8931   2.948   8.519   9.539 -0.0961  0.1422  0.0334
 5413W        W 8932   3.562   0.671   8.873  0.3453  0.1015 -0.0100
 5414W        W 8933   8.528   3.846   1.909 -0.1181 -0.0938  0.1075
 5415W        W 8934   0.503   2.830  10.376 -0.0325 -0.2335 -0.1621
 5416W        W 8935   4.546   4.080   9.097 -0.1512 -0.2816  0.0815
 5417W        W 8936   2.848   6.776   4.210 -0.0037 -0.3199 -0.1818
 5418W        W 8937   6.924   6.384   1.334  0.2101 -0.0895 -0.0665
 5419W        W 8938   5.113   9.012   0.235 -0.0359 -0.0967  0.1173
 5420W        W 8939   8.331   0.787   1.840 -0.1607 -0.1382  0.0799
 5421W        W 8940   2.738   6.533  10.791 -0.3281  0.2336 -0.2443
 5422W        W 8941   0.460   3.344   2.368 -0.0812  0.0645 -0.1463
 5423W        W 8942   9.324   7.053   2.111  0.3370  0.1084 -0.1116
 5424W        W 8943   7.960   2.844  11.238 -0.2312  0.0806  0.0631
 5425W        W 8944   0.053   7.936   1.371  0.1327 -0.2293 -0.3289
 5426W        W 8945   3.256   2.406  10.658  0.4221 -0.1333 -0.0450
 5427W        W 8946   2.986   4.747   3.929  0.0043 -0.1274 -0.0381
 5428W        W 8947   1.821   3.940  10.695  0.0542 -0.1004 -0.0047
 5429W        W 8948   0.537   1.163   3.304 -0.4348  0.0544  0.2034
 5430W        W 8949   2.936   4.293   3.507  0.0127 -0.0446  0.0421
 5431W        W 8950   5.615   2.257  11.514  0.0734  0.1442 -0.0813
 5432W        W 8951   2.875   7.386   0.667 -0.1528 -0.1101  0.2109
 5433W        W 8952   4.463   0.288   9.677 -0.1952  0.1113 -0.0779
 5434W        W 8953   3.848   9.136   3.379  0.1868  0.1820 -0.0637
 5435W        W 8954   5.405   7.636   8.578 -0.2386  0.0400 -0.0281
 5436W        W 8955   3.776   3.303  11.935  0.0432  0.0725  0.4301
 5437W        W 8956   5.359   9.530  11.331  0.0717 -0.0409  0.2187
 5438W        W 8957   4.904   3.221   4.243 -0.3061 -0.0900  0.1416
 5439W        W 8958   7.206   6.173   8.821 -0.1399  0.3201 -0.1713
 5440W        W 8959   2.965   3.404  12.103 -0.2436  0.2480 -0.3538
 5441W        W 8960   2.925   0.824   3.491  0.2001  0.5943 -0.2016
 5442W        W 8961   3.323   9.196   1.866  0.0471 -0.1196 -0.0080
 5443W        W 8962   6.441   4.657  12.463  0.0204  0.0505  0.3079
 5444W        W 8963   1.296   0.606   1.869 -0.0304  0.0618  0.0039
 5445W        W 8964   2.489   9.595   9.058  0.0289 -0.1371 -0.1610
 5446W        W 8965   4.156   1.727   2.707  0.0210 -0.1547  0.1771
 5447W        W 8966   5.471   0.505  12.094  0.2705 -0.2175 -0.1342
 5448W        W 8967   2.154   4.885   9.637  0.0813 -0.2216 -0.0034
 5449W        W 8968   2.404   8.024   1.042  0.1383  0.1959  0.0428
 5450W        W 8969   2.165   9.464   1.330 -0.0572  0.0785  0.0894
 5451W        W 8970   4.798   6.612  10.298  0.0150  0.1431 -0.1590
 5452W        W 8971   2.065   4.445   3.152  0.0205 -0.1880  0.2740
 5453W        W 8972   6.015   3.673   9.828  0.0257 -0.0435  0.0291
 5454W        W 8973   3.278   0.898  10.828  0.0123 -0.0026 -0.1218
 5455W        W 8974   1.685   6.571  11.511  0.0291  0.2696 -0.1443
 5456W        W 8975   7.405   7.062   1.265 -0.0450 -0.2078  0.0819
 5457W        W 8976   2.379   1.326   2.773 -0.2557 -0.1291  0.3359
 5458W        W 8977   3.103   3.177   1.656 -0.1383 -0.1342 -0.0198
 5459W        W 8978   7.601   5.522  11.180  0.1466 -0.1923  0.3863
 5460W        W 8979   1.515   2.644   2.956 -0.1634  0.0399 -0.0538
 5461W        W 8980   4.608   6.153   3.365 -0.1987 -0.0844 -0.0857
 5462W        W 8981   2.062   2.897   2.223  0.0731  0.1684  0.0716
 5463W        W 8982   4.334   8.896   9.477  0.0598 -0.0425  0.0534
 5464W        W 8983   5.949   4.951  12.363  0.0863 -0.1376  0.4562
 5465W        W 8984   9.040   0.431   3.118  0.2216  0.0217 -0.1420
 5466W        W 8985   3.781   9.524   3.929  0.0484 -0.0295  0.2311
 5467W        W 8986   3.833   2.737  12.165 -0.3060 -0.0335 -0.1421
 5468W        W 8987   6.259   9.024  10.998  0.2525  0.2357  0.0697
 5469W        W 8988   0.504   5.410   3.451 -0.2953  0.0859 -0.1047
 5470W        W 8989   9.206   8.326   3.638  0.4869 -0.0066  0.2105
 5471W        W 8990   5.878   5.102   0.339 -0.2072 -0.2682 -0.0554
 5472W        W 8991   2.777   4.500   0.246 -0.0716 -0.4314  0.1677
 5473W        W 8992   1.357   6.314  10.545 -0.0725 -0.0657  0.2908
 5474W        W 8993   7.770   3.053   0.895  0.3816  0.2450 -0.0013
 5475W        W 8994   6.327   9.000   2.164  0.1042 -0.0126  0.1735
 5476W        W 8995   5.903   5.430   3.848  0.2318 -0.1315 -0.3197
 5477W        W 8996   5.504   8.680   0.856 -0.1050 -0.2408  0.0420
 5478W        W 8997   4.874   5.775   9.614 -0.1069  0.0738 -0.0810
 5479W        W 8998   3.261   4.483  11.235 -0.1504  0.0412  0.1464
 5480W        W 8999   3.116   5.703  12.494  0.0435  0.3626  0.6066
 5481W        W 9000   1.454   9.577   9.367  0.2703  0.0574  0.3335
 5482W        W 9001   5.180   0.357   0.208  0.0152 -0.1891  0.0599
 5483W        W 9002   2.962   6.532  11.912  0.2373  0.1331  0.0655
 5484W        W 9003   0.259   2.505   9.220  0.0280 -0.1308  0.1469
 5485W        W 9004   6.274   7.833   3.310 -0.2294 -0.0320 -0.4145
 5486W        W 9005   6.722   3.135   1.850  0.2099 -0.0554  0.0056
 5487W        W 9006   6.804   7.691   0.691 -0.1468 -0.0599  0.5291
 5488W        W 9007   9.206   7.634  10.612 -0.2046  0.0816  0.0793
 5489W        W 9008   7.176   5.616   1.934 -0.1009  0.0571  0.1026
 5490W        W 9009   8.091   2.192   3.690  0.1542 -0.2836  0.1271
 5491W        W 9010   1.951   6.964   3.028  0.0250 -0.3552  0.0258
 5492W        W 9011   6.541   5.251  12.103  0.0454  0.1363 -0.0478
 5493W        W 9012   4.711   7.944   3.529 -0.1926  0.1481  0.1638
 5494W        W 9013   2.468   6.924   3.220 -0.2378 -0.0636 -0.0256
 5495W        W 9014   1.291   2.700   9.282 -0.0331 -0.2256 -0.0441
 5496W        W 9015   1.193   8.186   0.218  0.0877 -0.2194 -0.5576
 5497W        W 9016   8.000   3.138  12.485 -0.3440 -0.0287 -0.0824
 5498W        W 9017   8.723   7.838   0.862  0.2666  0.2879  0.1647
 5499W        W 9018   5.083   7.254   9.478  0.3120 -0.0593 -0.2235
 5500W        W 9019   4.129   4.861  10.986  0.1125 -0.0129  0.0370
 5501W        W 9020   8.860   2.856   2.753 -0.2554  0.0237 -0.1872
 5502W        W 9021   1.235   1.041   3.816  0.1531 -0.0221  0.2677
 5503W        W 9022   0.991   8.310   9.156 -0.1068 -0.1192  0.1956
 5504W        W 9023   2.591   1.580   3.147 -0.1924 -0.1934 -0.0009
 5505W        W 9024   1.263   6.363   0.633  0.0635 -0.0242 -0.0263
 5506W        W 9025   4.731   5.889  10.817  0.0972 -0.0770 -0.3651
 5507W        W 9026   2.285   4.914   3.080 -0.4294  0.1757 -0.3798
 5508W        W 9027   6.761   4.234  12.241 -0.1044  0.1262 -0.3586
 5509W        W 9028   4.054   0.100  12.326 -0.0635 -0.2716  0.1426
 5510W        W 9029   7.171   6.702   3.684  0.1058 -0.1284  0.3003
 5511W        W 9030   4.552   0.579   2.601 -0.1807 -0.2827 -0.3460
 5512W        W 9031   3.355   5.497   4.029 -0.0149 -0.2028 -0.1309
 5513W        W 9032   4.807   2.963  11.840 -0.1055  0.1687 -0.1118
 5514W        W 9033   5.267   8.170  11.404 -0.2920  0.0950  0.1437
 5515W        W 9034   2.089   6.216  12.122  0.0988  0.0845  0.1618
 5516W        W 9035   1.952   5.571  10.185 -0.0635 -0.1553  0.2045
 5517W        W 9036   5.002   0.399   9.779  0.1027  0.0005  0.1470
 5518W        W 9037   4.329   1.629   9.767  0.1210  0.2132 -0.0307
 5519W        W 9038   0.508   1.479   7.983  0.1258 -0.2990 -0.3609
 5520W        W 9039   8.942   0.644  11.491  0.0322 -0.2746 -0.2123
 5521W        W 9040   2.542   7.278  11.390  0.0883 -0.0746  0.0989
 5522W        W 9041   7.096   6.907   9.339 -0.1242  0.3051 -0.2544
 5523W        W 9042   6.198   4.760   9.887  0.0857 -0.0592  0.1400
 5524W        W 9043   1.137   5.450   4.037 -0.1614  0.3312  0.1540
 5525W        W 9044   5.879   4.393  10.499  0.0178  0.0201  0.1915
 5526W        W 9045   6.863   7.384   3.217 -0.0034  0.1102 -0.2840
 5527W        W 9046   8.001   8.794  12.468  0.2438  0.1177  0.0503
 5528W        W 9047   7.665   3.656   1.423  0.0295 -0.0466  0.2922
 5529W        W 9048   4.655   5.993   0.520  0.1174 -0.3395 -0.0650
 5530W        W 9049   7.979   7.728  12.597 -0.2608  0.0148  0.0142
 5531W        W 9050   5.284   7.675  11.194  0.2028 -0.1156 -0.0186
 5532W        W 9051   5.337   6.639  10.923 -0.1818 -0.2143  0.2336
 5533W        W 9052   0.218   1.604  10.021 -0.3137  0.1229 -0.0968
 5534W        W 9053   0.446   2.825   0.649 -0.3561  0.1545 -0.1067
 5535W        W 9054   0.641   8.322  11.977  0.1137  0.3641 -0.2417
 5536W        W 9055   2.497   0.869   2.489 -0.1718 -0.0562 -0.0776
 5537W        W 9056   7.213   2.533   8.931 -0.0375  0.2184  0.1363
 5538W        W 9057   9.102   9.328   2.588  0.0111 -0.0849  0.0380
 5539W        W 9058   2.744   1.304  10.760 -0.1059 -0.3450 -0.2768
 5540W        W 9059   2.315   0.015  10.462  0.4055 -0.1055 -0.0290
 5541W        W 9060   5.294   4.509  11.757  0.0314 -0.0754 -0.2491
 5542W        W 9061   2.828   0.809  11.678  0.0127 -0.0269  0.0039
 5543W        W 9062   1.965   1.025   9.121 -0.1876 -0.0293  0.1038
 5544W        W 9063   1.975   7.313   1.894 -0.0366 -0.1259  0.2799
 5545W        W 9064   7.179   6.267  11.315  0.2338  0.0092  0.2966
 5546W        W 9065   7.803   5.756  10.771 -0.0673  0.2893  0.1016
 5547W        W 9066   1.786   5.689   8.825  0.0770  0.0294  0.2815
 5548W        W 9067   3.565   8.298   3.620 -0.0923 -0.1323 -0.1991
 5549W        W 9068   6.571   3.281   4.179 -0.3000  0.1171  0.0826
 5550W        W 9069   0.018   0.968   0.075  0.1864 -0.2351  0.2251
 5551W        W 9070   5.730   2.324  10.583 -0.1346 -0.0469  0.0182
 5552W        W 9071   0.569   8.880   1.196 -0.1109 -0.1061 -0.3879
 5553W        W 9072   2.003   8.655  11.503 -0.6774 -0.0969  0.1279
 5554W        W 9073   0.165   6.737  11.594  0.0154  0.0439 -0.2504
 5555W        W 9074   5.276   6.338   0.118 -0.2405 -0.0177 -0.0815
 5556W        W 9075   8.264   5.889   4.252  0.0772  0.2136  0.1853
 5557W        W 9076   2.733   5.494   9.070  0.1195  0.3735 -0.0139
 5558W        W 9077   1.757   1.235   0.266 -0.0325  0.1580  0.1055
 5559W        W 9078   5.610   3.763   9.086  0.0429 -0.2191 -0.2990
 5560W        W 9079   7.690   5.885   4.076  0.0961  0.2138  0.1172
 5561W        W 9080   8.385   6.055   9.074  0.1242 -0.2163  0.1976
 5562W        W 9081   4.746   6.985   1.539  0.0234  0.0904 -0.4272
 5563W        W 9082   7.353   8.512   1.190  0.1898  0.0468 -0.0441
 5564W        W 9083   1.706   3.275  10.215 -0.0982 -0.1432 -0.0629
 5565W        W 9084   8.702   0.345   1.620  0.0508  0.1793  0.1135
 5566W        W 9085   0.989   9.005   1.282  0.2023 -0.4595  0.0016
 5567W        W 9086   1.461   1.469   0.623  0.2110 -0.0387 -0.0948
 5568W        W 9087   3.404   5.761   9.589 -0.0685 -0.0101  0.4295
 5569W        W 9088   2.071   3.834   8.619 -0.0050  0.2101 -0.1640
 5570W        W 9089   1.769   0.218   3.322  0.0818  0.3568  0.2315
 5571W        W 9090   4.182   8.871   3.931 -0.0020 -0.1079  0.0629
 5572W        W 9091   3.555   0.436   1.640  0.1157  0.0112  0.1431
 5573W        W 9092   6.587   4.627   3.151  0.0770 -0.2497 -0.0818
 5574W        W 9093   3.859   7.091  11.133  0.0400 -0.0306 -0.0848
 5575W        W 9094   3.336   6.610   2.579  0.0600 -0.1014 -0.3239
 5576W        W 9095   7.925   3.515   4.042  0.1433 -0.0099 -0.0390
 5577W        W 9096   8.539   0.044   4.313  0.0883  0.1803 -0.0968
 5578W        W 9097   7.632   6.667   3.626 -0.0640 -0.1345  0.1588
 5579W        W 9098   8.213   7.836   2.549 -0.0802  0.1402 -0.2695
 5580W        W 9099   2.067   7.762  11.803 -0.1627  0.1901 -0.2130
 5581W        W 9100   3.219   8.925  10.563  0.2943 -0.1018  0.0898
 5582W        W 9101   2.437   1.271  11.573  0.4051  0.1704  0.2952
 5583W        W 9102   8.218   8.585   3.220 -0.0623  0.0510 -0.0916
 5584W        W 9103   6.878   4.032   4.166 -0.0937  0.0211 -0.0673
 5585W        W 9104   3.815   1.673  12.009  0.3225 -0.2521  0.1156
 5586W        W 9105   8.546   1.136  11.454 -0.2225  0.3684 -0.1401
 5587W        W 9106   6.119   4.495  11.467 -0.1612  0.1656 -0.0064
 5588W        W 9107   8.985   6.117   1.217 -0.0420 -0.1088 -0.1593
 5589W        W 9108   9.379   8.878   0.760  0.4373  0.2580  0.1331
 5590W        W 9109   4.095   9.671   8.528  0.0534  0.3329  0.2448
 5591W        W 9110   8.420   9.156   2.851 -0.2501 -0.1603 -0.2904
 5592W        W 9111   6.736   3.263   3.520  0.1903  0.0463 -0.2267
 5593W        W 9112   2.030   1.521   3.977 -0.3732 -0.2831 -0.0172
 5594W        W 9113   0.875   9.216  11.475  0.1044 -0.0079 -0.0798
 5595W        W 9114   0.983   3.749  11.085 -0.1710  0.2728 -0.1507
 5596W        W 9115   8.738   8.604   9.181 -0.1709 -0.0356 -0.2407
 5597W        W 9116   5.453   5.894   3.342  0.2271 -0.1453 -0.2011
 5598W        W 9117   6.449   7.483   2.982 -0.1132  0.1590 -0.3773
 5599W        W 9118   1.918   3.465  11.868 -0.0375 -0.2244 -0.1862
 5600W        W 9119   6.243   9.265   2.623  0.0535 -0.1331  0.3305
 5601W        W 9120   8.079   1.960  10.390 -0.1548  0.1287 -0.1094
 5602W        W 9121   4.811   3.106   0.096  0.3609 -0.4610  0.2288
 5603W        W 9122   6.483   8.448  11.633 -0.0169  0.0485 -0.2470
 5604W        W 9123   0.618   0.054   9.277 -0.0257 -0.2223 -0.2602
 5605W        W 9124   0.621   2.183   1.440 -0.1056 -0.0946 -0.1462
 5606W        W 9125   5.097   8.269   9.804 -0.0430  0.1240  0.0628
 5607W        W 9126   9.675   7.463   2.221  0.0137  0.2348  0.2865
 5608W        W 9127   2.649   4.342   1.211  0.2252  0.0078  0.0115
 5609W        W 9128   5.541   6.648   8.845 -0.0311 -0.0832 -0.0794
 5610W        W 9129   5.733   2.707   2.083  0.1166  0.2690 -0.2748
 5611W        W 9130   4.471   3.084   7.705  0.3959  0.1249  0.0545
 5612W        W 9131   0.105   5.911  12.214 -0.3211  0.0826 -0.0463
 5613W        W 9132   3.924   4.751   4.939 -0.1957  0.0482 -0.1492
 5614W        W 9133   1.258   5.245   0.253 -0.3477 -0.1076 -0.0458
 5615W        W 9134   2.894   7.876   0.886 -0.0352 -0.2274  0.0210
 5616W        W 9135   2.250   2.078   4.056  0.3275  0.2929 -0.0042
 5617W        W 9136   2.374   8.232   2.847  0.1071  0.0485 -0.4308
 5618W        W 9137   0.241   1.066  11.345  0.0125 -0.1461  0.0885
 5619W        W 9138   3.097   5.950   2.476  0.1514  0.2229  0.1489
 5620W        W 9139   7.495   9.123   0.286  0.4385  0.2047 -0.1341
 5621W        W 9140   2.018   2.383   4.936  0.2819  0.0575 -0.0147
 5622W        W 9141   5.394   0.454   1.836  0.0142 -0.2289  0.0739
 5623W        W 9142   3.637   2.744   0.037 -0.0943  0.2932 -0.1477
 5624W        W 9143   5.909   3.096   0.822 -0.0823  0.3350 -0.1947
 5625W        W 9144   7.923   5.525   4.332  0.0719 -0.0530 -0.0047
 5626W        W 9145   9.642   5.046   3.898 -0.2057 -0.3187 -0.1420
 5627W        W 9146   7.372   6.228   3.849 -0.1252 -0.2770 -0.1267
 5628W        W 9147   5.934   0.364   1.802 -0.0295  0.1122  0.2004
 5629W        W 9148   7.999   5.952   9.347  0.0077 -0.0440  0.3861
 5630W        W 9149   4.479   0.432  12.220 -0.1522  0.0945 -0.0676
 5631W        W 9150   3.919   8.642   8.245 -0.1739 -0.1776  0.1530
 5632W        W 9151   4.597   8.437   3.666 -0.0397 -0.0374 -0.2109
 5633W        W 9152   0.097   6.826   0.853  0.1645  0.0020 -0.1767
 5634W        W 9153   3.684   1.294   9.153 -0.1049 -0.0971  0.1475
 5635W        W 9154   4.041   0.119  10.651 -0.2212  0.2650 -0.2992
 5636W        W 9155   2.359   7.856   3.239 -0.1114  0.1737 -0.1336
 5637W        W 9156   9.171   3.811   0.532  0.0202 -0.0211 -0.2636
 5638W        W 9157   7.486   1.640   1.239 -0.0045 -0.5240  0.0286
 5639W        W 9158   1.240   3.304  11.159 -0.2696 -0.1074 -0.2447
 5640W        W 9159   2.394   7.799   2.438  0.0293 -0.0375  0.0268
 5641W        W 9160   4.940   5.294   0.548  0.0425 -0.0852 -0.2029
 5642W        W 9161   1.828   5.140   9.895 -0.2389  0.2309 -0.1385
 5643W        W 9162   0.708   2.398  12.500  0.0894 -0.1417 -0.2007
 5644W        W 9163   4.224   8.353   2.700 -0.0599 -0.0483 -0.0386
 5645W        W 9164   4.238   7.912   0.609  0.2411  0.0295  0.0379
 5646W        W 9165   4.074   1.707   9.201 -0.0658 -0.0265  0.1910
 5647W        W 9166   1.876   0.784   0.151 -0.1812  0.1214 -0.0870
 5648W        W 9167   7.806   9.118  11.983  0.0368 -0.0235 -0.0168
 5649W        W 9168   0.937   6.892  11.460  0.1934 -0.0913 -0.1382
 5650W        W 9169   8.186   4.290  11.762  0.1116 -0.1753 -0.0436
 5651W        W 9170   6.731   4.181  10.360  0.0503 -0.1508 -0.1845
 5652W        W 9171   6.385   4.340  11.933  0.0333 -0.2075 -0.0474
 5653W        W 9172   0.535   4.560   2.848  0.2361  0.2176 -0.1885
 5654W        W 9173   8.393   9.025  11.022  0.3006 -0.0408 -0.4344
 5655W        W 9174   9.301   2.319   9.058 -0.1316  0.3482  0.0709
 5656W        W 9175   9.314   9.470   3.049  0.3453  0.2126 -0.2941
 5657W        W 9176   9.665   9.259   1.731 -0.2055 -0.0757 -0.0272
 5658W        W 9177   9.107   6.960  10.065  0.1575 -0.2058  0.2897
 5659W        W 9178   4.849   2.395   3.044  0.3315 -0.2226 -0.1350
 5660W        W 9179   2.699   9.338   1.281  0.3299  0.1075  0.3877
 5661W        W 9180   1.216   7.614   4.364 -0.3006 -0.2201  0.1672
 5662W        W 9181   9.043   6.545   2.336 -0.1809 -0.2623 -0.0751
 5663W        W 9182   8.755   7.525   5.105 -0.0078  0.1852 -0.0448
 5664W        W 9183   0.821   6.359   0.344 -0.4375  0.4224 -0.0660
 5665W        W 9184   3.940   4.173   0.148  0.0974 -0.2514 -0.1632
 5666W        W 9185   0.829   7.235   4.451 -0.2961 -0.1532  0.0424
 5667W        W 9186   0.070   1.119   0.704  0.0345 -0.1355 -0.0247
 5668W        W 9187   4.719   5.197   1.862 -0.3733 -0.2021  0.0158
 5669W        W 9188   4.294   8.944  11.280  0.2227  0.2030 -0.0105
 5670W        W 9189   5.286   5.599  11.050  0.4081 -0.0107 -0.1007
 5671W        W 9190   0.807   2.301   2.020  0.1538 -0.0024  0.1395
 5672W        W 9191   9.459   8.666   3.870 -0.1549 -0.1229  0.1055
 5673W        W 9192   5.904   8.953   3.309 -0.1311  0.4017  0.1981
 5674W        W 9193   8.870   4.691  10.306  0.1198  0.0130  0.0482
 5675W        W 9194   7.544   0.827   9.330  0.3356  0.1663 -0.0120
 5676W        W 9195   0.379   4.311   2.433  0.1221  0.1251  0.0295
 5677W        W 9196   4.428   8.619   3.186 -0.1778  0.1584 -0.2102
 5678W        W 9197   6.929   9.664  11.718  0.4371 -0.0990  0.2552
 5679W        W 9198   0.154   1.013   8.874  0.1537 -0.0798 -0.0143
 5680W        W 9199   0.986   6.438   1.404 -0.1659 -0.0914  0.2643
 5681W        W 9200   4.286   4.391  12.416 -0.0860  0.0451  0.1775
 5682W        W 9201   7.207   5.195   4.529 -0.2005 -0.2469 -0.0810
 5683W        W 9202   3.208   1.629  11.451  0.1911  0.0945 -0.1347
 5684W        W 9203   0.861   0.923   1.868 -0.0555  0.0750 -0.2082
 5685W        W 9204   4.781   7.810  11.297  0.1192 -0.3377  0.0586
 5686W        W 9205   8.664   4.745   8.839  0.0680 -0.3077 -0.1329
 5687W        W 9206   6.049   2.438   3.405  0.2240  0.2544 -0.1000
 5688W        W 9207   3.993   8.940  10.285 -0.0726 -0.2027 -0.1340
 5689W        W 9208   0.614   1.615   3.064  0.1394 -0.0590 -0.1682
 5690W        W 9209   6.054   3.134   3.363  0.2028 -0.1586  0.3051
 5691W        W 9210   6.306   2.454  11.878  0.0890 -0.1524  0.2677
 5692W        W 9211   9.400   9.259   4.512  0.1386  0.1034 -0.1406
 5693W        W 9212   0.288   6.168  10.189 -0.3004  0.1774  0.2825
 5694W        W 9213   0.674   6.180  10.894 -0.0541 -0.0975 -0.1548
 5695W        W 9214   9.125   7.735   2.785  0.0064 -0.2070  0.1482
 5696W        W 9215   6.455   0.712  12.467 -0.0082 -0.2264  0.3656
 5697W        W 9216   5.208   3.745  10.022 -0.0810 -0.4537 -0.3711
 5698W        W 9217   5.443   4.890   4.486  0.1546  0.0690 -0.0816
 5699W        W 9218   5.404   3.922   0.810  0.1054  0.3301  0.0050
 5700W        W 9219   9.443   1.349   2.079  0.1306 -0.3881  0.0342
 5701W        W 9220   0.767   5.871   9.341  0.0834 -0.1870 -0.1315
 5702W        W 9221   0.174   8.504  10.000 -0.1888 -0.0101 -0.0334
 5703W        W 9222   5.784   5.836   8.851 -0.0817  0.2328  0.3478
 5704W        W 9223   4.390   6.334  11.552  0.0876 -0.1009  0.2080
 5705W        W 9224   7.616   5.219   0.308 -0.1835  0.3016  0.0035
 5706W        W 9225   7.995   3.266   0.379  0.0873  0.3442  0.0108
 5707W        W 9226   7.074   3.540   0.219 -0.2950  0.0704 -0.1675
 5708W        W 9227   8.488   4.939  12.412 -0.1109  0.0363 -0.2102
 5709W        W 9228   5.471   6.046   2.604 -0.2236 -0.1437 -0.2332
 5710W        W 9229   0.508   5.791  10.536  0.1860 -0.0122  0.1372
 5711W        W 9230   7.092   6.139   9.814 -0.4076  0.3512  0.0823
 5712W        W 9231   5.373   4.198  12.145  0.1442  0.1795 -0.1397
 5713W        W 9232   5.369   5.302   0.257 -0.3711 -0.2086 -0.3252
 5714W        W 9233   0.647   8.544   1.544  0.0286  0.1537  0.1252
 5715W        W 9234   6.084   4.877   2.017 -0.0056  0.1357 -0.0414
 5716W        W 9235   7.766   2.784   0.098  0.3517  0.2376 -0.3116
 5717W        W 9236   3.436   6.294   9.995 -0.1146 -0.3564  0.2606
 5718W        W 9237   8.617   4.285   2.159 -0.1199 -0.0549 -0.3737
 5719W        W 9238   0.371   9.135   4.266  0.1565  0.0337  0.0117
 5720W        W 9239   1.722   9.634  11.679  0.0325  0.0313 -0.0966
 5721W        W 9240   8.815   4.044  12.349 -0.0593 -0.1460 -0.1193
 5722W        W 9241   3.087   8.573  10.026  0.1508  0.0671 -0.0026
 5723W        W 9242   0.296   6.687   5.506 -0.1585 -0.0015 -0.3712
 5724W        W 9243   8.069   7.606   1.398 -0.0349 -0.0670 -0.2714
 5725W        W 9244   0.598   7.036  11.774 -0.1981  0.4482  0.0321
 5726W        W 9245   5.174   4.357   2.296 -0.1304  0.2140  0.1438
 5727W        W 9246   8.850   6.709  12.450 -0.2178  0.2118 -0.1264
 5728W        W 9247   1.108   2.111   4.692  0.3276  0.0513 -0.0420
 5729W        W 9248   5.655   9.644   1.800 -0.1260  0.2364  0.1558
 5730W        W 9249   7.652   7.496   9.316  0.0331 -0.1048 -0.1393
 5731W        W 9250   7.705   2.963   3.326  0.1262 -0.0132  0.0488
 5732W        W 9251   4.913   5.446   2.350 -0.0788 -0.1752 -0.0489
 5733W        W 9252   3.253   3.321   9.047 -0.1064 -0.3624  0.3353
 5734W        W 9253   3.649   2.619   2.827 -0.1647 -0.0084 -0.3856
 5735W        W 9254   1.492   0.593   2.430  0.0103  0.1057  0.0945
 5736W        W 9255   6.219   7.007  10.554 -0.0504 -0.2042  0.4430
 5737W        W 9256   1.713   0.871   3.799  0.3589  0.3719 -0.2993
 5738W        W 9257   6.223   4.503   1.031 -0.1520 -0.0883  0.0425
 5739W        W 9258   5.616   2.782  12.521  0.0759 -0.0374  0.4707
 5740W        W 9259   3.024   3.640   2.408  0.2855  0.3642  0.1367
 5741W        W 9260   9.500   4.173   1.578  0.0581  0.1476  0.0417
 5742W        W 9261   3.048   2.004   1.510  0.1610  0.0359  0.1063
 5743W        W 9262   0.333   7.430  11.762 -0.1766  0.1869 -0.1583
 5744W        W 9263   6.642   6.520  11.615 -0.4319 -0.0480  0.4099
 5745W        W 9264   8.894   5.134  10.032 -0.1410  0.0235  0.0694
 5746W        W 9265   4.717   7.753  12.186 -0.0185  0.0814  0.3666
 5747W        W 9266   7.113   4.583   2.829 -0.1452  0.0124  0.0073
 5748W        W 9267   3.902   2.146   9.056  0.1345 -0.1895 -0.0020
 5749W        W 9268   2.061   8.292   9.298  0.5375  0.3407 -0.2555
 5750W        W 9269   3.334   0.869   2.970  0.0125 -0.0296 -0.0249
 5751W        W 9270   2.005   8.739   9.535  0.2236 -0.2230 -0.2366
 5752W        W 9271   8.997   0.128   2.617  0.0253  0.2080 -0.0892
 5753W        W 9272   1.203   2.087  11.866  0.1289  0.0364 -0.1969
 5754W        W 9273   8.655   3.540   3.262  0.1778  0.2141 -0.4283
 5755W        W 9274   5.121   4.593   4.220  0.3250  0.3189  0.0062
 5756W        W 9275   0.928   7.015  10.977 -0.0969  0.0837 -0.0109
 5757W        W 9276   2.660   6.733   0.288 -0.1454  0.1078  0.0185
 5758W        W 9277   8.360   6.404  10.034  0.1509  0.0285  0.0299
 5759W        W 9278   1.341   2.136   4.262  0.2148 -0.2382  0.1858
 5760W        W 9279   7.140   6.364   9.283 -0.2104 -0.1329  0.1667
 5761W        W 9280   4.897   6.716   0.785  0.3150  0.0375  0.3446
 5762W        W 9281   7.346   0.535  10.738  0.0251  0.3130  0.3565
 5763W        W 9282   2.488   1.623   9.704 -0.3694 -0.2563 -0.1997
 5764W        W 9283   5.707   2.701   9.792 -0.0444  0.0298  0.1076
 5765W        W 9284   1.499   8.164   9.377 -0.4555  0.0127 -0.2345
 5766W        W 9285   7.775   0.597  12.133  0.0437  0.0654 -0.0719
 5767W        W 9286   8.102   9.136   0.274 -0.1800 -0.3569  0.0370
 5768W        W 9287   8.627   5.937   0.323 -0.2225 -0.0293  0.1584
 5769W        W 9288   9.623   6.462   9.316 -0.1072 -0.0101  0.0926
 5770W        W 9289   1.918   3.580   2.927 -0.1848 -0.1565 -0.0257
 5771W        W 9290   6.754   6.903   1.899 -0.0607 -0.1310  0.0933
 5772W        W 9291   8.820   8.752  11.232 -0.3838  0.2212 -0.0803
 5773W        W 9292   4.976   8.995   8.613 -0.0801  0.0394  0.4410
 5774W        W 9293   5.733   3.956  11.324  0.0207 -0.1455  0.0316
 5775W        W 9294   9.601   5.080   0.640 -0.0729 -0.0234  0.3244
 5776W        W 9295   8.564   5.446  11.973  0.1653  0.0650  0.2429
 5777W        W 9296   6.078   1.351   1.085 -0.1298 -0.0029  0.1206
 5778W        W 9297   7.553   5.573  12.133 -0.2857 -0.0174  0.4018
 5779W        W 9298   3.730   9.030   2.114  0.5478  0.0086 -0.1011
 5780W        W 9299   2.131   3.404   3.766  0.1478 -0.0047 -0.1636
 5781W        W 9300   3.239   2.420   2.061  0.2509  0.0077 -0.1829
 5782W        W 9301   8.454   3.878  10.403  0.3138  0.0772  0.0041
 5783W        W 9302   5.747   4.491  12.270  0.0912  0.2886  0.2364
 5784W        W 9303   9.012   2.206   3.708  0.3390 -0.1165  0.1295
 5785W        W 9304   3.367   3.860   4.377 -0.1081  0.0448 -0.2387
 5786W        W 9305   7.960   0.903  11.771  0.1270  0.1244 -0.0857
 5787W        W 9306   7.255   3.405   0.744 -0.2401  0.1088  0.0155
 5788W        W 9307   5.188   4.981   1.533 -0.1023 -0.0755  0.1353
 5789W        W 9308   0.074   7.308   0.898 -0.1470 -0.0566 -0.0403
 5790W        W 9309   1.417   4.585   9.005 -0.1565 -0.2527 -0.0926
 5791W        W 9310   7.161   2.945   0.890  0.2151  0.1227  0.1315
 5792W        W 9311   3.094   1.632   2.432  0.2669  0.0772  0.2318
 5793W        W 9312   5.386   7.397   9.015  0.1351  0.1277  0.1080
 5794W        W 9313   2.434   7.208  10.264 -0.0483 -0.2154  0.1821
 5795W        W 9314   9.282   5.293  10.876  0.0351  0.1362 -0.1266
 5796W        W 9315   3.015   9.066   9.739  0.0950  0.1131 -0.4918
 5797W        W 9316   3.874   4.484   8.432  0.1622  0.2987 -0.1719
 5798W        W 9317   9.261   1.191  10.428  0.3907  0.1636  0.0548
 5799W        W 9318   4.337   0.123  10.207  0.1058  0.3379 -0.0110
 5800W        W 9319   0.990   5.372  12.431 -0.0513  0.0371  0.4064
 5801W        W 9320   2.839   3.439   3.830  0.0917  0.5103 -0.2252
 5802W        W 9321   2.534   2.396   1.636 -0.1684  0.0560  0.1590
 5803W        W 9322   7.455   7.105   3.867 -0.0358 -0.0901  0.0331
 5804W        W 9323   1.768   6.544   3.309 -0.1858 -0.3000 -0.1625
 5805W        W 9324   0.180   3.631   9.864  0.0059 -0.2125 -0.0236
 5806W        W 9325   8.029   7.380   3.833  0.0556  0.4267 -0.1095
 5807W        W 9326   4.744   1.749   1.973 -0.0951  0.2677  0.1211
 5808W        W 9327   5.406   7.961   0.148 -0.4340 -0.1363  0.0570
 5809W        W 9328   3.938   5.512   1.576  0.1461 -0.2896  0.1950
 5810W        W 9329   3.119   0.710   4.865 -0.3913 -0.1158  0.0322
 5811W        W 9330   6.258   4.868   2.732 -0.1270 -0.0757 -0.0882
 5812W        W 9331   1.581   0.618   9.151 -0.3447  0.1364 -0.0587
 5813W        W 9332   6.044   5.758   1.926 -0.1386 -0.1639 -0.2219
 5814W        W 9333   5.056   7.849   0.919  0.0561 -0.2072  0.2397
 5815W        W 9334   2.101   0.726   0.676 -0.3075 -0.0737  0.0213
 5816W        W 9335   7.984   1.615   1.096 -0.1144  0.2034 -0.1699
 5817W        W 9336   3.299   3.146  11.188  0.1138 -0.0125 -0.1257
 5818W        W 9337   4.073   3.650  11.729 -0.0286  0.2711  0.1787
 5819W        W 9338   2.171   6.808   2.159  0.1603  0.3562 -0.0314
 5820W        W 9339   6.383   2.709  10.475  0.0966  0.1783 -0.2027
 5821W        W 9340   1.586   1.216  10.103  0.1654  0.0122  0.1582
 5822W        W 9341   1.177   0.304   1.293 -0.2905 -0.1375 -0.2985
 5823W        W 9342   5.097   2.671   1.146  0.1085  0.2065  0.3767
 5824W        W 9343   6.831   7.429   2.657 -0.0345 -0.2022 -0.0981
 5825W        W 9344   7.681   5.663   2.890  0.0009  0.1792 -0.0159
 5826W        W 9345   7.193   1.182   0.109  0.0646 -0.0988  0.3562
 5827W        W 9346   0.793   5.725  10.148 -0.0816  0.2016  0.0810
 5828W        W 9347   2.185   9.359   0.589 -0.0698  0.2231  0.0653
 5829W        W 9348   1.391   4.222   0.379 -0.2588  0.0703 -0.3343
 5830W        W 9349   0.192   4.487  10.134 -0.2327  0.0592  0.0427
 5831W        W 9350   6.941   1.555   3.856 -0.0580  0.2667  0.1341
 5832W        W 9351   1.475   9.115   1.391  0.1431  0.0972  0.1979
 5833W        W 9352   4.033   5.665  10.134 -0.1263  0.2004  0.2506
 5834W        W 9353   5.846   3.161   9.868 -0.1077  0.3839 -0.0674
 5835W        W 9354   9.313   8.266   2.706 -0.1137  0.4595  0.0524
 5836W        W 9355   5.202   6.836   2.899 -0.2000  0.1585  0.0952
 5837W        W 9356   0.904   1.674   9.332 -0.1455  0.0635 -0.0323
 5838W        W 9357   5.242   2.286   8.468 -0.1146 -0.0806 -0.0275
 5839W        W 9358   5.023   5.411   9.292  0.1874  0.5090 -0.1015
 5840W        W 9359   5.531   7.974   0.907 -0.0637  0.3363  0.0458
 5841W        W 9360   4.358   8.648   0.522 -0.1888  0.0144  0.0718
 5842W        W 9361   3.146   9.460   2.299 -0.3453 -0.3422  0.0213
 5843W        W 9362   4.882   0.284  11.904 -0.0236 -0.4978 -0.0054
 5844W        W 9363   5.256   5.226   2.034 -0.1446  0.1031 -0.2452
 5845W        W 9364   7.622   8.411   1.612 -0.2161 -0.0709 -0.2365
 5846W        W 9365   7.979   1.602   9.887  0.0731 -0.0179  0.1160
 5847W        W 9366   2.659   2.051   8.702 -0.0427  0.2392 -0.0527
 5848W        W 9367   9.172   2.939  10.523 -0.0784  0.3935  0.3002
 5849W        W 9368   5.337   1.237   3.437  0.2215 -0.1155  0.1241
 5850W        W 9369   1.991   5.324  11.888 -0.2307  0.0803 -0.6379
 5851W        W 9370   7.271   6.324  12.301 -0.2778  0.3189 -0.4094
 5852W        W 9371   0.354   3.574  12.452  0.2814 -0.0206  0.0550
 5853W        W 9372   1.961   7.903  12.311  0.0292  0.2432  0.1131
 5854W        W 9373   6.696   1.168   3.700  0.3691 -0.1993  0.1374
 5855W        W 9374   1.050   4.152   9.631 -0.0748  0.0362  0.0868
 5856W        W 9375   4.203   8.154  12.224 -0.0880  0.1742  0.1402
 5857W        W 9376   5.125   3.783  12.205 -0.0195  0.0222 -0.1743
 5858W        W 9377   6.814   2.100  11.524  0.6413 -0.1464 -0.0925
 5859W        W 9378   9.547   3.849   8.918  0.1321  0.5057  0.3512
 5860W        W 9379   9.529   0.456   0.974 -0.1343 -0.0032 -0.1260
 5861W        W 9380   4.094   5.502   3.433 -0.4861 -0.0837  0.3777
 5862W        W 9381   4.574   4.510  11.049  0.4490 -0.1022 -0.1066
 5863W        W 9382   9.153   1.015   0.305  0.0472 -0.3362 -0.3526
 5864W        W 9383   7.418   8.806   0.716 -0.0171  0.3376 -0.2978
 5865W        W 9384   9.114   7.419   1.861 -0.2129  0.2215  0.2816
 5866W        W 9385   4.297   0.767   9.438 -0.0794  0.1870 -0.1947
 5867W        W 9386   4.480   9.447   2.759 -0.1266 -0.3096  0.0044
 5868W        W 9387   5.109   2.954  10.408  0.2399  0.1211 -0.3761
 5869W        W 9388   9.537   2.928   9.939  0.0885  0.1684  0.3446
 5870W        W 9389   6.634   2.049  12.007 -0.2276  0.0918 -0.1500
 5871W        W 9390   9.663   5.031   1.592  0.0334 -0.2636 -0.1419
 5872W        W 9391   5.834   5.932   2.986  0.1140 -0.0620 -0.0322
 5873W        W 9392   2.405   9.445   3.382  0.3949 -0.3342  0.0840
 5874W        W 9393   6.546   0.528   0.687 -0.0824  0.0274  0.0929
 5875W        W 9394   8.316   4.739   3.901  0.1213  0.0695 -0.0158
 5876W        W 9395   0.276   3.432   3.167  0.1532  0.3954 -0.2120
 5877W        W 9396   1.646   0.157   4.361 -0.1207  0.0664  0.0376
 5878W        W 9397   6.582   4.189   0.795 -0.1151  0.0793 -0.2206
 5879W        W 9398   1.528   1.771  11.440 -0.0627 -0.0843 -0.4324
 5880W        W 9399   5.592   1.078   2.480  0.2163  0.1244 -0.2320
 5881W        W 9400   8.064   6.202   3.652 -0.0311  0.1995  0.0972
 5882W        W 9401   9.226   8.902  10.090 -0.1027 -0.1520  0.0986
 5883W        W 9402   2.468   3.652   4.055 -0.0540  0.0211  0.1407
 5884W        W 9403   9.515   6.168  10.456  0.2119 -0.1310 -0.0663
 5885W        W 9404   3.731   7.930   1.632  0.0921  0.0845  0.2085
 5886W        W 9405   9.023   1.214  11.244 -0.2918 -0.2351 -0.4269
 5887W        W 9406   3.259   1.772   3.424 -0.0788  0.0684  0.0780
 5888W        W 9407   3.629   2.068   3.089 -0.1031 -0.1455 -0.1844
 5889W        W 9408   7.714   5.356   8.125 -0.4343 -0.1923  0.0235
 5890W        W 9409   0.652   3.129   3.251 -0.0645  0.1768 -0.1843
 5891W        W 9410   2.826   3.134   2.769  0.2831 -0.0977 -0.0607
 5892W        W 9411   4.533   5.297   9.412  0.1746 -0.0499 -0.2238
 5893W        W 9412   7.151   4.201   1.098 -0.0474 -0.6211 -0.3259
 5894W        W 9413   5.433   9.222   8.705  0.1529 -0.1532 -0.2676
 5895W        W 9414   8.389   7.769   9.614  0.2110  0.1652 -0.2268
 5896W        W 9415   8.280   4.447   2.940 -0.4655 -0.2969 -0.0599
 5897W        W 9416   5.900   2.196  11.937 -0.0022 -0.0608 -0.1921
 5898W        W 9417   8.093   2.742  12.232  0.1146 -0.0554 -0.1728
 5899W        W 9418   7.141   5.873  12.128  0.0968 -0.0774 -0.2588
 5900W        W 9419   2.274   8.118   5.150 -0.0155 -0.2133 -0.0787
 5901W        W 9420   8.772   9.088   8.826  0.1262  0.3252  0.0959
 5902W        W 9421   1.188   0.906  10.612  0.0728  0.1650  0.5015
 5903W        W 9422   7.772   7.356   1.000  0.0632  0.1535 -0.0238
 5904W        W 9423   3.728   0.792  11.153 -0.0002  0.4338 -0.0027
 5905W        W 9424   2.967   7.267   1.953  0.1141 -0.1404 -0.1399
 5906W        W 9425   9.178   4.183   9.830  0.2443  0.1634 -0.0894
 5907W        W 9426   2.514   5.741  11.420 -0.0013  0.2013 -0.2733
 5908W        W 9427   1.933   1.388   1.192  0.2716  0.2163 -0.0427
 5909W        W 9428   6.147   1.139  11.104 -0.2486 -0.0896 -0.0566
 5910W        W 9429   4.882   5.164  11.059  0.0822 -0.1880 -0.2260
 5911W        W 9430   4.897   2.336   4.272  0.4008  0.1377  0.1901
 5912W        W 9431   9.498   1.894  11.514  0.1786  0.0981 -0.0686
 5913W        W 9432   1.597   5.923  10.324  0.1370 -0.0098  0.2067
 5914W        W 9433   7.467   6.336   0.184 -0.0182 -0.1075  0.0275
 5915W        W 9434   2.979   7.248   4.358  0.3229  0.0762  0.0291
 5916W        W 9435   1.673   5.314   3.474  0.0560  0.0856 -0.0270
 5917W        W 9436   1.899   7.932  10.580  0.0442  0.0309  0.0776
 5918W        W 9437   3.005   2.032   9.245  0.2872  0.0049  0.1256
 5919W        W 9438   8.341   6.599  10.572 -0.0654 -0.0033 -0.0879
 5920W        W 9439   3.388   7.717   0.782  0.2544 -0.2049  0.2139
 5921W        W 9440   8.682   1.034   1.469  0.2372 -0.2111 -0.1727
 5922W        W 9441   0.005   4.143   9.286 -0.1300 -0.1465  0.0763
 5923W        W 9442   8.329   7.406   0.139 -0.3147 -0.1170  0.2465
 5924W        W 9443   9.277   2.793   3.026 -0.0048 -0.2802 -0.0048
 5925W        W 9444   1.876   4.207   0.463  0.0187 -0.1002  0.0806
 5926W        W 9445   6.698   7.640  11.172 -0.0058 -0.1523 -0.0748
 5927W        W 9446   8.126   5.187  12.038 -0.2170 -0.0451 -0.2256
 5928W        W 9447   7.438   2.563   3.239 -0.0497  0.0880 -0.3060
 5929W        W 9448   5.066   0.270   8.858 -0.2866 -0.1839 -0.2454
 5930W        W 9449   4.604   7.177  11.196 -0.1033 -0.1687  0.3317
 5931W        W 9450   9.610   6.268  12.536  0.0681 -0.0648 -0.0800
 5932W        W 9451   1.387   3.990  10.531  0.1853  0.0187 -0.4060
 5933W        W 9452   2.487   1.281   0.657 -0.2601 -0.1164  0.0904
 5934W        W 9453   6.907   4.708  10.529 -0.2153 -0.1529  0.3030
 5935W        W 9454   6.818   2.365   2.423  0.0187 -0.1751  0.1088
 5936W        W 9455   4.878   9.105   2.399 -0.1342  0.1593 -0.1338
 5937W        W 9456   8.693   0.819   2.871  0.1226 -0.2534 -0.1015
 5938W        W 9457   7.909   4.386  11.316  0.2469  0.1796 -0.0993
 5939W        W 9458   2.819   6.313   8.046 -0.1298  0.0375  0.2862
 5940W        W 9459   5.435   6.106   0.929  0.4068 -0.1012 -0.0659
 5941W        W 9460   8.443   5.676   9.312  0.2070 -0.1083 -0.0001
 5942W        W 9461   4.372   6.682   5.055 -0.2466 -0.1053 -0.1697
 5943W        W 9462   0.053   0.575   1.928 -0.0369 -0.1145  0.2266
 5944W        W 9463   7.481   4.930   3.581  0.0598 -0.1116 -0.3818
 5945W        W 9464   8.134   4.175  10.570  0.0700  0.0892 -0.2319
 5946W        W 9465   8.798   4.305   0.976  0.0078 -0.3808 -0.2084
 5947W        W 9466   0.624   9.527   3.360 -0.2403  0.0237 -0.0281
 5948W        W 9467   6.989   3.048   0.391 -0.0707 -0.1245  0.2565
 5949W        W 9468   9.326   6.110   2.476 -0.1700 -0.1096 -0.3781
 5950W        W 9469   8.316   3.843   2.994 -0.2852  0.1440  0.1750
 5951W        W 9470   3.484   3.474   2.204  0.3027  0.0672 -0.0495
 5952W        W 9471   8.540   7.990   1.295 -0.4086  0.4861 -0.3044
 5953W        W 9472   1.723   1.361   9.555  0.2230 -0.0103  0.4362
 5954W        W 9473   6.085   8.224   9.723  0.1091 -0.1684 -0.0223
 5955W        W 9474   1.230   8.910   9.334  0.1574 -0.1353 -0.1288
 5956W        W 9475   7.671   2.400   2.689  0.0242  0.1599  0.2909
 5957W        W 9476   7.984   1.157   2.949  0.1555  0.0525  0.0364
 5958W        W 9477   0.023   4.128   9.791  0.1860 -0.1041 -0.3224
 5959W        W 9478   0.875   7.116  12.298 -0.2001 -0.1614 -0.0668
 5960W        W 9479   8.410   9.314   1.019  0.1080  0.0458 -0.0338
 5961W        W 9480   0.793   1.249  10.630  0.0370 -0.2519  0.1158
 5962W        W 9481   3.404   0.015   1.923 -0.2359  0.1358  0.1004
 5963W        W 9482   8.797   2.304   2.837  0.1762 -0.0264 -0.2705
 5964W        W 9483   5.136   5.619  12.412  0.0249 -0.1418 -0.1513
 5965W        W 9484   9.537   6.616   2.381 -0.0225 -0.1065 -0.0734
 5966W        W 9485   5.526   4.297   3.684  0.1314 -0.2861  0.1460
 5967W        W 9486   7.145   0.250   9.815  0.0941  0.0728  0.1227
 5968W        W 9487   5.380   7.894   2.188 -0.3560 -0.1714  0.1360
 5969W        W 9488   1.696   9.127   9.236  0.0092 -0.0714  0.0564
 5970W        W 9489   3.152   2.581   0.819  0.1211 -0.3154  0.2595
 5971W        W 9490   8.928   6.921  11.827  0.0711 -0.3614  0.0219
 5972W        W 9491   2.068   7.989   1.357  0.2045  0.3656  0.0457
 5973W        W 9492   1.976   3.475  10.602  0.0702 -0.3878 -0.1315
 5974W        W 9493   5.900   3.435  11.301 -0.0251 -0.2447 -0.0760
 5975W        W 9494   9.296   3.944   2.026 -0.0172  0.3386 -0.2471
 5976W        W 9495   0.874   6.820   0.527  0.0495  0.4147 -0.1962
 5977W        W 9496   1.146   9.385  12.411 -0.2498  0.0606 -0.0565
 5978W        W 9497   2.052   7.355   0.550 -0.0829 -0.0608 -0.1016
 5979W        W 9498   5.161   6.258   9.456 -0.0006  0.1382  0.1338
 5980W        W 9499   4.636   3.043   3.260 -0.3428  0.1614 -0.0861
 5981W        W 9500   7.199   1.432  10.603 -0.1677  0.1560  0.1004
 5982W        W 9501   5.804   0.490   2.679 -0.2169  0.1948 -0.3165
 5983W        W 9502   9.075   0.681   9.222  0.0886  0.4621  0.1860
 5984W        W 9503   8.258   0.156   0.907 -0.0223 -0.1992 -0.0125
 5985W        W 9504   1.994   1.889   1.134  0.0400  0.2906  0.1338
 5986W        W 9505   2.609   2.088   9.632 -0.3090 -0.3182  0.1879
 5987W        W 9506   7.560   2.156   3.442 -0.0106  0.1224  0.0334
 5988W        W 9507   7.368   8.607   2.831 -0.0261 -0.3067  0.1965
 5989W        W 9508   7.858   4.711   0.445  0.0181 -0.0914 -0.1475
 5990W        W 9509   2.730   7.064  11.901  0.3139 -0.0057 -0.0191
 5991W        W 9510   6.972   3.753   2.019 -0.0819 -0.0325  0.3192
 5992W        W 9511   1.196   8.552   1.442 -0.0454 -0.2165 -0.1190
 5993W        W 9512   2.985   1.116  11.215  0.0646  0.3472 -0.0902
 5994W        W 9513   7.844   7.959   1.633 -0.1404  0.0477  0.2441
 5995W        W 9514   3.749   5.105  12.557 -0.0230  0.0725 -0.0804
 5996W        W 9515   9.587   6.506  10.976  0.0037 -0.4867 -0.0737
 5997W        W 9516   7.782   0.183  10.684 -0.2484 -0.1024  0.0048
 5998W        W 9517   2.877   7.296   9.410 -0.1541  0.0982  0.1462
 5999W        W 9518   6.975   9.265   0.733 -0.2362 -0.2456  0.1931
 6000W        W 9519   6.924   9.586   2.709 -0.2135 -0.0656 -0.1226
 6001W        W 9520   5.098   4.719   8.018 -0.1197  0.1572 -0.1615
 6002W        W 9521   5.919   5.789   9.377 -0.0052 -0.1409 -0.0761
 6003W        W 9522   0.509   2.738  10.895 -0.0716  0.1125  0.0462
 6004W        W 9523   2.103   7.685   4.763 -0.2583  0.2029 -0.0931
 6005W        W 9524   8.662   5.960  11.936 -0.0538  0.1380  0.0611
 6006W        W 9525   2.546   4.243  10.377  0.0703  0.0557 -0.0981
 6007W        W 9526   0.384   3.710   8.997 -0.0120 -0.0449  0.2605
 6008W        W 9527   4.265   2.287   8.627  0.1040 -0.0219  0.0581
 6009W        W 9528   2.317   5.322  12.373 -0.1996  0.2997 -0.1783
 6010W        W 9529   4.299   8.582   1.382  0.1073 -0.0885  0.1917
 6011W        W 9530   3.886   7.647   0.286 -0.1389  0.0482 -0.1555
 6012W        W 9531   3.732   3.174   2.925  0.2172  0.1421 -0.0789
 6013W        W 9532   4.400   9.651   2.299  0.0850 -0.3227  0.4035
 6014W        W 9533   7.730   7.688  10.404 -0.0065  0.1057 -0.1861
 6015W        W 9534   6.429   2.828   4.106  0.0485 -0.1826 -0.0686
 6016W        W 9535   7.117   7.202  11.269  0.3004  0.2447 -0.2647
 6017W        W 9536   5.977   5.363  10.855  0.0875  0.3696 -0.1242
 6018W        W 9537   5.747   2.874   4.613 -0.1007  0.0161 -0.1867
 6019W        W 9538   6.156   1.536  11.442  0.0857  0.2081 -0.2308
 6020W        W 9539   1.435   9.094  10.637  0.2765  0.1613 -0.1468
 6021W        W 9540   7.705   0.127   9.839  0.3646  0.0541  0.1372
 6022W        W 9541   5.516   8.673   1.867  0.2193  0.1069 -0.1136
 6023W        W 9542   5.464   5.630   9.240 -0.2513 -0.0442  0.2323
 6024W        W 9543   1.913   1.260   2.854 -0.0264 -0.4165 -0.0634
 6025W        W 9544   9.096   5.633  11.892  0.0511  0.3964  0.0173
 6026W        W 9545   4.036   9.055   8.604 -0.2592 -0.0284  0.0101
 6027W        W 9546   6.602   1.512   9.292 -0.2725  0.1192  0.2484
 6028W        W 9547   4.266   0.657   0.431  0.0147 -0.2065  0.1333
 6029W        W 9548   3.622   8.684  10.807 -0.0407 -0.0145  0.1844
 6030W        W 9549   7.211   8.100   1.435  0.1128  0.0644  0.1245
 6031W        W 9550   4.093   0.708   2.801 -0.2905 -0.0362 -0.0879
 6032W        W 9551   1.643   7.333   0.855 -0.2777 -0.0590  0.0997
 6033W        W 9552   5.876   5.119   2.441  0.0701 -0.0384  0.0711
 6034W        W 9553   9.674   1.461  12.302  0.2686  0.0137 -0.2905
 6035W        W 9554   3.300   0.962   1.376  0.2104  0.3954 -0.1216
 6036W        W 9555   4.217   7.710  12.016 -0.1416 -0.0335  0.3529
 6037W        W 9556   0.993   1.032   2.466  0.0195  0.0691 -0.0471
 6038W        W 9557   5.535   4.118   3.218 -0.1673  0.1812 -0.0787
 6039W        W 9558   7.550   9.153  11.492 -0.0592 -0.0946  0.1275
 6040W        W 9559   6.019   1.224   0.538 -0.2258 -0.1147  0.1214
 6041W        W 9560   9.258   5.896   0.055 -0.1044  0.2095  0.3537
 6042W        W 9561   0.630   7.132   0.131  0.1343  0.0397  0.0260
 6043W        W 9562   7.324   4.400   4.866  0.0616 -0.1241 -0.1027
 6044W        W 9563   9.333   0.840   2.082 -0.0442  0.1128  0.1585
 6045W        W 9564   4.188   3.789   1.357 -0.1389  0.0994 -0.1358
 6046W        W 9565   2.662   5.150   3.207  0.0208 -0.0552  0.1853
 6047W        W 9566   2.863   0.536   4.470  0.2431 -0.2483  0.2899
 6048W        W 9567   9.046   0.759   0.715  0.3870 -0.1636  0.0564
 6049W        W 9568   1.167   5.459   3.514  0.1868 -0.2610  0.1589
 6050W        W 9569   1.527   5.141  10.281  0.0673  0.1263 -0.3011
 6051W        W 9570   3.362   0.180   8.978  0.0619  0.1855 -0.2886
 6052W        W 9571   0.261   9.002  12.593 -0.1859 -0.1891  0.0072
 6053W        W 9572   9.438   5.549  12.302  0.4565 -0.0816  0.3056
 6054W        W 9573   7.243   3.381   1.686  0.0044  0.2333 -0.0561
 6055W        W 9574   7.509   1.761   9.480 -0.1129 -0.2648 -0.1064
 6056W        W 9575   6.009   4.617   0.134 -0.0381  0.1819 -0.2313
 6057W        W 9576   2.682   7.360   1.462  0.0155  0.1210  0.0120
 6058W        W 9577   3.001   2.801  10.946 -0.0230  0.3855 -0.3906
 6059W        W 9578   8.059   0.831   0.680  0.2110 -0.2990  0.2271
 6060W        W 9579   0.592   9.517  11.717  0.1918  0.1183  0.0124
 6061W        W 9580   1.133   6.191   2.341  0.1031 -0.0859 -0.0599
 6062W        W 9581   5.484   1.254   0.717 -0.2786 -0.1200  0.1975
 6063W        W 9582   9.253   8.130   4.590  0.0918 -0.0094  0.0476
 6064W        W 9583   1.051   1.017   9.715  0.0524  0.1824  0.0139
 6065W        W 9584   4.690   3.446  10.034  0.1315  0.1068 -0.0742
 6066W        W 9585   3.743   4.602  12.427  0.1578  0.4655 -0.3454
 6067W        W 9586   5.734   0.090  10.188  0.1396 -0.2447  0.1286
 6068W        W 9587   1.781   4.700   2.281  0.0228  0.0576 -0.0520
 6069W        W 9588   7.318   2.507  10.631 -0.0919 -0.2178  0.1592
 6070W        W 9589   8.717   1.953   4.079  0.3979 -0.1746 -0.0423
 6071W        W 9590   9.039   0.182   0.363  0.1959  0.1973 -0.0609
 6072W        W 9591   4.013   8.657   3.448  0.1164 -0.1348 -0.0625
 6073W        W 9592   5.592   0.583  10.534  0.3852  0.0728  0.0077
 6074W        W 9593   5.627   2.619   8.610  0.0451  0.2583 -0.1910
 6075W        W 9594   0.677   7.395   3.225  0.3160  0.2671  0.1489
 6076W        W 9595   0.199   6.072  10.863  0.2440  0.2106  0.3161
 6077W        W 9596   2.078   7.788   2.830 -0.2313  0.0755  0.3216
 6078W        W 9597   5.913   2.158   2.131 -0.0452 -0.2616  0.3293
 6079W        W 9598   1.925   6.688   2.578 -0.0714  0.0715  0.1886
 6080W        W 9599   9.087   9.459  12.213 -0.1074 -0.0929  0.3978
 6081W        W 9600   9.636   6.323   1.000  0.3081 -0.1072 -0.0960
 6082W        W 9601   7.893   5.989   4.571 -0.2443  0.1128  0.2606
 6083W        W 9602   0.219   9.603   0.166  0.0886  0.3075  0.0226
 6084W        W 9603   0.863   6.587   8.835 -0.1546 -0.1093 -0.0638
 6085W        W 9604   8.681   8.233   0.556  0.0409  0.1175 -0.0705
 6086W        W 9605   0.932   4.640   3.664  0.0260 -0.2105  0.2283
 6087W        W 9606   7.390   8.303   0.162 -0.1245  0.0849 -0.1510
 6088W        W 9607   7.788   8.652   0.390  0.1545  0.1244  0.0462
 6089W        W 9608   3.091   8.169   9.204  0.0307  0.1098 -0.0386
 6090W        W 9609   0.162   4.600   9.541 -0.4647  0.1045 -0.0730
 6091W        W 9610   2.694   2.502  11.742  0.2848  0.1613 -0.0017
 6092W        W 9611   2.131   6.917   9.605 -0.1505  0.0429 -0.0570
 6093W        W 9612   1.186   8.556   2.776  0.2438 -0.1808  0.2249
 6094W        W 9613   8.341   6.109  12.237  0.6221 -0.4167  0.1056
 6095W        W 9614   4.902   0.378   1.650 -0.0873  0.0269  0.3396
 6096W        W 9615   0.359   2.694   8.738  0.2672  0.1485  0.1706
 6097W        W 9616   6.661   1.935  10.005 -0.0664  0.0491 -0.5903
 6098W        W 9617   2.669   3.944   4.854  0.0186  0.1239 -0.0306
 6099W        W 9618   8.744   6.391   0.407  0.2107  0.1025 -0.1204
 6100W        W 9619   4.573   2.836   9.433  0.0980 -0.1529 -0.3077
 6101W        W 9620   6.500   5.697   3.822  0.4727  0.0888  0.1265
 6102W        W 9621   3.494   8.463   9.027  0.1521 -0.2998 -0.0160
 6103W        W 9622   4.101   1.057   1.494 -0.0644  0.0250 -0.3453
 6104W        W 9623   5.537   3.364   3.264 -0.0575  0.0748 -0.0209
 6105W        W 9624   8.944   3.507  10.721 -0.5640 -0.0297  0.4579
 6106W        W 9625   7.324   3.862  10.321  0.1325  0.0971  0.2528
 6107W        W 9626   2.159   3.062   1.372 -0.3385 -0.1249  0.1410
 6108W        W 9627   2.047   7.615   0.964 -0.0787 -0.1888  0.3858
 6109W        W 9628   0.042   5.294  10.632 -0.0843 -0.0142  0.2637
 6110W        W 9629   8.837   7.302  10.714 -0.0508 -0.0185 -0.0925
 6111W        W 9630   4.947   9.191  10.093 -0.0253 -0.2027 -0.1414
 6112W        W 9631   1.603   0.301   1.617  0.1867  0.3492  0.0198
 6113W        W 9632   0.195   2.275   4.745 -0.2086  0.2619 -0.2492
 6114W        W 9633   3.716   7.076   1.456 -0.0350  0.2725  0.3494
 6115W        W 9634   0.864   0.322   1.762  0.0287 -0.0699  0.0062
 6116W        W 9635   3.291   7.554  10.267 -0.2403 -0.1568  0.1996
 6117W        W 9636   2.029   1.856   9.663  0.0795  0.0368  0.1200
 6118W        W 9637   8.230   5.828   5.423  0.2565  0.0260 -0.0795
 6119W        W 9638   7.309   7.424   0.854 -0.0872 -0.0378 -0.2685
 6120W        W 9639   8.099   0.433  11.096  0.0580  0.0565  0.2246
 6121W        W 9640   5.419   4.171   8.665 -0.3071  0.0027  0.1111
 6122W        W 9641   4.306   9.650   9.340  0.2219 -0.0565  0.2411
 6123W        W 9642   3.208   6.124  12.038 -0.2136 -0.2575  0.1426
 6124W        W 9643   1.162   0.713   0.941  0.0570 -0.1378 -0.1607
 6125W        W 9644   0.500   4.043  12.266 -0.3135 -0.0180  0.2792
 6126W        W 9645   6.880   3.047   1.376 -0.0739  0.1168  0.0985
 6127W        W 9646   3.720   4.401   0.601  0.1816 -0.1454 -0.1459
 6128W        W 9647   1.209   4.072   0.880  0.2931  0.1402  0.1700
 6129W        W 9648   9.218   5.064  10.391 -0.2123 -0.2961 -0.1780
 6130W        W 9649   1.642   3.776   0.559  0.1476 -0.0857  0.0963
 6131W        W 9650   4.132   1.418   1.020 -0.1368  0.2394  0.2947
 6132W        W 9651   9.061   6.958   0.601 -0.1993  0.1087 -0.0399
 6133W        W 9652   6.529   1.496   0.974 -0.0078  0.0276  0.1001
 6134W        W 9653   5.181   1.691  10.163  0.0691 -0.2897 -0.0685
 6135W        W 9654   8.496   9.438  10.707 -0.2513  0.2583 -0.3278
 6136W        W 9655   2.560   5.859  10.045 -0.0568 -0.4421 -0.3242
 6137W        W 9656   6.238   3.643   1.517  0.1824  0.0796 -0.0315
 6138W        W 9657   3.368   3.619  10.832  0.0829  0.0226  0.1142
 6139W        W 9658   2.854   6.906   3.544  0.2391 -0.1975  0.2896
 6140W        W 9659   1.057   9.337   3.313  0.3436  0.2198  0.2306
 6141W        W 9660   4.343   6.419   1.595  0.2821 -0.4333  0.0921
 6142W        W 9661   2.568   7.592  11.832 -0.3399  0.2542 -0.2199
 6143W        W 9662   6.455   6.889  12.274 -0.0610 -0.0110  0.0563
 6144W        W 9663   9.519   3.180   2.398  0.0201 -0.1862  0.2191
 6145W        W 9664   1.559   7.194   3.499 -0.2342  0.0246 -0.1186
 6146W        W 9665   3.287   4.453   3.168 -0.0082 -0.0419  0.2170
 6147W        W 9666   6.447   5.070  10.742  0.6717 -0.2675 -0.1220
 6148W        W 9667   8.119   4.116   1.568  0.2976  0.3492  0.2591
 6149W        W 9668   4.870   0.817  11.881 -0.0603 -0.1430  0.0723
 6150W        W 9669   1.133   6.202   8.602 -0.0363 -0.1846 -0.1176
 6151W        W 9670   7.175   5.770  10.230  0.4144  0.3716  0.0712
 6152W        W 9671   6.859   3.734   9.047 -0.4142  0.0654 -0.0724
 6153W        W 9672   8.356   7.822   1.713 -0.0828  0.1355 -0.1321
 6154W        W 9673   5.155   7.749   9.607 -0.5117  0.1405  0.0703
 6155W        W 9674   0.853   7.897   8.888 -0.0427 -0.1392  0.0815
 6156W        W 9675   8.367   2.916   0.207  0.0476 -0.2175  0.1300
 6157W        W 9676   2.117   6.451   1.229  0.2651  0.0882  0.0550
 6158W        W 9677   1.681   5.029   0.117 -0.1031  0.0442 -0.3238
 6159W        W 9678   2.394   7.607  12.286  0.2977 -0.1659 -0.1135
 6160W        W 9679   8.209   2.860  11.744 -0.4926  0.0691 -0.0240
 6161W        W 9680   7.755   3.541   0.710  0.0422  0.3925 -0.0317
 6162W        W 9681   2.817   3.424   1.938  0.0882 -0.0974 -0.2025
 6163W        W 9682   2.404   3.850   1.193 -0.0476  0.0445 -0.0246
 6164W        W 9683   1.140   1.781   2.873 -0.2923  0.2740  0.1502
 6165W        W 9684   0.266   7.122  10.345 -0.2260  0.1112 -0.0779
 6166W        W 9685   3.311   8.340  10.513 -0.1520 -0.1674  0.1602
 6167W        W 9686   0.018   9.646  11.644  0.0892  0.0177  0.0350
 6168W        W 9687   7.947   7.419   8.900  0.0641  0.0261 -0.0070
 6169W        W 9688   2.468   7.635   0.553  0.1449  0.3817 -0.0137
 6170W        W 9689   5.569   7.283  10.420 -0.2268  0.1552 -0.1119
 6171W        W 9690   3.638   7.368   2.499  0.0610  0.4109  0.1142
 6172W        W 9691   3.874   7.488  10.393 -0.1038 -0.2469  0.2520
 6173W        W 9692   3.603   2.229   3.524  0.1380 -0.2633  0.1799
 6174W        W 9693   1.750   3.840  11.473  0.2167 -0.2054 -0.0117
 6175W        W 9694   2.909   2.446   1.264 -0.2220  0.1993  0.1197
 6176W        W 9695   4.631   7.322  11.930  0.0525  0.0038 -0.1724
 6177W        W 9696   0.341   6.575   2.114 -0.2455  0.2902  0.1862
 6178W        W 9697   4.205   3.244   3.654 -0.1968 -0.0940  0.0870
 6179W        W 9698   9.098   5.162   4.150 -0.0199  0.1273 -0.4591
 6180W        W 9699   4.572   9.272   1.021 -0.0638 -0.0415  0.0768
 6181W        W 9700   7.556   4.189   1.735  0.2836 -0.0793  0.0727
 6182W        W 9701   8.816   6.069   8.798  0.0048  0.0512 -0.1427
 6183W        W 9702   5.840   4.238  11.796  0.2296  0.1959  0.1916
 6184W        W 9703   0.660   0.734   0.735 -0.0088  0.1438 -0.3633
 6185W        W 9704   6.431   6.154   3.991 -0.3748 -0.0184 -0.1499
 6186W        W 9705   9.017   5.088  12.052  0.0558  0.0854 -0.2699
 6187W        W 9706   5.287   3.159   9.953  0.0863 -0.2814  0.1873
 6188W        W 9707   4.259   3.175   9.933  0.1679 -0.1540  0.0416
 6189W        W 9708   3.574   7.102  10.721 -0.1422 -0.0349 -0.0012
 6190W        W 9709   5.776   4.813  11.828  0.0372  0.0434 -0.2256
 6191W        W 9710   7.214   5.361   3.595  0.1202 -0.0432  0.0977
 6192W        W 9711   9.154   1.090  11.685  0.2692 -0.2939 -0.3446
 6193W        W 9712   1.399   8.890   3.294 -0.0348 -0.1152 -0.2857
 6194W        W 9713   7.411   4.882   0.671 -0.0487  0.1990  0.0615
 6195W        W 9714   3.037   4.877  10.681 -0.0580  0.0203 -0.1210
 6196W        W 9715   2.755   6.260   9.751  0.0032 -0.1026  0.1073
 6197W        W 9716   6.069   4.093   2.022 -0.1835  0.2404 -0.2880
 6198W        W 9717   8.733   3.176   4.690  0.0742  0.2767  0.4406
 6199W        W 9718   0.275   2.773   9.653  0.1139 -0.1745  0.0018
 6200W        W 9719   6.118   2.796  11.225  0.0143  0.1052 -0.1182
 6201W        W 9720   0.555   1.651   1.234 -0.2697 -0.2327 -0.1956
 6202W        W 9721   3.221   8.605   3.928  0.1429 -0.1476 -0.0093
 6203W        W 9722   2.675   3.137  11.229  0.1232 -0.1463 -0.0439
 6204W        W 9723   9.175   2.665   3.581 -0.2513  0.1561 -0.0692
 6205W        W 9724   9.143   1.451   8.160 -0.1024 -0.2487 -0.0890
 6206W        W 9725   8.058   1.658   2.079  0.0997  0.0631 -0.2058
 6207W        W 9726   6.534   4.494   8.174 -0.2350  0.1206 -0.0767
 6208W        W 9727   1.290   7.622   1.056 -0.1678  0.0503  0.2053
 6209W        W 9728   3.181   5.946   0.455  0.0777 -0.2576 -0.3396
 6210W        W 9729   1.311   5.062   3.821  0.1908  0.0566 -0.0065
 6211W        W 9730   8.893   1.207   3.735 -0.1807  0.1532 -0.1825
 6212W        W 9731   4.380   0.947  11.868  0.2492 -0.0553 -0.3661
 6213W        W 9732   6.871   5.230   1.132 -0.0524  0.0157  0.1477
 6214W        W 9733   6.961   2.276   0.881 -0.0723  0.1619  0.1337
 6215W        W 9734   1.305   5.776   0.609  0.0110 -0.4621  0.2025
 6216W        W 9735   4.465   2.467   9.153 -0.0420  0.1304  0.0940
 6217W        W 9736   3.635   7.380   9.071 -0.2358  0.1533  0.1151
 6218W        W 9737   7.952   9.087   2.459 -0.1019  0.1260 -0.0556
 6219W        W 9738   5.669   6.261   8.479 -0.1077  0.2596  0.3765
 6220W        W 9739   1.380   6.850  11.248  0.2857  0.2488  0.4644
 6221W        W 9740   3.059   0.597   8.922 -0.0323 -0.0458  0.2988
 6222W        W 9741   1.406   8.979   4.191 -0.0504 -0.1301 -0.0046
 6223W        W 9742   0.316   2.316   8.269 -0.2193 -0.0698 -0.0539
 6224W        W 9743   4.201   1.858  11.083  0.2927 -0.1968 -0.2723
 6225W        W 9744   5.925   5.484   4.672 -0.2947 -0.2007  0.0367
 6226W        W 9745   8.823   3.545   3.721  0.3153 -0.2621  0.1618
 6227W        W 9746   0.489   7.411   1.976  0.1286  0.2032 -0.4073
 6228W        W 9747   8.485   6.140  11.410  0.2821 -0.3143 -0.0398
 6229W        W 9748   4.131   7.584   1.499 -0.0827 -0.0238  0.0552
 6230W        W 9749   0.615   5.489   9.683 -0.0428 -0.2943  0.0710
 6231W        W 9750   8.827   8.310   8.352  0.0411 -0.0775 -0.2777
 6232W        W 9751   2.954   4.582  12.030  0.2261  0.0143 -0.0793
 6233W        W 9752   8.081   0.866   9.178 -0.0908  0.4512  0.0083
 6234W        W 9753   5.568   5.156   3.579  0.0258  0.3064  0.1716
 6235W        W 9754   6.944   3.634   9.627  0.0177  0.3400  0.0093
 6236W        W 9755   1.531   0.437   0.018 -0.2299 -0.0596  0.0464
 6237W        W 9756   9.569   0.818   9.350  0.1791  0.0751 -0.2139
 6238W        W 9757   3.026   1.369   3.281 -0.0421 -0.0225 -0.0634
 6239W        W 9758   8.321   4.565   0.361  0.0019 -0.0711 -0.2607
 6240W        W 9759   1.658   0.002   1.227  0.1041  0.0644  0.2353
 6241W        W 9760   1.140   5.052  11.484  0.4437  0.2807 -0.1521
 6242W        W 9761   4.327   5.170   9.834  0.1693  0.0915  0.2955
 6243W        W 9762   1.385   5.175  10.757 -0.0688 -0.1566  0.4232
 6244W        W 9763   4.798   0.514   1.044  0.0060  0.1671 -0.3218
 6245W        W 9764   2.833   1.178   2.307 -0.0031  0.0049  0.0650
 6246W        W 9765   6.813   1.714   3.380 -0.0237  0.2250 -0.0173
 6247W        W 9766   3.620   4.959   2.715  0.1908 -0.2892  0.2459
 6248W        W 9767   2.012   0.264   0.118 -0.1565  0.2167 -0.0195
 6249W        W 9768   6.588   2.777   2.298  0.0048  0.1729  0.0165
 6250W        W 9769   1.057   3.305   8.596  0.0712 -0.3563  0.1192
 6251W        W 9770   0.045   0.324   4.999 -0.1133  0.0446  0.0187
 6252W        W 9771   3.966   2.929   2.080 -0.3228  0.0828 -0.2017
 6253W        W 9772   7.723   8.445   9.800 -0.0937  0.6897 -0.0322
 6254W        W 9773   3.701   5.631  12.564 -0.2294 -0.0172  0.0717
 6255W        W 9774   3.998   0.873   9.043  0.1134  0.0423  0.0519
 6256W        W 9775   2.289   4.811   9.078  0.1243  0.1268 -0.1285
 6257W        W 9776   3.588   0.653   2.603 -0.1175  0.1822 -0.2894
 6258W        W 9777   7.902   8.532   4.528  0.2437 -0.2110 -0.0658
 6259W        W 9778   6.906   5.357   4.194  0.0840 -0.0974 -0.2511
 6260W        W 9779   2.431   0.671   3.382  0.1200  0.1221 -0.0348
 6261W        W 9780   6.715   1.471  11.975  0.0081 -0.1635 -0.1103
 6262W        W 9781   3.097   1.110   1.790  0.1134  0.0517 -0.0804
 6263W        W 9782   5.002   3.484   9.690  0.1819 -0.0123  0.0359
 6264W        W 9783   5.266   4.862   2.496 -0.2730  0.0445 -0.0851
 6265W        W 9784   4.500   5.615   1.817  0.0640 -0.0050  0.0335
 6266W        W 9785   7.880   7.544   0.503 -0.1834 -0.2753  0.2084
 6267W        W 9786   5.860   4.119   4.015  0.3128  0.0264 -0.6137
 6268W        W 9787   3.769   7.244  12.370 -0.3566 -0.1287 -0.1870
 6269W        W 9788   3.812   9.140  11.104 -0.0189  0.0011  0.1638
 6270W        W 9789   4.827   0.119   9.314 -0.2252  0.0416 -0.1727
 6271W        W 9790   0.576   6.868  10.678  0.0450  0.0165  0.0315
 6272W        W 9791   8.897   7.805   3.280 -0.4669  0.0848  0.2410
 6273W        W 9792   0.514   5.016   9.290 -0.0055 -0.2089 -0.3907
 6274W        W 9793   4.952   9.286  12.422 -0.4389  0.3432 -0.0810
 6275W        W 9794   0.166   0.822  10.340  0.3223  0.2068  0.2552
 6276W        W 9795   0.866   5.521  10.760 -0.3103  0.4491 -0.0669
 6277W        W 9796   5.147   0.488   0.662 -0.0673 -0.1688 -0.0621
 6278W        W 9797   3.284   3.319   2.699  0.1840  0.4034 -0.2159
 6279W        W 9798   8.237   7.231   1.686  0.0202 -0.0163 -0.0041
 6280W        W 9799   8.879   3.980   2.788  0.2488 -0.0476 -0.2376
 6281W        W 9800   6.973   9.632   1.718 -0.0262 -0.2086  0.0895
 6282W        W 9801   9.246   2.531  10.773 -0.2270 -0.1285 -0.0870
 6283W        W 9802   8.256   2.755   3.408  0.1795 -0.0220  0.0404
 6284W        W 9803   8.068   8.672   2.762  0.0441  0.0957 -0.1010
 6285W        W 9804   8.623   2.160  12.154 -0.0358  0.1638 -0.0103
 6286W        W 9805   0.886   9.010  10.607 -0.3502 -0.0486 -0.0569
 6287W        W 9806   2.799   0.837   0.877 -0.0217 -0.1645  0.1605
 6288W        W 9807   0.525   5.030   2.643  0.0222 -0.1874  0.1757
 6289W        W 9808   0.268   2.218  12.570 -0.0294 -0.0122  0.1666
 6290W        W 9809   7.076   8.734  10.505 -0.0625 -0.1613  0.1362
 6291W        W 9810   4.497   6.618   2.887 -0.0081 -0.0405  0.2188
 6292W        W 9811   1.810   2.287   4.036  0.0396 -0.0238  0.1890
 6293W        W 9812   6.084   5.391   1.593 -0.1741 -0.1477  0.1819
 6294W        W 9813   6.234   1.615   2.339  0.2035 -0.2740 -0.0632
 6295W        W 9814   8.584   6.124  10.359 -0.2540 -0.0112  0.3362
 6296W        W 9815   5.055   9.073   1.891  0.2766 -0.0988 -0.0377
 6297W        W 9816   1.372   0.489   3.160  0.0930 -0.0587  0.3829
 6298W        W 9817   3.464   9.518   1.039  0.3058  0.2037 -0.2095
 6299W        W 9818   2.825   4.436  11.478 -0.3587 -0.1943 -0.0832
 6300W        W 9819   7.183   2.786  12.128  0.2116 -0.1130 -0.1492
 6301W        W 9820   7.825   4.957   1.096 -0.0814 -0.0484 -0.0353
 6302W        W 9821   1.879   1.992   3.596 -0.3450 -0.0106 -0.0975
 6303W        W 9822   1.693   6.504  12.272  0.0399  0.1362  0.1507
 6304W        W 9823   1.584   8.671   1.731  0.0462  0.2365 -0.0528
 6305W        W 9824   1.678   9.053   9.785  0.2924 -0.3108  0.0373
 6306W        W 9825   8.534   9.071  11.587 -0.2370  0.0885 -0.0398
 6307W        W 9826   2.769   5.523   2.490 -0.1848 -0.1374 -0.0718
 6308W        W 9827   1.419   7.467  10.533 -0.2278 -0.1145  0.1793
 6309W        W 9828   2.404   8.400   9.653 -0.2224  0.0338 -0.1551
 6310W        W 9829   0.586   6.710  12.496  0.2012  0.1132 -0.0072
 6311W        W 9830   0.792   8.318   9.585  0.0204 -0.0425 -0.1153
 6312W        W 9831   2.264   8.450   0.240  0.1735 -0.3685 -0.0701
 6313W        W 9832   5.194   0.100  10.203 -0.0224 -0.1317 -0.1727
 6314W        W 9833   5.414   4.068   1.309  0.0036 -0.0059  0.1766
 6315W        W 9834   5.276   0.041   0.597 -0.1968 -0.0808  0.1518
 6316W        W 9835   7.616   9.066   2.847  0.3162  0.0549 -0.4155
 6317W        W 9836   4.727   8.221  10.122 -0.3318  0.2435 -0.0107
 6318W        W 9837   4.778   1.899   2.498 -0.1600  0.0429  0.0699
 6319W        W 9838   8.148   6.422  11.221  0.1252 -0.4726  0.1224
 6320W        W 9839   7.916   6.904   3.966  0.6674 -0.0551 -0.0872
 6321W        W 9840   8.392   4.453  12.426  0.0752  0.1525  0.2234
 6322W        W 9841   1.299   5.726   1.545  0.0015 -0.2947 -0.0473
 6323W        W 9842   3.693   2.451  11.535 -0.1222 -0.0797  0.2214
 6324W        W 9843   2.988   3.902   0.401 -0.0334  0.0874  0.0623
 6325W        W 9844   0.263   0.740   1.123 -0.2447  0.2346  0.0129
 6326W        W 9845   4.986   2.444   0.559  0.1792  0.2366  0.0473
 6327W        W 9846   0.341   5.299   1.807 -0.0127  0.3337 -0.0749
 6328W        W 9847   5.473   4.857  10.397 -0.1395  0.0120 -0.1062
 6329W        W 9848   3.376   2.181   8.211 -0.0479 -0.0649  0.2989
 6330W        W 9849   1.741   2.058  11.959 -0.2019  0.1009 -0.1520
 6331W        W 9850   5.392   8.102   8.640 -0.1476  0.3701 -0.0180
 6332W        W 9851   0.047   3.533  10.328  0.1109 -0.2463  0.1323
 6333W        W 9852   1.679   0.510   8.704  0.2708  0.1972  0.0848
 6334W        W 9853   1.167   3.158   1.146  0.0103  0.3652 -0.0865
 6335W        W 9854   3.638   6.776  12.469  0.2130 -0.0070  0.0454
 6336W        W 9855   9.349   4.441   9.446 -0.1694  0.0505  0.1289
 6337W        W 9856   7.850   0.677  10.665 -0.3129 -0.0400 -0.0782
 6338W        W 9857   2.691   1.843  10.048 -0.3559 -0.4393 -0.0340
 6339W        W 9858   0.253   5.691   5.138 -0.4270  0.0828  0.4648
 6340W        W 9859   9.356   3.951  11.738  0.0305  0.0995 -0.3093
 6341W        W 9860   3.635   3.126   9.217  0.0041 -0.2065 -0.3520
 6342W        W 9861   4.750   4.841   2.604 -0.1928 -0.0291  0.0821
 6343W        W 9862   0.149   2.643   0.132 -0.0386  0.0506  0.2619
 6344W        W 9863   0.819   2.964   9.218  0.1684 -0.0464  0.1528
 6345W        W 9864   6.877   6.431   4.207  0.1065 -0.0526  0.1718
 6346W        W 9865   9.211   1.462   3.270 -0.0196  0.0795 -0.1077
 6347W        W 9866   5.122   2.108   3.882 -0.2094  0.2161  0.1288
 6348W        W 9867   7.887   5.277   2.660  0.0958  0.2792 -0.2998
 6349W        W 9868   2.670   0.109   8.439 -0.2893 -0.0809  0.0757
 6350W        W 9869   9.628   6.948   3.918 -0.1480  0.0495  0.1673
 6351W        W 9870   1.712   6.234   4.049  0.0452  0.2093  0.0974
 6352W        W 9871   6.542   0.812   2.120 -0.0161 -0.1513 -0.2682
 6353W        W 9872   3.504   5.662  10.007 -0.0582 -0.1342 -0.2775
 6354W        W 9873   8.246   2.196   2.748  0.1401  0.0623  0.4293
 6355W        W 9874   1.079   3.823   3.141 -0.3916 -0.3035  0.0582
 6356W        W 9875   1.234   9.346   8.899  0.0023  0.0436  0.1103
 6357W        W 9876   5.920   3.248   1.386 -0.1229  0.0419 -0.0802
 6358W        W 9877   9.031   4.693   9.807 -0.1056 -0.2887 -0.0556
 6359W        W 9878   6.231   3.022   4.586  0.0303 -0.1312 -0.1778
 6360W        W 9879   2.466   1.619   2.295  0.1012 -0.3932 -0.1898
 6361W        W 9880   2.098   2.339   9.433 -0.2587  0.1924  0.2253
 6362W        W 9881   7.610   1.367   2.124 -0.2224  0.1047  0.2926
 6363W        W 9882   5.092   3.392   0.438 -0.3750 -0.0962 -0.2532
 6364W        W 9883   4.646   9.427  11.094 -0.3048  0.3161 -0.1852
 6365W        W 9884   8.365   5.427   4.533  0.1179  0.2304 -0.1307
 6366W        W 9885   8.902   5.099   2.277 -0.4081 -0.1761 -0.1926
 6367W        W 9886   9.543   9.627   8.786 -0.0290 -0.3829 -0.1536
 6368W        W 9887   0.669   3.699   3.320 -0.1459  0.0764 -0.0477
 6369W        W 9888   9.629   3.164   1.917  0.0376 -0.1534  0.1152
 6370W        W 9889   7.886   1.257   9.461 -0.1207 -0.0069 -0.1180
 6371W        W 9890   7.633   3.139  10.946 -0.1513 -0.2558 -0.0211
 6372W        W 9891   5.190   5.210  10.697 -0.1401 -0.2158 -0.0124
 6373W        W 9892   7.416   0.729   2.012  0.0067  0.2532 -0.1664
 6374W        W 9893   6.689   3.632   3.887  0.1533  0.1900 -0.0216
 6375W        W 9894   0.066   3.937  10.883  0.0752  0.1084  0.0434
 6376W        W 9895   7.372   7.066  10.781  0.2406 -0.0009 -0.1026
 6377W        W 9896   2.378   1.617  10.678  0.2964 -0.1880 -0.3233
 6378W        W 9897   1.705   4.557   0.050  0.2767 -0.1037 -0.1368
 6379W        W 9898   7.295   5.638  10.732  0.0615 -0.2774 -0.1910
 6380W        W 9899   5.251   8.105  10.798  0.1892  0.2515  0.3166
 6381W        W 9900   9.258   1.425   0.622  0.3243  0.2647 -0.0077
 6382W        W 9901   3.010   5.181   4.265 -0.0628 -0.0742  0.1705
 6383W        W 9902   2.439   0.896  10.392 -0.0523 -0.2931  0.0875
 6384W        W 9903   3.832   1.621   1.461 -0.3429 -0.2190 -0.0808
 6385W        W 9904   2.210   2.444   3.663 -0.1534  0.2548  0.2684
 6386W        W 9905   9.563   9.320   9.167 -0.0058  0.3139 -0.1931
 6387W        W 9906   6.571   5.816   1.755  0.3128 -0.0327 -0.3381
 6388W        W 9907   8.780   0.244  12.589  0.1161 -0.2064  0.1216
 6389W        W 9908   1.420   2.940   9.841  0.2247  0.2666  0.3613
 6390W        W 9909   7.344   8.541  10.118  0.4121 -0.0566  0.2906
 6391W        W 9910   8.940   2.968  11.457 -0.0517 -0.3901  0.2448
 6392W        W 9911   0.772   5.909   4.331  0.3642 -0.0667  0.2116
 6393W        W 9912   0.508   0.606   2.080  0.2017  0.0471 -0.0606
 6394W        W 9913   9.456   0.771  10.642 -0.2025 -0.1996  0.0439
 6395W        W 9914   2.983   1.144   0.466 -0.0645 -0.1590 -0.1349
 6396W        W 9915   3.498   4.019  10.427 -0.0862 -0.3971 -0.0196
 6397W        W 9916   8.979   0.062   8.682 -0.3544  0.1303  0.1909
 6398W        W 9917   9.193   0.788   9.727  0.0947 -0.2856  0.1462
 6399W        W 9918   8.847   5.961   3.417  0.0671  0.2031  0.2208
 6400W        W 9919   8.177   7.115   4.316  0.1055  0.4600  0.0176
 6401W        W 9920   6.120   5.163   0.778 -0.1263  0.0358 -0.0593
 6402W        W 9921   7.785   7.260  12.497 -0.3577 -0.2430 -0.2237
 6403W        W 9922   1.232   9.262   9.792  0.3174  0.1150 -0.0211
 6404W        W 9923   1.069   7.830  10.473 -0.2232 -0.0729  0.3318
 6405W        W 9924   0.074   7.690   1.806 -0.1680  0.0562  0.0135
 6406W        W 9925   0.880   6.187   2.841 -0.0276 -0.1478  0.0394
 6407W        W 9926   2.425   2.726  10.190  0.2879  0.2162 -0.0207
 6408W        W 9927   5.295   1.653   3.199  0.0276  0.0664  0.1342
 6409W        W 9928   9.412   1.662   9.698  0.1042  0.0371 -0.3526
 6410W        W 9929   7.733   5.872   0.926  0.2531 -0.2380  0.1962
 6411W        W 9930   3.366   2.172   2.548 -0.1817  0.1296  0.0446
 6412W        W 9931   7.386   8.145  11.186 -0.4106  0.1691  0.2175
 6413W        W 9932   0.290   1.262   2.817 -0.1155 -0.1129 -0.3448
 6414W        W 9933   4.846   1.866   1.444  0.2250 -0.0704  0.3210
 6415W        W 9934   3.788   0.896  10.092  0.1083 -0.0091  0.2203
 6416W        W 9935   3.833   5.512   4.125  0.1109 -0.0362 -0.4012
 6417W        W 9936   3.475   8.117  11.512  0.1141 -0.2233 -0.0649
 6418W        W 9937   0.206   0.151   2.283 -0.2274 -0.1649 -0.1361
 6419W        W 9938   8.189   4.747  11.520 -0.0299 -0.0782  0.0655
 6420W        W 9939   5.454   9.208   1.541  0.0661  0.1168  0.2271
 6421W        W 9940   7.490   8.320  11.662 -0.0308 -0.3719  0.0721
 6422W        W 9941   1.113   7.269  11.846 -0.1201 -0.1122  0.0369
 6423W        W 9942   5.861   6.743   1.773 -0.1807 -0.0155 -0.0444
 6424W        W 9943   1.147   1.532  10.874 -0.1974 -0.0021 -0.0123
 6425W        W 9944   6.837   6.152   0.049 -0.0164  0.3174  0.1149
 6426W        W 9945   5.997   6.148  11.006  0.1469  0.0414  0.0574
 6427W        W 9946   0.459   5.017   1.010  0.0107  0.1745 -0.2359
 6428W        W 9947   5.247   0.344   1.124  0.0589 -0.2370  0.2262
 6429W        W 9948   6.039   2.680   0.194 -0.1960  0.1850  0.0295
 6430W        W 9949   1.417   5.223   9.023  0.1356  0.0179  0.0099
 6431W        W 9950   4.508   7.045   9.189  0.2507 -0.0475  0.3309
 6432W        W 9951   1.663   3.265  10.906 -0.2188 -0.0986 -0.1740
 6433W        W 9952   1.469   6.286   3.622  0.2676  0.3387  0.1104
 6434W        W 9953   0.347   7.048   4.572  0.2928  0.0049  0.0824
 6435W        W 9954   2.392   9.097   2.377  0.0874  0.1687 -0.2107
 6436W        W 9955   3.420   4.575   8.992  0.1127 -0.1547 -0.3750
 6437W        W 9956   2.613   6.098   3.226 -0.0349  0.0241 -0.3890
 6438W        W 9957   0.025   2.056   9.328  0.3606  0.3253  0.4615
 6439W        W 9958   5.017   2.382   1.566  0.2931 -0.0602 -0.0197
 6440W        W 9959   0.921   2.848  10.649  0.1432 -0.0167  0.0020
 6441W        W 9960   7.078   0.890   1.421  0.0083  0.0804  0.2590
 6442W        W 9961   4.126   1.513  10.709 -0.0437  0.0757 -0.1112
 6443W        W 9962   5.455   3.281   2.704  0.0714  0.1332  0.0505
 6444W        W 9963   0.112   1.240  11.845  0.2507 -0.0093  0.0549
 6445W        W 9964   3.263   2.164   0.204 -0.2666 -0.2050  0.2253
 6446W        W 9965   6.035   0.929   9.698 -0.1991 -0.0200 -0.1452
 6447W        W 9966   4.578   6.003   2.776  0.4542 -0.0035 -0.0093
 6448W        W 9967   5.695   1.783  11.533  0.3009 -0.0124  0.1408
 6449W        W 9968   6.103   1.217   0.069  0.0766 -0.0188  0.2712
 6450W        W 9969   8.674   4.848  11.172 -0.1855  0.0302  0.0375
 6451W        W 9970   2.306   3.854   8.182 -0.0140 -0.0849 -0.2795
 6452W        W 9971   3.493   1.222  11.282  0.0474  0.0988 -0.0537
 6453W        W 9972   5.651   6.942   2.713 -0.1620 -0.0720  0.3084
 6454W        W 9973   8.369   3.509   1.572  0.2946  0.1196  0.3480
 6455W        W 9974   1.603   8.570   0.050 -0.4694  0.3577  0.1748
 6456W        W 9975   6.519   4.917   1.000  0.1395  0.3431 -0.2666
 6457W        W 9976   0.160   0.792   2.909  0.1296  0.4523 -0.1172
 6458W        W 9977   4.419   5.173   1.458  0.0577  0.0742  0.0141
 6459W        W 9978   0.592   7.900   0.225  0.2130  0.2935  0.1605
 6460W        W 9979   7.704   3.233   4.562 -0.1338 -0.1729  0.1278
 6461W        W 9980   4.570   5.703  10.061 -0.2202 -0.2344 -0.1345
 6462W        W 9981   8.374   8.089   8.645 -0.0799  0.1668 -0.2485
 6463W        W 9982   8.666   3.700   0.334  0.1994 -0.0166 -0.0735
 6464W        W 9983   7.932   3.546   8.898 -0.2940 -0.1267 -0.0895
 6465W        W 9984   6.934   0.547   2.182 -0.0550 -0.2801  0.3042
 6466W        W 9985   1.403   4.795   9.915 -0.2003  0.0361  0.0648
 6467W        W 9986   1.886   0.621   4.296 -0.0955  0.4427  0.0677
 6468W        W 9987   5.401   5.606   3.748  0.0695  0.1390  0.0555
 6469W        W 9988   7.584   6.673   9.334  0.1624  0.4010  0.0983
 6470W        W 9989   7.698   2.588   3.656  0.0237  0.3423  0.1745
 6471W        W 9990   2.455   3.581   8.597  0.5829  0.1099 -0.3027
 6472W        W 9991   4.818   3.638   9.243 -0.2933 -0.1214  0.0297
 6473W        W 9992   0.694   1.998  11.637 -0.1541 -0.2438  0.0543
 6474W        W 9993   9.655   2.894  10.859  0.1934  0.2315 -0.1558
 6475W        W 9994   5.164   6.271   3.573 -0.3181 -0.0889  0.1451
 6476W        W 9995   0.129   6.334   2.694  0.0878  0.0640  0.1178
 6477W        W 9996   5.573   6.375   1.443  0.1812 -0.1770  0.1596
 6478W        W 9997   7.469   5.279   9.875 -0.1360 -0.0000 -0.1418
 6479W        W 9998   9.141   6.066   0.585 -0.0288  0.1380  0.2455
 6480W        W 9999   3.985   0.398   8.242 -0.1594  0.1432 -0.1104
 6481W        W10000   3.535   2.190   1.077 -0.0937  0.2259  0.1239
 6482W        W10001   1.500   4.668   1.844 -0.0002 -0.1779  0.1687
 6483W        W10002   3.770   3.591   1.187  0.2286  0.1838 -0.1481
 6484W        W10003   5.412   7.817   1.660 -0.2286 -0.0659  0.0510
 6485W        W10004   1.850   8.838  10.595 -0.0066  0.1838  0.0056
 6486W        W10005   4.763   2.559  10.332 -0.1547  0.0276 -0.3202
 6487W        W10006   6.588   4.510   9.968 -0.1628  0.0822 -0.2986
 6488W        W10007   3.369   3.794   0.879 -0.0363 -0.0742  0.1220
 6489W        W10008   0.535   8.758  11.266  0.0541 -0.0619  0.1204
 6490W        W10009   0.907   3.875   1.663 -0.0106 -0.0717  0.3245
 6491W        W10010   9.257   8.325   5.052  0.0891  0.0232 -0.0365
 6492W        W10011   7.511   1.512   2.626  0.0472 -0.2333 -0.0210
 6493W        W10012   8.948   4.641   3.377  0.3528  0.0876  0.0561
 6494W        W10013   2.206   3.854  10.330  0.1323 -0.2341  0.1430
 6495W        W10014   3.193   0.466  11.970  0.1035 -0.1573  0.1102
 6496W        W10015   2.189   5.750  11.986 -0.1171 -0.1085  0.3123
 6497W        W10016   8.658   2.972  10.749 -0.0462 -0.0536  0.0614
 6498W        W10017   1.183   2.425   1.658 -0.4292  0.0553 -0.0856
 6499W        W10018   1.412   2.901  10.449  0.1515 -0.1175  0.0498
 6500W        W10019   3.847   5.067   8.798 -0.1544 -0.0694  0.1335
 6501W        W10020   0.807   0.441  10.014  0.1394 -0.3069  0.1591
 6502W        W10021   0.806   6.871   1.168  0.2162 -0.0674  0.0570
 6503W        W10022   0.474   9.205  10.396  0.0330 -0.1087  0.2919
 6504W        W10023   6.328   4.002   3.787  0.1182 -0.1078 -0.1394
 6505W        W10024   7.901   1.958   2.504  0.0427 -0.0409  0.3901
 6506W        W10025   4.384   7.025  11.569 -0.1463 -0.1130  0.0893
 6507W        W10026   6.713   1.018  12.111  0.2234  0.3457  0.1161
 6508W        W10027   3.117   9.417  10.734 -0.0953 -0.1815  0.0914
 6509W        W10028   4.956   6.338  11.758  0.2495  0.1475  0.1534
 6510W        W10029   6.925   6.723  12.247  0.2073  0.2985 -0.1118
 6511W        W10030   1.014   4.851   5.243  0.2179 -0.0083 -0.0276
 6512W        W10031   1.511   6.931   2.714  0.0304 -0.5717  0.0359
 6513W        W10032   7.241   2.987   4.422 -0.0567  0.2489  0.2509
 6514W        W10033   1.704   3.646   1.770 -0.2440 -0.0289  0.0366
 6515W        W10034   0.093   4.139   2.038  0.1405 -0.4430 -0.1087
 6516W        W10035   5.895   7.264   9.789  0.0325 -0.3441 -0.0501
 6517W        W10036   8.557   8.493   1.326 -0.1494  0.3568 -0.3094
 6518W        W10037   6.513   9.664   2.952  0.1847  0.2088  0.0259
 6519W        W10038   6.393   7.366   8.852  0.2382  0.2444 -0.3660
 6520W        W10039   8.375   7.629  11.787  0.2746 -0.1606 -0.0948
 6521W        W10040   0.983   4.446  11.834 -0.0281  0.3111  0.1990
 6522W        W10041   9.045   9.416   9.077  0.0254 -0.0525 -0.1371
 6523W        W10042   4.496   5.424  11.540 -0.0385 -0.1412 -0.1662
 6524W        W10043   2.844   7.172   8.915 -0.1922  0.2257  0.1580
 6525W        W10044   0.553   1.218   1.625 -0.0080 -0.0610  0.3246
 6526W        W10045   8.288   6.952   9.876  0.1300 -0.0807 -0.0275
 6527W        W10046   9.065   3.367  11.677 -0.2153  0.1974  0.0185
 6528W        W10047   1.962   0.816   2.479  0.0866  0.1005  0.0189
 6529W        W10048   9.306   9.049  10.571  0.0128  0.0540  0.0073
 6530W        W10049   6.676   6.721   3.810 -0.0038 -0.0499 -0.2434
 6531W        W10050   1.418   0.025  10.903 -0.0106  0.2218 -0.2757
 6532W        W10051   0.013   7.587   3.981 -0.2897 -0.2355  0.1024
 6533W        W10052   1.132   3.331   3.045  0.0324 -0.0683 -0.0563
 6534W        W10053   3.239   4.038   1.504 -0.4424 -0.1670 -0.0130
 6535W        W10054   1.856   0.149   5.136  0.2306 -0.0420  0.1421
 6536W        W10055   8.849   3.496  12.492  0.3082  0.3048 -0.0407
 6537W        W10056   7.132   8.526  12.255 -0.2518  0.0138  0.1083
 6538W        W10057   1.634   8.682  12.089 -0.2856 -0.1185 -0.1970
 6539W        W10058   5.960   1.373   1.563 -0.3800  0.1304  0.1537
 6540W        W10059   0.647   5.423   2.986  0.2079  0.1818  0.0282
 6541W        W10060   4.382   2.039   2.229 -0.0832  0.0309 -0.1745
 6542W        W10061   1.446   0.613   4.138 -0.2951  0.1170 -0.1367
 6543W        W10062   1.047   7.937   3.887  0.1406  0.0452  0.1760
 6544W        W10063   1.637   6.145   8.497  0.1041  0.3430  0.0204
 6545W        W10064   2.279   2.251   4.548  0.0947  0.0696  0.3294
 6546W        W10065   4.936   5.465   1.405  0.0149  0.0599  0.3558
 6547W        W10066   9.543   3.759   3.054  0.5167 -0.0447 -0.2245
 6548W        W10067   9.274   1.269   9.492  0.0142  0.0825  0.0384
 6549W        W10068   8.983   6.849   1.821  0.0778 -0.0924  0.2937
 6550W        W10069   2.079   6.523   3.740 -0.3657 -0.1108  0.0002
 6551W        W10070   8.922   1.560  11.561 -0.0796 -0.3480  0.0356
 6552W        W10071   2.452   6.985   9.194 -0.0633  0.1121  0.0316
 6553W        W10072   5.753   7.473  11.228  0.0958  0.0669  0.0390
 6554W        W10073   4.343   5.706   8.706 -0.0958 -0.0582  0.0150
 6555W        W10074   9.437   0.335   9.613  0.0610 -0.2368  0.2331
 6556W        W10075   3.424   1.384  11.881  0.0706 -0.0298 -0.3425
 6557W        W10076   4.359   1.096   1.974 -0.1556  0.0811  0.0856
 6558W        W10077   7.062   2.315  12.122 -0.0756  0.2310  0.0483
 6559W        W10078   6.496   0.426   0.228 -0.0397 -0.1769  0.1477
 6560W        W10079   3.852   8.433  10.461 -0.3341 -0.2367  0.3704
 6561W        W10080   8.325   4.287   4.047  0.1709  0.1718 -0.1704
 6562W        W10081   0.435   4.936  10.525 -0.1666  0.3162  0.1719
 6563W        W10082   3.092   6.099   3.433 -0.0338  0.1055 -0.2292
 6564W        W10083   3.253   8.359  11.047 -0.2522  0.0571 -0.0076
 6565W        W10084   3.552   4.821   1.151  0.0544 -0.0148 -0.1940
 6566W        W10085   5.260   2.064   0.697  0.0945 -0.0958  0.2896
 6567W        W10086   5.494   9.084   0.512  0.1148 -0.1829 -0.1487
 6568W        W10087   8.272   1.551   1.603  0.0029  0.0707  0.0040
 6569W        W10088   6.922   4.620   2.323 -0.1583 -0.2602 -0.0023
 6570W        W10089   0.632   1.863  10.099 -0.1289 -0.1184  0.2853
 6571W        W10090   4.573   5.068   3.059 -0.2682 -0.2718 -0.1956
 6572W        W10091   1.235   2.766  11.173  0.0149  0.0697  0.0353
 6573W        W10092   2.221   8.659   3.041 -0.0368 -0.2099 -0.1012
 6574W        W10093   8.102   7.353   2.939  0.0334 -0.2115 -0.2661
 6575W        W10094   2.593   3.455   5.037  0.0284 -0.1708 -0.6791
 6576W        W10095   2.096   2.473  10.453 -0.0808 -0.1289  0.0453
 6577W        W10096   1.736   8.465   4.240  0.1290 -0.0726  0.1915
 6578W        W10097   3.930   0.360   8.876 -0.0566  0.0704 -0.0559
 6579W        W10098   8.763   8.718   0.816  0.1585 -0.5484 -0.2100
 6580W        W10099   0.781   3.218   1.495 -0.1529  0.0748  0.2072
 6581W        W10100   5.048   6.822   0.236 -0.3057 -0.3383 -0.0066
 6582W        W10101   3.807   3.968   2.304 -0.1014 -0.2090 -0.2454
 6583W        W10102   4.210   8.057   1.721  0.1494  0.0514 -0.0901
 6584W        W10103   1.223   5.320   0.786 -0.0955  0.0482  0.1196
 6585W        W10104   1.005   0.311  10.495  0.0158  0.0807 -0.0377
 6586W        W10105   6.591   8.017   3.677 -0.1104  0.3716  0.2378
 6587W        W10106   8.824   5.260  10.629  0.2987 -0.1874  0.1495
 6588W        W10107   0.310   2.286   9.694 -0.1240 -0.1756  0.1242
 6589W        W10108   5.931   4.319   8.470 -0.3924  0.0987 -0.5884
 6590W        W10109   8.860   3.033   0.209  0.0228  0.0888  0.0569
 6591W        W10110   4.808   7.423   0.170 -0.5524  0.0902  0.1221
 6592W        W10111   1.964   8.956  12.309 -0.0919 -0.2222 -0.2799
 6593W        W10112   3.722   6.024   1.781  0.0881 -0.0285 -0.3450
 6594W        W10113   0.303   4.012   3.042  0.3816 -0.2170  0.2393
 6595W        W10114   5.769   8.196   0.443 -0.0063 -0.0769  0.0628
 6596W        W10115   2.694   9.112   4.628 -0.1389  0.1757  0.1025
 6597W        W10116   9.506   3.057   3.382 -0.2717 -0.0439  0.2036
 6598W        W10117   6.205   8.405   0.432 -0.1411 -0.4211 -0.0121
 6599W        W10118   3.153   6.614   1.123  0.0419 -0.0335  0.1587
 6600W        W10119   9.659   7.288  12.588 -0.0700 -0.2573 -0.0355
 6601W        W10120   1.176   9.618   4.525 -0.3334  0.0046  0.0759
 6602W        W10121   6.180   0.145   0.558 -0.1201 -0.0481 -0.3263
 6603W        W10122   7.411   6.121   2.876  0.1706  0.2936  0.0341
 6604W        W10123   6.945   3.194   2.834 -0.1876  0.0557 -0.0118
 6605W        W10124   8.955   9.184   0.805 -0.0062  0.0010 -0.1628
 6606W        W10125   6.810   6.254   0.843  0.1202  0.2693 -0.0942
 6607W        W10126   7.503   0.873  10.363  0.0609 -0.0266 -0.4255
 6608W        W10127   1.766   3.875   2.536  0.0093 -0.3296 -0.0083
 6609W        W10128   4.817   1.876  12.007  0.3581 -0.2151  0.5368
 6610W        W10129   4.629   0.997   2.830 -0.0192 -0.2555 -0.0172
 6611W        W10130   3.668   2.714   3.301 -0.1558 -0.1101 -0.2816
 6612W        W10131   2.660   2.209   0.709  0.0521 -0.0387 -0.3352
 6613W        W10132   5.049   0.406  10.536  0.0228 -0.2028 -0.0785
 6614W        W10133   9.400   3.204   1.105  0.2197 -0.0180 -0.1849
 6615W        W10134   1.768   5.573   1.506 -0.2367  0.1007  0.2145
 6616W        W10135   3.743   7.519   3.603 -0.2467  0.1306 -0.0010
 6617W        W10136   0.387   7.769   2.311 -0.1837  0.0251 -0.1106
 6618W        W10137   8.242   5.079   0.738 -0.4080 -0.2042  0.2489
 6619W        W10138   8.926   5.463   3.646  0.1608 -0.0089 -0.2102
 6620W        W10139   9.156   4.316   3.671  0.0791  0.1584 -0.1425
 6621W        W10140   8.620   2.153   9.667 -0.0408 -0.2908  0.1617
 6622W        W10141   0.188   3.201   0.953 -0.3017  0.1230  0.2700
 6623W        W10142   2.516   5.361   1.207  0.1547 -0.2295 -0.0066
 6624W        W10143   8.600   8.097  11.879 -0.1814  0.3798  0.0931
 6625W        W10144   3.274   7.613   3.598  0.1314  0.1135 -0.2412
 6626W        W10145   7.503   1.093   3.105 -0.1786 -0.0599  0.1208
 6627W        W10146   3.011   9.223   0.827  0.0163  0.0928  0.1866
 6628W        W10147   3.535   8.318  10.043 -0.1830 -0.1959 -0.0230
 6629W        W10148   7.967   2.180  10.881 -0.1534  0.0136  0.2853
 6630W        W10149   3.607   6.812   2.147  0.0071  0.2058 -0.3310
 6631W        W10150   0.430   4.046   4.212  0.0822 -0.1271 -0.1293
 6632W        W10151   5.128   4.409   3.268 -0.2236  0.3257 -0.3301
 6633W        W10152   2.023   8.826  10.038  0.0410 -0.0230 -0.2219
 6634W        W10153   1.331   9.202  11.291 -0.2141  0.0713  0.0154
 6635W        W10154   0.467   7.378  10.834  0.1699  0.1088 -0.2530
 6636W        W10155   2.703   7.297   3.933 -0.0480 -0.2014  0.2441
 6637W        W10156   2.176   6.765   0.382 -0.1623  0.3594  0.3858
 6638W        W10157   8.919   2.571   1.472 -0.0486  0.1286  0.1646
 6639W        W10158   0.246   4.535   3.293 -0.2629 -0.1792 -0.0754
 6640W        W10159   7.221   8.102   8.809  0.0459  0.0652  0.0506
 6641W        W10160   3.404   4.355  12.167  0.3079  0.2748  0.3455
 6642W        W10161   7.634   2.366  11.244 -0.2162  0.0344  0.2568
 6643W        W10162   1.570   8.387  10.693 -0.1195 -0.0167 -0.3063
 6644W        W10163   4.007   5.145   4.678  0.0557  0.1680 -0.0978
 6645W        W10164   3.439   5.351  11.224  0.1875 -0.4092  0.2620
 6646W        W10165   0.970   6.040   4.816 -0.1647  0.1757 -0.0035
 6647W        W10166   2.540   7.800   1.453 -0.2166  0.0571  0.2417
 6648W        W10167   8.810   4.856   1.790  0.1169 -0.2372  0.0592
 6649W        W10168   7.698   1.944   0.058 -0.4279  0.0389  0.0122
 6650W        W10169   8.150   9.600  11.020  0.3174 -0.0173 -0.0623
 6651W        W10170   6.537   2.542  11.277 -0.1738 -0.2471 -0.2087
 6652W        W10171   3.729   0.682  10.619 -0.2672  0.0847  0.1352
 6653W        W10172   1.181   6.448   4.057  0.2261  0.0741  0.0407
 6654W        W10173   0.390   1.755  12.392  0.4584  0.1408  0.2754
 6655W        W10174   2.471   0.033   0.028 -0.1334 -0.1715  0.0063
 6656W        W10175   6.577   1.603   2.886  0.1002 -0.1780  0.0437
 6657W        W10176   5.193   2.725   2.897 -0.1318 -0.4383 -0.4426
 6658W        W10177   0.406   1.883   0.351 -0.1175 -0.3869  0.0387
 6659W        W10178   3.428   7.197   1.870 -0.0258  0.1199  0.0790
 6660W        W10179   8.328   4.447  10.972  0.0715 -0.0660 -0.1817
 6661W        W10180   4.452   3.923  11.548 -0.1090 -0.2528 -0.0217
 6662W        W10181   8.385   0.762  10.854 -0.3406  0.2861  0.0339
 6663W        W10182   8.478   2.859  11.264  0.0375 -0.1168 -0.0460
 6664W        W10183   8.609   4.346  10.578 -0.3034  0.1458  0.0933
 6665W        W10184   8.917   1.527   0.238  0.2590  0.1369 -0.1959
 6666W        W10185   8.756   2.723   3.839 -0.1256  0.1720 -0.2982
 6667W        W10186   0.837   7.935   3.218  0.0832 -0.2270 -0.1643
 6668W        W10187   3.609   3.678   1.706 -0.0999 -0.0288 -0.2852
 6669W        W10188   3.378   3.315   0.886 -0.1579  0.0017  0.2303
 6670W        W10189   0.948   3.708   2.369  0.2236  0.2105 -0.1328
 6671W        W10190   7.946   0.981   2.107 -0.0927 -0.0090 -0.1769
 6672W        W10191   7.534   5.853   1.405 -0.1880 -0.0646  0.0592
 6673W        W10192   8.551   0.945   2.369  0.1246  0.1499  0.1057
 6674W        W10193   7.576   6.837   0.184 -0.1418 -0.1816 -0.4049
 6675W        W10194   8.563   9.137   0.485 -0.1736  0.4062 -0.2958
 6676W        W10195   3.620   7.267   9.989 -0.2849  0.4562  0.0305
 6677W        W10196   4.147   5.747   0.238 -0.0881  0.2495 -0.1939
 6678W        W10197   8.884   6.078   2.206 -0.4530  0.3213  0.1132
 6679W        W10198   4.149   6.751   8.737 -0.0185 -0.0571  0.3511
 6680W        W10199   5.205   7.630   0.421  0.2516  0.0186  0.5769
 6681W        W10200   4.022   8.042  10.110  0.1028 -0.1004  0.1426
 6682W        W10201   7.546   5.342   2.287 -0.1783 -0.2964 -0.0987
 6683W        W10202   3.537   0.023   9.904 -0.5281 -0.1602 -0.1168
 6684W        W10203   6.497   5.790   0.057 -0.0230  0.2779  0.1447
 6685W        W10204   0.527   6.208   1.807  0.0620 -0.0418  0.2689
 6686W        W10205   4.572   5.871   2.246 -0.1283  0.2783 -0.6346
 6687W        W10206   7.900   0.259   1.412 -0.0733 -0.0457  0.0726
 6688W        W10207   0.171   6.258   3.310  0.1939 -0.0263  0.2864
 6689W        W10208   5.044   8.656  10.100 -0.1757 -0.0317 -0.3536
 6690W        W10209   4.905   1.313  10.393  0.2334 -0.1284  0.1246
 6691W        W10210   8.873   4.136   0.238 -0.1473 -0.3671 -0.1664
 6692W        W10211   6.485   3.663   9.399 -0.1236  0.2519 -0.2664
 6693W        W10212   4.811   5.724   0.986 -0.1717 -0.2943  0.0594
 6694W        W10213   1.020   4.966  11.963  0.0734 -0.1060 -0.1392
 6695W        W10214   2.238   1.208   3.243 -0.3111 -0.2191  0.1898
 6696W        W10215   0.694   7.639  12.002 -0.0633 -0.2990  0.0274
 6697W        W10216   0.279   3.765   4.625 -0.1134  0.2345  0.2671
 6698W        W10217   5.488   2.528  11.967 -0.3109  0.3350  0.0892
 6699W        W10218   9.326   7.146   8.877  0.2049 -0.1372 -0.2204
 6700W        W10219   6.841   4.746   3.947  0.0396  0.0864  0.0659
 6701W        W10220   8.143   0.041   3.566 -0.0316 -0.3812  0.1021
 6702W        W10221   9.552   1.839   0.214 -0.0812 -0.1007 -0.0579
 6703W        W10222   8.474   7.853  12.444  0.2091  0.1553 -0.1504
 6704W        W10223   0.308   9.106  11.534  0.1450 -0.0491 -0.0921
 6705ION    NA+10224   7.310   4.636   1.867  0.0913 -0.0437  0.0047
 6706ION    NA+10225   2.992   7.658   4.625  0.1095 -0.0132 -0.0104
 6707ION    NA+10226   6.814   4.397   4.810 -0.0490  0.1100 -0.0786
 6708ION    NA+10227   6.859   3.383  11.442 -0.2150  0.0151 -0.4048
 6709ION    NA+10228   4.954   7.333   2.160  0.0408  0.3991  0.1481
 6710ION    NA+10229   5.860   3.796   8.432  0.0111  0.3151 -0.1947
 6711ION    NA+10230   3.203   8.339   3.289 -0.4511  0.0318  0.3552
 6712ION    NA+10231   2.574   1.931   0.345 -0.3533 -0.2745 -0.2803
 6713ION    NA+10232   8.567   1.422   1.074  0.0638  0.1772  0.1059
 6714ION    NA+10233   5.605   0.725  11.067  0.1183 -0.5130  0.0473
 6715ION    NA+10234   2.086   4.396  12.163 -0.0696  0.2021 -0.0109
 6716ION    NA+10235   0.036   3.900   1.199 -0.0467  0.1811 -0.0102
 6717ION    NA+10236   5.413   5.653   2.906  0.0610  0.0376  0.0177
 6718ION    NA+10237   6.309   8.510   8.919 -0.0821  0.0518  0.0016
 6719ION    NA+10238   1.104   8.859   2.306  0.2533  0.2357 -0.1716
 6720ION    NA+10239   4.201   2.835  10.808 -0.0585  0.3779 -0.4283
 6721ION    NA+10240   9.655   3.053   0.504 -0.0517  0.1280 -0.0719
 6722ION    NA+10241   3.005   5.335   8.537 -0.1322 -0.2822 -0.2030
 6723ION    NA+10242   1.430   8.034   4.192  0.1185 -0.1260 -0.1648
 6724ION    NA+10243   1.709   4.957   1.498  0.0098 -0.1647 -0.0970
 6725ION    NA+10244   8.652   4.392  11.988 -0.2389 -0.0797  0.2573
 6726ION    NA+10245   6.511   3.927   0.305  0.1249  0.0419  0.1586
 6727ION    NA+10246   7.411   4.686  10.530  0.1646  0.4151 -0.2181
 6728ION    NA+10247   2.215   0.275   3.122 -0.2822 -0.1451 -0.0940
 6729ION    NA+10248   5.327   2.147  11.095  0.2764 -0.3953 -0.1864
 6730ION    NA+10249   3.399   0.437   1.107 -0.0777 -0.0849  0.2647
 6731ION    NA+10250   1.489   7.354   3.053 -0.0993  0.0348  0.0020
 6732ION    NA+10251   5.227   1.660   2.631 -0.1960 -0.1549  0.1942
 6733ION    NA+10252   8.401   6.517   0.768 -0.1972 -0.0571 -0.0376
 6734ION    NA+10253   0.886   1.943   0.092 -0.0659  0.0676  0.0289
 6735ION    NA+10254   4.730   8.250   2.771 -0.2002 -0.1298 -0.0532
 6736ION    NA+10255   1.198   2.244  12.453 -0.0109 -0.0570  0.2530
 6737ION    NA+10256   3.314   2.912  10.623 -0.2636 -0.1875  0.3053
 6738ION    NA+10257   1.594   2.452  10.684 -0.0499  0.1447 -0.0580
 6739ION    NA+10258   4.576   4.150  10.734  0.0017  0.0246  0.0309
 6740ION    NA+10259   4.679   4.910   8.172  0.0998  0.1984  0.1098
 6741ION    NA+10260   5.684   2.013   3.323 -0.0000  0.3481 -0.3929
 6742ION    NA+10261   0.774   1.476   9.787  0.3124 -0.1741  0.1163
 6743ION    NA+10262   9.545   6.002   2.956 -0.1903 -0.1989  0.0083
 6744ION    NA+10263   4.144   3.016   3.151 -0.4517  0.2347  0.2233
 6745ION    NA+10264   7.254   7.750  11.901 -0.0474 -0.1691 -0.2172
 6746ION    NA+10265   6.098   0.527  10.005 -0.1118  0.0536  0.0651
 6747ION    NA+10266   6.793   2.818   9.033 -0.0122 -0.1590 -0.4190
 6748ION    NA+10267   2.754   7.771   2.774 -0.1978 -0.0518  0.0981
 6749ION    NA+10268   2.737   2.037   8.125 -0.0730 -0.1595  0.2389
 6750ION    NA+10269   2.591   6.538   1.227  0.3426  0.2767  0.1636
 6751ION    NA+10270   0.606   9.110   2.969  0.2738 -0.2205 -0.1711
 6752ION    NA+10271   8.238   0.224   9.124  0.0782 -0.2762  0.2753
 6753ION    NA+10272   6.265   1.969  11.705 -0.0838 -0.2432 -0.0992
 6754ION    NA+10273   4.263   3.196  11.992 -0.0487 -0.3129  0.1550
 6755ION    NA+10274   0.775   4.945   3.294  0.1269  0.0097  0.0220
 6756ION    NA+10275   9.388   2.538   4.639 -0.1922 -0.2749  0.0732
 6757ION    NA+10276   5.387   7.013   4.044 -0.1815 -0.1005 -0.0763
 6758ION    NA+10277   1.143   5.266   8.606 -0.0436 -0.1614  0.1125
 6759ION    NA+10278   0.655   2.508   4.602 -0.0988 -0.1708 -0.0717
 6760ION    NA+10279   8.772   1.025   4.244 -0.2636  0.1790 -0.0327
 6761ION    NA+10280   2.133   4.262   1.058  0.0841 -0.1408 -0.0194
 6762ION    NA+10281   7.200   1.605   3.081 -0.0689  0.2854 -0.0093
 6763ION    NA+10282   0.083   3.625   2.176  0.3630  0.0085 -0.0087
 6764ION    NA+10283   5.991   4.985   3.259  0.1064  0.1155  0.0033
 6765ION    NA+10284   8.718   8.673   4.340 -0.1188 -0.1623 -0.1550
 6766ION    NA+10285   0.794   7.446   3.753 -0.0806  0.1929  0.0521
 6767ION    NA+10286   2.469   2.594   9.594  0.1694 -0.0625 -0.0072
 6768ION    NA+10287   6.347   6.537   8.306 -0.0408 -0.1850  0.1121
 6769ION    NA+10288   1.737   0.096  10.294  0.0227 -0.3904 -0.0464
 6770ION    NA+10289   9.056   5.169   8.798  0.1547  0.1959  0.1707
 6771ION    NA+10290   2.382   8.600   2.121  0.2324  0.1599  0.4104
 6772ION    NA+10291   5.457   5.728   4.747  0.1276 -0.0907  0.1760
 6773ION    NA+10292   8.215   2.019  12.482  0.1913 -0.0807 -0.2050
 6774ION    NA+10293   6.444   1.149  11.652  0.2158  0.0304 -0.2914
 6775ION    NA+10294   0.213   7.305   2.993  0.1923  0.3153 -0.1967
 6776ION    CL-10295   5.768   0.871  10.183  0.1026 -0.3150 -0.3196
 6777ION    CL-10296   5.701   8.017   2.645 -0.1037  0.0707 -0.2413
 6778ION    CL-10297   1.073   6.192   9.600 -0.1057 -0.0947  0.1375
 6779ION    CL-10298   8.581   1.893   1.271 -0.0651  0.2390 -0.0422
 6780ION    CL-10299   2.215   0.855   2.903  0.5845 -0.2980  0.1044
 6781ION    CL-10300   1.892   9.077   3.820  0.0478 -0.3013  0.0439
 6782ION    CL-10301   4.736   2.753  10.803 -0.3377 -0.4764  0.0566
 6783ION    CL-10302   0.090   5.750   3.428  0.3763  0.0022 -0.1269
 6784ION    CL-10303   2.990   7.797   3.182 -0.1279  0.0873  0.1497
 6785ION    CL-10304   2.257   2.714   9.129 -0.0954 -0.3764 -0.2089
 6786ION    CL-10305   1.906   4.390   9.336  0.1932 -0.0287  0.0380
 6787ION    CL-10306   2.103   2.120   0.203 -0.1837  0.1709 -0.0613
 6788ION    CL-10307   0.379   5.797   2.654  0.2094 -0.0177  0.2193
 6789ION    CL-10308   1.262   8.422   0.750  0.1566 -0.0025 -0.1064
 6790ION    CL-10309   5.981   5.310   2.902 -0.0944  0.0312 -0.0697
 6791ION    CL-10310   6.457   1.769  10.433  0.0341 -0.3084  0.1151
 6792ION    CL-10311   6.650   4.421   4.317  0.1315 -0.0452  0.0140
 6793ION    CL-10312   6.800   4.453   9.026  0.1061 -0.3097 -0.1849
 6794ION    CL-10313   1.037   7.590   2.897 -0.4273  0.2146  0.0898
 6795ION    CL-10314   0.181   7.673   3.294  0.1641  0.0362  0.2704
 6796ION    CL-10315   5.702   1.281  11.314 -0.2907 -0.1241  0.0521
 6797ION    CL-10316   5.576   2.032   2.501  0.0408 -0.2435 -0.0860
 6798ION    CL-10317   4.161   2.662  11.731 -0.0800 -0.1196  0.1065
 6799ION    CL-10318   7.450   8.116   9.471 -0.2475  0.3517 -0.1010
 6800ION    CL-10319   7.718   4.946  11.183  0.0452 -0.1113  0.2091
 6801ION    CL-10320   6.256   5.341   3.512  0.0242  0.1144 -0.1795
 6802ION    CL-10321   9.029   9.243  11.333 -0.0237 -0.1603 -0.3671
 6803ION    CL-10322   1.789   9.568   9.793  0.3097 -0.1621 -0.1317
 6804ION    CL-10323   2.910   3.451   3.129 -0.1952  0.2365 -0.1903
 6805ION    CL-10324   1.306   4.777   1.046 -0.1885 -0.3053 -0.0370
 6806ION    CL-10325   8.705   8.455   3.820  0.1984  0.2572  0.0340
 6807ION    CL-10326   8.258   1.353   0.639 -0.2905 -0.1557  0.0767
 6808ION    CL-10327   1.993   9.514   3.052  0.1543  0.0320  0.0015
 6809ION    CL-10328   1.075   2.149   9.261 -0.1337 -0.2153 -0.1199
 6810ION    CL-10329   7.628   5.002   1.932  0.2422  0.1446  0.2717
 6811ION    CL-10330   8.097   0.831   2.601  0.0951  0.4440 -0.0925
 6812ION    CL-10331   9.539   3.505   0.673 -0.1854 -0.0633  0.0395
 6813ION    CL-10332   1.126   3.252   9.514 -0.2029  0.4171 -0.0383
 6814ION    CL-10333   4.631   5.187   1.023 -0.0457  0.0584 -0.1020
 6815ION    CL-10334   1.478   9.397   2.907  0.0376 -0.0016  0.4129
 6816ION    CL-10335   3.751   2.655  10.712 -0.1221  0.1095  0.0200
 6817ION    CL-10336   0.882   4.285  10.307 -0.0298 -0.3708  0.5462
 6818ION    CL-10337   5.212   2.882   0.242  0.1684  0.0961 -0.0328
 6819ION    CL-10338   7.186   3.762  11.625  0.0562 -0.2499  0.0374
 6820ION    CL-10339   5.558   8.508   9.821 -0.1024  0.2983  0.0077
 6821ION    CL-10340   0.404   9.396   3.761 -0.1305 -0.1660 -0.1800
 6822ION    CL-10341   1.284   5.044   3.214  0.2991  0.1284  0.0552
 6823ION    CL-10342   7.008   0.704   0.904 -0.2047  0.1103  0.1718
 6824ION    CL-10343   4.365   3.707  10.798 -0.0255 -0.0418 -0.1149
 6825ION    CL-10344   1.190   0.727  10.161 -0.2497  0.0763  0.1586
 6826ION    CL-10345   0.067   3.744   1.718 -0.1668 -0.0634 -0.0500
 6827ION    CL-10346   4.277   1.501  11.758  0.0067  0.4229 -0.1239
 6828ION    CL-10347   8.003   9.270   3.726  0.2008  0.2136  0.2028
 6829ION    CL-10348   8.311   1.751  12.065  0.0987  0.1757 -0.3080
 6830ION    CL-10349   5.426   3.838  10.578  0.1387  0.1627 -0.0749
 6831ION    CL-10350   6.316   3.248   3.779  0.0264 -0.0296  0.4752
 6832ION    CL-10351   4.674   6.168   9.385  0.1174  0.4515 -0.2226
 6833ION    CL-10352   5.670   1.705   0.541 -0.0167 -0.2964  0.4977
 6834ION    CL-10353   0.755   7.654   4.160  0.0531  0.0680 -0.2143
 6835ION    CL-10354   7.950   7.888   3.350 -0.0373  0.0189  0.6393
 6836ION    CL-10355   0.833   1.995  12.185 -0.0711  0.0438 -0.0121
 6837ION    CL-10356   6.116   2.339  11.420  0.0712 -0.0447  0.1309
 6838ION    CL-10357   5.665   3.166   1.816 -0.0125  0.1057  0.1738
 6839ION    CL-10358   6.080   0.591  10.534  0.1038  0.1994  0.0992
 6840ION    CL-10359   2.638   8.200   2.442 -0.3612 -0.0145 -0.0257
 6841ION    CL-10360   2.514   6.634   0.755  0.1142  0.2208 -0.1485
 6842ION    CL-10361   2.895   7.226  10.143 -0.1529  0.0839  0.0192
 6843ION    CL-10362   1.429   2.614   3.992  0.3285  0.0325  0.3438
 6844ION    CL-10363   2.813   6.850   1.553  0.1807 -0.2042  0.1509
 6845ION    CL-10364   4.976   7.777   1.987 -0.0200  0.3225 -0.1444
 6846ION    CL-10365   8.435   0.463   9.489  0.0556 -0.2104 -0.1100
   9.67838   9.67838  12.60338
