Protein in INSANE! Membrane UpperLeaflet>POPC=1.0 LowerLeaflet>POPC=1.0
12914
    1AU     AUC    1   5.748   5.825   6.007
    1AU     AUC    2   6.015   5.840   5.825
    1AU     AUC    3   6.021   5.821   6.177
    1AU     AUC    4   5.461   5.815   5.837
    1AU     AUC    5   5.497   5.862   6.193
    1AU     AUC    6   5.574   6.101   6.003
    1AU     AUC    7   5.939   6.095   5.992
    1AU     AUC    8   5.564   5.561   6.014
    1AU     AUC    9   5.912   5.541   6.009
    1AU     AUC   10   5.756   5.661   6.288
    1AU     AUC   11   5.753   6.002   6.277
    1AU     AUC   12   5.735   5.655   5.733
    1AU     AUC   13   5.754   5.972   5.730
    1AU     AUC   14   6.322   5.842   5.645
    1AU     AUC   15   6.358   5.798   6.005
    1AU     AUC   16   6.314   5.802   6.351
    1AU     AUC   17   5.153   5.794   5.666
    1AU     AUC   18   5.138   5.853   6.026
    1AU     AUC   19   5.194   5.886   6.383
    1AU     AUC   20   5.404   6.409   5.977
    1AU     AUC   21   5.757   6.424   5.961
    1AU     AUC   22   6.136   6.376   5.978
    1AU     AUC   23   5.356   5.271   6.028
    1AU     AUC   24   5.718   5.226   6.007
    1AU     AUC   25   6.076   5.241   5.997
    1AU     AUC   26   5.738   5.491   6.586
    1AU     AUC   27   5.781   5.860   6.625
    1AU     AUC   28   5.778   6.193   6.561
    1AU     AUC   29   5.761   5.471   5.458
    1AU     AUC   30   5.740   5.807   5.392
    1AU     AUC   31   5.723   6.138   5.426
    1AU     AUC   32   6.035   5.640   6.505
    1AU     AUC   33   6.075   6.004   6.493
    1AU     AUC   34   6.065   5.684   5.489
    1AU     AUC   35   6.051   6.005   5.524
    1AU     AUC   36   5.447   5.695   6.522
    1AU     AUC   37   5.475   6.055   6.494
    1AU     AUC   38   5.439   5.616   5.546
    1AU     AUC   39   5.412   5.939   5.499
    1AU     AUC   40   6.280   6.110   5.840
    1AU     AUC   41   6.258   6.111   6.175
    1AU     AUC   42   5.255   6.110   5.821
    1AU     AUC   43   5.273   6.171   6.182
    1AU     AUC   44   6.212   5.528   5.824
    1AU     AUC   45   6.196   5.479   6.190
    1AU     AUC   46   5.228   5.503   5.858
    1AU     AUC   47   5.290   5.569   6.212
    1AU     AUC   48   5.584   6.360   6.273
    1AU     AUC   49   5.945   6.301   6.256
    1AU     AUC   50   5.543   5.362   6.311
    1AU     AUC   51   5.886   5.320   6.293
    1AU     AUC   52   5.561   6.257   5.692
    1AU     AUC   53   5.934   6.305   5.693
    1AU     AUC   54   5.553   5.339   5.725
    1AU     AUC   55   5.945   5.367   5.711
    1AU    AUSL   56   6.314   5.764   6.707
    1AU    AUSL   57   6.043   5.338   6.680
    1AU     AUL   58   6.355   5.359   6.844
    1AU       S   59   6.383   4.942   6.654
    1AU     LIG   60   6.263   4.781   6.987
    1AU     LIG   61   6.388   4.413   7.173
    1AU     LIG   62   6.629   4.130   7.417
    1AU     LIG   63   6.845   3.963   7.790
    1AU     LIG   64   6.914   3.659   8.132
    1AU       S   65   6.587   5.745   6.772
    1AU     LIG   66   6.547   5.650   7.238
    1AU     LIG   67   6.627   5.466   7.686
    1AU     LIG   68   6.876   5.389   8.100
    1AU     LIG   69   7.235   5.490   8.419
    1AU     LIG   70   7.508   5.614   8.792
    1AU    AUSL   71   5.923   5.681   6.908
    1AU    AUSL   72   5.629   6.023   6.918
    1AU     AUL   73   5.838   5.984   7.249
    1AU       S   74   6.071   5.627   7.079
    1AU     LIG   75   5.903   5.442   7.425
    1AU     LIG   76   6.150   5.262   7.797
    1AU     LIG   77   6.417   5.092   8.164
    1AU     LIG   78   6.439   4.871   8.598
    1AU     LIG   79   6.469   4.874   9.073
    1AU       S   80   5.452   5.756   7.163
    1AU     LIG   81   5.467   5.643   7.629
    1AU     LIG   82   5.182   5.638   7.999
    1AU     LIG   83   5.020   5.701   8.433
    1AU     LIG   84   5.088   5.977   8.827
    1AU     LIG   85   5.051   6.071   9.287
    1AU    AUSL   86   6.042   6.103   6.848
    1AU    AUSL   87   6.412   6.165   6.578
    1AU     AUL   88   6.322   6.049   6.985
    1AU       S   89   5.909   6.400   6.984
    1AU     LIG   90   6.166   6.366   7.358
    1AU     LIG   91   6.388   6.485   7.774
    1AU     LIG   92   6.361   6.522   8.272
    1AU     LIG   93   6.389   6.672   8.730
    1AU     LIG   94   6.659   6.739   9.107
    1AU       S   95   6.452   6.431   6.755
    1AU     LIG   96   6.833   6.221   6.861
    1AU     LIG   97   7.149   6.390   7.187
    1AU     LIG   98   7.438   6.616   7.501
    1AU     LIG   99   7.751   6.729   7.848
    1AU     LIG  100   8.199   6.826   8.006
    1AU    AUSL  101   6.267   5.979   5.238
    1AU    AUSL  102   6.038   6.288   5.470
    1AU     AUL  103   6.132   6.358   5.117
    1AU       S  104   6.221   6.023   4.814
    1AU     LIG  105   6.601   5.889   4.609
    1AU     LIG  106   6.710   5.621   4.255
    1AU     LIG  107   6.842   5.496   3.822
    1AU     LIG  108   7.210   5.412   3.522
    1AU     LIG  109   7.639   5.466   3.304
    1AU       S  110   6.497   6.525   5.350
    1AU     LIG  111   6.652   6.672   4.928
    1AU     LIG  112   6.900   6.783   4.519
    1AU     LIG  113   7.180   6.928   4.168
    1AU     LIG  114   7.473   7.051   3.809
    1AU     LIG  115   7.760   7.324   3.538
    1AU    AUSL  116   6.048   5.628   5.101
    1AU    AUSL  117   6.406   5.601   5.409
    1AU     AUL  118   6.452   5.723   5.100
    1AU       S  119   6.572   5.273   5.179
    1AU     LIG  120   6.698   4.847   4.943
    1AU     LIG  121   6.929   4.448   4.849
    1AU     LIG  122   7.208   4.188   4.580
    1AU     LIG  123   7.525   4.271   4.226
    1AU     LIG  124   7.985   4.375   4.110
    1AU       S  125   6.121   5.868   4.785
    1AU     LIG  126   6.256   5.495   4.597
    1AU     LIG  127   6.336   5.276   4.174
    1AU     LIG  128   6.396   5.250   3.695
    1AU     LIG  129   6.522   5.113   3.243
    1AU     LIG  130   6.739   4.945   2.837
    1AU    AUSL  131   5.836   6.004   5.200
    1AU    AUSL  132   5.633   5.599   5.234
    1AU     AUL  133   5.790   5.602   4.957
    1AU       S  134   5.365   5.625   4.788
    1AU     LIG  135   5.452   5.464   4.390
    1AU     LIG  136   5.189   5.199   4.102
    1AU     LIG  137   4.958   5.152   3.700
    1AU     LIG  138   4.957   4.966   3.260
    1AU     LIG  139   4.930   4.965   2.785
    1AU       S  140   5.877   6.056   4.856
    1AU     LIG  141   5.903   5.876   4.361
    1AU     LIG  142   6.255   5.765   4.031
    1AU     LIG  143   6.439   5.751   3.580
    1AU     LIG  144   6.502   5.827   3.114
    1AU     LIG  145   6.477   6.112   2.739
    1AU    AUSL  146   5.228   5.952   6.763
    1AU    AUSL  147   5.525   6.297   6.609
    1AU     AUL  148   5.376   6.246   6.957
    1AU       S  149   5.273   5.875   7.230
    1AU     LIG  150   4.994   5.577   7.422
    1AU     LIG  151   4.739   5.459   7.808
    1AU     LIG  152   4.568   5.469   8.250
    1AU     LIG  153   4.200   5.390   8.543
    1AU     LIG  154   3.867   5.558   8.841
    1AU       S  155   5.082   6.551   6.696
    1AU     LIG  156   5.114   6.695   7.123
    1AU     LIG  157   4.954   6.939   7.503
    1AU     LIG  158   4.833   7.301   7.790
    1AU     LIG  159   4.669   7.418   8.230
    1AU     LIG  160   4.548   7.591   8.668
    1AU    AUSL  161   5.548   5.656   6.694
    1AU    AUSL  162   5.090   5.572   6.607
    1AU     AUL  163   5.097   5.660   6.860
    1AU       S  164   4.919   5.215   6.751
    1AU     LIG  165   4.506   5.033   6.666
    1AU     LIG  166   4.176   4.778   6.874
    1AU     LIG  167   3.975   4.575   7.244
    1AU     LIG  168   3.779   4.346   7.604
    1AU     LIG  169   3.416   4.318   7.918
    1AU       S  170   5.502   5.584   7.088
    1AU     LIG  171   5.375   5.244   7.315
    1AU     LIG  172   5.184   5.188   7.742
    1AU     LIG  173   4.992   5.174   8.182
    1AU     LIG  174   4.872   4.974   8.599
    1AU     LIG  175   4.923   4.929   9.070
    1AU    AUSL  176   5.204   5.645   5.273
    1AU    AUSL  177   5.423   5.304   5.463
    1AU     AUL  178   5.448   5.303   5.133
    1AU       S  179   5.202   5.572   4.839
    1AU     LIG  180   4.938   5.497   4.482
    1AU     LIG  181   4.716   5.417   4.089
    1AU     LIG  182   4.567   5.549   3.679
    1AU     LIG  183   4.221   5.618   3.363
    1AU     LIG  184   3.910   5.656   3.000
    1AU       S  185   5.042   5.150   5.300
    1AU     LIG  186   4.773   4.805   5.132
    1AU     LIG  187   4.482   4.522   4.909
    1AU     LIG  188   4.286   4.233   4.590
    1AU     LIG  189   4.233   4.068   4.148
    1AU     LIG  190   4.273   3.868   3.718
    1AU    AUSL  191   5.423   5.977   5.099
    1AU    AUSL  192   5.077   6.045   5.408
    1AU     AUL  193   4.991   5.837   5.147
    1AU       S  194   5.034   6.290   5.162
    1AU     LIG  195   4.665   6.483   5.017
    1AU     LIG  196   4.555   6.748   4.655
    1AU     LIG  197   4.342   6.835   4.242
    1AU     LIG  198   3.954   6.888   3.960
    1AU     LIG  199   3.625   7.135   3.727
    1AU       S  200   5.396   5.907   4.880
    1AU     LIG  201   5.208   5.950   4.448
    1AU     LIG  202   5.146   5.713   4.047
    1AU     LIG  203   5.064   5.664   3.596
    1AU     LIG  204   5.086   5.834   3.148
    1AU     LIG  205   4.904   5.971   2.729
    1AU    AUSL  206   6.567   6.281   5.997
    1AU    AUSL  207   6.428   6.113   5.607
    1AU     AUL  208   6.822   6.328   5.736
    1AU       S  209   6.522   6.329   5.397
    1AU     LIG  210   6.713   6.173   5.036
    1AU     LIG  211   7.058   6.360   4.769
    1AU     LIG  212   7.396   6.638   4.553
    1AU     LIG  213   7.687   6.863   4.255
    1AU     LIG  214   7.965   7.132   3.982
    1AU       S  215   7.021   6.178   6.143
    1AU     LIG  216   7.446   6.372   6.135
    1AU     LIG  217   7.902   6.446   6.024
    1AU     LIG  218   8.323   6.628   6.033
    1AU     LIG  219   8.604   6.940   6.209
    1AU     LIG  220   8.763   7.319   6.439
    1AU    AUSL  221   6.715   5.893   5.840
    1AU    AUSL  222   6.682   5.562   6.161
    1AU     AUL  223   6.978   5.616   5.890
    1AU       S  224   6.946   6.009   6.118
    1AU     LIG  225   7.395   5.910   5.927
    1AU     LIG  226   7.858   5.987   5.801
    1AU     LIG  227   8.300   6.175   5.742
    1AU     LIG  228   8.737   6.285   5.532
    1AU     LIG  229   9.115   6.363   5.275
    1AU       S  230   6.902   5.202   6.119
    1AU     LIG  231   7.252   5.012   6.333
    1AU     LIG  232   7.702   4.855   6.299
    1AU     LIG  233   8.174   4.724   6.285
    1AU     LIG  234   8.668   4.807   6.300
    1AU     LIG  235   9.136   4.742   6.458
    1AU    AUSL  236   6.475   5.930   6.231
    1AU    AUSL  237   6.344   6.503   6.287
    1AU     AUL  238   6.629   6.326   6.333
    1AU       S  239   6.535   6.686   6.627
    1AU     LIG  240   6.920   6.737   6.874
    1AU     LIG  241   7.198   6.966   7.186
    1AU     LIG  242   7.367   7.398   7.347
    1AU     LIG  243   7.531   7.869   7.382
    1AU     LIG  244   7.891   8.137   7.553
    1AU       S  245   6.860   5.929   6.381
    1AU     LIG  246   7.344   5.945   6.449
    1AU     LIG  247   7.802   6.024   6.312
    1AU     LIG  248   8.273   6.175   6.291
    1AU     LIG  249   8.620   6.478   6.488
    1AU     LIG  250   9.034   6.615   6.685
    1AU    AUSL  251   5.067   6.393   6.015
    1AU    AUSL  252   5.156   6.177   6.406
    1AU     AUL  253   4.838   6.492   6.244
    1AU       S  254   5.014   6.337   6.638
    1AU     LIG  255   4.882   6.222   7.062
    1AU     LIG  256   4.709   6.478   7.432
    1AU     LIG  257   4.422   6.682   7.772
    1AU     LIG  258   4.072   6.771   8.104
    1AU     LIG  259   3.715   6.957   8.365
    1AU       S  260   5.080   6.775   5.924
    1AU     LIG  261   4.626   6.715   5.823
    1AU     LIG  262   4.194   6.946   5.865
    1AU     LIG  263   3.811   7.257   5.924
    1AU     LIG  264   3.391   7.518   5.930
    1AU     LIG  265   2.984   7.787   5.948
    1AU    AUSL  266   5.028   6.006   5.824
    1AU    AUSL  267   5.153   6.439   5.600
    1AU     AUL  268   4.864   6.301   5.651
    1AU       S  269   4.647   5.873   5.491
    1AU     LIG  270   4.328   6.216   5.538
    1AU     LIG  271   3.874   6.325   5.365
    1AU     LIG  272   3.385   6.258   5.422
    1AU     LIG  273   2.971   6.507   5.381
    1AU     LIG  274   2.608   6.696   5.136
    1AU       S  275   4.948   6.701   5.382
    1AU     LIG  276   4.921   6.973   4.986
    1AU     LIG  277   4.917   7.424   4.778
    1AU     LIG  278   4.775   7.896   4.694
    1AU     LIG  279   4.482   8.257   4.544
    1AU     LIG  280   4.118   8.572   4.503
    1AU    AUSL  281   4.805   6.037   6.220
    1AU    AUSL  282   4.774   5.677   5.894
    1AU     AUL  283   4.639   6.019   5.945
    1AU       S  284   4.500   5.587   6.103
    1AU     LIG  285   4.270   5.504   5.723
    1AU     LIG  286   3.899   5.251   5.626
    1AU     LIG  287   3.433   5.172   5.593
    1AU     LIG  288   2.956   5.129   5.701
    1AU     LIG  289   2.507   5.069   5.556
    1AU       S  290   4.706   5.988   6.459
    1AU     LIG  291   4.221   6.058   6.437
    1AU     LIG  292   3.775   6.160   6.658
    1AU     LIG  293   3.390   6.442   6.761
    1AU     LIG  294   2.901   6.415   6.751
    1AU     LIG  295   2.436   6.542   6.642
    1AU    AUSL  296   6.419   5.237   6.029
    1AU    AUSL  297   6.307   5.509   6.372
    1AU     AUL  298   6.609   5.403   6.418
    1AU       S  299   6.586   5.081   6.020
    1AU     LIG  300   6.851   4.704   6.172
    1AU     LIG  301   7.312   4.565   6.077
    1AU     LIG  302   7.760   4.385   6.091
    1AU     LIG  303   8.172   4.196   6.200
    1AU     LIG  304   8.433   3.828   6.360
    1AU       S  305   6.526   4.963   6.497
    1AU     LIG  306   6.754   4.622   6.724
    1AU     LIG  307   6.917   4.402   7.093
    1AU     LIG  308   7.154   4.155   7.416
    1AU     LIG  309   7.462   4.142   7.777
    1AU     LIG  310   7.869   4.144   8.030
    1AU    AUSL  311   6.396   5.619   5.829
    1AU    AUSL  312   6.352   5.205   5.606
    1AU     AUL  313   6.619   5.430   5.651
    1AU       S  314   6.856   5.136   5.902
    1AU     LIG  315   7.304   5.020   5.820
    1AU     LIG  316   7.732   4.795   5.786
    1AU     LIG  317   8.174   4.570   5.799
    1AU     LIG  318   8.655   4.638   5.746
    1AU     LIG  319   9.014   4.715   5.430
    1AU       S  320   6.545   5.068   5.356
    1AU     LIG  321   6.416   4.616   5.388
    1AU     LIG  322   6.658   4.235   5.236
    1AU     LIG  323   6.855   3.921   4.930
    1AU     LIG  324   7.200   3.610   4.811
    1AU     LIG  325   7.524   3.252   4.696
    1AU    AUSL  326   4.957   5.315   6.071
    1AU    AUSL  327   5.109   5.534   5.671
    1AU     AUL  328   4.756   5.398   5.756
    1AU       S  329   4.930   5.278   5.350
    1AU     LIG  330   4.481   5.135   5.394
    1AU     LIG  331   4.170   4.883   5.128
    1AU     LIG  332   3.975   4.612   4.766
    1AU     LIG  333   3.792   4.307   4.431
    1AU     LIG  334   3.448   4.147   4.125
    1AU       S  335   4.525   5.303   6.163
    1AU     LIG  336   4.319   5.005   5.876
    1AU     LIG  337   3.895   4.777   5.828
    1AU     LIG  338   3.419   4.794   5.973
    1AU     LIG  339   3.052   4.616   6.247
    1AU     LIG  340   2.628   4.388   6.372
    1AU    AUSL  341   5.080   5.720   6.209
    1AU    AUSL  342   5.299   5.327   6.323
    1AU     AUL  343   4.885   5.500   6.384
    1AU       S  344   4.997   5.075   6.519
    1AU     LIG  345   4.799   4.725   6.370
    1AU     LIG  346   4.500   4.460   6.617
    1AU     LIG  347   4.162   4.243   6.896
    1AU     LIG  348   3.852   4.017   7.192
    1AU     LIG  349   3.541   3.638   7.266
    1AU       S  350   4.466   5.624   6.248
    1AU     LIG  351   4.013   5.733   6.098
    1AU     LIG  352   3.620   5.573   5.921
    1AU     LIG  353   3.310   5.299   6.067
    1AU     LIG  354   2.931   5.117   6.210
    1AU     LIG  355   2.641   4.899   6.462
    1AU    AUSL  356   5.754   6.645   6.488
    1AU    AUSL  357   5.352   6.551   6.299
    1AU     AUL  358   5.540   6.620   6.719
    1AU       S  359   5.223   6.737   6.394
    1AU     LIG  360   5.215   7.049   6.742
    1AU     LIG  361   4.984   7.286   7.110
    1AU     LIG  362   4.760   7.642   7.357
    1AU     LIG  363   4.449   8.021   7.413
    1AU     LIG  364   4.080   8.337   7.495
    1AU       S  365   5.718   6.991   6.502
    1AU     LIG  366   5.957   7.053   6.850
    1AU     LIG  367   6.016   7.509   6.989
    1AU     LIG  368   5.945   7.841   7.337
    1AU     LIG  369   6.009   8.097   7.758
    1AU     LIG  370   5.972   8.495   8.033
    1AU    AUSL  371   5.619   6.799   6.075
    1AU    AUSL  372   5.903   6.695   5.718
    1AU     AUL  373   6.005   6.960   5.906
    1AU       S  374   5.611   7.040   6.217
    1AU     LIG  375   5.699   7.483   6.527
    1AU     LIG  376   5.614   7.860   6.794
    1AU     LIG  377   5.438   8.300   6.854
    1AU     LIG  378   5.389   8.775   6.916
    1AU     LIG  379   5.386   9.222   6.786
    1AU       S  380   5.683   6.973   5.571
    1AU     LIG  381   6.016   7.305   5.482
    1AU     LIG  382   6.195   7.746   5.335
    1AU     LIG  383   6.523   8.125   5.267
    1AU     LIG  384   6.717   8.579   5.194
    1AU     LIG  385   6.606   9.030   5.077
    1AU    AUSL  386   5.963   6.542   6.113
    1AU    AUSL  387   6.007   6.308   6.491
    1AU     AUL  388   6.097   6.684   6.447
    1AU       S  389   6.321   6.559   6.840
    1AU     LIG  390   6.626   6.521   7.229
    1AU     LIG  391   6.920   6.705   7.543
    1AU     LIG  392   7.216   7.041   7.713
    1AU     LIG  393   7.256   7.408   8.016
    1AU     LIG  394   7.195   7.640   8.433
    1AU       S  395   5.908   7.087   6.336
    1AU     LIG  396   6.233   7.341   6.529
    1AU     LIG  397   6.401   7.759   6.671
    1AU     LIG  398   6.736   8.111   6.668
    1AU     LIG  399   6.870   8.560   6.738
    1AU     LIG  400   6.858   8.960   6.942
    1AU    AUSL  401   5.707   5.181   6.457
    1AU    AUSL  402   6.124   5.121   6.312
    1AU     AUL  403   5.921   5.042   6.698
    1AU       S  404   5.766   4.634   6.534
    1AU     LIG  405   5.656   4.309   6.792
    1AU     LIG  406   5.452   3.911   6.812
    1AU     LIG  407   5.513   3.487   6.968
    1AU     LIG  408   5.525   3.267   7.394
    1AU     LIG  409   5.541   3.232   7.881
    1AU       S  410   6.269   4.930   6.379
    1AU     LIG  411   6.271   4.468   6.553
    1AU     LIG  412   6.566   4.140   6.785
    1AU     LIG  413   6.906   3.884   7.029
    1AU     LIG  414   7.035   3.429   7.151
    1AU     LIG  415   7.364   3.102   7.332
    1AU    AUSL  416   5.385   4.938   6.199
    1AU    AUSL  417   5.407   5.265   6.750
    1AU     AUL  418   5.444   4.981   6.547
    1AU       S  419   5.529   4.556   6.363
    1AU     LIG  420   5.172   4.385   6.558
    1AU     LIG  421   5.025   3.940   6.527
    1AU     LIG  422   5.099   3.473   6.609
    1AU     LIG  423   4.919   3.019   6.637
    1AU     LIG  424   4.895   2.673   6.950
    1AU       S  425   5.135   5.150   6.864
    1AU     LIG  426   4.881   4.727   6.890
    1AU     LIG  427   4.532   4.507   7.139
    1AU     LIG  428   4.284   4.211   7.426
    1AU     LIG  429   4.139   4.056   7.854
    1AU     LIG  430   4.214   3.861   8.288
    1AU    AUSL  431   5.815   4.890   6.143
    1AU    AUSL  432   5.578   5.119   5.851
    1AU     AUL  433   5.478   4.768   5.945
    1AU       S  434   5.877   4.657   5.738
    1AU     LIG  435   5.582   4.285   5.769
    1AU     LIG  436   5.362   3.881   5.564
    1AU     LIG  437   5.140   3.449   5.449
    1AU     LIG  438   4.912   3.000   5.388
    1AU     LIG  439   4.777   2.616   5.107
    1AU       S  440   5.836   4.706   6.277
    1AU     LIG  441   5.910   4.257   6.207
    1AU     LIG  442   5.887   3.875   6.503
    1AU     LIG  443   6.059   3.466   6.716
    1AU     LIG  444   6.173   2.993   6.794
    1AU     LIG  445   6.123   2.492   6.760
    1AU    AUSL  446   5.713   6.538   5.353
    1AU    AUSL  447   6.275   6.500   5.775
    1AU     AUL  448   6.061   6.684   5.446
    1AU       S  449   5.672   6.934   5.302
    1AU     LIG  450   6.000   7.059   5.037
    1AU     LIG  451   6.047   7.500   4.891
    1AU     LIG  452   6.068   7.771   4.496
    1AU     LIG  453   6.117   8.060   4.135
    1AU     LIG  454   5.996   8.497   4.100
    1AU       S  455   6.482   6.635   5.642
    1AU     LIG  456   6.937   6.715   5.383
    1AU     LIG  457   7.147   6.858   4.964
    1AU     LIG  458   7.305   7.187   4.631
    1AU     LIG  459   7.498   7.663   4.620
    1AU     LIG  460   7.687   8.131   4.679
    1AU    AUSL  461   5.524   6.502   5.791
    1AU    AUSL  462   5.486   6.198   5.454
    1AU     AUL  463   5.396   6.588   5.444
    1AU       S  464   5.482   6.985   5.663
    1AU     LIG  465   5.523   7.452   5.471
    1AU     LIG  466   5.654   7.905   5.329
    1AU     LIG  467   5.410   8.336   5.273
    1AU     LIG  468   5.363   8.842   5.318
    1AU     LIG  469   5.368   9.342   5.225
    1AU       S  470   5.195   6.400   5.085
    1AU     LIG  471   5.060   6.573   4.687
    1AU     LIG  472   4.972   6.968   4.435
    1AU     LIG  473   5.007   7.156   3.991
    1AU     LIG  474   4.912   7.395   3.586
    1AU     LIG  475   4.593   7.727   3.463
    1AU    AUSL  476   5.766   5.047   5.459
    1AU    AUSL  477   5.166   5.098   5.761
    1AU     AUL  478   5.435   4.939   5.508
    1AU       S  479   4.980   5.038   5.561
    1AU     LIG  480   4.692   4.725   5.639
    1AU     LIG  481   4.340   4.507   5.425
    1AU     LIG  482   4.096   4.240   5.102
    1AU     LIG  483   3.797   3.972   4.838
    1AU     LIG  484   3.432   3.640   4.795
    1AU       S  485   5.834   4.683   5.588
    1AU     LIG  486   5.907   4.346   5.298
    1AU     LIG  487   5.666   3.975   5.142
    1AU     LIG  488   5.485   3.557   5.060
    1AU     LIG  489   5.489   3.223   4.724
    1AU     LIG  490   5.640   2.992   4.337
    1AU    AUSL  491   6.012   5.101   5.831
    1AU    AUSL  492   5.997   5.403   5.454
    1AU     AUL  493   6.087   5.034   5.431
    1AU       S  494   6.139   4.766   5.819
    1AU     LIG  495   6.165   4.263   5.736
    1AU     LIG  496   5.879   3.913   5.599
    1AU     LIG  497   5.944   3.529   5.316
    1AU     LIG  498   6.210   3.169   5.127
    1AU     LIG  499   6.526   2.806   5.195
    1AU       S  500   6.318   5.239   5.093
    1AU     LIG  501   6.188   4.811   4.979
    1AU     LIG  502   6.406   4.410   4.822
    1AU     LIG  503   6.681   4.156   4.498
    1AU     LIG  504   6.985   4.150   4.120
    1AU     LIG  505   7.132   3.957   3.716
    2POPC   NC3  506   2.166   7.884   8.073
    2POPC   PO4  507   2.389   8.439   8.259
    2POPC   GL1  508   2.366   8.314   7.728
    2POPC   GL2  509   2.284   7.939   7.597
    2POPC   C1A  510   2.271   8.272   7.248
    2POPC   D2A  511   2.163   8.436   6.855
    2POPC   C3A  512   2.227   8.281   6.427
    2POPC   C4A  513   2.389   8.436   6.017
    2POPC   C1B  514   1.866   7.907   7.403
    2POPC   C2B  515   1.689   7.783   7.006
    2POPC   C3B  516   1.743   7.840   6.570
    2POPC   C4B  517   1.715   8.170   6.268
    3POPC   NC3  518   1.932   2.702   8.258
    3POPC   PO4  519   1.598   3.260   8.019
    3POPC   GL1  520   1.799   2.991   7.687
    3POPC   GL2  521   2.122   2.961   7.822
    3POPC   C1A  522   1.740   2.761   7.251
    3POPC   D2A  523   1.801   2.570   6.809
    3POPC   C3A  524   1.641   2.877   6.497
    3POPC   C4A  525   1.740   2.985   6.082
    3POPC   C1B  526   2.253   2.806   7.391
    3POPC   C2B  527   2.401   2.797   6.997
    3POPC   C3B  528   2.306   2.631   6.641
    3POPC   C4B  529   2.130   2.815   6.349
    4POPC   NC3  530   8.095   9.784   7.998
    4POPC   PO4  531   8.249   9.165   8.167
    4POPC   GL1  532   8.403   9.349   7.785
    4POPC   GL2  533   8.113   9.523   7.567
    4POPC   C1A  534   8.512   9.294   7.349
    4POPC   D2A  535   8.251   9.501   7.030
    4POPC   C3A  536   8.384   9.621   6.630
    4POPC   C4A  537   8.388   9.393   6.217
    4POPC   C1B  538   7.828   9.791   7.308
    4POPC   C2B  539   7.701   9.908   6.878
    4POPC   C3B  540   7.656   9.806   6.464
    4POPC   C4B  541   8.020   9.722   6.282
    5POPC   NC3  542   1.937   0.534   7.948
    5POPC   PO4  543   1.540   0.017   8.062
    5POPC   GL1  544   1.643   0.120   7.626
    5POPC   GL2  545   1.964   0.296   7.516
    5POPC   C1A  546   1.715   0.063   7.174
    5POPC   D2A  547   1.873   0.343   6.874
    5POPC   C3A  548   1.884   0.173   6.484
    5POPC   C4A  549   1.717   0.190   6.088
    5POPC   C1B  550   1.917   0.690   7.263
    5POPC   C2B  551   1.827   0.847   6.816
    5POPC   C3B  552   2.007   0.691   6.386
    5POPC   C4B  553   1.923   0.595   5.909
    6POPC   NC3  554   7.320   9.238   8.114
    6POPC   PO4  555   7.573   9.894   8.057
    6POPC   GL1  556   7.514   9.590   7.731
    6POPC   GL2  557   7.178   9.717   7.673
    6POPC   C1A  558   7.612   9.318   7.373
    6POPC   D2A  559   7.761   9.394   6.919
    6POPC   C3A  560   7.614   9.304   6.468
    6POPC   C4A  561   7.755   9.395   5.997
    6POPC   C1B  562   7.325   9.706   7.247
    6POPC   C2B  563   7.234   9.700   6.855
    6POPC   C3B  564   7.170   9.540   6.473
    6POPC   C4B  565   7.299   9.671   6.088
    7POPC   NC3  566  10.918   0.402   8.026
    7POPC   PO4  567   0.099   0.693   8.117
    7POPC   GL1  568   0.132   0.523   7.718
    7POPC   GL2  569  11.295   0.466   7.625
    7POPC   C1A  570   0.148   0.665   7.305
    7POPC   D2A  571  11.302   0.639   7.035
    7POPC   C3A  572  11.441   0.513   6.641
    7POPC   C4A  573  11.257   0.544   6.249
    7POPC   C1B  574  10.928   0.380   7.348
    7POPC   C2B  575  10.827   0.487   6.925
    7POPC   C3B  576  10.902   0.303   6.534
    7POPC   C4B  577  10.651   0.114   6.194
    8POPC   NC3  578  10.595   7.273   8.106
    8POPC   PO4  579  10.621   7.937   8.107
    8POPC   GL1  580  10.675   7.641   7.735
    8POPC   GL2  581  10.365   7.432   7.689
    8POPC   C1A  582  10.695   7.510   7.269
    8POPC   D2A  583  10.672   7.697   6.841
    8POPC   C3A  584  10.458   7.468   6.494
    8POPC   C4A  585  10.625   7.458   6.083
    8POPC   C1B  586  10.217   7.249   7.321
    8POPC   C2B  587  10.306   7.180   6.897
    8POPC   C3B  588  10.100   7.057   6.551
    8POPC   C4B  589   9.953   7.381   6.283
    9POPC   NC3  590   1.915   8.883   8.055
    9POPC   PO4  591   1.914   8.261   7.968
    9POPC   GL1  592   1.941   8.570   7.621
    9POPC   GL2  593   2.258   8.817   7.648
    9POPC   C1A  594   1.777   8.388   7.219
    9POPC   D2A  595   1.693   8.295   6.793
    9POPC   C3A  596   1.824   8.614   6.484
    9POPC   C4A  597   1.834   8.667   6.035
    9POPC   C1B  598   2.134   8.824   7.198
    9POPC   C2B  599   2.187   8.919   6.735
    9POPC   C3B  600   2.150   8.973   6.282
    9POPC   C4B  601   1.935   9.273   6.007
   10POPC   NC3  602   9.407   1.788   8.066
   10POPC   PO4  603   8.731   1.955   8.024
   10POPC   GL1  604   8.844   1.870   7.595
   10POPC   GL2  605   9.156   2.069   7.612
   10POPC   C1A  606   8.932   1.721   7.163
   10POPC   D2A  607   9.168   1.977   6.822
   10POPC   C3A  608   9.359   1.837   6.451
   10POPC   C4A  609   9.057   1.962   6.146
   10POPC   C1B  610   8.965   2.237   7.237
   10POPC   C2B  611   8.699   2.099   6.895
   10POPC   C3B  612   8.659   1.958   6.480
   10POPC   C4B  613   8.599   2.184   6.064
   11POPC   NC3  614  11.272   5.953   8.061
   11POPC   PO4  615  10.684   6.322   8.074
   11POPC   GL1  616  10.915   6.142   7.695
   11POPC   GL2  617  11.023   5.776   7.667
   11POPC   C1A  618  11.040   6.039   7.242
   11POPC   D2A  619  11.321   5.808   6.926
   11POPC   C3A  620  11.161   5.832   6.499
   11POPC   C4A  621  11.059   6.251   6.325
   11POPC   C1B  622  11.252   5.541   7.365
   11POPC   C2B  623  11.444   5.310   7.024
   11POPC   C3B  624  11.469   5.419   6.586
   11POPC   C4B  625  11.249   5.415   6.165
   12POPC   NC3  626   0.408   0.267   8.080
   12POPC   PO4  627   0.846   0.775   7.949
   12POPC   GL1  628   0.637   0.574   7.665
   12POPC   GL2  629   0.765   0.269   7.615
   12POPC   C1A  630   0.673   0.694   7.253
   12POPC   D2A  631   0.469   0.572   6.868
   12POPC   C3A  632   0.633   0.761   6.505
   12POPC   C4A  633   0.777   0.675   6.076
   12POPC   C1B  634   0.448   0.235   7.287
   12POPC   C2B  635   0.243   0.101   6.885
   12POPC   C3B  636   0.393   0.217   6.469
   12POPC   C4B  637   0.267   0.570   6.220
   13POPC   NC3  638   2.965   2.865   8.117
   13POPC   PO4  639   2.392   2.723   8.224
   13POPC   GL1  640   2.594   2.785   7.772
   13POPC   GL2  641   2.823   2.559   7.673
   13POPC   C1A  642   2.748   2.942   7.336
   13POPC   D2A  643   2.737   3.197   6.955
   13POPC   C3A  644   2.702   2.978   6.593
   13POPC   C4A  645   2.885   2.670   6.360
   13POPC   C1B  646   2.640   2.428   7.289
   13POPC   C2B  647   2.749   2.446   6.850
   13POPC   C3B  648   2.599   2.257   6.478
   13POPC   C4B  649   2.464   2.466   6.132
   14POPC   NC3  650  11.296   8.731   8.029
   14POPC   PO4  651  10.681   8.919   7.929
   14POPC   GL1  652  10.933   8.674   7.627
   14POPC   GL2  653  11.249   8.786   7.532
   14POPC   C1A  654  10.899   8.697   7.178
   14POPC   D2A  655  11.209   8.707   6.847
   14POPC   C3A  656  10.994   8.850   6.506
   14POPC   C4A  657  10.885   8.729   6.106
   14POPC   C1B  658  11.440   9.029   7.216
   14POPC   C2B  659  11.273   9.240   6.837
   14POPC   C3B  660  11.461   9.120   6.498
   14POPC   C4B  661  11.357   8.866   6.141
   15POPC   NC3  662   8.608  11.376   8.023
   15POPC   PO4  663   9.094  10.952   8.256
   15POPC   GL1  664   8.909  11.046   7.769
   15POPC   GL2  665   9.034  11.260   7.513
   15POPC   C1A  666   8.737  10.883   7.323
   15POPC   D2A  667   8.879  11.072   6.905
   15POPC   C3A  668   8.956  10.902   6.465
   15POPC   C4A  669   8.987  10.963   6.010
   15POPC   C1B  670   8.603  11.374   7.335
   15POPC   C2B  671   8.497  11.404   6.906
   15POPC   C3B  672   8.748  11.414   6.512
   15POPC   C4B  673   9.165  11.400   6.362
   16POPC   NC3  674   7.041  11.223   7.852
   16POPC   PO4  675   6.894  10.627   8.099
   16POPC   GL1  676   6.707  10.831   7.686
   16POPC   GL2  677   6.730  11.159   7.476
   16POPC   C1A  678   6.849  10.722   7.263
   16POPC   D2A  679   6.782  11.017   6.895
   16POPC   C3A  680   6.724  10.833   6.462
   16POPC   C4A  681   6.508  11.045   6.085
   16POPC   C1B  682   6.432  11.357   7.213
   16POPC   C2B  683   6.306  11.239   6.799
   16POPC   C3B  684   6.620  11.339   6.515
   16POPC   C4B  685   6.515   0.072   6.202
   17POPC   NC3  686   0.552   8.087   8.137
   17POPC   PO4  687   0.059   7.682   7.874
   17POPC   GL1  688   0.219   8.000   7.641
   17POPC   GL2  689   0.545   8.124   7.635
   17POPC   C1A  690   0.206   8.076   7.215
   17POPC   D2A  691   0.443   8.084   6.863
   17POPC   C3A  692   0.193   8.037   6.508
   17POPC   C4A  693   0.173   8.198   6.109
   17POPC   C1B  694   0.697   8.413   7.341
   17POPC   C2B  695   0.736   8.512   6.906
   17POPC   C3B  696   0.875   8.214   6.609
   17POPC   C4B  697   0.675   7.980   6.297
   18POPC   NC3  698   4.009  11.052   7.922
   18POPC   PO4  699   4.665  11.419   8.036
   18POPC   GL1  700   4.409  11.449   7.673
   18POPC   GL2  701   4.385  11.119   7.601
   18POPC   C1A  702   4.402  11.429   7.182
   18POPC   D2A  703   4.275   0.075   6.764
   18POPC   C3A  704   4.214  11.317   6.397
   18POPC   C4A  705   4.222  11.378   5.944
   18POPC   C1B  706   4.324  10.922   7.231
   18POPC   C2B  707   4.347  11.027   6.810
   18POPC   C3B  708   4.600  10.893   6.473
   18POPC   C4B  709   4.432  10.926   6.087
   19POPC   NC3  710   5.869  11.159   7.977
   19POPC   PO4  711   6.591  11.176   8.023
   19POPC   GL1  712   6.267  11.120   7.657
   19POPC   GL2  713   6.094  11.456   7.619
   19POPC   C1A  714   6.131  10.948   7.201
   19POPC   D2A  715   5.796  10.750   6.952
   19POPC   C3A  716   5.753  10.861   6.511
   19POPC   C4A  717   5.997  11.091   6.195
   19POPC   C1B  718   5.809  11.349   7.300
   19POPC   C2B  719   5.758  11.243   6.879
   19POPC   C3B  720   5.663  11.362   6.488
   19POPC   C4B  721   5.460   0.115   6.243
   20POPC   NC3  722   6.401   1.017   8.153
   20POPC   PO4  723   6.230   1.632   7.971
   20POPC   GL1  724   6.456   1.340   7.675
   20POPC   GL2  725   6.555   1.003   7.681
   20POPC   C1A  726   6.546   1.377   7.234
   20POPC   D2A  727   6.527   1.632   6.858
   20POPC   C3A  728   6.366   1.468   6.473
   20POPC   C4A  729   6.297   1.391   6.033
   20POPC   C1B  730   6.783   0.913   7.336
   20POPC   C2B  731   6.692   0.991   6.919
   20POPC   C3B  732   6.870   0.978   6.539
   20POPC   C4B  733   6.736   1.170   6.197
   21POPC   NC3  734   0.396   6.300   8.136
   21POPC   PO4  735   0.585   6.993   8.039
   21POPC   GL1  736   0.262   6.819   7.723
   21POPC   GL2  737   0.383   6.473   7.649
   21POPC   C1A  738   0.101   6.730   7.279
   21POPC   D2A  739   0.238   6.532   6.897
   21POPC   C3A  740   0.069   6.733   6.559
   21POPC   C4A  741   0.224   6.878   6.165
   21POPC   C1B  742   0.595   6.610   7.268
   21POPC   C2B  743   0.740   6.420   6.851
   21POPC   C3B  744   0.562   6.542   6.429
   21POPC   C4B  745   0.527   6.438   5.973
   22POPC   NC3  746   2.390   6.194   8.188
   22POPC   PO4  747   2.221   6.781   8.094
   22POPC   GL1  748   1.892   6.819   7.806
   22POPC   GL2  749   1.863   6.487   7.713
   22POPC   C1A  750   1.873   6.937   7.383
   22POPC   D2A  751   1.904   6.760   6.967
   22POPC   C3A  752   2.088   6.950   6.600
   22POPC   C4A  753   2.230   6.756   6.200
   22POPC   C1B  754   2.049   6.306   7.315
   22POPC   C2B  755   1.898   6.253   6.879
   22POPC   C3B  756   1.908   6.457   6.475
   22POPC   C4B  757   1.791   6.347   6.052
   23POPC   NC3  758  11.128   7.718   8.037
   23POPC   PO4  759  10.926   8.418   8.113
   23POPC   GL1  760  10.956   8.149   7.738
   23POPC   GL2  761  11.287   8.278   7.693
   23POPC   C1A  762  11.108   7.869   7.365
   23POPC   D2A  763  11.166   7.605   6.975
   23POPC   C3A  764  11.093   7.827   6.555
   23POPC   C4A  765  11.065   7.956   6.126
   23POPC   C1B  766  11.263   8.348   7.250
   23POPC   C2B  767  11.318   8.200   6.827
   23POPC   C3B  768  11.260   8.370   6.394
   23POPC   C4B  769  11.240   8.378   5.933
   24POPC   NC3  770   0.118   4.264   8.285
   24POPC   PO4  771   0.745   4.439   8.254
   24POPC   GL1  772   0.435   4.285   7.869
   24POPC   GL2  773   0.298   4.543   7.667
   24POPC   C1A  774   0.350   4.109   7.400
   24POPC   D2A  775   0.482   4.185   6.942
   24POPC   C3A  776   0.317   4.025   6.543
   24POPC   C4A  777   0.381   4.080   6.070
   24POPC   C1B  778   0.559   4.560   7.294
   24POPC   C2B  779   0.612   4.662   6.840
   24POPC   C3B  780   0.429   4.532   6.443
   24POPC   C4B  781   0.099   4.510   6.146
   25POPC   NC3  782   1.143   1.129   8.069
   25POPC   PO4  783   1.524   1.624   8.070
   25POPC   GL1  784   1.236   1.518   7.710
   25POPC   GL2  785   1.217   1.158   7.586
   25POPC   C1A  786   1.261   1.545   7.247
   25POPC   D2A  787   1.027   1.460   6.850
   25POPC   C3A  788   1.254   1.576   6.504
   25POPC   C4A  789   1.359   1.439   6.116
   25POPC   C1B  790   1.137   1.016   7.182
   25POPC   C2B  791   1.173   0.962   6.769
   25POPC   C3B  792   1.064   1.078   6.387
   25POPC   C4B  793   1.184   0.984   5.980
   26POPC   NC3  794   1.198   9.580   8.081
   26POPC   PO4  795   1.679   9.224   7.838
   26POPC   GL1  796   1.456   9.599   7.607
   26POPC   GL2  797   1.179   9.837   7.666
   26POPC   C1A  798   1.393   9.746   7.190
   26POPC   D2A  799   1.216   9.422   6.952
   26POPC   C3A  800   1.321   9.396   6.546
   26POPC   C4A  801   1.235   9.519   6.172
   26POPC   C1B  802   0.915   9.700   7.373
   26POPC   C2B  803   0.917   9.845   6.968
   26POPC   C3B  804   1.117   9.850   6.595
   26POPC   C4B  805   0.860   9.834   6.241
   27POPC   NC3  806   5.283   2.553   8.212
   27POPC   PO4  807   5.451   1.964   8.069
   27POPC   GL1  808   5.381   1.734   7.672
   27POPC   GL2  809   5.748   1.736   7.542
   27POPC   C1A  810   5.305   1.883   7.228
   27POPC   D2A  811   5.605   2.057   6.927
   27POPC   C3A  812   5.488   2.086   6.486
   27POPC   C4A  813   5.717   2.152   6.100
   27POPC   C1B  814   5.654   1.531   7.164
   27POPC   C2B  815   5.539   1.590   6.723
   27POPC   C3B  816   5.864   1.736   6.435
   27POPC   C4B  817   6.154   1.855   6.118
   28POPC   NC3  818   7.693   0.273   7.954
   28POPC   PO4  819   7.169  11.438   8.251
   28POPC   GL1  820   7.113   0.221   7.807
   28POPC   GL2  821   7.262   0.568   7.809
   28POPC   C1A  822   7.193   0.135   7.305
   28POPC   D2A  823   6.948   0.007   6.935
   28POPC   C3A  824   7.125  11.499   6.515
   28POPC   C4A  825   7.011   0.158   6.090
   28POPC   C1B  826   7.262   0.642   7.360
   28POPC   C2B  827   7.414   0.502   6.953
   28POPC   C3B  828   7.461   0.381   6.517
   28POPC   C4B  829   7.285   0.587   6.142
   29POPC   NC3  830   7.989   8.791   8.155
   29POPC   PO4  831   8.545   8.592   8.135
   29POPC   GL1  832   8.322   8.814   7.746
   29POPC   GL2  833   7.992   9.043   7.722
   29POPC   C1A  834   7.993   8.634   7.412
   29POPC   D2A  835   7.864   8.779   6.963
   29POPC   C3A  836   8.124   8.649   6.609
   29POPC   C4A  837   7.993   8.548   6.198
   29POPC   C1B  838   8.055   9.108   7.294
   29POPC   C2B  839   8.346   8.963   7.001
   29POPC   C3B  840   8.365   9.092   6.614
   29POPC   C4B  841   8.016   9.061   6.307
   30POPC   NC3  842   6.368   9.605   8.198
   30POPC   PO4  843   6.864   9.188   8.082
   30POPC   GL1  844   6.706   9.530   7.751
   30POPC   GL2  845   6.430   9.803   7.712
   30POPC   C1A  846   6.797   9.648   7.293
   30POPC   D2A  847   6.782   9.491   6.857
   30POPC   C3A  848   6.714   9.768   6.478
   30POPC   C4A  849   6.783   9.462   6.135
   30POPC   C1B  850   6.270   9.701   7.325
   30POPC   C2B  851   6.363   9.773   6.927
   30POPC   C3B  852   6.186   9.678   6.545
   30POPC   C4B  853   6.175   9.838   6.163
   31POPC   NC3  854   2.336   5.362   8.239
   31POPC   PO4  855   3.048   5.306   8.172
   31POPC   GL1  856   2.711   5.485   7.848
   31POPC   GL2  857   2.577   5.833   7.835
   31POPC   C1A  858   2.664   5.527   7.355
   31POPC   D2A  859   2.827   5.405   6.910
   31POPC   C3A  860   2.668   5.484   6.475
   31POPC   C4A  861   2.919   5.620   6.093
   31POPC   C1B  862   2.628   6.026   7.400
   31POPC   C2B  863   2.747   5.921   6.949
   31POPC   C3B  864   2.698   6.002   6.480
   31POPC   C4B  865   2.300   6.163   6.287
   32POPC   NC3  866   8.077   2.055   8.194
   32POPC   PO4  867   7.826   1.588   7.806
   32POPC   GL1  868   8.085   1.811   7.550
   32POPC   GL2  869   8.323   2.004   7.746
   32POPC   C1A  870   8.438   1.648   7.311
   32POPC   D2A  871   8.502   1.587   6.857
   32POPC   C3A  872   8.069   1.619   6.649
   32POPC   C4A  873   7.815   1.603   6.251
   32POPC   C1B  874   8.427   2.157   7.355
   32POPC   C2B  875   8.224   1.993   6.987
   32POPC   C3B  876   8.155   2.133   6.585
   32POPC   C4B  877   8.228   1.878   6.223
   33POPC   NC3  878   4.601  10.951   8.041
   33POPC   PO4  879   4.212  10.371   8.249
   33POPC   GL1  880   4.515  10.277   7.737
   33POPC   GL2  881   4.285  10.420   7.439
   33POPC   C1A  882   4.728  10.297   7.304
   33POPC   D2A  883   4.652  10.620   6.966
   33POPC   C3A  884   4.733  10.399   6.563
   33POPC   C4A  885   4.743  10.515   6.137
   33POPC   C1B  886   4.027  10.125   7.241
   33POPC   C2B  887   3.914   9.966   6.838
   33POPC   C3B  888   3.922  10.156   6.407
   33POPC   C4B  889   4.268  10.445   6.312
   34POPC   NC3  890   7.369   8.242   8.051
   34POPC   PO4  891   6.782   8.287   7.957
   34POPC   GL1  892   7.109   8.484   7.652
   34POPC   GL2  893   7.464   8.423   7.584
   34POPC   C1A  894   7.110   8.444   7.195
   34POPC   D2A  895   7.250   8.200   6.812
   34POPC   C3A  896   7.127   8.320   6.380
   34POPC   C4A  897   6.785   8.151   6.132
   34POPC   C1B  898   7.620   8.357   7.162
   34POPC   C2B  899   7.736   8.333   6.729
   34POPC   C3B  900   7.623   8.213   6.323
   34POPC   C4B  901   7.683   8.284   5.875
   35POPC   NC3  902   0.977   6.793   7.893
   35POPC   PO4  903   0.940   6.142   8.106
   35POPC   GL1  904   0.982   6.332   7.676
   35POPC   GL2  905   1.339   6.453   7.700
   35POPC   C1A  906   1.081   6.550   7.255
   35POPC   D2A  907   0.981   6.865   6.915
   35POPC   C3A  908   1.074   6.656   6.492
   35POPC   C4A  909   1.030   6.511   6.057
   35POPC   C1B  910   1.571   6.479   7.288
   35POPC   C2B  911   1.440   6.589   6.870
   35POPC   C3B  912   1.573   6.839   6.554
   35POPC   C4B  913   1.488   6.753   6.144
   36POPC   NC3  914   3.265   5.713   8.125
   36POPC   PO4  915   3.037   6.272   8.304
   36POPC   GL1  916   3.034   6.147   7.777
   36POPC   GL2  917   3.055   5.808   7.633
   36POPC   C1A  918   3.117   6.166   7.241
   36POPC   D2A  919   3.220   5.972   6.767
   36POPC   C3A  920   3.166   6.229   6.337
   36POPC   C4A  921   3.298   6.442   5.923
   36POPC   C1B  922   3.168   5.661   7.207
   36POPC   C2B  923   3.544   5.592   6.930
   36POPC   C3B  924   3.684   5.672   6.509
   36POPC   C4B  925   3.342   5.759   6.308
   37POPC   NC3  926   8.362   0.625   8.009
   37POPC   PO4  927   8.138   0.031   8.022
   37POPC   GL1  928   8.355   0.222   7.659
   37POPC   GL2  929   8.073   0.463   7.591
   37POPC   C1A  930   8.412   0.364   7.196
   37POPC   D2A  931   8.085   0.328   6.832
   37POPC   C3A  932   8.204   0.393   6.391
   37POPC   C4A  933   8.321   0.107   6.021
   37POPC   C1B  934   7.842   0.669   7.226
   37POPC   C2B  935   7.810   0.764   6.765
   37POPC   C3B  936   7.799   0.687   6.292
   37POPC   C4B  937   7.710   0.672   5.847
   38POPC   NC3  938   1.539   2.590   7.905
   38POPC   PO4  939   0.989   2.922   8.070
   38POPC   GL1  940   1.019   2.703   7.708
   38POPC   GL2  941   1.287   2.934   7.630
   38POPC   C1A  942   1.174   2.529   7.302
   38POPC   D2A  943   1.301   2.675   6.895
   38POPC   C3A  944   1.373   2.460   6.489
   38POPC   C4A  945   1.400   2.587   6.052
   38POPC   C1B  946   1.008   3.098   7.341
   38POPC   C2B  947   0.875   2.990   6.946
   38POPC   C3B  948   1.098   3.035   6.583
   38POPC   C4B  949   1.006   2.881   6.193
   39POPC   NC3  950   0.568   2.712   8.109
   39POPC   PO4  951   0.737   2.111   7.964
   39POPC   GL1  952   0.544   2.434   7.686
   39POPC   GL2  953   0.261   2.683   7.684
   39POPC   C1A  954   0.659   2.676   7.331
   39POPC   D2A  955   0.775   2.445   6.978
   39POPC   C3A  956   0.896   2.571   6.586
   39POPC   C4A  957   0.905   2.384   6.149
   39POPC   C1B  958   0.144   2.751   7.235
   39POPC   C2B  959   0.386   2.763   6.852
   39POPC   C3B  960   0.463   2.788   6.412
   39POPC   C4B  961   0.140   2.776   6.105
   40POPC   NC3  962   4.992   1.811   8.091
   40POPC   PO4  963   4.758   2.481   8.151
   40POPC   GL1  964   4.921   2.241   7.780
   40POPC   GL2  965   4.699   1.994   7.707
   40POPC   C1A  966   4.890   2.211   7.283
   40POPC   D2A  967   5.116   2.220   6.851
   40POPC   C3A  968   5.014   2.299   6.393
   40POPC   C4A  969   5.272   2.425   6.024
   40POPC   C1B  970   4.865   1.681   7.398
   40POPC   C2B  971   4.835   1.811   6.945
   40POPC   C3B  972   5.039   1.809   6.544
   40POPC   C4B  973   4.847   1.694   6.157
   41POPC   NC3  974   8.843  10.613   8.030
   41POPC   PO4  975   8.318  10.163   8.175
   41POPC   GL1  976   8.454  10.437   7.777
   41POPC   GL2  977   8.766  10.350   7.601
   41POPC   C1A  978   8.377  10.498   7.300
   41POPC   D2A  979   8.521  10.262   6.892
   41POPC   C3A  980   8.595  10.508   6.485
   41POPC   C4A  981   8.550  10.664   6.021
   41POPC   C1B  982   8.905  10.186   7.225
   41POPC   C2B  983   9.025  10.295   6.787
   41POPC   C3B  984   8.928  10.149   6.366
   41POPC   C4B  985   9.011  10.484   6.149
   42POPC   NC3  986   7.500   2.225   8.017
   42POPC   PO4  987   7.793   1.714   8.321
   42POPC   GL1  988   7.382   1.746   7.857
   42POPC   GL2  989   7.566   1.980   7.593
   42POPC   C1A  990   7.430   1.621   7.302
   42POPC   D2A  991   7.733   1.867   6.975
   42POPC   C3A  992   7.666   2.006   6.498
   42POPC   C4A  993   7.373   1.850   6.167
   42POPC   C1B  994   7.333   2.109   7.218
   42POPC   C2B  995   7.263   1.949   6.800
   42POPC   C3B  996   7.180   2.225   6.453
   42POPC   C4B  997   6.973   2.137   6.053
   43POPC   NC3  998   7.567   1.229   7.951
   43POPC   PO4  999   6.872   1.251   8.060
   43POPC   GL1 1000   6.985   1.374   7.654
   43POPC   GL2 1001   7.191   1.082   7.639
   43POPC   C1A 1002   7.041   1.327   7.209
   43POPC   D2A 1003   6.985   1.427   6.792
   43POPC   C3A 1004   7.261   1.419   6.447
   43POPC   C4A 1005   7.143   1.435   6.003
   43POPC   C1B 1006   7.483   1.089   7.290
   43POPC   C2B 1007   7.268   0.984   6.913
   43POPC   C3B 1008   7.376   0.906   6.521
   43POPC   C4B 1009   7.471   1.064   6.119
   44POPC   NC3 1010   1.903   9.649   7.830
   44POPC   PO4 1011   2.321   9.171   8.050
   44POPC   GL1 1012   2.308   9.405   7.658
   44POPC   GL2 1013   2.050   9.258   7.480
   44POPC   C1A 1014   2.335   9.623   7.230
   44POPC   D2A 1015   2.341   9.385   6.852
   44POPC   C3A 1016   2.105   9.450   6.488
   44POPC   C4A 1017   2.128   9.728   6.154
   44POPC   C1B 1018   1.876   9.297   7.063
   44POPC   C2B 1019   1.715   9.630   6.791
   44POPC   C3B 1020   1.652   9.744   6.372
   44POPC   C4B 1021   1.697   9.924   5.988
   45POPC   NC3 1022  11.058   3.480   8.017
   45POPC   PO4 1023   0.094   3.224   7.741
   45POPC   GL1 1024  11.185   3.445   7.534
   45POPC   GL2 1025  11.065   3.830   7.665
   45POPC   C1A 1026  10.892   3.672   7.218
   45POPC   D2A 1027  10.749   3.515   6.833
   45POPC   C3A 1028  11.028   3.226   6.620
   45POPC   C4A 1029  10.977   3.177   6.179
   45POPC   C1B 1030  11.379   3.883   7.357
   45POPC   C2B 1031  11.340   3.728   6.948
   45POPC   C3B 1032  11.137   3.755   6.562
   45POPC   C4B 1033  11.351   3.504   6.274
   46POPC   NC3 1034   8.806   8.226   8.040
   46POPC   PO4 1035   8.471   7.757   7.801
   46POPC   GL1 1036   8.844   7.917   7.586
   46POPC   GL2 1037   8.865   8.279   7.537
   46POPC   C1A 1038   9.007   7.846   7.161
   46POPC   D2A 1039   8.987   8.006   6.719
   46POPC   C3A 1040   8.943   7.790   6.319
   46POPC   C4A 1041   8.661   7.762   5.922
   46POPC   C1B 1042   8.834   8.365   7.091
   46POPC   C2B 1043   9.161   8.482   6.790
   46POPC   C3B 1044   9.141   8.346   6.355
   46POPC   C4B 1045   8.931   8.177   5.992
   47POPC   NC3 1046   1.538   8.254   8.242
   47POPC   PO4 1047   0.986   7.908   8.091
   47POPC   GL1 1048   1.055   8.086   7.693
   47POPC   GL2 1049   0.987   7.768   7.563
   47POPC   C1A 1050   1.250   8.240   7.287
   47POPC   D2A 1051   1.256   8.534   6.940
   47POPC   C3A 1052   1.321   8.440   6.481
   47POPC   C4A 1053   1.051   8.327   6.114
   47POPC   C1B 1054   1.194   7.721   7.168
   47POPC   C2B 1055   1.280   8.002   6.812
   47POPC   C3B 1056   1.257   7.942   6.369
   47POPC   C4B 1057   1.508   7.721   6.111
   48POPC   NC3 1058   0.635  10.406   8.032
   48POPC   PO4 1059   0.104  10.085   8.185
   48POPC   GL1 1060   0.276  10.157   7.741
   48POPC   GL2 1061   0.350  10.518   7.637
   48POPC   C1A 1062   0.606  10.133   7.385
   48POPC   D2A 1063   0.459  10.061   6.956
   48POPC   C3A 1064   0.722  10.193   6.622
   48POPC   C4A 1065   0.742  10.358   6.226
   48POPC   C1B 1066   0.193  10.413   7.246
   48POPC   C2B 1067   0.333  10.547   6.847
   48POPC   C3B 1068   0.294  10.465   6.427
   48POPC   C4B 1069   0.238  10.804   6.170
   49POPC   NC3 1070   1.153   3.344   8.111
   49POPC   PO4 1071   0.757   3.883   7.914
   49POPC   GL1 1072   1.150   3.800   7.668
   49POPC   GL2 1073   1.307   3.474   7.651
   49POPC   C1A 1074   1.273   3.727   7.214
   49POPC   D2A 1075   1.100   3.480   6.865
   49POPC   C3A 1076   1.139   3.712   6.445
   49POPC   C4A 1077   1.103   3.620   5.993
   49POPC   C1B 1078   1.520   3.273   7.334
   49POPC   C2B 1079   1.487   3.140   6.943
   49POPC   C3B 1080   1.501   3.362   6.573
   49POPC   C4B 1081   1.351   3.262   6.208
   50POPC   NC3 1082   1.910   7.083   8.236
   50POPC   PO4 1083   1.287   7.054   8.096
   50POPC   GL1 1084   1.405   6.997   7.673
   50POPC   GL2 1085   1.277   7.350   7.673
   50POPC   C1A 1086   1.396   6.969   7.220
   50POPC   D2A 1087   1.329   7.282   6.918
   50POPC   C3A 1088   1.176   7.158   6.527
   50POPC   C4A 1089   1.390   7.247   6.173
   50POPC   C1B 1090   0.994   7.256   7.364
   50POPC   C2B 1091   0.812   7.373   6.984
   50POPC   C3B 1092   0.992   7.612   6.658
   50POPC   C4B 1093   0.974   7.529   6.227
   51POPC   NC3 1094   3.440   9.486   8.269
   51POPC   PO4 1095   3.483  10.145   8.165
   51POPC   GL1 1096   3.480   9.925   7.780
   51POPC   GL2 1097   3.673   9.634   7.757
   51POPC   C1A 1098   3.553   9.947   7.342
   51POPC   D2A 1099   3.254   9.833   7.034
   51POPC   C3A 1100   3.462   9.804   6.666
   51POPC   C4A 1101   3.466   9.960   6.282
   51POPC   C1B 1102   3.471   9.441   7.371
   51POPC   C2B 1103   3.335   9.342   6.917
   51POPC   C3B 1104   3.505   9.340   6.458
   51POPC   C4B 1105   3.801   9.294   6.091
   52POPC   NC3 1106   8.952   3.308   8.218
   52POPC   PO4 1107   9.135   3.878   8.105
   52POPC   GL1 1108   9.240   3.611   7.728
   52POPC   GL2 1109   8.991   3.335   7.712
   52POPC   C1A 1110   9.108   3.605   7.277
   52POPC   D2A 1111   8.828   3.542   6.913
   52POPC   C3A 1112   8.954   3.643   6.488
   52POPC   C4A 1113   8.853   3.818   6.083
   52POPC   C1B 1114   8.859   3.151   7.318
   52POPC   C2B 1115   9.034   3.082   6.924
   52POPC   C3B 1116   8.781   3.131   6.579
   52POPC   C4B 1117   8.645   3.346   6.191
   53POPC   NC3 1118   1.712   5.281   7.979
   53POPC   PO4 1119   2.171   5.786   8.185
   53POPC   GL1 1120   2.119   5.578   7.766
   53POPC   GL2 1121   1.760   5.676   7.655
   53POPC   C1A 1122   2.129   5.707   7.299
   53POPC   D2A 1123   1.905   5.731   6.887
   53POPC   C3A 1124   2.156   5.697   6.498
   53POPC   C4A 1125   2.010   5.485   6.106
   53POPC   C1B 1126   1.647   5.959   7.297
   53POPC   C2B 1127   1.410   6.086   6.926
   53POPC   C3B 1128   1.468   6.191   6.502
   53POPC   C4B 1129   1.737   5.894   6.283
   54POPC   NC3 1130  10.881   9.637   8.045
   54POPC   PO4 1131  11.468   9.245   8.094
   54POPC   GL1 1132  11.462   9.404   7.664
   54POPC   GL2 1133  11.301   9.726   7.709
   54POPC   C1A 1134  11.299   9.544   7.237
   54POPC   D2A 1135  11.282   9.831   6.862
   54POPC   C3A 1136  11.433   9.639   6.497
   54POPC   C4A 1137  11.465   9.629   6.070
   54POPC   C1B 1138  10.895   9.802   7.412
   54POPC   C2B 1139  10.824   9.627   6.982
   54POPC   C3B 1140  10.910   9.608   6.542
   54POPC   C4B 1141  11.076   9.318   6.262
   55POPC   NC3 1142  10.773   5.086   8.065
   55POPC   PO4 1143  10.174   5.450   8.124
   55POPC   GL1 1144  10.224   5.277   7.702
   55POPC   GL2 1145  10.436   4.979   7.674
   55POPC   C1A 1146  10.373   5.377   7.278
   55POPC   D2A 1147  10.486   5.259   6.849
   55POPC   C3A 1148  10.184   5.259   6.530
   55POPC   C4A 1149  10.183   4.910   6.257
   55POPC   C1B 1150  10.625   4.841   7.285
   55POPC   C2B 1151  10.627   4.764   6.849
   55POPC   C3B 1152  10.669   4.881   6.417
   55POPC   C4B 1153  10.556   4.684   6.003
   56POPC   NC3 1154   5.905   0.510   8.170
   56POPC   PO4 1155   5.267   0.336   8.276
   56POPC   GL1 1156   5.471   0.496   7.800
   56POPC   GL2 1157   5.706   0.746   7.749
   56POPC   C1A 1158   5.778   0.391   7.392
   56POPC   D2A 1159   5.711   0.250   6.937
   56POPC   C3A 1160   6.037   0.205   6.601
   56POPC   C4A 1161   5.980   0.113   6.154
   56POPC   C1B 1162   6.103   0.793   7.498
   56POPC   C2B 1163   6.148   0.858   7.037
   56POPC   C3B 1164   5.858   0.725   6.699
   56POPC   C4B 1165   5.786   0.560   6.296
   57POPC   NC3 1166   9.557  10.920   8.207
   57POPC   PO4 1167   9.190  10.634   7.707
   57POPC   GL1 1168   9.473  11.006   7.649
   57POPC   GL2 1169   9.533  11.386   7.693
   57POPC   C1A 1170   9.473  11.162   7.215
   57POPC   D2A 1171   9.696  11.022   6.836
   57POPC   C3A 1172   9.500  10.987   6.415
   57POPC   C4A 1173   9.772  11.039   6.053
   57POPC   C1B 1174   9.812   0.019   7.350
   57POPC   C2B 1175   9.643   0.054   6.892
   57POPC   C3B 1176   9.681  11.466   6.431
   57POPC   C4B 1177   9.793   0.027   5.981
   58POPC   NC3 1178  10.503   8.320   8.342
   58POPC   PO4 1179   9.947   8.473   7.919
   58POPC   GL1 1180  10.125   8.325   7.592
   58POPC   GL2 1181  10.292   8.013   7.689
   58POPC   C1A 1182  10.221   8.258   7.180
   58POPC   D2A 1183  10.354   8.090   6.810
   58POPC   C3A 1184  10.268   8.315   6.470
   58POPC   C4A 1185  10.272   8.189   6.046
   58POPC   C1B 1186  10.618   8.013   7.365
   58POPC   C2B 1187  10.823   8.208   7.012
   58POPC   C3B 1188  10.787   8.265   6.569
   58POPC   C4B 1189  10.599   7.926   6.325
   59POPC   NC3 1190   4.620   1.217   8.046
   59POPC   PO4 1191   4.125   0.759   8.083
   59POPC   GL1 1192   4.012   1.038   7.741
   59POPC   GL2 1193   4.358   1.025   7.649
   59POPC   C1A 1194   3.887   0.935   7.307
   59POPC   D2A 1195   4.133   0.949   6.928
   59POPC   C3A 1196   3.981   0.951   6.544
   59POPC   C4A 1197   4.281   1.164   6.387
   59POPC   C1B 1198   4.285   1.277   7.287
   59POPC   C2B 1199   4.526   1.405   6.944
   59POPC   C3B 1200   4.567   1.535   6.548
   59POPC   C4B 1201   4.165   1.666   6.356
   60POPC   NC3 1202   1.351   4.839   8.200
   60POPC   PO4 1203   2.044   5.012   8.157
   60POPC   GL1 1204   2.029   4.930   7.713
   60POPC   GL2 1205   1.881   5.189   7.520
   60POPC   C1A 1206   1.994   4.745   7.301
   60POPC   D2A 1207   1.898   5.045   6.966
   60POPC   C3A 1208   1.854   4.823   6.576
   60POPC   C4A 1209   1.830   5.011   6.177
   60POPC   C1B 1210   2.256   5.213   7.314
   60POPC   C2B 1211   2.310   5.371   6.888
   60POPC   C3B 1212   2.226   5.191   6.469
   60POPC   C4B 1213   2.441   5.199   6.054
   61POPC   NC3 1214   9.804   5.158   8.210
   61POPC   PO4 1215   9.756   4.492   8.022
   61POPC   GL1 1216   9.934   4.832   7.742
   61POPC   GL2 1217   9.723   5.139   7.711
   61POPC   C1A 1218  10.040   4.985   7.301
   61POPC   D2A 1219  10.113   4.862   6.854
   61POPC   C3A 1220   9.775   4.950   6.523
   61POPC   C4A 1221   9.641   4.799   6.125
   61POPC   C1B 1222   9.537   5.086   7.309
   61POPC   C2B 1223   9.531   5.215   6.869
   61POPC   C3B 1224   9.344   5.218   6.446
   61POPC   C4B 1225   9.396   5.226   6.006
   62POPC   NC3 1226  11.353  11.107   7.871
   62POPC   PO4 1227  10.822  11.455   8.098
   62POPC   GL1 1228  11.076   0.016   7.730
   62POPC   GL2 1229  10.836  11.391   7.529
   62POPC   C1A 1230  11.315   0.042   7.330
   62POPC   D2A 1231  11.071   0.026   6.948
   62POPC   C3A 1232  11.308  11.497   6.567
   62POPC   C4A 1233  11.164   0.058   6.146
   62POPC   C1B 1234  11.036  11.103   7.262
   62POPC   C2B 1235  11.122  11.014   6.834
   62POPC   C3B 1236  11.214  10.999   6.409
   62POPC   C4B 1237  10.977  10.729   6.115
   63POPC   NC3 1238  10.202   3.399   8.226
   63POPC   PO4 1239  10.679   3.320   7.768
   63POPC   GL1 1240  10.298   3.293   7.575
   63POPC   GL2 1241  10.194   3.600   7.745
   63POPC   C1A 1242  10.328   3.303   7.114
   63POPC   D2A 1243  10.253   3.375   6.672
   63POPC   C3A 1244  10.594   3.502   6.343
   63POPC   C4A 1245  10.583   3.326   5.896
   63POPC   C1B 1246  10.151   3.773   7.344
   63POPC   C2B 1247  10.329   3.793   6.935
   63POPC   C3B 1248  10.183   3.882   6.534
   63POPC   C4B 1249  10.216   3.728   6.106
   64POPC   NC3 1250   6.746   0.080   8.210
   64POPC   PO4 1251   6.363   0.564   8.241
   64POPC   GL1 1252   6.346   0.405   7.771
   64POPC   GL2 1253   6.583   0.103   7.707
   64POPC   C1A 1254   6.292   0.351   7.288
   64POPC   D2A 1255   6.488   0.261   6.866
   64POPC   C3A 1256   6.410   0.595   6.558
   64POPC   C4A 1257   6.272   0.522   6.142
   64POPC   C1B 1258   6.783   0.407   7.430
   64POPC   C2B 1259   6.909   0.531   6.993
   64POPC   C3B 1260   6.922   0.463   6.539
   64POPC   C4B 1261   6.770   0.643   6.141
   65POPC   NC3 1262   4.677  10.365   8.208
   65POPC   PO4 1263   5.009  10.974   8.268
   65POPC   GL1 1264   4.957  10.626   7.853
   65POPC   GL2 1265   4.738  10.737   7.559
   65POPC   C1A 1266   5.188  10.417   7.465
   65POPC   D2A 1267   5.109  10.428   6.960
   65POPC   C3A 1268   5.162  10.107   6.624
   65POPC   C4A 1269   5.051  10.113   6.168
   65POPC   C1B 1270   5.109  10.859   7.255
   65POPC   C2B 1271   5.291  10.896   6.812
   65POPC   C3B 1272   5.172  10.670   6.410
   65POPC   C4B 1273   5.226  10.570   5.939
   66POPC   NC3 1274   0.001   5.438   8.107
   66POPC   PO4 1275   0.016   4.701   8.107
   66POPC   GL1 1276  11.191   4.838   7.850
   66POPC   GL2 1277  11.175   5.208   7.767
   66POPC   C1A 1278  11.125   4.831   7.415
   66POPC   D2A 1279  11.099   4.621   7.023
   66POPC   C3A 1280  11.143   4.864   6.661
   66POPC   C4A 1281  11.153   4.741   6.257
   66POPC   C1B 1282  10.843   5.274   7.449
   66POPC   C2B 1283  10.952   5.156   7.031
   66POPC   C3B 1284  10.946   5.345   6.612
   66POPC   C4B 1285  10.620   5.394   6.311
   67POPC   NC3 1286   7.890  10.313   8.059
   67POPC   PO4 1287   8.361   9.966   7.669
   67POPC   GL1 1288   8.012  10.270   7.572
   67POPC   GL2 1289   8.016  10.673   7.724
   67POPC   C1A 1290   7.790  10.302   7.178
   67POPC   D2A 1291   8.046  10.435   6.814
   67POPC   C3A 1292   8.200  10.156   6.501
   67POPC   C4A 1293   7.863  10.242   6.282
   67POPC   C1B 1294   7.847  10.759   7.350
   67POPC   C2B 1295   7.711  10.807   6.913
   67POPC   C3B 1296   7.962  10.906   6.602
   67POPC   C4B 1297   8.147  10.670   6.312
   68POPC   NC3 1298   4.551   2.840   8.458
   68POPC   PO4 1299   4.000   2.587   8.098
   68POPC   GL1 1300   4.200   2.648   7.692
   68POPC   GL2 1301   4.007   2.944   7.637
   68POPC   C1A 1302   4.499   2.592   7.307
   68POPC   D2A 1303   4.537   2.318   6.923
   68POPC   C3A 1304   4.592   2.555   6.535
   68POPC   C4A 1305   4.479   2.442   6.112
   68POPC   C1B 1306   3.993   2.740   7.224
   68POPC   C2B 1307   4.184   2.768   6.792
   68POPC   C3B 1308   4.164   2.797   6.322
   68POPC   C4B 1309   4.432   2.951   5.979
   69POPC   NC3 1310   1.390   6.205   8.186
   69POPC   PO4 1311   1.233   5.567   7.974
   69POPC   GL1 1312   1.243   5.888   7.672
   69POPC   GL2 1313   1.291   5.624   7.446
   69POPC   C1A 1314   1.037   6.026   7.255
   69POPC   D2A 1315   0.910   5.878   6.808
   69POPC   C3A 1316   0.949   6.133   6.418
   69POPC   C4A 1317   0.839   6.049   5.969
   69POPC   C1B 1318   1.585   5.440   7.189
   69POPC   C2B 1319   1.391   5.576   6.818
   69POPC   C3B 1320   1.265   5.707   6.417
   69POPC   C4B 1321   1.514   5.418   6.213
   70POPC   NC3 1322   3.520   0.099   8.138
   70POPC   PO4 1323   3.345  10.835   8.113
   70POPC   GL1 1324   3.524  10.955   7.704
   70POPC   GL2 1325   3.586  11.317   7.706
   70POPC   C1A 1326   3.796  10.994   7.322
   70POPC   D2A 1327   3.921  11.278   6.993
   70POPC   C3A 1328   3.764  11.143   6.582
   70POPC   C4A 1329   3.757  11.229   6.130
   70POPC   C1B 1330   3.339  11.291   7.316
   70POPC   C2B 1331   3.164  11.355   6.891
   70POPC   C3B 1332   3.303  11.339   6.435
   70POPC   C4B 1333   3.351  10.906   6.267
   71POPC   NC3 1334  11.128   4.455   8.245
   71POPC   PO4 1335  11.430   3.905   8.030
   71POPC   GL1 1336  11.374   4.283   7.796
   71POPC   GL2 1337  11.034   4.358   7.740
   71POPC   C1A 1338  11.435   4.423   7.365
   71POPC   D2A 1339  11.483   4.227   6.983
   71POPC   C3A 1340  11.380   4.320   6.568
   71POPC   C4A 1341  11.403   4.028   6.213
   71POPC   C1B 1342  10.989   4.211   7.336
   71POPC   C2B 1343  10.987   4.123   6.914
   71POPC   C3B 1344  10.890   4.420   6.573
   71POPC   C4B 1345  10.966   4.274   6.180
   72POPC   NC3 1346   9.363   4.271   8.076
   72POPC   PO4 1347   9.996   3.876   8.152
   72POPC   GL1 1348   9.815   3.953   7.739
   72POPC   GL2 1349   9.973   4.207   7.554
   72POPC   C1A 1350   9.598   3.821   7.350
   72POPC   D2A 1351   9.339   3.908   6.946
   72POPC   C3A 1352   9.426   3.881   6.500
   72POPC   C4A 1353   9.774   4.043   6.295
   72POPC   C1B 1354   9.735   4.554   7.352
   72POPC   C2B 1355   9.636   4.689   6.943
   72POPC   C3B 1356   9.609   4.467   6.543
   72POPC   C4B 1357   9.366   4.361   6.185
   73POPC   NC3 1358   2.665   8.123   8.065
   73POPC   PO4 1359   2.191   7.459   8.258
   73POPC   GL1 1360   2.105   7.437   7.830
   73POPC   GL2 1361   1.791   7.327   7.778
   73POPC   C1A 1362   2.135   7.476   7.377
   73POPC   D2A 1363   2.192   7.747   7.023
   73POPC   C3A 1364   2.182   7.536   6.620
   73POPC   C4A 1365   2.015   7.623   6.182
   73POPC   C1B 1366   1.643   7.400   7.345
   73POPC   C2B 1367   1.846   7.289   6.963
   73POPC   C3B 1368   1.722   7.329   6.544
   73POPC   C4B 1369   1.865   7.120   6.170
   74POPC   NC3 1370  10.641   1.298   8.356
   74POPC   PO4 1371  10.198   0.877   8.025
   74POPC   GL1 1372  10.378   1.138   7.719
   74POPC   GL2 1373  10.276   1.457   7.774
   74POPC   C1A 1374  10.384   1.085   7.309
   74POPC   D2A 1375  10.017   0.983   7.086
   74POPC   C3A 1376  10.064   1.040   6.649
   74POPC   C4A 1377  10.471   1.056   6.382
   74POPC   C1B 1378  10.155   1.530   7.329
   74POPC   C2B 1379  10.307   1.408   6.915
   74POPC   C3B 1380  10.260   1.511   6.485
   74POPC   C4B 1381  10.386   1.459   6.028
   75POPC   NC3 1382   0.547   4.777   8.020
   75POPC   PO4 1383   0.457   5.483   7.921
   75POPC   GL1 1384   0.513   5.133   7.656
   75POPC   GL2 1385   0.167   5.034   7.711
   75POPC   C1A 1386   0.625   5.063   7.230
   75POPC   D2A 1387   0.390   5.131   6.845
   75POPC   C3A 1388   0.593   5.057   6.477
   75POPC   C4A 1389   0.887   4.768   6.374
   75POPC   C1B 1390   0.140   4.880   7.271
   75POPC   C2B 1391   0.099   4.714   6.838
   75POPC   C3B 1392   0.102   4.949   6.425
   75POPC   C4B 1393   0.272   5.340   6.179
   76POPC   NC3 1394   0.981   7.433   8.114
   76POPC   PO4 1395   0.440   7.695   8.359
   76POPC   GL1 1396   0.572   7.645   7.860
   76POPC   GL2 1397   0.425   7.346   7.690
   76POPC   C1A 1398   0.541   7.684   7.358
   76POPC   D2A 1399   0.303   7.521   7.024
   76POPC   C3A 1400   0.495   7.627   6.646
   76POPC   C4A 1401   0.463   7.504   6.248
   76POPC   C1B 1402   0.512   7.110   7.353
   76POPC   C2B 1403   0.431   7.000   6.964
   76POPC   C3B 1404   0.393   7.128   6.586
   76POPC   C4B 1405   0.704   7.049   6.295
   77POPC   NC3 1406   2.059   4.434   7.989
   77POPC   PO4 1407   1.510   4.006   8.070
   77POPC   GL1 1408   1.651   4.209   7.679
   77POPC   GL2 1409   1.986   4.228   7.522
   77POPC   C1A 1410   1.581   4.373   7.244
   77POPC   D2A 1411   1.765   4.110   6.910
   77POPC   C3A 1412   1.615   4.144   6.470
   77POPC   C4A 1413   1.704   4.507   6.195
   77POPC   C1B 1414   2.209   3.971   7.178
   77POPC   C2B 1415   2.338   4.086   6.759
   77POPC   C3B 1416   2.115   4.327   6.440
   77POPC   C4B 1417   2.225   4.708   6.205
   78POPC   NC3 1418   7.140  10.217   8.030
   78POPC   PO4 1419   7.562  10.715   8.071
   78POPC   GL1 1420   7.544  10.467   7.655
   78POPC   GL2 1421   7.510  10.124   7.616
   78POPC   C1A 1422   7.363  10.619   7.227
   78POPC   D2A 1423   7.118  10.644   6.831
   78POPC   C3A 1424   7.427  10.529   6.529
   78POPC   C4A 1425   7.631  10.785   6.258
   78POPC   C1B 1426   7.172  10.168   7.331
   78POPC   C2B 1427   7.292  10.194   6.920
   78POPC   C3B 1428   7.226  10.059   6.498
   78POPC   C4B 1429   7.032  10.149   6.143
   79POPC   NC3 1430   1.992   1.110   8.075
   79POPC   PO4 1431   2.269   1.587   7.824
   79POPC   GL1 1432   2.049   1.325   7.568
   79POPC   GL2 1433   1.719   1.328   7.693
   79POPC   C1A 1434   2.142   1.143   7.150
   79POPC   D2A 1435   2.318   0.961   6.750
   79POPC   C3A 1436   2.112   1.189   6.393
   79POPC   C4A 1437   2.242   1.481   6.083
   79POPC   C1B 1438   1.635   1.127   7.299
   79POPC   C2B 1439   1.533   1.281   6.903
   79POPC   C3B 1440   1.578   1.160   6.492
   79POPC   C4B 1441   1.674   0.993   6.121
   80POPC   NC3 1442  10.376   9.061   8.242
   80POPC   PO4 1443  10.464   9.656   8.237
   80POPC   GL1 1444  10.459   9.707   7.769
   80POPC   GL2 1445  10.136   9.802   7.679
   80POPC   C1A 1446  10.437   9.551   7.323
   80POPC   D2A 1447  10.316   9.658   6.878
   80POPC   C3A 1448  10.374   9.581   6.438
   80POPC   C4A 1449  10.606   9.884   6.210
   80POPC   C1B 1450  10.146   9.994   7.260
   80POPC   C2B 1451   9.971  10.045   6.824
   80POPC   C3B 1452  10.152  10.110   6.379
   80POPC   C4B 1453  10.172   9.909   5.934
   81POPC   NC3 1454   1.817   3.664   8.011
   81POPC   PO4 1455   2.401   3.997   8.001
   81POPC   GL1 1456   2.177   3.776   7.657
   81POPC   GL2 1457   2.106   3.435   7.661
   81POPC   C1A 1458   1.798   3.734   7.360
   81POPC   D2A 1459   1.779   3.570   6.941
   81POPC   C3A 1460   1.981   3.782   6.587
   81POPC   C4A 1461   2.300   3.873   6.277
   81POPC   C1B 1462   2.020   3.236   7.266
   81POPC   C2B 1463   1.985   3.058   6.858
   81POPC   C3B 1464   1.992   3.280   6.489
   81POPC   C4B 1465   1.787   3.557   6.187
   82POPC   NC3 1466  10.334   2.158   8.009
   82POPC   PO4 1467   9.857   1.704   8.026
   82POPC   GL1 1468   9.718   1.736   7.628
   82POPC   GL2 1469   9.355   1.599   7.604
   82POPC   C1A 1470   9.918   1.992   7.294
   82POPC   D2A 1471  10.111   1.889   6.907
   82POPC   C3A 1472   9.867   1.840   6.496
   82POPC   C4A 1473   9.931   1.689   6.118
   82POPC   C1B 1474   9.439   1.836   7.219
   82POPC   C2B 1475   9.650   2.073   6.870
   82POPC   C3B 1476   9.589   2.329   6.471
   82POPC   C4B 1477   9.403   2.380   6.036
   83POPC   NC3 1478   0.819   5.685   8.177
   83POPC   PO4 1479   0.188   5.859   8.233
   83POPC   GL1 1480   0.219   5.944   7.769
   83POPC   GL2 1481   0.587   5.982   7.740
   83POPC   C1A 1482   0.218   5.734   7.339
   83POPC   D2A 1483   0.555   5.569   7.066
   83POPC   C3A 1484   0.479   5.577   6.614
   83POPC   C4A 1485   0.749   5.658   6.276
   83POPC   C1B 1486   0.538   6.115   7.296
   83POPC   C2B 1487   0.396   6.035   6.868
   83POPC   C3B 1488   0.440   6.041   6.399
   83POPC   C4B 1489   0.092   5.825   6.215
   84POPC   NC3 1490  10.302  10.082   8.113
   84POPC   PO4 1491  10.015  10.728   8.089
   84POPC   GL1 1492  10.154  10.460   7.708
   84POPC   GL2 1493  10.442  10.212   7.644
   84POPC   C1A 1494  10.296  10.531   7.274
   84POPC   D2A 1495  10.257  10.809   6.930
   84POPC   C3A 1496  10.249  10.630   6.545
   84POPC   C4A 1497  10.188  10.755   6.112
   84POPC   C1B 1498  10.783  10.381   7.406
   84POPC   C2B 1499  10.786  10.678   7.062
   84POPC   C3B 1500  10.803  10.644   6.610
   84POPC   C4B 1501  10.590  10.421   6.244
   85POPC   NC3 1502   4.419   0.457   7.883
   85POPC   PO4 1503   4.016  11.483   8.103
   85POPC   GL1 1504   3.942   0.196   7.673
   85POPC   GL2 1505   4.002   0.547   7.617
   85POPC   C1A 1506   4.024   0.262   7.194
   85POPC   D2A 1507   3.920   0.502   6.804
   85POPC   C3A 1508   4.045   0.334   6.379
   85POPC   C4A 1509   4.115   0.368   5.937
   85POPC   C1B 1510   4.331   0.668   7.299
   85POPC   C2B 1511   4.421   0.521   6.929
   85POPC   C3B 1512   4.401   0.671   6.537
   85POPC   C4B 1513   4.540   0.497   6.209
   86POPC   NC3 1514   1.945   1.812   8.072
   86POPC   PO4 1515   1.988   2.480   7.852
   86POPC   GL1 1516   2.078   2.228   7.568
   86POPC   GL2 1517   1.955   1.875   7.552
   86POPC   C1A 1518   2.129   2.329   7.146
   86POPC   D2A 1519   2.009   2.046   6.835
   86POPC   C3A 1520   2.069   2.204   6.424
   86POPC   C4A 1521   1.873   2.443   6.131
   86POPC   C1B 1522   1.825   1.621   7.196
   86POPC   C2B 1523   1.955   1.518   6.763
   86POPC   C3B 1524   1.808   1.612   6.339
   86POPC   C4B 1525   1.925   1.886   5.997
   87POPC   NC3 1526   9.566   3.720   8.124
   87POPC   PO4 1527   9.811   3.155   8.237
   87POPC   GL1 1528   9.752   3.337   7.793
   87POPC   GL2 1529   9.458   3.147   7.814
   87POPC   C1A 1530   9.845   3.375   7.295
   87POPC   D2A 1531   9.833   3.714   6.897
   87POPC   C3A 1532   9.801   3.538   6.464
   87POPC   C4A 1533   9.800   3.126   6.529
   87POPC   C1B 1534   9.375   3.191   7.378
   87POPC   C2B 1535   9.453   3.368   6.947
   87POPC   C3B 1536   9.314   3.281   6.533
   87POPC   C4B 1537   9.326   3.467   6.154
   88POPC   NC3 1538   8.729   9.031   8.172
   88POPC   PO4 1539   9.201   8.486   8.076
   88POPC   GL1 1540   8.902   8.736   7.780
   88POPC   GL2 1541   8.901   9.123   7.695
   88POPC   C1A 1542   8.704   8.794   7.363
   88POPC   D2A 1543   8.840   8.847   6.928
   88POPC   C3A 1544   8.693   8.672   6.537
   88POPC   C4A 1545   8.441   8.824   6.180
   88POPC   C1B 1546   9.000   9.243   7.242
   88POPC   C2B 1547   8.787   9.320   6.804
   88POPC   C3B 1548   8.829   9.152   6.344
   88POPC   C4B 1549   9.158   9.125   5.974
   89POPC   NC3 1550   2.653   1.358   8.026
   89POPC   PO4 1551   2.291   0.761   8.133
   89POPC   GL1 1552   2.421   0.980   7.694
   89POPC   GL2 1553   2.587   1.309   7.540
   89POPC   C1A 1554   2.641   0.905   7.262
   89POPC   D2A 1555   2.913   0.923   6.900
   89POPC   C3A 1556   2.759   0.884   6.481
   89POPC   C4A 1557   2.453   0.880   6.180
   89POPC   C1B 1558   3.022   1.386   7.395
   89POPC   C2B 1559   3.118   1.386   6.956
   89POPC   C3B 1560   3.072   1.278   6.519
   89POPC   C4B 1561   2.706   1.410   6.263
   90POPC   NC3 1562   9.591   8.230   8.083
   90POPC   PO4 1563   9.435   7.668   8.052
   90POPC   GL1 1564   9.333   8.055   7.688
   90POPC   GL2 1565   9.525   8.404   7.634
   90POPC   C1A 1566   9.289   8.250   7.253
   90POPC   D2A 1567   9.438   8.070   6.936
   90POPC   C3A 1568   9.557   8.195   6.590
   90POPC   C4A 1569   9.464   7.966   6.216
   90POPC   C1B 1570   9.763   8.082   7.328
   90POPC   C2B 1571   9.896   7.869   6.889
   90POPC   C3B 1572   9.950   7.927   6.404
   90POPC   C4B 1573   9.822   8.357   6.196
   91POPC   NC3 1574   6.685   1.668   7.993
   91POPC   PO4 1575   7.033   2.228   7.923
   91POPC   GL1 1576   6.965   1.898   7.595
   91POPC   GL2 1577   6.589   1.816   7.528
   91POPC   C1A 1578   6.914   1.818   7.156
   91POPC   D2A 1579   6.777   2.074   6.819
   91POPC   C3A 1580   6.868   1.822   6.480
   91POPC   C4A 1581   6.714   1.681   6.146
   91POPC   C1B 1582   6.206   1.768   7.275
   91POPC   C2B 1583   6.098   1.912   6.869
   91POPC   C3B 1584   6.345   2.040   6.535
   91POPC   C4B 1585   6.169   2.356   6.251
   92POPC   NC3 1586   6.297   3.420   8.312
   92POPC   PO4 1587   6.615   3.012   8.154
   92POPC   GL1 1588   6.484   3.237   7.755
   92POPC   GL2 1589   6.488   3.587   7.846
   92POPC   C1A 1590   6.459   3.185   7.253
   92POPC   D2A 1591   6.668   3.199   6.822
   92POPC   C3A 1592   6.437   3.243   6.412
   92POPC   C4A 1593   6.491   3.190   5.950
   92POPC   C1B 1594   6.641   3.627   7.425
   92POPC   C2B 1595   6.467   3.647   7.000
   92POPC   C3B 1596   6.652   3.671   6.590
   92POPC   C4B 1597   6.521   3.705   6.157
   93POPC   NC3 1598   8.075   1.382   8.141
   93POPC   PO4 1599   7.750   0.782   7.960
   93POPC   GL1 1600   7.929   1.070   7.620
   93POPC   GL2 1601   8.242   1.265   7.645
   93POPC   C1A 1602   7.944   1.305   7.202
   93POPC   D2A 1603   7.640   1.356   6.840
   93POPC   C3A 1604   7.825   1.169   6.467
   93POPC   C4A 1605   7.963   1.101   6.004
   93POPC   C1B 1606   8.308   0.882   7.329
   93POPC   C2B 1607   8.323   0.781   6.859
   93POPC   C3B 1608   8.254   0.904   6.421
   93POPC   C4B 1609   8.301   1.351   6.284
   94POPC   NC3 1610   6.436  10.719   8.118
   94POPC   PO4 1611   6.584  10.024   8.128
   94POPC   GL1 1612   6.526  10.330   7.788
   94POPC   GL2 1613   6.835  10.353   7.646
   94POPC   C1A 1614   6.394  10.569   7.401
   94POPC   D2A 1615   6.511  10.577   6.919
   94POPC   C3A 1616   6.239  10.691   6.554
   94POPC   C4A 1617   6.236  10.638   6.077
   94POPC   C1B 1618   6.623  10.121   7.320
   94POPC   C2B 1619   6.806  10.040   6.928
   94POPC   C3B 1620   6.792  10.307   6.581
   94POPC   C4B 1621   6.491  10.227   6.301
   95POPC   NC3 1622   6.870   2.650   8.033
   95POPC   PO4 1623   7.558   2.679   8.181
   95POPC   GL1 1624   7.331   2.728   7.759
   95POPC   GL2 1625   7.359   2.444   7.590
   95POPC   C1A 1626   7.024   2.715   7.349
   95POPC   D2A 1627   7.069   2.486   6.920
   95POPC   C3A 1628   7.072   2.729   6.510
   95POPC   C4A 1629   6.917   3.094   6.242
   95POPC   C1B 1630   7.500   2.600   7.197
   95POPC   C2B 1631   7.560   2.373   6.827
   95POPC   C3B 1632   7.592   2.544   6.439
   95POPC   C4B 1633   7.433   2.865   6.152
   96POPC   NC3 1634  11.130   2.129   8.090
   96POPC   PO4 1635  11.352   1.457   8.040
   96POPC   GL1 1636  11.250   1.780   7.737
   96POPC   GL2 1637  11.368   1.557   7.507
   96POPC   C1A 1638  11.065   1.965   7.352
   96POPC   D2A 1639  11.069   1.786   6.939
   96POPC   C3A 1640  11.152   2.034   6.560
   96POPC   C4A 1641  11.172   1.855   6.152
   96POPC   C1B 1642   0.039   1.812   7.187
   96POPC   C2B 1643   0.039   1.772   6.763
   96POPC   C3B 1644   0.144   1.922   6.398
   96POPC   C4B 1645   0.264   1.535   6.277
   97POPC   NC3 1646   5.241   0.783   8.156
   97POPC   PO4 1647   5.069   1.362   8.067
   97POPC   GL1 1648   4.977   1.132   7.701
   97POPC   GL2 1649   5.232   0.915   7.598
   97POPC   C1A 1650   4.769   1.093   7.287
   97POPC   D2A 1651   4.695   0.945   6.851
   97POPC   C3A 1652   4.916   0.820   6.480
   97POPC   C4A 1653   4.734   1.052   6.148
   97POPC   C1B 1654   5.236   1.299   7.311
   97POPC   C2B 1655   5.060   1.357   6.903
   97POPC   C3B 1656   5.036   1.315   6.467
   97POPC   C4B 1657   5.302   1.405   6.123
   98POPC   NC3 1658   0.310   3.646   7.863
   98POPC   PO4 1659   0.307   3.054   8.247
   98POPC   GL1 1660   0.582   3.085   7.760
   98POPC   GL2 1661   0.788   3.387   7.707
   98POPC   C1A 1662   0.482   3.148   7.252
   98POPC   D2A 1663   0.056   3.195   6.988
   98POPC   C3A 1664   0.048   3.088   6.534
   98POPC   C4A 1665   0.324   3.266   6.191
   98POPC   C1B 1666   0.765   3.580   7.263
   98POPC   C2B 1667   0.579   3.570   6.806
   98POPC   C3B 1668   0.634   3.664   6.328
   98POPC   C4B 1669   0.613   3.657   5.838
   99POPC   NC3 1670  10.282   6.579   7.990
   99POPC   PO4 1671  10.769   7.031   7.761
   99POPC   GL1 1672  10.438   6.873   7.598
   99POPC   GL2 1673  10.609   6.552   7.607
   99POPC   C1A 1674  10.473   6.793   7.167
   99POPC   D2A 1675  10.438   6.692   6.721
   99POPC   C3A 1676  10.582   6.970   6.425
   99POPC   C4A 1677  10.330   7.057   6.098
   99POPC   C1B 1678  10.523   6.294   7.261
   99POPC   C2B 1679  10.314   6.216   6.878
   99POPC   C3B 1680  10.396   6.263   6.433
   99POPC   C4B 1681  10.228   6.159   6.035
  100POPC   NC3 1682  10.545   5.822   8.103
  100POPC   PO4 1683   9.950   6.185   7.990
  100POPC   GL1 1684  10.324   6.111   7.715
  100POPC   GL2 1685  10.207   5.785   7.700
  100POPC   C1A 1686  10.606   5.816   7.415
  100POPC   D2A 1687  10.789   5.638   7.045
  100POPC   C3A 1688  10.693   5.881   6.684
  100POPC   C4A 1689  10.699   5.894   6.241
  100POPC   C1B 1690  10.133   5.905   7.271
  100POPC   C2B 1691  10.256   5.708   6.886
  100POPC   C3B 1692  10.239   5.763   6.438
  100POPC   C4B 1693  10.298   5.656   5.986
  101POPC   NC3 1694  11.437   2.870   8.039
  101POPC   PO4 1695  10.811   3.150   8.246
  101POPC   GL1 1696  10.999   2.954   7.770
  101POPC   GL2 1697  11.280   2.854   7.569
  101POPC   C1A 1698  10.937   3.030   7.267
  101POPC   D2A 1699  11.172   2.800   6.968
  101POPC   C3A 1700  10.960   2.676   6.629
  101POPC   C4A 1701  11.192   2.756   6.323
  101POPC   C1B 1702  11.222   2.462   7.353
  101POPC   C2B 1703  11.390   2.279   6.971
  101POPC   C3B 1704   0.033   2.434   6.573
  101POPC   C4B 1705  11.388   2.312   6.166
  102POPC   NC3 1706   3.643   2.943   8.046
  102POPC   PO4 1707   3.152   2.450   8.039
  102POPC   GL1 1708   3.327   2.698   7.711
  102POPC   GL2 1709   3.670   2.553   7.661
  102POPC   C1A 1710   3.271   2.892   7.301
  102POPC   D2A 1711   3.108   2.805   6.870
  102POPC   C3A 1712   3.305   2.942   6.471
  102POPC   C4A 1713   3.293   2.876   5.998
  102POPC   C1B 1714   3.568   2.438   7.218
  102POPC   C2B 1715   3.620   2.598   6.777
  102POPC   C3B 1716   3.685   2.598   6.322
  102POPC   C4B 1717   3.609   2.479   5.900
  103POPC   NC3 1718   9.537   7.232   8.127
  103POPC   PO4 1719  10.202   7.030   8.118
  103POPC   GL1 1720   9.940   7.058   7.755
  103POPC   GL2 1721   9.822   7.402   7.703
  103POPC   C1A 1722   9.773   6.982   7.322
  103POPC   D2A 1723   9.764   7.208   6.892
  103POPC   C3A 1724   9.604   7.043   6.447
  103POPC   C4A 1725   9.789   6.955   6.011
  103POPC   C1B 1726   9.541   7.624   7.395
  103POPC   C2B 1727   9.419   7.576   6.979
  103POPC   C3B 1728   9.554   7.599   6.567
  103POPC   C4B 1729   9.298   7.420   6.256
  104POPC   NC3 1730   5.457  10.374   8.440
  104POPC   PO4 1731   5.914   9.763   8.215
  104POPC   GL1 1732   5.709   9.955   7.859
  104POPC   GL2 1733   5.915   9.717   7.685
  104POPC   C1A 1734   5.595   9.976   7.410
  104POPC   D2A 1735   5.877   9.903   7.025
  104POPC   C3A 1736   5.705   9.913   6.577
  104POPC   C4A 1737   5.517   9.797   6.140
  104POPC   C1B 1738   5.739   9.498   7.301
  104POPC   C2B 1739   5.831   9.443   6.853
  104POPC   C3B 1740   5.732   9.419   6.418
  104POPC   C4B 1741   6.043   9.316   6.115
  105POPC   NC3 1742   1.992  11.381   8.152
  105POPC   PO4 1743   1.746  10.785   8.055
  105POPC   GL1 1744   1.776  11.105   7.715
  105POPC   GL2 1745   2.083  11.301   7.664
  105POPC   C1A 1746   1.874  11.079   7.277
  105POPC   D2A 1747   1.702  11.103   6.901
  105POPC   C3A 1748   1.967  11.073   6.546
  105POPC   C4A 1749   1.948  10.897   6.151
  105POPC   C1B 1750   2.286  11.442   7.294
  105POPC   C2B 1751   2.126  11.394   6.892
  105POPC   C3B 1752   2.349  11.435   6.486
  105POPC   C4B 1753   2.114  11.378   6.133
  106POPC   NC3 1754   4.114  10.057   7.926
  106POPC   PO4 1755   4.702   9.535   8.000
  106POPC   GL1 1756   4.473   9.757   7.728
  106POPC   GL2 1757   4.185   9.563   7.675
  106POPC   C1A 1758   4.457   9.833   7.294
  106POPC   D2A 1759   4.310   9.641   6.896
  106POPC   C3A 1760   4.359   9.918   6.530
  106POPC   C4A 1761   4.621   9.886   6.190
  106POPC   C1B 1762   3.947   9.621   7.287
  106POPC   C2B 1763   3.828   9.453   6.866
  106POPC   C3B 1764   3.928   9.632   6.447
  106POPC   C4B 1765   4.219   9.597   6.096
  107POPC   NC3 1766   2.639   9.532   8.060
  107POPC   PO4 1767   2.266   9.998   7.852
  107POPC   GL1 1768   2.642   9.795   7.620
  107POPC   GL2 1769   3.005   9.682   7.702
  107POPC   C1A 1770   2.801   9.910   7.244
  107POPC   D2A 1771   2.757   9.959   6.820
  107POPC   C3A 1772   2.426   9.840   6.640
  107POPC   C4A 1773   2.579   9.639   6.325
  107POPC   C1B 1774   2.965   9.424   7.318
  107POPC   C2B 1775   2.841   9.468   6.901
  107POPC   C3B 1776   3.032   9.569   6.523
  107POPC   C4B 1777   2.934   9.332   6.117
  108POPC   NC3 1778   6.823   8.737   7.997
  108POPC   PO4 1779   7.533   8.678   8.086
  108POPC   GL1 1780   7.491   8.917   7.715
  108POPC   GL2 1781   7.157   9.005   7.684
  108POPC   C1A 1782   7.454   8.842   7.267
  108POPC   D2A 1783   7.364   8.702   6.842
  108POPC   C3A 1784   7.616   8.777   6.494
  108POPC   C4A 1785   7.433   8.654   6.139
  108POPC   C1B 1786   7.111   9.238   7.308
  108POPC   C2B 1787   7.290   9.204   6.889
  108POPC   C3B 1788   7.165   9.024   6.478
  108POPC   C4B 1789   7.316   9.151   6.062
  109POPC   NC3 1790  10.512   2.910   7.926
  109POPC   PO4 1791  10.762   2.268   7.861
  109POPC   GL1 1792  10.496   2.494   7.595
  109POPC   GL2 1793  10.133   2.418   7.492
  109POPC   C1A 1794  10.725   2.561   7.229
  109POPC   D2A 1795  10.880   2.267   6.940
  109POPC   C3A 1796  10.687   2.251   6.526
  109POPC   C4A 1797  10.447   2.555   6.368
  109POPC   C1B 1798  10.254   2.788   7.231
  109POPC   C2B 1799  10.570   2.900   6.889
  109POPC   C3B 1800  10.571   3.021   6.468
  109POPC   C4B 1801  10.208   3.171   6.218
  110POPC   NC3 1802   9.641   8.771   8.114
  110POPC   PO4 1803   9.359   9.301   7.918
  110POPC   GL1 1804   9.383   8.912   7.681
  110POPC   GL2 1805   9.730   8.875   7.614
  110POPC   C1A 1806   9.271   8.772   7.255
  110POPC   D2A 1807   9.309   9.017   6.857
  110POPC   C3A 1808   9.218   8.861   6.458
  110POPC   C4A 1809   9.427   8.704   6.105
  110POPC   C1B 1810   9.818   8.596   7.269
  110POPC   C2B 1811   9.908   8.483   6.847
  110POPC   C3B 1812   9.712   8.708   6.539
  110POPC   C4B 1813   9.913   8.851   6.176
  111POPC   NC3 1814   3.125  10.414   8.074
  111POPC   PO4 1815   2.560  10.746   8.045
  111POPC   GL1 1816   2.836  10.649   7.722
  111POPC   GL2 1817   2.759  10.286   7.730
  111POPC   C1A 1818   3.024  10.737   7.339
  111POPC   D2A 1819   2.764  10.787   6.968
  111POPC   C3A 1820   2.969  10.719   6.586
  111POPC   C4A 1821   2.791  10.608   6.214
  111POPC   C1B 1822   2.613  10.404   7.326
  111POPC   C2B 1823   2.385  10.409   6.963
  111POPC   C3B 1824   2.549  10.371   6.595
  111POPC   C4B 1825   2.570  10.131   6.235
  112POPC   NC3 1826   7.848  11.136   7.989
  112POPC   PO4 1827   8.459  10.912   7.978
  112POPC   GL1 1828   8.249  11.160   7.643
  112POPC   GL2 1829   7.945  11.398   7.584
  112POPC   C1A 1830   8.243  11.028   7.218
  112POPC   D2A 1831   8.411  10.792   6.895
  112POPC   C3A 1832   8.464  11.000   6.565
  112POPC   C4A 1833   8.492  11.131   6.173
  112POPC   C1B 1834   8.069   0.009   7.237
  112POPC   C2B 1835   8.022  11.319   6.865
  112POPC   C3B 1836   8.155  11.392   6.472
  112POPC   C4B 1837   7.983  11.152   6.140
  113POPC   NC3 1838   2.414   2.328   7.978
  113POPC   PO4 1839   2.498   1.730   8.272
  113POPC   GL1 1840   2.638   1.894   7.806
  113POPC   GL2 1841   2.886   2.072   7.827
  113POPC   C1A 1842   2.436   1.952   7.348
  113POPC   D2A 1843   2.520   2.002   6.916
  113POPC   C3A 1844   2.361   1.782   6.525
  113POPC   C4A 1845   2.420   1.947   6.106
  113POPC   C1B 1846   2.931   1.953   7.375
  113POPC   C2B 1847   3.063   2.016   6.939
  113POPC   C3B 1848   3.105   2.212   6.540
  113POPC   C4B 1849   2.921   1.967   6.207
  114POPC   NC3 1850   4.372   9.212   8.029
  114POPC   PO4 1851   3.755   9.219   8.062
  114POPC   GL1 1852   3.851   9.163   7.623
  114POPC   GL2 1853   4.087   8.917   7.680
  114POPC   C1A 1854   4.100   9.149   7.212
  114POPC   D2A 1855   4.091   8.970   6.785
  114POPC   C3A 1856   4.207   9.174   6.381
  114POPC   C4A 1857   4.271   9.126   5.911
  114POPC   C1B 1858   4.380   8.740   7.372
  114POPC   C2B 1859   4.567   8.749   6.960
  114POPC   C3B 1860   4.570   8.836   6.507
  114POPC   C4B 1861   4.296   8.689   6.161
  115POPC   NC3 1862  10.935   1.381   7.823
  115POPC   PO4 1863  10.608   1.768   8.218
  115POPC   GL1 1864  10.654   1.796   7.718
  115POPC   GL2 1865  10.344   1.922   7.577
  115POPC   C1A 1866  10.658   1.640   7.250
  115POPC   D2A 1867  10.588   1.840   6.816
  115POPC   C3A 1868  10.744   1.725   6.426
  115POPC   C4A 1869  10.681   1.866   5.982
  115POPC   C1B 1870  10.472   2.117   7.235
  115POPC   C2B 1871  10.350   2.373   6.915
  115POPC   C3B 1872  10.101   2.272   6.573
  115POPC   C4B 1873  10.309   1.986   6.295
  116POPC   NC3 1874  10.952   6.733   8.047
  116POPC   PO4 1875  11.471   6.355   7.982
  116POPC   GL1 1876  11.378   6.377   7.618
  116POPC   GL2 1877  11.245   6.723   7.634
  116POPC   C1A 1878   0.012   6.221   7.243
  116POPC   D2A 1879  11.269   6.324   6.878
  116POPC   C3A 1880  11.500   6.206   6.573
  116POPC   C4A 1881   0.079   6.366   6.201
  116POPC   C1B 1882  11.018   6.556   7.299
  116POPC   C2B 1883  10.909   6.691   6.908
  116POPC   C3B 1884  11.061   6.829   6.529
  116POPC   C4B 1885  11.226   6.722   6.160
  117POPC   NC3 1886   2.140  10.437   7.944
  117POPC   PO4 1887   1.550   9.933   8.018
  117POPC   GL1 1888   1.553  10.183   7.628
  117POPC   GL2 1889   1.696  10.512   7.632
  117POPC   C1A 1890   1.687  10.171   7.190
  117POPC   D2A 1891   2.027  10.040   6.901
  117POPC   C3A 1892   2.029  10.106   6.451
  117POPC   C4A 1893   1.804  10.376   6.164
  117POPC   C1B 1894   1.992  10.574   7.300
  117POPC   C2B 1895   1.837  10.581   6.892
  117POPC   C3B 1896   2.053  10.582   6.561
  117POPC   C4B 1897   2.280  10.530   6.192
  118POPC   NC3 1898   2.778   0.516   8.068
  118POPC   PO4 1899   2.244   0.190   7.946
  118POPC   GL1 1900   2.425   0.460   7.688
  118POPC   GL2 1901   2.725   0.285   7.611
  118POPC   C1A 1902   2.382   0.476   7.257
  118POPC   D2A 1903   2.413   0.289   6.884
  118POPC   C3A 1904   2.460   0.475   6.522
  118POPC   C4A 1905   2.318   0.362   6.141
  118POPC   C1B 1906   2.815   0.176   7.188
  118POPC   C2B 1907   2.905   0.276   6.757
  118POPC   C3B 1908   2.845   0.169   6.344
  118POPC   C4B 1909   3.098   0.147   5.981
  119POPC   NC3 1910   2.923  11.027   8.067
  119POPC   PO4 1911   3.053   0.117   8.061
  119POPC   GL1 1912   2.970  11.342   7.679
  119POPC   GL2 1913   2.597  11.242   7.719
  119POPC   C1A 1914   2.821  11.190   7.276
  119POPC   D2A 1915   2.617  11.288   6.903
  119POPC   C3A 1916   2.821  11.207   6.539
  119POPC   C4A 1917   2.934  11.154   6.131
  119POPC   C1B 1918   2.389  10.933   7.405
  119POPC   C2B 1919   2.252  10.903   6.968
  119POPC   C3B 1920   2.449  10.880   6.572
  119POPC   C4B 1921   2.464  11.009   6.167
  120POPC   NC3 1922   1.527  10.385   8.120
  120POPC   PO4 1923   0.948  10.724   8.128
  120POPC   GL1 1924   1.210  10.632   7.787
  120POPC   GL2 1925   1.051  10.333   7.722
  120POPC   C1A 1926   1.115  10.703   7.345
  120POPC   D2A 1927   0.856  10.553   6.977
  120POPC   C3A 1928   1.097  10.602   6.567
  120POPC   C4A 1929   1.539  10.696   6.433
  120POPC   C1B 1930   1.122  10.188   7.310
  120POPC   C2B 1931   1.262  10.242   6.918
  120POPC   C3B 1932   1.551  10.195   6.621
  120POPC   C4B 1933   1.327  10.173   6.251
  121POPC   NC3 1934   9.917   1.243   8.056
  121POPC   PO4 1935   9.251   1.341   8.071
  121POPC   GL1 1936   9.520   1.124   7.728
  121POPC   GL2 1937   9.883   1.139   7.576
  121POPC   C1A 1938   9.544   0.858   7.341
  121POPC   D2A 1939   9.545   1.017   6.911
  121POPC   C3A 1940   9.281   1.069   6.568
  121POPC   C4A 1941   9.520   0.951   6.206
  121POPC   C1B 1942   9.686   1.372   7.269
  121POPC   C2B 1943   9.788   1.497   6.878
  121POPC   C3B 1944   9.697   1.365   6.471
  121POPC   C4B 1945   9.992   1.185   6.173
  122POPC   NC3 1946   9.930   0.244   8.016
  122POPC   PO4 1947   9.613   0.767   8.273
  122POPC   GL1 1948   9.760   0.697   7.835
  122POPC   GL2 1949   9.554   0.466   7.743
  122POPC   C1A 1950   9.956   0.556   7.421
  122POPC   D2A 1951  10.047   0.329   7.025
  122POPC   C3A 1952   9.820   0.511   6.678
  122POPC   C4A 1953   9.952   0.679   6.295
  122POPC   C1B 1954   9.424   0.353   7.341
  122POPC   C2B 1955   9.307   0.543   6.965
  122POPC   C3B 1956   9.299   0.358   6.571
  122POPC   C4B 1957   9.536   0.412   6.204
  123POPC   NC3 1958   5.084  11.414   8.396
  123POPC   PO4 1959   5.602   0.044   7.931
  123POPC   GL1 1960   5.376  11.265   7.611
  123POPC   GL2 1961   5.043  11.118   7.758
  123POPC   C1A 1962   5.293  11.342   7.154
  123POPC   D2A 1963   5.226   0.021   6.743
  123POPC   C3A 1964   5.161  11.228   6.418
  123POPC   C4A 1965   5.434  11.030   6.132
  123POPC   C1B 1966   4.831  11.257   7.394
  123POPC   C2B 1967   4.822  11.158   6.960
  123POPC   C3B 1968   4.712  11.361   6.617
  123POPC   C4B 1969   4.677  11.357   6.196
  124POPC   NC3 1970   0.372   9.094   8.257
  124POPC   PO4 1971   0.537   8.553   8.054
  124POPC   GL1 1972   0.542   8.827   7.689
  124POPC   GL2 1973   0.202   8.929   7.719
  124POPC   C1A 1974   0.512   8.881   7.224
  124POPC   D2A 1975   0.344   9.056   6.854
  124POPC   C3A 1976   0.637   8.894   6.565
  124POPC   C4A 1977   0.621   8.529   6.319
  124POPC   C1B 1978   0.192   8.553   7.428
  124POPC   C2B 1979   0.199   8.542   6.953
  124POPC   C3B 1980   0.172   8.660   6.498
  124POPC   C4B 1981   0.337   9.019   6.178
  125POPC   NC3 1982   4.191   0.361   8.334
  125POPC   PO4 1983   3.584   0.553   8.241
  125POPC   GL1 1984   3.509   0.519   7.769
  125POPC   GL2 1985   3.277   0.263   7.622
  125POPC   C1A 1986   3.596   0.509   7.295
  125POPC   D2A 1987   3.560   0.169   6.968
  125POPC   C3A 1988   3.549   0.285   6.515
  125POPC   C4A 1989   3.608   0.233   6.060
  125POPC   C1B 1990   3.097   0.571   7.303
  125POPC   C2B 1991   3.292   0.601   6.857
  125POPC   C3B 1992   3.159   0.583   6.385
  125POPC   C4B 1993   3.300   0.654   5.945
  126POPC   NC3 1994   0.914   8.836   8.051
  126POPC   PO4 1995   1.437   8.652   8.479
  126POPC   GL1 1996   1.428   8.748   7.924
  126POPC   GL2 1997   1.224   9.055   7.731
  126POPC   C1A 1998   1.516   8.781   7.402
  126POPC   D2A 1999   1.691   8.810   6.943
  126POPC   C3A 2000   1.723   9.104   6.594
  126POPC   C4A 2001   1.517   9.060   6.193
  126POPC   C1B 2002   1.005   8.837   7.383
  126POPC   C2B 2003   0.960   8.969   6.969
  126POPC   C3B 2004   1.177   8.928   6.616
  126POPC   C4B 2005   1.068   8.808   6.251
  127POPC   NC3 2006   9.637  10.546   7.855
  127POPC   PO4 2007   9.131  10.181   8.096
  127POPC   GL1 2008   9.344  10.159   7.629
  127POPC   GL2 2009   9.746  10.204   7.509
  127POPC   C1A 2010   9.404  10.184   7.155
  127POPC   D2A 2011   9.447   9.982   6.778
  127POPC   C3A 2012   9.423  10.248   6.417
  127POPC   C4A 2013   9.375  10.187   5.971
  127POPC   C1B 2014   9.788  10.538   7.197
  127POPC   C2B 2015   9.746  10.512   6.759
  127POPC   C3B 2016   9.790  10.571   6.338
  127POPC   C4B 2017   9.869  10.330   5.984
  128POPC   NC3 2018   3.400   8.983   7.896
  128POPC   PO4 2019   2.946   8.486   7.889
  128POPC   GL1 2020   3.241   8.665   7.525
  128POPC   GL2 2021   3.629   8.683   7.547
  128POPC   C1A 2022   3.128   8.793   7.093
  128POPC   D2A 2023   3.182   8.497   6.740
  128POPC   C3A 2024   3.164   8.701   6.385
  128POPC   C4A 2025   3.075   9.072   6.539
  128POPC   C1B 2026   3.609   8.974   7.194
  128POPC   C2B 2027   3.538   8.910   6.754
  128POPC   C3B 2028   3.760   8.872   6.383
  128POPC   C4B 2029   3.826   8.795   5.964
  129POPC   NC3 2030  10.498   0.684   8.304
  129POPC   PO4 2031  10.369   0.161   8.026
  129POPC   GL1 2032  10.528   0.278   7.660
  129POPC   GL2 2033  10.557   0.633   7.699
  129POPC   C1A 2034  10.479   0.088   7.226
  129POPC   D2A 2035  10.485   0.136   6.775
  129POPC   C3A 2036  10.153   0.145   6.484
  129POPC   C4A 2037  10.204   0.295   6.048
  129POPC   C1B 2038  10.441   0.590   7.258
  129POPC   C2B 2039  10.355   0.670   6.832
  129POPC   C3B 2040  10.443   0.553   6.441
  129POPC   C4B 2041  10.759   0.639   6.191
  130POPC   NC3 2042   2.492   7.151   8.076
  130POPC   PO4 2043   2.576   7.699   7.923
  130POPC   GL1 2044   2.568   7.369   7.599
  130POPC   GL2 2045   2.331   7.050   7.592
  130POPC   C1A 2046   2.610   7.465   7.149
  130POPC   D2A 2047   2.654   7.765   6.794
  130POPC   C3A 2048   2.649   7.548   6.402
  130POPC   C4A 2049   2.367   7.253   6.217
  130POPC   C1B 2050   2.300   7.064   7.108
  130POPC   C2B 2051   2.547   7.134   6.715
  130POPC   C3B 2052   2.703   6.894   6.339
  130POPC   C4B 2053   2.603   6.945   5.865
  131POPC   NC3 2054   1.114   1.862   8.083
  131POPC   PO4 2055   1.684   2.287   8.234
  131POPC   GL1 2056   1.571   2.091   7.816
  131POPC   GL2 2057   1.232   2.211   7.720
  131POPC   C1A 2058   1.594   2.175   7.342
  131POPC   D2A 2059   1.373   2.167   6.944
  131POPC   C3A 2060   1.571   1.996   6.581
  131POPC   C4A 2061   1.492   2.084   6.163
  131POPC   C1B 2062   1.044   2.007   7.356
  131POPC   C2B 2063   0.901   1.955   6.929
  131POPC   C3B 2064   1.052   2.053   6.507
  131POPC   C4B 2065   1.056   1.856   6.076
  132POPC   NC3 2066   5.168   9.612   8.016
  132POPC   PO4 2067   5.110  10.227   8.153
  132POPC   GL1 2068   4.968  10.022   7.705
  132POPC   GL2 2069   4.945   9.665   7.562
  132POPC   C1A 2070   5.120   9.977   7.225
  132POPC   D2A 2071   5.383   9.752   6.959
  132POPC   C3A 2072   5.077   9.604   6.680
  132POPC   C4A 2073   5.070   9.612   6.279
  132POPC   C1B 2074   5.018   9.426   7.168
  132POPC   C2B 2075   4.890   9.129   6.818
  132POPC   C3B 2076   5.030   9.098   6.379
  132POPC   C4B 2077   5.160   9.238   5.928
  133POPC   NC3 2078   5.763   1.628   8.040
  133POPC   PO4 2079   5.917   0.968   8.149
  133POPC   GL1 2080   5.965   1.209   7.788
  133POPC   GL2 2081   5.626   1.255   7.675
  133POPC   C1A 2082   6.059   1.283   7.352
  133POPC   D2A 2083   6.067   1.404   6.906
  133POPC   C3A 2084   5.897   1.228   6.537
  133POPC   C4A 2085   6.109   0.976   6.257
  133POPC   C1B 2086   5.653   0.985   7.295
  133POPC   C2B 2087   5.536   1.103   6.895
  133POPC   C3B 2088   5.437   1.003   6.487
  133POPC   C4B 2089   5.623   1.006   6.083
  134POPC   NC3 2090   9.328   9.721   8.133
  134POPC   PO4 2091   9.848  10.154   8.001
  134POPC   GL1 2092   9.637   9.766   7.735
  134POPC   GL2 2093   9.761   9.432   7.658
  134POPC   C1A 2094   9.686   9.751   7.275
  134POPC   D2A 2095   9.849   9.509   6.961
  134POPC   C3A 2096   9.749   9.643   6.547
  134POPC   C4A 2097   9.737   9.891   6.188
  134POPC   C1B 2098   9.567   9.211   7.287
  134POPC   C2B 2099   9.806   8.997   6.957
  134POPC   C3B 2100   9.933   9.174   6.571
  134POPC   C4B 2101   9.570   9.209   6.296
  135POPC   NC3 2102   8.838   1.503   7.953
  135POPC   PO4 2103   8.421   1.060   8.133
  135POPC   GL1 2104   8.666   0.978   7.742
  135POPC   GL2 2105   9.007   1.087   7.717
  135POPC   C1A 2106   8.699   1.201   7.328
  135POPC   D2A 2107   8.882   1.170   6.937
  135POPC   C3A 2108   8.645   1.155   6.620
  135POPC   C4A 2109   8.712   1.036   6.231
  135POPC   C1B 2110   9.206   1.235   7.310
  135POPC   C2B 2111   9.285   1.467   6.909
  135POPC   C3B 2112   8.968   1.558   6.617
  135POPC   C4B 2113   9.083   1.432   6.250
  136POPC   NC3 2114   9.164   0.860   8.197
  136POPC   PO4 2115   8.735   0.356   8.026
  136POPC   GL1 2116   9.037   0.552   7.790
  136POPC   GL2 2117   9.132   0.198   7.749
  136POPC   C1A 2118   9.052   0.740   7.380
  136POPC   D2A 2119   8.778   0.695   7.064
  136POPC   C3A 2120   8.923   0.724   6.643
  136POPC   C4A 2121   9.095   0.699   6.234
  136POPC   C1B 2122   8.913   0.260   7.375
  136POPC   C2B 2123   8.906   0.204   6.955
  136POPC   C3B 2124   8.597   0.356   6.693
  136POPC   C4B 2125   8.697   0.380   6.248
  137POPC   NC3 2126   3.600   1.042   8.087
  137POPC   PO4 2127   2.886   0.956   7.946
  137POPC   GL1 2128   3.255   0.966   7.654
  137POPC   GL2 2129   3.511   1.249   7.616
  137POPC   C1A 2130   3.358   0.998   7.212
  137POPC   D2A 2131   3.613   1.104   6.895
  137POPC   C3A 2132   3.477   0.951   6.525
  137POPC   C4A 2133   3.455   1.149   6.166
  137POPC   C1B 2134   3.785   1.426   7.288
  137POPC   C2B 2135   4.008   1.440   6.857
  137POPC   C3B 2136   3.762   1.404   6.482
  137POPC   C4B 2137   3.687   1.665   6.140
  138POPC   NC3 2138   3.744  10.499   8.285
  138POPC   PO4 2139   4.269  10.680   7.856
  138POPC   GL1 2140   3.856  10.497   7.708
  138POPC   GL2 2141   3.493  10.441   7.742
  138POPC   C1A 2142   3.649  10.482   7.278
  138POPC   D2A 2143   3.512  10.262   6.911
  138POPC   C3A 2144   3.537  10.490   6.530
  138POPC   C4A 2145   3.839  10.719   6.249
  138POPC   C1B 2146   3.170  10.260   7.412
  138POPC   C2B 2147   3.019  10.344   6.972
  138POPC   C3B 2148   3.068  10.221   6.501
  138POPC   C4B 2149   3.275  10.401   6.111
  139POPC   NC3 2150  11.238  10.273   8.409
  139POPC   PO4 2151  10.778  10.085   8.023
  139POPC   GL1 2152  11.144  10.198   7.738
  139POPC   GL2 2153  11.359  10.473   7.794
  139POPC   C1A 2154  11.252  10.132   7.285
  139POPC   D2A 2155  10.898  10.159   6.954
  139POPC   C3A 2156  10.949  10.126   6.497
  139POPC   C4A 2157  10.987  10.204   6.015
  139POPC   C1B 2158  11.240  10.638   7.364
  139POPC   C2B 2159  11.278  10.534   6.919
  139POPC   C3B 2160  11.293  10.497   6.472
  139POPC   C4B 2161  11.407  10.112   6.275
  140POPC   NC3 2162   3.368   2.053   8.102
  140POPC   PO4 2163   3.448   1.495   8.065
  140POPC   GL1 2164   3.304   1.758   7.682
  140POPC   GL2 2165   3.327   2.165   7.607
  140POPC   C1A 2166   3.382   1.753   7.245
  140POPC   D2A 2167   3.528   1.628   6.863
  140POPC   C3A 2168   3.304   1.723   6.491
  140POPC   C4A 2169   3.170   1.547   6.074
  140POPC   C1B 2170   3.727   2.020   7.504
  140POPC   C2B 2171   3.887   1.879   7.101
  140POPC   C3B 2172   3.804   1.951   6.604
  140POPC   C4B 2173   3.514   2.118   6.250
  141POPC   NC3 2174   2.810   3.779   7.994
  141POPC   PO4 2175   3.238   3.229   8.056
  141POPC   GL1 2176   2.983   3.171   7.707
  141POPC   GL2 2177   2.629   3.307   7.709
  141POPC   C1A 2178   3.039   3.377   7.326
  141POPC   D2A 2179   3.261   3.295   6.938
  141POPC   C3A 2180   3.030   3.389   6.562
  141POPC   C4A 2181   2.961   3.219   6.168
  141POPC   C1B 2182   2.474   3.484   7.304
  141POPC   C2B 2183   2.304   3.470   6.865
  141POPC   C3B 2184   2.508   3.436   6.438
  141POPC   C4B 2185   2.805   3.778   6.268
  142POPC   NC3 2186   8.718  10.009   7.965
  142POPC   PO4 2187   8.968   9.442   8.266
  142POPC   GL1 2188   8.999   9.626   7.775
  142POPC   GL2 2189   8.748   9.661   7.578
  142POPC   C1A 2190   9.182   9.738   7.346
  142POPC   D2A 2191   9.334   9.521   6.970
  142POPC   C3A 2192   9.225   9.439   6.571
  142POPC   C4A 2193   9.283   9.767   6.334
  142POPC   C1B 2194   8.712   9.721   7.131
  142POPC   C2B 2195   8.929   9.803   6.764
  142POPC   C3B 2196   8.802   9.660   6.359
  142POPC   C4B 2197   8.506   9.879   6.118
  143POPC   NC3 2198   7.205  10.961   8.277
  143POPC   PO4 2199   7.485  11.377   7.819
  143POPC   GL1 2200   7.509  11.019   7.609
  143POPC   GL2 2201   7.202  10.816   7.646
  143POPC   C1A 2202   7.659  11.204   7.214
  143POPC   D2A 2203   7.579   0.036   6.925
  143POPC   C3A 2204   7.639  11.356   6.522
  143POPC   C4A 2205   7.472  11.302   6.138
  143POPC   C1B 2206   7.170  11.104   7.239
  143POPC   C2B 2207   7.303  11.121   6.848
  143POPC   C3B 2208   7.222  11.005   6.476
  143POPC   C4B 2209   6.987  11.160   6.148
  144POPC   NC3 2210   8.629   2.413   8.011
  144POPC   PO4 2211   9.095   2.880   8.140
  144POPC   GL1 2212   9.074   2.815   7.715
  144POPC   GL2 2213   8.728   2.860   7.721
  144POPC   C1A 2214   9.143   2.729   7.283
  144POPC   D2A 2215   8.872   2.613   6.887
  144POPC   C3A 2216   9.020   2.670   6.461
  144POPC   C4A 2217   9.029   3.027   6.167
  144POPC   C1B 2218   8.631   2.636   7.335
  144POPC   C2B 2219   8.387   2.479   6.955
  144POPC   C3B 2220   8.542   2.463   6.525
  144POPC   C4B 2221   8.574   2.772   6.210
  145POPC   NC3 2222  11.324   1.039   8.332
  145POPC   PO4 2223  10.748   1.000   8.016
  145POPC   GL1 2224  11.015   0.884   7.703
  145POPC   GL2 2225  11.364   1.003   7.758
  145POPC   C1A 2226  10.863   0.880   7.288
  145POPC   D2A 2227  10.724   1.022   6.895
  145POPC   C3A 2228  11.013   0.856   6.602
  145POPC   C4A 2229  11.093   1.016   6.209
  145POPC   C1B 2230  11.321   1.087   7.303
  145POPC   C2B 2231  11.219   1.275   6.882
  145POPC   C3B 2232  11.265   1.449   6.447
  145POPC   C4B 2233  11.398   1.392   5.986
  146POPC   NC3 2234   5.114   0.090   7.916
  146POPC   PO4 2235   4.784   0.706   8.023
  146POPC   GL1 2236   4.759   0.690   7.597
  146POPC   GL2 2237   4.984   0.452   7.622
  146POPC   C1A 2238   4.857   0.592   7.176
  146POPC   D2A 2239   4.828   0.193   7.024
  146POPC   C3A 2240   4.814   0.345   6.630
  146POPC   C4A 2241   4.978   0.243   6.256
  146POPC   C1B 2242   5.282   0.353   7.318
  146POPC   C2B 2243   5.369   0.625   6.992
  146POPC   C3B 2244   5.352   0.497   6.588
  146POPC   C4B 2245   5.302   0.616   6.188
  147POPC   NC3 2246   5.219   7.676   8.529
  147POPC   PO4 2247   5.289   7.775   8.076
  147POPC   GL1 2248   5.176   7.822   7.613
  147POPC   GL2 2249   4.953   8.110   7.513
  147POPC   C1A 2250   5.218   7.878   7.146
  147POPC   D2A 2251   5.000   8.039   6.784
  147POPC   C3A 2252   5.220   8.115   6.396
  147POPC   C4A 2253   5.013   8.069   5.985
  147POPC   C1B 2254   5.015   8.410   7.149
  147POPC   C2B 2255   4.978   8.562   6.713
  147POPC   C3B 2256   4.909   8.509   6.289
  147POPC   C4B 2257   5.138   8.583   5.904
  148POPC   NC3 2258   0.786  11.142   8.228
  148POPC   PO4 2259   0.177  11.357   8.065
  148POPC   GL1 2260   0.248  11.480   7.672
  148POPC   GL2 2261   0.557  11.302   7.718
  148POPC   C1A 2262   0.261  11.260   7.273
  148POPC   D2A 2263   0.111  11.019   6.927
  148POPC   C3A 2264   0.219  11.192   6.533
  148POPC   C4A 2265   0.143  11.423   6.130
  148POPC   C1B 2266   0.616  10.921   7.408
  148POPC   C2B 2267   0.621  11.003   6.946
  148POPC   C3B 2268   0.640  10.860   6.507
  148POPC   C4B 2269   0.581  11.193   6.188
  149POPC   NC3 2270   0.852   5.535   7.682
  149POPC   PO4 2271   0.975   4.958   7.984
  149POPC   GL1 2272   1.062   5.091   7.603
  149POPC   GL2 2273   1.369   5.161   7.648
  149POPC   C1A 2274   1.132   5.196   7.179
  149POPC   D2A 2275   0.970   5.015   6.853
  149POPC   C3A 2276   0.953   5.358   6.644
  149POPC   C4A 2277   1.035   5.251   6.246
  149POPC   C1B 2278   1.514   4.899   7.343
  149POPC   C2B 2279   1.444   4.821   6.952
  149POPC   C3B 2280   1.404   5.070   6.590
  149POPC   C4B 2281   1.360   4.885   6.201
  150POPC   NC3 2282   1.082   4.221   8.025
  150POPC   PO4 2283   1.661   4.665   7.922
  150POPC   GL1 2284   1.264   4.620   7.699
  150POPC   GL2 2285   1.169   4.301   7.542
  150POPC   C1A 2286   1.046   4.701   7.282
  150POPC   D2A 2287   1.062   4.442   6.935
  150POPC   C3A 2288   1.291   4.527   6.572
  150POPC   C4A 2289   1.193   4.414   6.165
  150POPC   C1B 2290   0.879   4.094   7.284
  150POPC   C2B 2291   0.919   3.956   6.863
  150POPC   C3B 2292   0.829   4.189   6.490
  150POPC   C4B 2293   0.879   4.038   6.081
  151POPC   NC3 2294   0.402   0.979   7.908
  151POPC   PO4 2295   0.800   1.502   8.102
  151POPC   GL1 2296   0.722   1.353   7.721
  151POPC   GL2 2297   0.363   1.441   7.655
  151POPC   C1A 2298   0.785   1.352   7.298
  151POPC   D2A 2299   0.686   1.077   6.924
  151POPC   C3A 2300   0.605   1.263   6.546
  151POPC   C4A 2301   0.789   1.429   6.148
  151POPC   C1B 2302   0.316   1.173   7.272
  151POPC   C2B 2303   0.158   0.989   6.878
  151POPC   C3B 2304   0.078   1.014   6.437
  151POPC   C4B 2305   0.397   1.070   6.123
  152POPC   NC3 2306   0.407   1.806   8.066
  152POPC   PO4 2307   0.012   2.398   8.091
  152POPC   GL1 2308   0.037   2.224   7.666
  152POPC   GL2 2309   0.235   1.954   7.631
  152POPC   C1A 2310   0.304   2.282   7.268
  152POPC   D2A 2311   0.396   2.092   6.894
  152POPC   C3A 2312   0.520   2.259   6.534
  152POPC   C4A 2313   0.389   2.347   6.151
  152POPC   C1B 2314   0.544   1.812   7.330
  152POPC   C2B 2315   0.511   1.595   6.931
  152POPC   C3B 2316   0.640   1.764   6.523
  152POPC   C4B 2317   0.563   1.891   6.078
  153POPC   NC3 2318   9.460   6.257   8.037
  153POPC   PO4 2319   9.265   6.870   8.175
  153POPC   GL1 2320   9.470   6.724   7.759
  153POPC   GL2 2321   9.788   6.571   7.722
  153POPC   C1A 2322   9.494   6.540   7.299
  153POPC   D2A 2323   9.534   6.747   6.866
  153POPC   C3A 2324   9.484   6.543   6.443
  153POPC   C4A 2325   9.152   6.313   6.274
  153POPC   C1B 2326  10.019   6.436   7.374
  153POPC   C2B 2327  10.013   6.639   7.011
  153POPC   C3B 2328   9.947   6.494   6.637
  153POPC   C4B 2329  10.069   6.628   6.273
  154POPC   NC3 2330   2.609   8.780   8.053
  154POPC   PO4 2331   3.059   9.298   8.068
  154POPC   GL1 2332   2.756   9.180   7.714
  154POPC   GL2 2333   2.792   8.880   7.592
  154POPC   C1A 2334   2.535   9.150   7.271
  154POPC   D2A 2335   2.683   8.975   6.867
  154POPC   C3A 2336   2.577   9.167   6.457
  154POPC   C4A 2337   2.433   9.315   5.974
  154POPC   C1B 2338   2.622   8.636   7.270
  154POPC   C2B 2339   2.671   8.461   6.853
  154POPC   C3B 2340   2.647   8.642   6.441
  154POPC   C4B 2341   2.647   8.871   6.055
  155POPC   NC3 2342   0.238   7.344   8.144
  155POPC   PO4 2343  11.063   7.236   8.218
  155POPC   GL1 2344  11.317   7.214   7.810
  155POPC   GL2 2345  11.106   7.395   7.590
  155POPC   C1A 2346   0.015   7.227   7.354
  155POPC   D2A 2347  11.439   7.149   6.873
  155POPC   C3A 2348   0.008   7.519   6.591
  155POPC   C4A 2349   0.002   7.703   6.166
  155POPC   C1B 2350  11.035   7.120   7.197
  155POPC   C2B 2351  10.822   7.201   6.822
  155POPC   C3B 2352  10.980   7.337   6.433
  155POPC   C4B 2353  11.349   7.210   6.233
  156POPC   NC3 2354  10.169   4.291   8.014
  156POPC   PO4 2355  10.734   4.623   8.066
  156POPC   GL1 2356  10.518   4.453   7.661
  156POPC   GL2 2357  10.501   4.061   7.696
  156POPC   C1A 2358  10.239   4.521   7.270
  156POPC   D2A 2359   9.997   4.276   6.963
  156POPC   C3A 2360  10.127   4.423   6.555
  156POPC   C4A 2361  10.025   4.449   6.143
  156POPC   C1B 2362  10.516   4.112   7.268
  156POPC   C2B 2363  10.507   4.252   6.863
  156POPC   C3B 2364  10.665   3.982   6.523
  156POPC   C4B 2365  10.466   4.197   6.204
  157POPC   NC3 2366  10.410  11.208   8.104
  157POPC   PO4 2367   9.794  11.312   8.125
  157POPC   GL1 2368   9.982  11.123   7.759
  157POPC   GL2 2369  10.240  11.341   7.627
  157POPC   C1A 2370   9.968  11.027   7.308
  157POPC   D2A 2371  10.115  11.305   6.950
  157POPC   C3A 2372  10.095  11.126   6.512
  157POPC   C4A 2373  10.227  11.280   6.109
  157POPC   C1B 2374  10.481  11.067   7.335
  157POPC   C2B 2375  10.645  11.177   6.939
  157POPC   C3B 2376  10.794  11.272   6.542
  157POPC   C4B 2377  10.592  10.991   6.292
  158POPC   NC3 2378   1.377  11.077   8.040
  158POPC   PO4 2379   0.862   0.062   8.078
  158POPC   GL1 2380   1.143  11.422   7.735
  158POPC   GL2 2381   1.013  11.094   7.686
  158POPC   C1A 2382   1.358  11.226   7.345
  158POPC   D2A 2383   1.131  11.061   6.975
  158POPC   C3A 2384   1.319  11.111   6.592
  158POPC   C4A 2385   1.589  11.236   6.267
  158POPC   C1B 2386   0.849  11.360   7.314
  158POPC   C2B 2387   0.772   0.031   6.924
  158POPC   C3B 2388   0.868  11.317   6.569
  158POPC   C4B 2389   1.065  11.081   6.166
  159POPC   NC3 2390   0.200   9.645   8.070
  159POPC   PO4 2391   0.773   9.314   8.131
  159POPC   GL1 2392   0.487   9.346   7.785
  159POPC   GL2 2393   0.506   9.699   7.675
  159POPC   C1A 2394   0.356   9.330   7.353
  159POPC   D2A 2395   0.686   9.391   7.047
  159POPC   C3A 2396   0.815   9.381   6.622
  159POPC   C4A 2397   0.817   9.234   6.215
  159POPC   C1B 2398   0.205   9.816   7.345
  159POPC   C2B 2399   0.226   9.591   6.928
  159POPC   C3B 2400   0.446   9.726   6.551
  159POPC   C4B 2401   0.379   9.999   6.189
  160POPC   NC3 2402   9.813   5.734   8.011
  160POPC   PO4 2403   9.140   5.944   7.959
  160POPC   GL1 2404   9.501   5.912   7.641
  160POPC   GL2 2405   9.737   5.624   7.543
  160POPC   C1A 2406   9.647   6.033   7.235
  160POPC   D2A 2407   9.514   6.233   6.864
  160POPC   C3A 2408   9.531   6.019   6.480
  160POPC   C4A 2409   9.320   5.713   6.221
  160POPC   C1B 2410   9.873   5.471   7.186
  160POPC   C2B 2411   9.754   5.685   6.842
  160POPC   C3B 2412   9.745   5.532   6.455
  160POPC   C4B 2413   9.836   5.794   6.132
  161POPC   NC3 2414   6.145  10.129   8.077
  161POPC   PO4 2415   5.972  10.734   8.138
  161POPC   GL1 2416   6.041  10.530   7.767
  161POPC   GL2 2417   5.863  10.808   7.599
  161POPC   C1A 2418   6.088  10.169   7.449
  161POPC   D2A 2419   6.087  10.353   7.061
  161POPC   C3A 2420   6.170  10.183   6.696
  161POPC   C4A 2421   5.987  10.289   6.342
  161POPC   C1B 2422   5.688  10.482   7.387
  161POPC   C2B 2423   5.571  10.289   7.022
  161POPC   C3B 2424   5.572  10.411   6.643
  161POPC   C4B 2425   5.490  10.286   6.271
  162POPC   NC3 2426   4.339   2.278   8.028
  162POPC   PO4 2427   4.532   1.672   8.076
  162POPC   GL1 2428   4.404   1.585   7.665
  162POPC   GL2 2429   4.190   1.887   7.680
  162POPC   C1A 2430   4.402   1.805   7.233
  162POPC   D2A 2431   4.297   1.887   6.804
  162POPC   C3A 2432   4.561   2.035   6.462
  162POPC   C4A 2433   4.424   1.932   6.043
  162POPC   C1B 2434   4.158   2.235   7.363
  162POPC   C2B 2435   4.025   2.320   6.942
  162POPC   C3B 2436   4.136   2.324   6.523
  162POPC   C4B 2437   4.008   2.202   6.134
  163POPC   NC3 2438   8.906   5.567   8.047
  163POPC   PO4 2439   9.475   5.441   8.086
  163POPC   GL1 2440   9.278   5.440   7.666
  163POPC   GL2 2441   9.027   5.687   7.544
  163POPC   C1A 2442   9.363   5.569   7.196
  163POPC   D2A 2443   9.257   5.656   6.738
  163POPC   C3A 2444   8.915   5.498   6.430
  163POPC   C4A 2445   8.932   5.452   5.958
  163POPC   C1B 2446   9.131   6.024   7.213
  163POPC   C2B 2447   9.020   6.104   6.758
  163POPC   C3B 2448   8.787   5.999   6.381
  163POPC   C4B 2449   8.706   6.300   6.030
  164POPC   NC3 2450   7.808   2.976   7.913
  164POPC   PO4 2451   8.174   2.487   8.071
  164POPC   GL1 2452   7.934   2.329   7.690
  164POPC   GL2 2453   7.833   2.620   7.574
  164POPC   C1A 2454   7.934   2.338   7.188
  164POPC   D2A 2455   7.947   2.696   6.832
  164POPC   C3A 2456   8.087   2.628   6.390
  164POPC   C4A 2457   8.003   2.304   6.098
  164POPC   C1B 2458   8.156   2.809   7.294
  164POPC   C2B 2459   8.408   2.978   6.907
  164POPC   C3B 2460   8.274   3.104   6.459
  164POPC   C4B 2461   8.255   3.094   5.964
  165POPC   NC3 2462   1.158   0.400   7.965
  165POPC   PO4 2463   1.587   0.895   7.988
  165POPC   GL1 2464   1.506   0.666   7.580
  165POPC   GL2 2465   1.138   0.635   7.517
  165POPC   C1A 2466   1.436   0.613   7.099
  165POPC   D2A 2467   1.010   0.501   6.899
  165POPC   C3A 2468   1.096   0.562   6.466
  165POPC   C4A 2469   1.523   0.586   6.412
  165POPC   C1B 2470   1.208   0.222   7.310
  165POPC   C2B 2471   1.304   0.051   6.882
  165POPC   C3B 2472   1.282   0.102   6.430
  165POPC   C4B 2473   0.886   0.161   6.199
  166POPC   NC3 2474   9.549   2.773   8.161
  166POPC   PO4 2475  10.143   2.617   7.968
  166POPC   GL1 2476   9.865   2.841   7.683
  166POPC   GL2 2477   9.564   2.625   7.673
  166POPC   C1A 2478   9.710   2.831   7.241
  166POPC   D2A 2479   9.859   2.539   6.968
  166POPC   C3A 2480  10.107   2.769   6.695
  166POPC   C4A 2481   9.973   2.705   6.285
  166POPC   C1B 2482   9.500   2.342   7.316
  166POPC   C2B 2483   9.346   2.456   6.920
  166POPC   C3B 2484   9.447   2.807   6.720
  166POPC   C4B 2485   9.474   2.820   6.277
  167POPC   NC3 2486  10.531   8.480   7.853
  167POPC   PO4 2487  10.073   8.741   8.339
  167POPC   GL1 2488  10.192   8.880   7.808
  167POPC   GL2 2489  10.228   9.240   7.773
  167POPC   C1A 2490  10.313   8.754   7.324
  167POPC   D2A 2491  10.462   8.614   6.896
  167POPC   C3A 2492  10.296   8.814   6.535
  167POPC   C4A 2493  10.381   8.673   6.116
  167POPC   C1B 2494  10.075   9.194   7.350
  167POPC   C2B 2495  10.297   9.144   6.961
  167POPC   C3B 2496  10.633   9.190   6.671
  167POPC   C4B 2497  10.596   9.139   6.220
  168POPC   NC3 2498   1.621   1.195   3.932
  168POPC   PO4 2499   0.976   0.951   3.949
  168POPC   GL1 2500   1.232   1.117   4.233
  168POPC   GL2 2501   1.045   1.362   4.397
  168POPC   C1A 2502   1.470   1.099   4.597
  168POPC   D2A 2503   1.345   1.105   5.034
  168POPC   C3A 2504   1.565   1.357   5.360
  168POPC   C4A 2505   1.660   0.964   5.611
  168POPC   C1B 2506   0.932   0.983   4.642
  168POPC   C2B 2507   0.865   0.879   5.084
  168POPC   C3B 2508   1.119   0.941   5.465
  168POPC   C4B 2509   1.144   1.388   5.650
  169POPC   NC3 2510  10.858   3.426   3.829
  169POPC   PO4 2511  10.185   3.439   3.816
  169POPC   GL1 2512  10.202   3.680   4.209
  169POPC   GL2 2513  10.576   3.695   4.233
  169POPC   C1A 2514  10.093   3.517   4.632
  169POPC   D2A 2515  10.227   3.230   4.993
  169POPC   C3A 2516   9.975   3.220   5.363
  169POPC   C4A 2517  10.091   3.344   5.754
  169POPC   C1B 2518  10.573   3.564   4.693
  169POPC   C2B 2519  10.388   3.710   5.113
  169POPC   C3B 2520  10.400   3.711   5.582
  169POPC   C4B 2521  10.689   3.826   5.936
  170POPC   NC3 2522   9.714   5.698   3.715
  170POPC   PO4 2523   9.317   5.343   3.933
  170POPC   GL1 2524   9.641   5.451   4.199
  170POPC   GL2 2525   9.647   5.801   4.247
  170POPC   C1A 2526   9.686   5.450   4.630
  170POPC   D2A 2527   9.438   5.450   4.986
  170POPC   C3A 2528   9.638   5.623   5.342
  170POPC   C4A 2529   9.537   5.642   5.759
  170POPC   C1B 2530   9.826   5.945   4.697
  170POPC   C2B 2531   9.859   6.041   5.157
  170POPC   C3B 2532   9.569   6.191   5.501
  170POPC   C4B 2533   9.496   6.119   5.948
  171POPC   NC3 2534   3.708  10.266   3.977
  171POPC   PO4 2535   3.955  10.833   4.016
  171POPC   GL1 2536   3.740  10.645   4.341
  171POPC   GL2 2537   3.373  10.639   4.289
  171POPC   C1A 2538   3.894  10.635   4.757
  171POPC   D2A 2539   3.910  10.811   5.149
  171POPC   C3A 2540   3.855  10.505   5.497
  171POPC   C4A 2541   3.770  10.318   5.920
  171POPC   C1B 2542   3.450  10.379   4.684
  171POPC   C2B 2543   3.461  10.527   5.123
  171POPC   C3B 2544   3.351  10.374   5.542
  171POPC   C4B 2545   3.360  10.023   5.779
  172POPC   NC3 2546  10.494   2.104   4.050
  172POPC   PO4 2547   9.862   1.951   4.087
  172POPC   GL1 2548  10.087   2.185   4.383
  172POPC   GL2 2549  10.283   1.895   4.468
  172POPC   C1A 2550  10.322   2.279   4.785
  172POPC   D2A 2551  10.391   2.031   5.154
  172POPC   C3A 2552  10.316   2.322   5.494
  172POPC   C4A 2553  10.446   2.322   5.925
  172POPC   C1B 2554  10.562   1.623   4.715
  172POPC   C2B 2555  10.539   1.466   5.125
  172POPC   C3B 2556  10.515   1.616   5.543
  172POPC   C4B 2557  10.217   1.895   5.752
  173POPC   NC3 2558  10.141  11.185   3.908
  173POPC   PO4 2559  10.697  10.662   3.830
  173POPC   GL1 2560  10.501  10.937   4.233
  173POPC   GL2 2561  10.378  11.289   4.347
  173POPC   C1A 2562  10.339  10.949   4.711
  173POPC   D2A 2563  10.094  10.708   5.036
  173POPC   C3A 2564  10.378  10.734   5.388
  173POPC   C4A 2565  10.524  10.914   5.769
  173POPC   C1B 2566  10.192  11.485   4.713
  173POPC   C2B 2567  10.050  11.376   5.134
  173POPC   C3B 2568  10.152   0.144   5.495
  173POPC   C4B 2569  10.491  11.465   5.719
  174POPC   NC3 2570   6.413  11.357   3.888
  174POPC   PO4 2571   7.079  11.439   4.021
  174POPC   GL1 2572   6.755  11.295   4.263
  174POPC   GL2 2573   6.749  10.943   4.323
  174POPC   C1A 2574   6.487  11.331   4.599
  174POPC   D2A 2575   6.611  11.324   5.044
  174POPC   C3A 2576   6.364  11.491   5.380
  174POPC   C4A 2577   6.221  11.374   5.790
  174POPC   C1B 2578   6.602  10.863   4.759
  174POPC   C2B 2579   6.301  10.882   5.124
  174POPC   C3B 2580   6.474  10.947   5.539
  174POPC   C4B 2581   6.881  10.896   5.730
  175POPC   NC3 2582   2.991   9.846   3.994
  175POPC   PO4 2583   3.597   9.886   3.740
  175POPC   GL1 2584   3.670   9.790   4.196
  175POPC   GL2 2585   3.392   9.558   4.215
  175POPC   C1A 2586   3.759   9.959   4.647
  175POPC   D2A 2587   3.554   9.983   5.090
  175POPC   C3A 2588   3.800   9.964   5.501
  175POPC   C4A 2589   3.793   9.806   5.942
  175POPC   C1B 2590   3.427   9.564   4.670
  175POPC   C2B 2591   3.316   9.498   5.110
  175POPC   C3B 2592   3.458   9.580   5.523
  175POPC   C4B 2593   3.370   9.536   5.971
  176POPC   NC3 2594  10.506   7.924   3.877
  176POPC   PO4 2595  10.705   8.553   3.973
  176POPC   GL1 2596  10.480   8.365   4.322
  176POPC   GL2 2597  10.442   8.024   4.382
  176POPC   C1A 2598  10.443   8.300   4.787
  176POPC   D2A 2599  10.676   8.081   5.111
  176POPC   C3A 2600  10.498   8.362   5.377
  176POPC   C4A 2601  10.217   8.495   5.654
  176POPC   C1B 2602  10.362   7.784   4.781
  176POPC   C2B 2603  10.199   7.903   5.166
  176POPC   C3B 2604  10.250   7.965   5.589
  176POPC   C4B 2605  10.197   7.706   5.978
  177POPC   NC3 2606   9.568   2.247   4.279
  177POPC   PO4 2607   9.592   2.904   3.955
  177POPC   GL1 2608   9.521   2.752   4.297
  177POPC   GL2 2609   9.881   2.657   4.305
  177POPC   C1A 2610   9.443   2.802   4.717
  177POPC   D2A 2611   9.347   3.024   5.066
  177POPC   C3A 2612   9.506   2.912   5.420
  177POPC   C4A 2613   9.304   2.918   5.786
  177POPC   C1B 2614   9.889   2.547   4.733
  177POPC   C2B 2615   9.881   2.801   5.065
  177POPC   C3B 2616   9.980   2.709   5.469
  177POPC   C4B 2617   9.759   2.690   5.836
  178POPC   NC3 2618  10.806   0.415   3.749
  178POPC   PO4 2619  11.282   0.185   4.160
  178POPC   GL1 2620  11.289   0.564   4.394
  178POPC   GL2 2621   0.136   0.619   4.327
  178POPC   C1A 2622  11.048   0.546   4.814
  178POPC   D2A 2623  10.942   0.179   5.108
  178POPC   C3A 2624  11.061   0.263   5.555
  178POPC   C4A 2625  11.058   0.675   5.751
  178POPC   C1B 2626   0.127   0.376   4.723
  178POPC   C2B 2627  11.444   0.435   5.103
  178POPC   C3B 2628   0.035   0.476   5.487
  178POPC   C4B 2629  11.491   0.335   5.860
  179POPC   NC3 2630   6.644   9.557   3.852
  179POPC   PO4 2631   6.170   9.941   3.799
  179POPC   GL1 2632   6.376   9.888   4.207
  179POPC   GL2 2633   6.638   9.660   4.355
  179POPC   C1A 2634   6.370  10.005   4.660
  179POPC   D2A 2635   6.415   9.796   5.051
  179POPC   C3A 2636   6.254   9.845   5.469
  179POPC   C4A 2637   6.375   9.524   5.780
  179POPC   C1B 2638   6.851   9.835   4.739
  179POPC   C2B 2639   6.869  10.023   5.139
  179POPC   C3B 2640   6.755   9.808   5.511
  179POPC   C4B 2641   6.665   9.907   5.928
  180POPC   NC3 2642   9.319   8.935   3.833
  180POPC   PO4 2643   9.986   8.977   3.786
  180POPC   GL1 2644   9.680   9.192   4.125
  180POPC   GL2 2645   9.500   8.906   4.305
  180POPC   C1A 2646   9.578   9.316   4.590
  180POPC   D2A 2647   9.776   9.197   4.991
  180POPC   C3A 2648   9.609   9.226   5.406
  180POPC   C4A 2649   9.685   9.110   5.815
  180POPC   C1B 2650   9.481   8.830   4.746
  180POPC   C2B 2651   9.309   8.863   5.152
  180POPC   C3B 2652   9.362   8.786   5.590
  180POPC   C4B 2653   9.748   8.605   5.732
  181POPC   NC3 2654  11.194   8.418   4.073
  181POPC   PO4 2655  10.925   7.885   3.725
  181POPC   GL1 2656  10.933   7.950   4.179
  181POPC   GL2 2657  11.265   7.890   4.190
  181POPC   C1A 2658  10.921   8.108   4.639
  181POPC   D2A 2659  11.190   8.187   5.046
  181POPC   C3A 2660  10.990   8.328   5.465
  181POPC   C4A 2661  10.719   8.343   5.845
  181POPC   C1B 2662  11.337   7.785   4.624
  181POPC   C2B 2663  11.142   7.646   5.010
  181POPC   C3B 2664  11.058   7.823   5.425
  181POPC   C4B 2665  11.415   7.937   5.706
  182POPC   NC3 2666   5.713  10.920   3.945
  182POPC   PO4 2667   6.399  10.907   3.676
  182POPC   GL1 2668   6.221  10.923   4.139
  182POPC   GL2 2669   6.027  11.259   4.217
  182POPC   C1A 2670   6.129  10.969   4.610
  182POPC   D2A 2671   6.086  11.327   4.940
  182POPC   C3A 2672   5.938  11.213   5.364
  182POPC   C4A 2673   5.992  10.925   5.703
  182POPC   C1B 2674   5.717  11.263   4.587
  182POPC   C2B 2675   5.551  11.306   5.026
  182POPC   C3B 2676   5.473  11.438   5.460
  182POPC   C4B 2677   5.687  11.340   5.839
  183POPC   NC3 2678   1.116   8.111   3.785
  183POPC   PO4 2679   1.674   8.368   3.977
  183POPC   GL1 2680   1.375   8.201   4.242
  183POPC   GL2 2681   1.052   8.157   4.304
  183POPC   C1A 2682   1.438   8.058   4.660
  183POPC   D2A 2683   1.288   8.177   5.080
  183POPC   C3A 2684   1.357   7.909   5.446
  183POPC   C4A 2685   1.440   8.131   5.822
  183POPC   C1B 2686   0.940   8.020   4.721
  183POPC   C2B 2687   0.778   8.165   5.128
  183POPC   C3B 2688   0.928   8.155   5.535
  183POPC   C4B 2689   0.960   7.896   5.883
  184POPC   NC3 2690  11.004  10.976   4.032
  184POPC   PO4 2691  10.622   0.038   3.981
  184POPC   GL1 2692  10.889  11.357   4.348
  184POPC   GL2 2693  11.247  11.231   4.396
  184POPC   C1A 2694  10.813  11.194   4.748
  184POPC   D2A 2695  10.577  11.273   5.140
  184POPC   C3A 2696  10.893  11.280   5.470
  184POPC   C4A 2697  10.891  11.213   5.933
  184POPC   C1B 2698  11.300  11.442   4.809
  184POPC   C2B 2699  11.386  11.457   5.256
  184POPC   C3B 2700  11.368  11.367   5.681
  184POPC   C4B 2701  11.365  11.030   5.929
  185POPC   NC3 2702   2.035  11.058   3.854
  185POPC   PO4 2703   2.583  10.553   3.824
  185POPC   GL1 2704   2.315  10.664   4.233
  185POPC   GL2 2705   2.084  10.944   4.342
  185POPC   C1A 2706   2.404  10.787   4.691
  185POPC   D2A 2707   2.309  11.084   5.018
  185POPC   C3A 2708   2.093  10.987   5.367
  185POPC   C4A 2709   2.212  11.071   5.743
  185POPC   C1B 2710   1.903  11.147   4.715
  185POPC   C2B 2711   1.636  11.088   5.057
  185POPC   C3B 2712   1.601  11.045   5.460
  185POPC   C4B 2713   1.756  11.297   5.771
  186POPC   NC3 2714   3.630   2.899   3.797
  186POPC   PO4 2715   3.005   3.142   4.022
  186POPC   GL1 2716   3.366   2.922   4.258
  186POPC   GL2 2717   3.343   2.565   4.228
  186POPC   C1A 2718   3.382   2.767   4.724
  186POPC   D2A 2719   3.245   2.819   5.184
  186POPC   C3A 2720   3.579   2.833   5.538
  186POPC   C4A 2721   3.789   2.981   5.963
  186POPC   C1B 2722   3.100   2.361   4.606
  186POPC   C2B 2723   3.228   2.297   5.058
  186POPC   C3B 2724   3.228   2.428   5.544
  186POPC   C4B 2725   3.137   2.394   6.032
  187POPC   NC3 2726   9.693   1.524   4.196
  187POPC   PO4 2727   9.288   2.143   3.942
  187POPC   GL1 2728   9.151   1.966   4.373
  187POPC   GL2 2729   9.480   1.827   4.541
  187POPC   C1A 2730   9.067   1.817   4.827
  187POPC   D2A 2731   9.465   1.830   5.095
  187POPC   C3A 2732   9.555   1.745   5.536
  187POPC   C4A 2733   9.517   1.902   5.948
  187POPC   C1B 2734   9.870   1.975   4.805
  187POPC   C2B 2735   9.916   2.246   5.175
  187POPC   C3B 2736   9.812   2.213   5.628
  187POPC   C4B 2737   9.920   2.229   6.073
  188POPC   NC3 2738   2.728   7.358   3.904
  188POPC   PO4 2739   2.996   6.886   3.976
  188POPC   GL1 2740   2.889   7.178   4.375
  188POPC   GL2 2741   2.648   7.473   4.405
  188POPC   C1A 2742   2.858   7.262   4.862
  188POPC   D2A 2743   2.969   7.040   5.263
  188POPC   C3A 2744   3.009   7.266   5.656
  188POPC   C4A 2745   2.955   7.277   6.106
  188POPC   C1B 2746   2.442   7.114   4.619
  188POPC   C2B 2747   2.287   7.104   5.056
  188POPC   C3B 2748   2.514   7.223   5.433
  188POPC   C4B 2749   2.584   7.490   5.818
  189POPC   NC3 2750   8.464  11.287   4.125
  189POPC   PO4 2751   8.336  10.698   3.753
  189POPC   GL1 2752   8.298  10.799   4.204
  189POPC   GL2 2753   8.051  11.019   4.277
  189POPC   C1A 2754   8.349  10.939   4.668
  189POPC   D2A 2755   8.139  11.233   4.939
  189POPC   C3A 2756   8.080  11.120   5.356
  189POPC   C4A 2757   8.278  11.008   5.733
  189POPC   C1B 2758   7.836  11.318   4.525
  189POPC   C2B 2759   7.631  11.320   4.905
  189POPC   C3B 2760   7.576  11.295   5.326
  189POPC   C4B 2761   7.752  11.283   5.717
  190POPC   NC3 2762   5.737   0.180   3.593
  190POPC   PO4 2763   5.302   0.477   3.971
  190POPC   GL1 2764   5.010   0.450   4.340
  190POPC   GL2 2765   4.945   0.100   4.500
  190POPC   C1A 2766   5.126   0.504   4.775
  190POPC   D2A 2767   5.267   0.239   5.065
  190POPC   C3A 2768   5.306   0.442   5.426
  190POPC   C4A 2769   5.100   0.417   5.782
  190POPC   C1B 2770   4.661   0.295   4.727
  190POPC   C2B 2771   4.678   0.522   5.048
  190POPC   C3B 2772   4.734   0.499   5.426
  190POPC   C4B 2773   4.704   0.715   5.786
  191POPC   NC3 2774   4.788   1.768   3.919
  191POPC   PO4 2775   4.799   2.435   3.943
  191POPC   GL1 2776   4.910   2.197   4.314
  191POPC   GL2 2777   5.085   1.876   4.318
  191POPC   C1A 2778   4.739   2.186   4.749
  191POPC   D2A 2779   4.519   2.155   5.156
  191POPC   C3A 2780   4.818   2.254   5.485
  191POPC   C4A 2781   4.849   2.157   5.916
  191POPC   C1B 2782   4.881   1.701   4.699
  191POPC   C2B 2783   4.918   1.839   5.147
  191POPC   C3B 2784   5.084   1.820   5.604
  191POPC   C4B 2785   5.277   1.909   6.038
  192POPC   NC3 2786   4.174   0.233   3.843
  192POPC   PO4 2787   4.695  11.474   4.060
  192POPC   GL1 2788   4.372   0.217   4.333
  192POPC   GL2 2789   4.182   0.533   4.307
  192POPC   C1A 2790   4.158   0.163   4.750
  192POPC   D2A 2791   4.415   0.056   5.116
  192POPC   C3A 2792   4.344   0.167   5.516
  192POPC   C4A 2793   4.644   0.193   5.828
  192POPC   C1B 2794   4.286   0.662   4.743
  192POPC   C2B 2795   4.173   0.530   5.159
  192POPC   C3B 2796   4.244   0.684   5.560
  192POPC   C4B 2797   4.260   0.864   5.982
  193POPC   NC3 2798   1.195   2.117   4.005
  193POPC   PO4 2799   1.680   1.662   3.944
  193POPC   GL1 2800   1.512   1.588   4.356
  193POPC   GL2 2801   1.264   1.845   4.416
  193POPC   C1A 2802   1.348   1.548   4.796
  193POPC   D2A 2803   1.050   1.565   5.130
  193POPC   C3A 2804   1.225   1.854   5.395
  193POPC   C4A 2805   1.459   1.786   5.752
  193POPC   C1B 2806   0.899   1.872   4.706
  193POPC   C2B 2807   0.768   2.064   5.102
  193POPC   C3B 2808   0.976   2.341   5.347
  193POPC   C4B 2809   1.178   2.225   5.744
  194POPC   NC3 2810   5.791   0.511   4.066
  194POPC   PO4 2811   5.602  11.408   3.945
  194POPC   GL1 2812   5.524   0.182   4.372
  194POPC   GL2 2813   5.500   0.559   4.458
  194POPC   C1A 2814   5.718   0.254   4.807
  194POPC   D2A 2815   5.996   0.293   5.170
  194POPC   C3A 2816   5.906   0.227   5.580
  194POPC   C4A 2817   5.601   0.365   5.842
  194POPC   C1B 2818   5.897   0.726   4.651
  194POPC   C2B 2819   6.153   0.739   4.977
  194POPC   C3B 2820   6.075   0.891   5.398
  194POPC   C4B 2821   5.954   0.724   5.805
  195POPC   NC3 2822   4.006   9.690   3.800
  195POPC   PO4 2823   4.674   9.481   4.105
  195POPC   GL1 2824   4.241   9.514   4.203
  195POPC   GL2 2825   4.193   9.845   4.305
  195POPC   C1A 2826   3.940   9.477   4.555
  195POPC   D2A 2827   3.974   9.618   4.996
  195POPC   C3A 2828   4.211   9.360   5.314
  195POPC   C4A 2829   3.969   9.443   5.644
  195POPC   C1B 2830   4.425   9.720   4.714
  195POPC   C2B 2831   4.455   9.767   5.186
  195POPC   C3B 2832   4.495   9.763   5.650
  195POPC   C4B 2833   4.703  10.168   5.781
  196POPC   NC3 2834   2.989   1.812   4.003
  196POPC   PO4 2835   2.443   1.482   3.723
  196POPC   GL1 2836   2.390   1.706   4.226
  196POPC   GL2 2837   2.506   2.024   4.171
  196POPC   C1A 2838   2.276   1.769   4.660
  196POPC   D2A 2839   2.579   1.630   4.969
  196POPC   C3A 2840   2.537   1.775   5.404
  196POPC   C4A 2841   2.737   1.676   5.808
  196POPC   C1B 2842   2.722   1.991   4.574
  196POPC   C2B 2843   2.607   2.135   4.969
  196POPC   C3B 2844   2.827   2.177   5.343
  196POPC   C4B 2845   2.733   2.206   5.769
  197POPC   NC3 2846   7.560  11.431   3.880
  197POPC   PO4 2847   7.236   0.551   3.720
  197POPC   GL1 2848   7.402   0.521   4.195
  197POPC   GL2 2849   7.640   0.249   4.247
  197POPC   C1A 2850   7.225   0.624   4.647
  197POPC   D2A 2851   7.378   0.867   5.013
  197POPC   C3A 2852   7.242   0.743   5.418
  197POPC   C4A 2853   7.024   0.492   5.701
  197POPC   C1B 2854   7.389   0.140   4.591
  197POPC   C2B 2855   7.474   0.299   4.998
  197POPC   C3B 2856   7.366   0.240   5.407
  197POPC   C4B 2857   7.455   0.230   5.828
  198POPC   NC3 2858   1.122   7.591   3.725
  198POPC   PO4 2859   1.527   7.017   3.908
  198POPC   GL1 2860   1.368   7.334   4.203
  198POPC   GL2 2861   1.162   7.147   4.436
  198POPC   C1A 2862   1.479   7.543   4.604
  198POPC   D2A 2863   1.281   7.648   5.003
  198POPC   C3A 2864   1.409   7.336   5.323
  198POPC   C4A 2865   1.492   7.056   5.705
  198POPC   C1B 2866   0.925   7.510   4.618
  198POPC   C2B 2867   0.724   7.652   5.017
  198POPC   C3B 2868   0.906   7.659   5.423
  198POPC   C4B 2869   1.208   7.485   5.754
  199POPC   NC3 2870   0.820   3.685   3.950
  199POPC   PO4 2871   0.533   3.038   3.900
  199POPC   GL1 2872   0.525   3.323   4.263
  199POPC   GL2 2873   0.617   3.662   4.425
  199POPC   C1A 2874   0.436   3.280   4.696
  199POPC   D2A 2875   0.628   3.556   4.994
  199POPC   C3A 2876   0.644   3.346   5.379
  199POPC   C4A 2877   0.378   3.199   5.690
  199POPC   C1B 2878   0.211   3.743   4.656
  199POPC   C2B 2879   0.115   3.537   5.053
  199POPC   C3B 2880   0.247   3.645   5.464
  199POPC   C4B 2881   0.089   3.677   5.863
  200POPC   NC3 2882  10.466   5.781   3.981
  200POPC   PO4 2883   9.998   5.279   3.877
  200POPC   GL1 2884  10.162   5.505   4.284
  200POPC   GL2 2885  10.551   5.538   4.413
  200POPC   C1A 2886  10.184   5.392   4.721
  200POPC   D2A 2887  10.162   5.633   5.084
  200POPC   C3A 2888  10.128   5.516   5.510
  200POPC   C4A 2889   9.965   5.920   5.665
  200POPC   C1B 2890  10.467   5.865   4.703
  200POPC   C2B 2891  10.440   6.046   5.128
  200POPC   C3B 2892  10.467   5.904   5.544
  200POPC   C4B 2893  10.698   6.156   5.818
  201POPC   NC3 2894   8.941   5.607   3.805
  201POPC   PO4 2895   8.467   5.838   4.114
  201POPC   GL1 2896   8.799   5.563   4.322
  201POPC   GL2 2897   9.158   5.580   4.339
  201POPC   C1A 2898   8.925   5.614   4.793
  201POPC   D2A 2899   8.815   5.933   5.129
  201POPC   C3A 2900   8.660   5.777   5.557
  201POPC   C4A 2901   8.527   5.790   6.001
  201POPC   C1B 2902   9.308   5.905   4.614
  201POPC   C2B 2903   9.360   5.968   5.055
  201POPC   C3B 2904   9.179   5.863   5.470
  201POPC   C4B 2905   9.025   5.952   5.880
  202POPC   NC3 2906   6.038   1.473   3.950
  202POPC   PO4 2907   5.703   0.947   3.986
  202POPC   GL1 2908   5.531   1.068   4.374
  202POPC   GL2 2909   5.558   1.406   4.318
  202POPC   C1A 2910   5.463   0.948   4.809
  202POPC   D2A 2911   5.651   0.705   5.145
  202POPC   C3A 2912   5.562   0.937   5.533
  202POPC   C4A 2913   5.394   1.381   5.603
  202POPC   C1B 2914   5.961   1.248   4.554
  202POPC   C2B 2915   5.928   1.187   4.975
  202POPC   C3B 2916   5.841   1.378   5.342
  202POPC   C4B 2917   5.918   1.239   5.753
  203POPC   NC3 2918   7.035   1.410   4.004
  203POPC   PO4 2919   6.950   2.113   3.918
  203POPC   GL1 2920   7.300   1.956   4.214
  203POPC   GL2 2921   7.562   2.185   4.329
  203POPC   C1A 2922   7.477   1.800   4.630
  203POPC   D2A 2923   7.315   1.684   5.031
  203POPC   C3A 2924   7.342   1.725   5.468
  203POPC   C4A 2925   6.994   1.793   5.687
  203POPC   C1B 2926   7.641   2.282   4.782
  203POPC   C2B 2927   7.516   2.145   5.206
  203POPC   C3B 2928   7.302   2.225   5.608
  203POPC   C4B 2929   7.455   2.351   6.003
  204POPC   NC3 2930   8.011   1.487   3.802
  204POPC   PO4 2931   7.911   0.822   3.871
  204POPC   GL1 2932   8.264   0.960   4.127
  204POPC   GL2 2933   8.047   1.207   4.231
  204POPC   C1A 2934   8.478   1.124   4.510
  204POPC   D2A 2935   8.469   0.990   4.968
  204POPC   C3A 2936   8.494   1.234   5.349
  204POPC   C4A 2937   8.474   1.167   5.801
  204POPC   C1B 2938   8.012   1.191   4.665
  204POPC   C2B 2939   8.078   1.381   5.069
  204POPC   C3B 2940   8.027   1.312   5.517
  204POPC   C4B 2941   8.135   1.563   5.843
  205POPC   NC3 2942   8.677   9.217   3.910
  205POPC   PO4 2943   8.956   8.634   3.846
  205POPC   GL1 2944   8.985   8.884   4.244
  205POPC   GL2 2945   8.690   8.982   4.416
  205POPC   C1A 2946   9.090   9.147   4.649
  205POPC   D2A 2947   8.842   9.034   5.019
  205POPC   C3A 2948   8.960   9.093   5.459
  205POPC   C4A 2949   8.658   8.948   5.736
  205POPC   C1B 2950   8.967   8.655   4.699
  205POPC   C2B 2951   8.925   8.515   5.144
  205POPC   C3B 2952   8.923   8.525   5.613
  205POPC   C4B 2953   8.918   8.680   6.060
  206POPC   NC3 2954   4.901  11.165   3.782
  206POPC   PO4 2955   4.257  11.288   3.743
  206POPC   GL1 2956   4.278  11.234   4.226
  206POPC   GL2 2957   4.057  11.054   4.445
  206POPC   C1A 2958   4.475  11.275   4.637
  206POPC   D2A 2959   4.314  11.083   4.976
  206POPC   C3A 2960   4.624  11.086   5.289
  206POPC   C4A 2961   4.641  11.194   5.700
  206POPC   C1B 2962   3.831  11.231   4.762
  206POPC   C2B 2963   3.905  11.401   5.156
  206POPC   C3B 2964   4.136  11.198   5.467
  206POPC   C4B 2965   4.020  10.927   5.798
  207POPC   NC3 2966   0.489  10.800   3.923
  207POPC   PO4 2967   0.737  11.483   4.016
  207POPC   GL1 2968   0.582  11.167   4.264
  207POPC   GL2 2969   0.231  11.139   4.196
  207POPC   C1A 2970   0.691  11.032   4.694
  207POPC   D2A 2971   0.903  11.298   4.987
  207POPC   C3A 2972   0.714  11.192   5.386
  207POPC   C4A 2973   0.811  11.343   5.774
  207POPC   C1B 2974   0.214  11.195   4.633
  207POPC   C2B 2975   0.287  10.992   5.025
  207POPC   C3B 2976   0.209  11.090   5.404
  207POPC   C4B 2977   0.337  11.115   5.764
  208POPC   NC3 2978   8.717  10.500   3.927
  208POPC   PO4 2979   9.311  10.556   3.735
  208POPC   GL1 2980   9.113  10.582   4.265
  208POPC   GL2 2981   8.903  10.332   4.382
  208POPC   C1A 2982   8.791  10.686   4.699
  208POPC   D2A 2983   8.506  10.704   5.096
  208POPC   C3A 2984   8.711  10.790   5.520
  208POPC   C4A 2985   9.093  10.560   5.638
  208POPC   C1B 2986   9.172  10.363   4.744
  208POPC   C2B 2987   8.979  10.463   5.137
  208POPC   C3B 2988   8.644  10.307   5.401
  208POPC   C4B 2989   8.707  10.240   5.830
  209POPC   NC3 2990   5.143   0.036   4.054
  209POPC   PO4 2991   5.317  10.996   3.707
  209POPC   GL1 2992   5.216  11.041   4.191
  209POPC   GL2 2993   4.836  11.055   4.329
  209POPC   C1A 2994   5.204  11.197   4.656
  209POPC   D2A 2995   4.891  11.389   4.973
  209POPC   C3A 2996   4.955   0.011   5.434
  209POPC   C4A 2997   5.130  11.419   5.878
  209POPC   C1B 2998   4.806  10.896   4.799
  209POPC   C2B 2999   5.050  10.811   5.190
  209POPC   C3B 3000   5.193  10.982   5.612
  209POPC   C4B 3001   4.946  10.969   6.038
  210POPC   NC3 3002   0.525  10.162   3.652
  210POPC   PO4 3003  11.450   9.962   3.933
  210POPC   GL1 3004   0.315  10.184   4.209
  210POPC   GL2 3005   0.403  10.491   4.293
  210POPC   C1A 3006   0.255  10.140   4.682
  210POPC   D2A 3007   0.061  10.082   5.109
  210POPC   C3A 3008   0.358  10.191   5.452
  210POPC   C4A 3009   0.365  10.402   5.867
  210POPC   C1B 3010   0.325  10.650   4.660
  210POPC   C2B 3011   0.491  10.516   5.066
  210POPC   C3B 3012   0.549  10.699   5.477
  210POPC   C4B 3013   0.697  10.791   5.897
  211POPC   NC3 3014   2.124   1.791   3.835
  211POPC   PO4 3015   2.332   2.417   3.877
  211POPC   GL1 3016   2.052   2.278   4.201
  211POPC   GL2 3017   1.934   1.943   4.290
  211POPC   C1A 3018   2.138   2.270   4.639
  211POPC   D2A 3019   1.989   2.236   5.047
  211POPC   C3A 3020   2.292   2.244   5.360
  211POPC   C4A 3021   2.201   2.246   5.763
  211POPC   C1B 3022   1.708   1.965   4.676
  211POPC   C2B 3023   1.652   1.828   5.095
  211POPC   C3B 3024   1.858   1.933   5.466
  211POPC   C4B 3025   1.686   2.241   5.708
  212POPC   NC3 3026  10.977   8.825   3.734
  212POPC   PO4 3027   0.037   8.621   3.823
  212POPC   GL1 3028  11.432   8.823   4.241
  212POPC   GL2 3029  11.169   9.019   4.193
  212POPC   C1A 3030  11.276   8.683   4.687
  212POPC   D2A 3031  11.318   8.720   5.122
  212POPC   C3A 3032  11.477   8.429   5.436
  212POPC   C4A 3033  11.223   8.774   5.654
  212POPC   C1B 3034  11.213   9.170   4.634
  212POPC   C2B 3035  11.016   9.135   4.996
  212POPC   C3B 3036  11.090   9.188   5.404
  212POPC   C4B 3037  10.932   9.184   5.807
  213POPC   NC3 3038   7.108  10.958   3.929
  213POPC   PO4 3039   7.818  11.027   3.839
  213POPC   GL1 3040   7.567  10.884   4.182
  213POPC   GL2 3041   7.407  11.174   4.293
  213POPC   C1A 3042   7.569  10.874   4.648
  213POPC   D2A 3043   7.465  10.863   5.079
  213POPC   C3A 3044   7.650  10.800   5.443
  213POPC   C4A 3045   7.435  10.880   5.814
  213POPC   C1B 3046   7.123  11.182   4.625
  213POPC   C2B 3047   7.126  11.370   4.993
  213POPC   C3B 3048   7.075  11.152   5.340
  213POPC   C4B 3049   7.212  11.318   5.705
  214POPC   NC3 3050   4.032   1.419   4.094
  214POPC   PO4 3051   3.388   1.544   3.836
  214POPC   GL1 3052   3.302   1.418   4.253
  214POPC   GL2 3053   3.554   1.168   4.218
  214POPC   C1A 3054   3.566   1.447   4.657
  214POPC   D2A 3055   3.945   1.527   4.934
  214POPC   C3A 3056   3.748   1.503   5.329
  214POPC   C4A 3057   3.508   1.551   5.682
  214POPC   C1B 3058   3.288   0.982   4.546
  214POPC   C2B 3059   3.356   0.866   4.967
  214POPC   C3B 3060   3.337   0.842   5.398
  214POPC   C4B 3061   3.540   1.046   5.694
  215POPC   NC3 3062   9.710   6.636   4.018
  215POPC   PO4 3063  10.070   6.064   3.873
  215POPC   GL1 3064   9.873   6.250   4.287
  215POPC   GL2 3065   9.479   6.336   4.360
  215POPC   C1A 3066   9.825   6.491   4.691
  215POPC   D2A 3067   9.621   6.496   5.096
  215POPC   C3A 3068   9.862   6.702   5.464
  215POPC   C4A 3069   9.851   6.457   5.841
  215POPC   C1B 3070   9.381   6.749   4.658
  215POPC   C2B 3071   9.394   6.938   5.107
  215POPC   C3B 3072   9.366   6.726   5.522
  215POPC   C4B 3073   9.387   6.618   5.944
  216POPC   NC3 3074   4.502   9.043   4.057
  216POPC   PO4 3075   3.926   9.195   3.894
  216POPC   GL1 3076   4.034   9.031   4.304
  216POPC   GL2 3077   4.342   9.142   4.518
  216POPC   C1A 3078   3.923   8.997   4.764
  216POPC   D2A 3079   3.774   9.152   5.172
  216POPC   C3A 3080   4.016   8.938   5.519
  216POPC   C4A 3081   4.137   8.517   5.670
  216POPC   C1B 3082   4.513   8.853   4.786
  216POPC   C2B 3083   4.421   8.846   5.220
  216POPC   C3B 3084   4.561   8.802   5.628
  216POPC   C4B 3085   4.743   8.900   6.006
  217POPC   NC3 3086   1.190   4.360   3.913
  217POPC   PO4 3087   1.727   4.777   4.097
  217POPC   GL1 3088   1.435   4.396   4.342
  217POPC   GL2 3089   1.177   4.030   4.282
  217POPC   C1A 3090   1.142   4.307   4.693
  217POPC   D2A 3091   1.285   4.477   5.037
  217POPC   C3A 3092   1.292   4.354   5.439
  217POPC   C4A 3093   1.445   4.600   5.771
  217POPC   C1B 3094   1.042   3.797   4.675
  217POPC   C2B 3095   0.993   3.899   5.127
  217POPC   C3B 3096   0.990   3.965   5.583
  217POPC   C4B 3097   1.361   4.047   5.867
  218POPC   NC3 3098   1.673   3.655   3.768
  218POPC   PO4 3099   2.212   3.752   4.007
  218POPC   GL1 3100   2.054   3.607   4.356
  218POPC   GL2 3101   2.211   3.304   4.325
  218POPC   C1A 3102   1.964   3.763   4.745
  218POPC   D2A 3103   1.883   3.942   5.138
  218POPC   C3A 3104   1.950   3.683   5.466
  218POPC   C4A 3105   2.146   3.701   5.830
  218POPC   C1B 3106   1.977   3.237   4.731
  218POPC   C2B 3107   2.060   3.235   5.185
  218POPC   C3B 3108   1.950   3.197   5.632
  218POPC   C4B 3109   2.155   3.247   6.018
  219POPC   NC3 3110  10.582   1.128   3.840
  219POPC   PO4 3111   9.939   1.243   3.910
  219POPC   GL1 3112  10.218   1.100   4.279
  219POPC   GL2 3113  10.621   1.125   4.340
  219POPC   C1A 3114  10.305   1.150   4.736
  219POPC   D2A 3115  10.063   1.250   5.106
  219POPC   C3A 3116  10.029   1.646   5.296
  219POPC   C4A 3117   9.975   1.446   5.683
  219POPC   C1B 3118  10.817   1.030   4.738
  219POPC   C2B 3119  10.626   0.959   5.126
  219POPC   C3B 3120  10.431   1.102   5.509
  219POPC   C4B 3121  10.657   1.025   5.891
  220POPC   NC3 3122   8.689   3.577   3.887
  220POPC   PO4 3123   9.258   3.310   3.702
  220POPC   GL1 3124   9.178   3.312   4.184
  220POPC   GL2 3125   8.863   3.403   4.325
  220POPC   C1A 3126   9.251   3.509   4.643
  220POPC   D2A 3127   9.230   3.811   5.032
  220POPC   C3A 3128   9.120   3.570   5.407
  220POPC   C4A 3129   8.980   3.407   5.794
  220POPC   C1B 3130   8.567   3.355   4.671
  220POPC   C2B 3131   8.461   3.238   5.117
  220POPC   C3B 3132   8.531   3.383   5.532
  220POPC   C4B 3133   8.388   3.644   5.875
  221POPC   NC3 3134   0.862   0.514   3.862
  221POPC   PO4 3135   1.426   0.185   3.790
  221POPC   GL1 3136   1.160   0.280   4.185
  221POPC   GL2 3137   1.142   0.611   4.322
  221POPC   C1A 3138   1.039   0.203   4.615
  221POPC   D2A 3139   0.967   0.375   5.009
  221POPC   C3A 3140   0.827   0.179   5.350
  221POPC   C4A 3141   0.978   0.337   5.728
  221POPC   C1B 3142   1.345   0.620   4.744
  221POPC   C2B 3143   1.599   0.573   5.138
  221POPC   C3B 3144   1.601   0.343   5.553
  221POPC   C4B 3145   1.401   0.537   5.918
  222POPC   NC3 3146   1.525   8.811   4.119
  222POPC   PO4 3147   0.894   8.830   3.917
  222POPC   GL1 3148   1.044   8.677   4.287
  222POPC   GL2 3149   1.086   9.019   4.393
  222POPC   C1A 3150   1.237   8.530   4.678
  222POPC   D2A 3151   1.029   8.629   5.083
  222POPC   C3A 3152   1.244   8.538   5.465
  222POPC   C4A 3153   1.359   8.647   5.872
  222POPC   C1B 3154   1.285   9.025   4.792
  222POPC   C2B 3155   1.296   9.049   5.215
  222POPC   C3B 3156   0.989   8.988   5.490
  222POPC   C4B 3157   1.148   9.124   5.849
  223POPC   NC3 3158   9.956   0.611   3.885
  223POPC   PO4 3159   9.743  11.449   3.858
  223POPC   GL1 3160   9.753   0.220   4.213
  223POPC   GL2 3161   9.422   0.304   4.202
  223POPC   C1A 3162   9.678   0.337   4.654
  223POPC   D2A 3163   9.900   0.334   5.009
  223POPC   C3A 3164   9.703   0.393   5.371
  223POPC   C4A 3165   9.816   0.483   5.780
  223POPC   C1B 3166   9.245   0.551   4.528
  223POPC   C2B 3167   9.282   0.447   4.976
  223POPC   C3B 3168   9.272   0.657   5.378
  223POPC   C4B 3169   9.368   0.722   5.776
  224POPC   NC3 3170   8.092   2.939   4.013
  224POPC   PO4 3171   7.883   2.341   3.639
  224POPC   GL1 3172   8.143   2.443   4.052
  224POPC   GL2 3173   7.965   2.480   4.336
  224POPC   C1A 3174   8.453   2.541   4.444
  224POPC   D2A 3175   8.507   2.810   4.839
  224POPC   C3A 3176   8.522   2.726   5.325
  224POPC   C4A 3177   8.384   2.561   5.768
  224POPC   C1B 3178   7.972   2.728   4.699
  224POPC   C2B 3179   8.021   2.955   5.075
  224POPC   C3B 3180   8.061   2.873   5.512
  224POPC   C4B 3181   7.869   2.738   5.899
  225POPC   NC3 3182   7.448   0.925   3.883
  225POPC   PO4 3183   7.579   1.617   3.920
  225POPC   GL1 3184   7.562   1.375   4.329
  225POPC   GL2 3185   7.443   1.022   4.394
  225POPC   C1A 3186   7.546   1.307   4.794
  225POPC   D2A 3187   7.586   1.313   5.238
  225POPC   C3A 3188   7.565   1.103   5.609
  225POPC   C4A 3189   7.614   1.460   5.824
  225POPC   C1B 3190   7.061   1.165   4.694
  225POPC   C2B 3191   6.912   1.367   5.091
  225POPC   C3B 3192   7.103   1.257   5.477
  225POPC   C4B 3193   7.054   0.972   5.844
  226POPC   NC3 3194  10.297   4.895   3.835
  226POPC   PO4 3195  10.801   5.390   3.976
  226POPC   GL1 3196  10.550   5.067   4.246
  226POPC   GL2 3197  10.132   5.002   4.297
  226POPC   C1A 3198  10.621   5.097   4.703
  226POPC   D2A 3199  10.466   5.232   5.114
  226POPC   C3A 3200  10.648   5.201   5.515
  226POPC   C4A 3201  10.400   5.171   5.883
  226POPC   C1B 3202  10.310   4.706   4.566
  226POPC   C2B 3203  10.321   4.754   5.020
  226POPC   C3B 3204  10.209   4.936   5.437
  226POPC   C4B 3205  10.018   4.779   5.773
  227POPC   NC3 3206   2.185   4.218   3.987
  227POPC   PO4 3207   1.538   4.097   3.789
  227POPC   GL1 3208   1.667   3.943   4.255
  227POPC   GL2 3209   1.912   4.126   4.382
  227POPC   C1A 3210   1.596   4.119   4.761
  227POPC   D2A 3211   1.762   4.413   5.167
  227POPC   C3A 3212   1.766   4.179   5.582
  227POPC   C4A 3213   1.863   4.060   6.024
  227POPC   C1B 3214   2.104   4.261   4.749
  227POPC   C2B 3215   2.273   4.249   5.151
  227POPC   C3B 3216   2.269   4.090   5.535
  227POPC   C4B 3217   2.338   4.263   5.952
  228POPC   NC3 3218  11.055   4.252   3.930
  228POPC   PO4 3219  11.478   4.735   3.944
  228POPC   GL1 3220   0.005   4.509   4.292
  228POPC   GL2 3221  11.143   4.555   4.351
  228POPC   C1A 3222   0.196   4.402   4.689
  228POPC   D2A 3223   0.102   4.504   5.101
  228POPC   C3A 3224  11.392   4.306   5.423
  228POPC   C4A 3225  11.213   4.522   5.795
  228POPC   C1B 3226  11.252   4.147   4.573
  228POPC   C2B 3227  11.368   3.978   4.983
  228POPC   C3B 3228  11.271   3.805   5.397
  228POPC   C4B 3229  11.153   4.011   5.771
  229POPC   NC3 3230   3.479   5.746   4.008
  229POPC   PO4 3231   3.904   5.519   4.266
  229POPC   GL1 3232   3.624   5.781   4.536
  229POPC   GL2 3233   3.374   6.019   4.430
  229POPC   C1A 3234   3.498   5.931   4.976
  229POPC   D2A 3235   3.579   5.768   5.415
  229POPC   C3A 3236   3.754   6.028   5.746
  229POPC   C4A 3237   3.664   6.125   6.164
  229POPC   C1B 3238   3.139   5.684   4.682
  229POPC   C2B 3239   3.114   5.613   5.155
  229POPC   C3B 3240   3.147   5.601   5.617
  229POPC   C4B 3241   3.254   5.947   5.850
  230POPC   NC3 3242   9.109   2.905   3.846
  230POPC   PO4 3243   8.511   3.141   3.986
  230POPC   GL1 3244   8.801   2.887   4.258
  230POPC   GL2 3245   8.905   2.515   4.143
  230POPC   C1A 3246   8.987   3.031   4.648
  230POPC   D2A 3247   8.951   3.307   5.001
  230POPC   C3A 3248   8.937   3.086   5.385
  230POPC   C4A 3249   8.718   2.963   5.755
  230POPC   C1B 3250   8.970   2.514   4.603
  230POPC   C2B 3251   8.969   2.678   5.039
  230POPC   C3B 3252   9.042   2.598   5.485
  230POPC   C4B 3253   8.937   2.539   5.930
  231POPC   NC3 3254   9.982   3.139   4.099
  231POPC   PO4 3255  10.233   2.468   3.963
  231POPC   GL1 3256  10.408   2.588   4.330
  231POPC   GL2 3257  10.758   2.561   4.280
  231POPC   C1A 3258  10.307   2.826   4.693
  231POPC   D2A 3259  10.391   2.728   5.130
  231POPC   C3A 3260  10.418   2.999   5.498
  231POPC   C4A 3261  10.279   2.809   5.879
  231POPC   C1B 3262  10.743   2.565   4.745
  231POPC   C2B 3263  10.781   2.403   5.155
  231POPC   C3B 3264  10.729   2.592   5.592
  231POPC   C4B 3265  10.762   2.740   6.031
  232POPC   NC3 3266   1.793   7.443   3.951
  232POPC   PO4 3267   2.417   7.700   3.965
  232POPC   GL1 3268   2.154   7.513   4.298
  232POPC   GL2 3269   2.075   7.148   4.248
  232POPC   C1A 3270   2.021   7.363   4.694
  232POPC   D2A 3271   1.809   7.431   5.023
  232POPC   C3A 3272   2.109   7.536   5.328
  232POPC   C4A 3273   2.188   7.767   5.727
  232POPC   C1B 3274   1.667   7.048   4.542
  232POPC   C2B 3275   1.653   6.929   4.994
  232POPC   C3B 3276   1.874   7.077   5.380
  232POPC   C4B 3277   2.121   7.238   5.754
  233POPC   NC3 3278   0.432   8.807   4.004
  233POPC   PO4 3279   0.088   8.313   4.285
  233POPC   GL1 3280   0.288   8.666   4.553
  233POPC   GL2 3281   0.576   8.905   4.463
  233POPC   C1A 3282   0.197   9.049   4.789
  233POPC   D2A 3283   0.041   9.192   5.172
  233POPC   C3A 3284   0.201   8.881   5.449
  233POPC   C4A 3285   0.212   8.647   5.846
  233POPC   C1B 3286   0.760   9.041   4.845
  233POPC   C2B 3287   0.571   9.192   5.237
  233POPC   C3B 3288   0.543   9.167   5.693
  233POPC   C4B 3289   0.714   8.818   5.904
  234POPC   NC3 3290   3.514   8.998   3.909
  234POPC   PO4 3291   3.284   8.458   4.106
  234POPC   GL1 3292   3.474   8.742   4.408
  234POPC   GL2 3293   3.527   9.099   4.415
  234POPC   C1A 3294   3.534   8.674   4.849
  234POPC   D2A 3295   3.745   8.630   5.236
  234POPC   C3A 3296   3.497   8.591   5.609
  234POPC   C4A 3297   3.437   8.440   6.041
  234POPC   C1B 3298   3.253   9.084   4.792
  234POPC   C2B 3299   3.305   8.969   5.250
  234POPC   C3B 3300   3.544   9.095   5.650
  234POPC   C4B 3301   3.371   9.035   6.070
  235POPC   NC3 3302   2.782   2.772   3.813
  235POPC   PO4 3303   3.223   2.195   3.876
  235POPC   GL1 3304   2.846   2.415   4.166
  235POPC   GL2 3305   2.898   2.780   4.357
  235POPC   C1A 3306   2.593   2.482   4.580
  235POPC   D2A 3307   2.817   2.595   4.989
  235POPC   C3A 3308   2.646   2.636   5.410
  235POPC   C4A 3309   2.842   2.727   5.796
  235POPC   C1B 3310   2.913   3.035   4.771
  235POPC   C2B 3311   2.588   3.091   5.156
  235POPC   C3B 3312   2.481   3.063   5.631
  235POPC   C4B 3313   2.543   2.972   6.108
  236POPC   NC3 3314   1.849   0.351   3.868
  236POPC   PO4 3315   1.705  11.251   4.109
  236POPC   GL1 3316   1.626   0.167   4.327
  236POPC   GL2 3317   1.680   0.555   4.320
  236POPC   C1A 3318   1.745   0.254   4.750
  236POPC   D2A 3319   2.114   0.079   4.943
  236POPC   C3A 3320   2.001  11.491   5.344
  236POPC   C4A 3321   2.160   0.147   5.709
  236POPC   C1B 3322   2.112   0.521   4.523
  236POPC   C2B 3323   2.165   0.600   4.974
  236POPC   C3B 3324   2.063   0.542   5.394
  236POPC   C4B 3325   2.388   0.632   5.701
  237POPC   NC3 3326   1.987   2.710   3.864
  237POPC   PO4 3327   2.430   3.087   3.785
  237POPC   GL1 3328   2.428   2.863   4.195
  237POPC   GL2 3329   2.106   2.769   4.355
  237POPC   C1A 3330   2.425   2.964   4.671
  237POPC   D2A 3331   2.315   2.646   4.994
  237POPC   C3A 3332   2.134   2.752   5.384
  237POPC   C4A 3333   2.160   2.750   5.842
  237POPC   C1B 3334   1.866   2.703   4.743
  237POPC   C2B 3335   1.527   2.485   4.969
  237POPC   C3B 3336   1.421   2.574   5.382
  237POPC   C4B 3337   1.701   2.730   5.655
  238POPC   NC3 3338   0.263   0.125   4.073
  238POPC   PO4 3339   0.428   0.755   3.842
  238POPC   GL1 3340   0.633   0.703   4.273
  238POPC   GL2 3341   0.647   0.368   4.315
  238POPC   C1A 3342   0.602   0.597   4.740
  238POPC   D2A 3343   0.458   0.475   5.130
  238POPC   C3A 3344   0.641   0.635   5.473
  238POPC   C4A 3345   0.394   0.726   5.750
  238POPC   C1B 3346   0.556   0.077   4.681
  238POPC   C2B 3347   0.380  11.482   5.077
  238POPC   C3B 3348   0.345   0.073   5.518
  238POPC   C4B 3349   0.494   0.241   5.894
  239POPC   NC3 3350   1.963   9.571   3.863
  239POPC   PO4 3351   2.590   9.468   4.117
  239POPC   GL1 3352   2.190   9.636   4.332
  239POPC   GL2 3353   1.807   9.611   4.320
  239POPC   C1A 3354   2.029   9.671   4.755
  239POPC   D2A 3355   2.193   9.557   5.114
  239POPC   C3A 3356   2.248   9.918   5.356
  239POPC   C4A 3357   2.049   9.672   5.675
  239POPC   C1B 3358   1.652   9.341   4.624
  239POPC   C2B 3359   1.520   9.457   5.007
  239POPC   C3B 3360   1.666   9.491   5.392
  239POPC   C4B 3361   1.532   9.501   5.783
  240POPC   NC3 3362   0.366   1.917   4.180
  240POPC   PO4 3363  11.483   2.344   3.832
  240POPC   GL1 3364   0.195   2.368   4.319
  240POPC   GL2 3365   0.550   2.246   4.519
  240POPC   C1A 3366   0.171   2.393   4.799
  240POPC   D2A 3367   0.309   2.350   5.227
  240POPC   C3A 3368   0.271   1.964   5.458
  240POPC   C4A 3369   0.089   1.879   5.874
  240POPC   C1B 3370   0.356   1.908   4.849
  240POPC   C2B 3371   0.517   1.611   5.194
  240POPC   C3B 3372   0.748   1.804   5.576
  240POPC   C4B 3373   0.643   2.249   5.715
  241POPC   NC3 3374   9.122   7.436   3.947
  241POPC   PO4 3375   8.643   7.800   4.053
  241POPC   GL1 3376   8.847   7.534   4.371
  241POPC   GL2 3377   9.018   7.191   4.412
  241POPC   C1A 3378   8.964   7.599   4.769
  241POPC   D2A 3379   8.820   7.537   5.185
  241POPC   C3A 3380   9.074   7.394   5.514
  241POPC   C4A 3381   8.894   7.307   5.945
  241POPC   C1B 3382   8.963   7.096   4.889
  241POPC   C2B 3383   8.926   6.922   5.347
  241POPC   C3B 3384   8.923   6.795   5.818
  241POPC   C4B 3385   9.110   6.909   6.261
  242POPC   NC3 3386   2.919  10.880   3.928
  242POPC   PO4 3387   2.387  11.385   3.838
  242POPC   GL1 3388   2.548  11.147   4.193
  242POPC   GL2 3389   2.899  11.220   4.309
  242POPC   C1A 3390   2.516  11.310   4.621
  242POPC   D2A 3391   2.752  11.408   5.014
  242POPC   C3A 3392   2.523  11.325   5.404
  242POPC   C4A 3393   2.722  11.080   5.674
  242POPC   C1B 3394   2.903  10.935   4.621
  242POPC   C2B 3395   2.959  10.931   5.059
  242POPC   C3B 3396   3.155  10.851   5.442
  242POPC   C4B 3397   3.052  10.741   5.821
  243POPC   NC3 3398   6.475   2.026   3.920
  243POPC   PO4 3399   6.588   1.300   3.863
  243POPC   GL1 3400   6.495   1.576   4.197
  243POPC   GL2 3401   6.787   1.785   4.297
  243POPC   C1A 3402   6.334   1.667   4.608
  243POPC   D2A 3403   6.268   1.586   5.046
  243POPC   C3A 3404   6.589   1.735   5.335
  243POPC   C4A 3405   6.495   1.860   5.746
  243POPC   C1B 3406   6.977   1.918   4.711
  243POPC   C2B 3407   6.994   2.042   5.183
  243POPC   C3B 3408   6.779   2.229   5.537
  243POPC   C4B 3409   6.548   2.363   5.910
  244POPC   NC3 3410   9.500   1.386   3.753
  244POPC   PO4 3411   9.499   0.712   3.887
  244POPC   GL1 3412   9.676   0.953   4.246
  244POPC   GL2 3413   9.384   1.110   4.416
  244POPC   C1A 3414   9.793   1.057   4.692
  244POPC   D2A 3415   9.641   0.798   4.995
  244POPC   C3A 3416   9.755   0.901   5.378
  244POPC   C4A 3417   9.797   0.983   5.773
  244POPC   C1B 3418   9.399   1.385   4.793
  244POPC   C2B 3419   9.551   1.328   5.180
  244POPC   C3B 3420   9.425   1.248   5.567
  244POPC   C4B 3421   9.529   1.396   5.976
  245POPC   NC3 3422   8.062   8.703   3.838
  245POPC   PO4 3423   8.178   9.257   3.757
  245POPC   GL1 3424   8.185   8.995   4.220
  245POPC   GL2 3425   7.922   9.142   4.378
  245POPC   C1A 3426   8.275   9.043   4.711
  245POPC   D2A 3427   7.983   9.011   5.033
  245POPC   C3A 3428   8.253   8.985   5.397
  245POPC   C4A 3429   8.202   9.137   5.831
  245POPC   C1B 3430   7.894   8.703   4.607
  245POPC   C2B 3431   7.767   8.529   5.028
  245POPC   C3B 3432   7.922   8.446   5.444
  245POPC   C4B 3433   8.216   8.622   5.745
  246POPC   NC3 3434   7.572   8.093   4.031
  246POPC   PO4 3435   7.119   7.672   3.891
  246POPC   GL1 3436   7.172   7.931   4.329
  246POPC   GL2 3437   7.249   8.315   4.348
  246POPC   C1A 3438   7.202   8.061   4.804
  246POPC   D2A 3439   7.514   8.098   5.176
  246POPC   C3A 3440   7.376   7.967   5.603
  246POPC   C4A 3441   7.277   7.921   6.068
  246POPC   C1B 3442   7.370   8.554   4.701
  246POPC   C2B 3443   7.224   8.510   5.102
  246POPC   C3B 3444   7.406   8.506   5.501
  246POPC   C4B 3445   7.154   8.365   5.843
  247POPC   NC3 3446   4.335   2.343   3.933
  247POPC   PO4 3447   4.144   1.711   3.728
  247POPC   GL1 3448   4.127   1.920   4.135
  247POPC   GL2 3449   4.441   1.966   4.346
  247POPC   C1A 3450   3.959   1.905   4.556
  247POPC   D2A 3451   4.035   2.152   4.941
  247POPC   C3A 3452   4.053   1.920   5.330
  247POPC   C4A 3453   4.075   1.655   5.716
  247POPC   C1B 3454   4.392   1.795   4.803
  247POPC   C2B 3455   4.443   1.593   5.216
  247POPC   C3B 3456   4.561   1.799   5.573
  247POPC   C4B 3457   4.338   2.206   5.646
  248POPC   NC3 3458  10.854   0.353   4.240
  248POPC   PO4 3459  10.426   0.677   3.801
  248POPC   GL1 3460  10.448   0.645   4.240
  248POPC   GL2 3461  10.277   0.331   4.296
  248POPC   C1A 3462  10.529   0.595   4.721
  248POPC   D2A 3463  10.428   0.320   5.063
  248POPC   C3A 3464  10.657   0.511   5.372
  248POPC   C4A 3465  10.597   0.452   5.768
  248POPC   C1B 3466  10.060   0.650   4.577
  248POPC   C2B 3467  10.151   0.763   5.032
  248POPC   C3B 3468  10.183   0.652   5.466
  248POPC   C4B 3469  10.236   0.784   5.904
  249POPC   NC3 3470   9.133   0.446   3.794
  249POPC   PO4 3471   8.750  11.383   3.766
  249POPC   GL1 3472   9.061  11.448   4.130
  249POPC   GL2 3473   8.895   0.234   4.272
  249POPC   C1A 3474   9.188   0.025   4.638
  249POPC   D2A 3475   8.995   0.046   5.113
  249POPC   C3A 3476   9.239   0.166   5.489
  249POPC   C4A 3477   9.138   0.304   5.916
  249POPC   C1B 3478   8.790   0.346   4.721
  249POPC   C2B 3479   8.817   0.565   5.131
  249POPC   C3B 3480   8.791   0.413   5.536
  249POPC   C4B 3481   8.757   0.698   5.848
  250POPC   NC3 3482   7.836   2.007   3.954
  250POPC   PO4 3483   8.439   1.670   3.831
  250POPC   GL1 3484   8.212   1.701   4.242
  250POPC   GL2 3485   8.191   2.025   4.338
  250POPC   C1A 3486   7.992   1.724   4.682
  250POPC   D2A 3487   8.101   1.908   5.110
  250POPC   C3A 3488   7.850   1.791   5.445
  250POPC   C4A 3489   7.743   1.951   5.840
  250POPC   C1B 3490   8.158   2.238   4.733
  250POPC   C2B 3491   8.092   2.449   5.129
  250POPC   C3B 3492   7.968   2.327   5.542
  250POPC   C4B 3493   8.249   2.038   5.719
  251POPC   NC3 3494   2.933   8.335   3.854
  251POPC   PO4 3495   2.293   8.522   3.990
  251POPC   GL1 3496   2.357   8.352   4.439
  251POPC   GL2 3497   2.358   7.968   4.443
  251POPC   C1A 3498   2.511   8.330   4.914
  251POPC   D2A 3499   2.869   8.192   5.232
  251POPC   C3A 3500   3.082   8.236   5.669
  251POPC   C4A 3501   2.893   8.308   6.095
  251POPC   C1B 3502   2.393   7.744   4.860
  251POPC   C2B 3503   2.398   7.959   5.282
  251POPC   C3B 3504   2.595   8.064   5.694
  251POPC   C4B 3505   2.485   7.935   6.121
  252POPC   NC3 3506   6.542   3.619   4.042
  252POPC   PO4 3507   6.928   3.447   4.230
  252POPC   GL1 3508   6.642   3.611   4.551
  252POPC   GL2 3509   6.345   3.403   4.490
  252POPC   C1A 3510   6.416   3.631   4.970
  252POPC   D2A 3511   6.276   3.920   5.300
  252POPC   C3A 3512   6.558   3.902   5.661
  252POPC   C4A 3513   6.847   3.535   5.796
  252POPC   C1B 3514   6.620   3.165   4.792
  252POPC   C2B 3515   6.736   3.278   5.214
  252POPC   C3B 3516   6.438   3.441   5.492
  252POPC   C4B 3517   6.166   3.574   5.819
  253POPC   NC3 3518   8.143   9.682   3.963
  253POPC   PO4 3519   7.630  10.047   4.033
  253POPC   GL1 3520   7.899   9.881   4.358
  253POPC   GL2 3521   8.270   9.854   4.434
  253POPC   C1A 3522   7.944  10.055   4.772
  253POPC   D2A 3523   7.907   9.803   5.129
  253POPC   C3A 3524   7.691   9.825   5.497
  253POPC   C4A 3525   7.716   9.911   5.923
  253POPC   C1B 3526   8.143   9.567   4.750
  253POPC   C2B 3527   8.255   9.425   5.108
  253POPC   C3B 3528   7.998   9.420   5.469
  253POPC   C4B 3529   8.159   9.665   5.802
  254POPC   NC3 3530   9.447   9.843   3.789
  254POPC   PO4 3531   9.128   9.313   4.026
  254POPC   GL1 3532   9.279   9.661   4.273
  254POPC   GL2 3533   9.657   9.725   4.308
  254POPC   C1A 3534   9.197   9.667   4.707
  254POPC   D2A 3535   9.250   9.384   5.074
  254POPC   C3A 3536   9.220   9.547   5.512
  254POPC   C4A 3537   9.456   9.550   5.909
  254POPC   C1B 3538   9.918   9.678   4.743
  254POPC   C2B 3539   9.887   9.666   5.226
  254POPC   C3B 3540   9.994   9.495   5.646
  254POPC   C4B 3541   9.985   9.449   6.112
  255POPC   NC3 3542   5.232   0.948   3.987
  255POPC   PO4 3543   5.131   1.569   3.650
  255POPC   GL1 3544   5.047   1.392   4.141
  255POPC   GL2 3545   4.790   1.108   4.243
  255POPC   C1A 3546   5.111   1.266   4.595
  255POPC   D2A 3547   5.224   1.396   5.010
  255POPC   C3A 3548   4.904   1.373   5.333
  255POPC   C4A 3549   4.908   1.383   5.777
  255POPC   C1B 3550   4.772   0.850   4.620
  255POPC   C2B 3551   4.976   0.939   5.022
  255POPC   C3B 3552   5.051   0.903   5.454
  255POPC   C4B 3553   5.161   0.964   5.870
  256POPC   NC3 3554   0.170   8.046   3.916
  256POPC   PO4 3555   0.825   7.809   3.991
  256POPC   GL1 3556   0.548   8.017   4.298
  256POPC   GL2 3557   0.598   8.380   4.253
  256POPC   C1A 3558   0.433   8.068   4.756
  256POPC   D2A 3559   0.182   7.909   5.100
  256POPC   C3A 3560   0.385   8.054   5.478
  256POPC   C4A 3561   0.436   7.829   5.862
  256POPC   C1B 3562   0.733   8.481   4.677
  256POPC   C2B 3563   0.505   8.629   5.048
  256POPC   C3B 3564   0.616   8.564   5.475
  256POPC   C4B 3565   0.601   8.314   5.870
  257POPC   NC3 3566  10.178   7.320   4.235
  257POPC   PO4 3567   9.589   7.500   3.929
  257POPC   GL1 3568   9.705   7.524   4.362
  257POPC   GL2 3569   9.369   7.565   4.386
  257POPC   C1A 3570   9.920   7.450   4.809
  257POPC   D2A 3571  10.091   7.403   5.232
  257POPC   C3A 3572   9.841   7.657   5.497
  257POPC   C4A 3573   9.655   7.551   5.909
  257POPC   C1B 3574   9.409   7.336   4.748
  257POPC   C2B 3575   9.506   7.440   5.164
  257POPC   C3B 3576   9.607   7.192   5.519
  257POPC   C4B 3577   9.346   7.119   5.853
  258POPC   NC3 3578   8.280  11.147   3.673
  258POPC   PO4 3579   8.775  10.941   4.116
  258POPC   GL1 3580   8.810  11.157   4.459
  258POPC   GL2 3581   9.126  11.053   4.473
  258POPC   C1A 3582   8.619  11.370   4.798
  258POPC   D2A 3583   8.599  11.192   5.212
  258POPC   C3A 3584   8.573  11.420   5.591
  258POPC   C4A 3585   8.813  11.445   5.971
  258POPC   C1B 3586   9.025  11.084   4.901
  258POPC   C2B 3587   9.130  10.944   5.248
  258POPC   C3B 3588   9.053  11.199   5.568
  258POPC   C4B 3589   9.339  11.327   5.898
  259POPC   NC3 3590   1.691   6.588   3.785
  259POPC   PO4 3591   2.184   6.240   3.774
  259POPC   GL1 3592   1.913   6.344   4.164
  259POPC   GL2 3593   1.888   6.681   4.246
  259POPC   C1A 3594   1.807   6.311   4.645
  259POPC   D2A 3595   1.712   6.181   5.096
  259POPC   C3A 3596   1.926   6.309   5.515
  259POPC   C4A 3597   2.286   6.397   5.837
  259POPC   C1B 3598   2.064   6.765   4.675
  259POPC   C2B 3599   2.094   6.612   5.102
  259POPC   C3B 3600   2.242   6.765   5.501
  259POPC   C4B 3601   1.907   6.767   5.803
  260POPC   NC3 3602  11.198   5.632   3.950
  260POPC   PO4 3603  10.763   6.202   3.990
  260POPC   GL1 3604  10.909   5.904   4.280
  260POPC   GL2 3605  11.276   5.936   4.351
  260POPC   C1A 3606  10.961   5.722   4.689
  260POPC   D2A 3607  10.757   5.638   5.083
  260POPC   C3A 3608  10.933   5.738   5.479
  260POPC   C4A 3609  10.779   5.568   5.856
  260POPC   C1B 3610  11.437   5.948   4.795
  260POPC   C2B 3611  11.395   5.927   5.254
  260POPC   C3B 3612  11.417   5.701   5.649
  260POPC   C4B 3613  11.152   5.886   5.969
  261POPC   NC3 3614   5.115   9.285   4.011
  261POPC   PO4 3615   5.174  10.014   3.827
  261POPC   GL1 3616   5.139   9.812   4.218
  261POPC   GL2 3617   5.260   9.528   4.430
  261POPC   C1A 3618   4.975   9.903   4.629
  261POPC   D2A 3619   4.960   9.733   5.027
  261POPC   C3A 3620   4.920   9.927   5.397
  261POPC   C4A 3621   4.994   9.731   5.796
  261POPC   C1B 3622   4.896   9.352   4.697
  261POPC   C2B 3623   4.687   9.294   5.117
  261POPC   C3B 3624   4.695   9.296   5.594
  261POPC   C4B 3625   4.678   9.396   6.051
  262POPC   NC3 3626  10.879   6.661   3.961
  262POPC   PO4 3627  11.346   7.015   3.982
  262POPC   GL1 3628  11.226   6.800   4.325
  262POPC   GL2 3629  11.237   6.447   4.258
  262POPC   C1A 3630  11.331   6.733   4.724
  262POPC   D2A 3631  11.160   6.570   5.066
  262POPC   C3A 3632  11.208   6.769   5.442
  262POPC   C4A 3633  11.322   7.022   5.768
  262POPC   C1B 3634  11.039   6.284   4.633
  262POPC   C2B 3635  10.947   6.111   5.032
  262POPC   C3B 3636  11.043   6.239   5.448
  262POPC   C4B 3637  11.182   6.370   5.820
  263POPC   NC3 3638  11.100   7.444   3.868
  263POPC   PO4 3639  10.531   6.968   3.787
  263POPC   GL1 3640  10.851   7.124   4.179
  263POPC   GL2 3641  11.052   7.427   4.355
  263POPC   C1A 3642  10.940   7.066   4.686
  263POPC   D2A 3643  10.837   6.989   5.142
  263POPC   C3A 3644  10.888   7.179   5.540
  263POPC   C4A 3645  10.866   7.039   5.989
  263POPC   C1B 3646  11.403   7.262   4.628
  263POPC   C2B 3647  11.335   7.142   5.075
  263POPC   C3B 3648  11.348   7.412   5.453
  263POPC   C4B 3649  11.117   7.508   5.864
  264POPC   NC3 3650   5.253  10.528   3.763
  264POPC   PO4 3651   5.836  10.436   3.962
  264POPC   GL1 3652   5.898  10.533   4.368
  264POPC   GL2 3653   6.025  10.207   4.371
  264POPC   C1A 3654   5.734  10.681   4.795
  264POPC   D2A 3655   5.575  10.815   5.228
  264POPC   C3A 3656   5.640  10.572   5.611
  264POPC   C4A 3657   5.739  10.645   6.043
  264POPC   C1B 3658   5.847  10.169   4.766
  264POPC   C2B 3659   5.682  10.290   5.142
  264POPC   C3B 3660   5.804  10.100   5.503
  264POPC   C4B 3661   5.798  10.155   5.905
  265POPC   NC3 3662   0.125   3.432   3.970
  265POPC   PO4 3663  11.113   3.807   3.879
  265POPC   GL1 3664  11.205   3.513   4.216
  265POPC   GL2 3665  10.942   3.346   4.342
  265POPC   C1A 3666  11.412   3.332   4.600
  265POPC   D2A 3667  11.215   3.219   5.008
  265POPC   C3A 3668  11.368   3.285   5.452
  265POPC   C4A 3669  11.411   3.159   5.891
  265POPC   C1B 3670  11.060   3.674   4.671
  265POPC   C2B 3671  10.914   3.654   5.066
  265POPC   C3B 3672  10.848   3.501   5.457
  265POPC   C4B 3673  11.080   3.526   5.830
  266POPC   NC3 3674   1.249  11.317   3.998
  266POPC   PO4 3675   1.306  10.692   3.792
  266POPC   GL1 3676   1.283  10.882   4.280
  266POPC   GL2 3677   1.076  11.188   4.432
  266POPC   C1A 3678   1.246  10.841   4.775
  266POPC   D2A 3679   0.979  10.812   5.175
  266POPC   C3A 3680   1.125  10.928   5.623
  266POPC   C4A 3681   1.498  10.876   5.921
  266POPC   C1B 3682   1.396  11.360   4.698
  266POPC   C2B 3683   1.390   0.072   5.096
  266POPC   C3B 3684   1.251  11.427   5.490
  266POPC   C4B 3685   1.289  11.472   5.923
  267POPC   NC3 3686   1.469   4.977   3.793
  267POPC   PO4 3687   0.913   5.349   3.766
  267POPC   GL1 3688   1.063   5.353   4.207
  267POPC   GL2 3689   1.308   5.081   4.257
  267POPC   C1A 3690   1.282   5.402   4.636
  267POPC   D2A 3691   1.136   5.365   5.061
  267POPC   C3A 3692   1.349   5.424   5.444
  267POPC   C4A 3693   1.473   5.153   5.784
  267POPC   C1B 3694   1.199   4.825   4.621
  267POPC   C2B 3695   0.989   4.874   5.015
  267POPC   C3B 3696   1.171   4.885   5.422
  267POPC   C4B 3697   0.996   4.897   5.853
  268POPC   NC3 3698   1.134   6.754   4.048
  268POPC   PO4 3699   1.463   6.179   3.853
  268POPC   GL1 3700   1.412   6.251   4.302
  268POPC   GL2 3701   1.424   6.592   4.430
  268POPC   C1A 3702   1.175   6.229   4.727
  268POPC   D2A 3703   1.244   6.397   5.155
  268POPC   C3A 3704   1.007   6.325   5.543
  268POPC   C4A 3705   1.417   6.505   5.714
  268POPC   C1B 3706   1.143   6.748   4.758
  268POPC   C2B 3707   1.138   6.921   5.160
  268POPC   C3B 3708   1.037   6.827   5.566
  268POPC   C4B 3709   1.038   7.004   5.938
  269POPC   NC3 3710   0.547   5.262   4.057
  269POPC   PO4 3711   0.769   4.552   3.920
  269POPC   GL1 3712   0.492   4.758   4.246
  269POPC   GL2 3713   0.795   4.912   4.335
  269POPC   C1A 3714   0.411   4.930   4.702
  269POPC   D2A 3715   0.510   4.778   5.159
  269POPC   C3A 3716   0.446   4.991   5.560
  269POPC   C4A 3717   0.449   4.893   6.020
  269POPC   C1B 3718   0.817   5.223   4.668
  269POPC   C2B 3719   0.640   5.257   5.091
  269POPC   C3B 3720   0.853   5.281   5.484
  269POPC   C4B 3721   0.702   5.314   5.885
  270POPC   NC3 3722   6.457   0.850   3.776
  270POPC   PO4 3723   7.028   0.935   4.094
  270POPC   GL1 3724   6.633   0.807   4.286
  270POPC   GL2 3725   6.341   1.054   4.251
  270POPC   C1A 3726   6.638   0.692   4.726
  270POPC   D2A 3727   6.870   0.853   5.077
  270POPC   C3A 3728   6.698   0.872   5.489
  270POPC   C4A 3729   6.430   0.922   5.844
  270POPC   C1B 3730   6.499   1.183   4.669
  270POPC   C2B 3731   6.441   1.124   5.112
  270POPC   C3B 3732   6.356   1.313   5.497
  270POPC   C4B 3733   6.698   1.374   5.734
  271POPC   NC3 3734  10.250   7.372   3.670
  271POPC   PO4 3735  10.552   7.588   4.184
  271POPC   GL1 3736  10.567   7.360   4.538
  271POPC   GL2 3737  10.474   7.000   4.484
  271POPC   C1A 3738  10.483   7.290   4.922
  271POPC   D2A 3739  10.667   7.529   5.199
  271POPC   C3A 3740  10.517   7.543   5.577
  271POPC   C4A 3741  10.695   7.856   5.801
  271POPC   C1B 3742  10.215   6.863   4.806
  271POPC   C2B 3743  10.331   6.894   5.229
  271POPC   C3B 3744  10.395   7.054   5.586
  271POPC   C4B 3745  10.069   7.283   5.742
  272POPC   NC3 3746   9.514   7.966   3.993
  272POPC   PO4 3747  10.081   7.819   3.674
  272POPC   GL1 3748  10.025   7.855   4.133
  272POPC   GL2 3749   9.968   8.223   4.200
  272POPC   C1A 3750   9.893   7.927   4.603
  272POPC   D2A 3751   9.697   7.911   5.024
  272POPC   C3A 3752   9.816   8.172   5.403
  272POPC   C4A 3753   9.816   8.031   5.836
  272POPC   C1B 3754   9.609   8.369   4.517
  272POPC   C2B 3755   9.387   8.368   4.943
  272POPC   C3B 3756   9.333   8.313   5.381
  272POPC   C4B 3757   9.375   8.279   5.817
  273POPC   NC3 3758   0.988   9.353   3.815
  273POPC   PO4 3759   1.618   9.243   3.981
  273POPC   GL1 3760   1.308   9.469   4.238
  273POPC   GL2 3761   1.339   9.851   4.291
  273POPC   C1A 3762   1.147   9.499   4.644
  273POPC   D2A 3763   0.937   9.503   5.034
  273POPC   C3A 3764   1.136   9.506   5.434
  273POPC   C4A 3765   0.873   9.547   5.796
  273POPC   C1B 3766   1.540   9.864   4.677
  273POPC   C2B 3767   1.267   9.897   5.013
  273POPC   C3B 3768   1.307  10.022   5.418
  273POPC   C4B 3769   1.211   9.917   5.830
  274POPC   NC3 3770   0.552   6.114   3.755
  274POPC   PO4 3771   0.674   6.785   3.958
  274POPC   GL1 3772   0.392   6.450   4.144
  274POPC   GL2 3773   0.595   6.192   4.292
  274POPC   C1A 3774   0.169   6.364   4.551
  274POPC   D2A 3775   0.253   6.554   4.967
  274POPC   C3A 3776   0.068   6.412   5.356
  274POPC   C4A 3777   0.117   6.623   5.740
  274POPC   C1B 3778   0.695   6.466   4.641
  274POPC   C2B 3779   0.747   6.431   5.086
  274POPC   C3B 3780   0.562   6.620   5.447
  274POPC   C4B 3781   0.553   6.914   5.789
  275POPC   NC3 3782   4.724  10.016   3.987
  275POPC   PO4 3783   4.877  10.720   3.943
  275POPC   GL1 3784   5.034  10.388   4.218
  275POPC   GL2 3785   5.400  10.299   4.192
  275POPC   C1A 3786   4.831  10.391   4.622
  275POPC   D2A 3787   4.652  10.164   4.956
  275POPC   C3A 3788   4.717  10.394   5.320
  275POPC   C4A 3789   4.788  10.680   5.647
  275POPC   C1B 3790   5.363  10.296   4.630
  275POPC   C2B 3791   5.154  10.269   5.019
  275POPC   C3B 3792   5.210  10.372   5.434
  275POPC   C4B 3793   5.327  10.119   5.746
  276POPC   NC3 3794   4.617   2.869   3.950
  276POPC   PO4 3795   4.026   3.069   3.977
  276POPC   GL1 3796   4.228   2.723   4.276
  276POPC   GL2 3797   4.103   2.385   4.384
  276POPC   C1A 3798   4.407   2.586   4.720
  276POPC   D2A 3799   4.237   2.581   5.160
  276POPC   C3A 3800   4.502   2.677   5.532
  276POPC   C4A 3801   4.852   2.670   5.825
  276POPC   C1B 3802   3.889   2.612   4.710
  276POPC   C2B 3803   3.688   2.503   5.104
  276POPC   C3B 3804   3.883   2.399   5.479
  276POPC   C4B 3805   4.089   2.604   5.826
  277POPC   NC3 3806   8.708   4.636   3.862
  277POPC   PO4 3807   8.769   4.025   3.858
  277POPC   GL1 3808   8.974   3.908   4.257
  277POPC   GL2 3809   9.105   4.202   4.434
  277POPC   C1A 3810   8.848   3.833   4.705
  277POPC   D2A 3811   8.697   3.718   5.142
  277POPC   C3A 3812   8.756   3.862   5.584
  277POPC   C4A 3813   8.529   4.148   5.840
  277POPC   C1B 3814   9.013   4.342   4.865
  277POPC   C2B 3815   8.953   4.215   5.293
  277POPC   C3B 3816   9.050   4.297   5.739
  277POPC   C4B 3817   8.863   4.356   6.160
  278POPC   NC3 3818   1.032   2.942   4.051
  278POPC   PO4 3819   1.242   3.564   3.852
  278POPC   GL1 3820   1.307   3.539   4.257
  278POPC   GL2 3821   1.030   3.375   4.327
  278POPC   C1A 3822   1.496   3.564   4.654
  278POPC   D2A 3823   1.635   3.527   5.066
  278POPC   C3A 3824   1.453   3.796   5.380
  278POPC   C4A 3825   1.550   3.579   5.756
  278POPC   C1B 3826   0.982   3.255   4.737
  278POPC   C2B 3827   1.141   3.398   5.104
  278POPC   C3B 3828   1.104   3.456   5.521
  278POPC   C4B 3829   0.870   3.198   5.830
  279POPC   NC3 3830   3.134   1.149   3.746
  279POPC   PO4 3831   2.776   1.423   4.161
  279POPC   GL1 3832   2.803   1.118   4.440
  279POPC   GL2 3833   2.501   0.890   4.385
  279POPC   C1A 3834   2.911   1.207   4.894
  279POPC   D2A 3835   3.240   1.322   5.212
  279POPC   C3A 3836   3.075   1.262   5.646
  279POPC   C4A 3837   2.981   1.038   6.043
  279POPC   C1B 3838   2.343   1.252   4.606
  279POPC   C2B 3839   2.355   1.181   4.999
  279POPC   C3B 3840   2.630   1.274   5.356
  279POPC   C4B 3841   2.578   1.191   5.783
  280POPC   NC3 3842   3.839  11.271   3.958
  280POPC   PO4 3843   3.118  11.342   3.860
  280POPC   GL1 3844   3.365  11.409   4.222
  280POPC   GL2 3845   3.535  11.122   4.338
  280POPC   C1A 3846   3.240  11.384   4.687
  280POPC   D2A 3847   3.320   0.050   5.116
  280POPC   C3A 3848   3.120  11.363   5.477
  280POPC   C4A 3849   3.333  11.224   5.851
  280POPC   C1B 3850   3.426  10.898   4.719
  280POPC   C2B 3851   3.466  11.070   5.101
  280POPC   C3B 3852   3.630  11.049   5.490
  280POPC   C4B 3853   3.549  10.763   5.823
  281POPC   NC3 3854   5.139   8.296   3.865
  281POPC   PO4 3855   4.822   8.753   3.917
  281POPC   GL1 3856   4.864   8.515   4.307
  281POPC   GL2 3857   5.085   8.216   4.366
  281POPC   C1A 3858   4.898   8.443   4.779
  281POPC   D2A 3859   4.950   8.151   5.122
  281POPC   C3A 3860   4.905   8.327   5.534
  281POPC   C4A 3861   4.611   8.374   5.894
  281POPC   C1B 3862   5.277   7.994   4.734
  281POPC   C2B 3863   5.224   7.719   5.101
  281POPC   C3B 3864   5.187   7.882   5.526
  281POPC   C4B 3865   5.454   8.180   5.763
  282POPC   NC3 3866   6.932   0.436   4.037
  282POPC   PO4 3867   6.263   0.354   3.839
  282POPC   GL1 3868   6.456   0.257   4.279
  282POPC   GL2 3869   6.100   0.232   4.435
  282POPC   C1A 3870   6.833   0.204   4.635
  282POPC   D2A 3871   6.983   0.362   5.042
  282POPC   C3A 3872   6.862   0.120   5.400
  282POPC   C4A 3873   6.721  11.368   5.747
  282POPC   C1B 3874   6.351   0.270   4.811
  282POPC   C2B 3875   6.509   0.456   5.177
  282POPC   C3B 3876   6.344   0.495   5.538
  282POPC   C4B 3877   6.561   0.333   5.787
  283POPC   NC3 3878   7.924  10.567   3.904
  283POPC   PO4 3879   8.461  10.049   3.913
  283POPC   GL1 3880   8.410  10.307   4.276
  283POPC   GL2 3881   8.094  10.330   4.304
  283POPC   C1A 3882   8.405  10.310   4.740
  283POPC   D2A 3883   8.397   9.954   5.068
  283POPC   C3A 3884   8.181  10.063   5.471
  283POPC   C4A 3885   8.190  10.228   5.895
  283POPC   C1B 3886   7.985  10.593   4.601
  283POPC   C2B 3887   7.984  10.730   5.023
  283POPC   C3B 3888   8.123  10.588   5.453
  283POPC   C4B 3889   7.920  10.664   5.863
  284POPC   NC3 3890   2.537   5.953   3.821
  284POPC   PO4 3891   3.214   5.954   3.687
  284POPC   GL1 3892   2.971   5.924   4.127
  284POPC   GL2 3893   2.666   5.782   4.301
  284POPC   C1A 3894   2.898   6.122   4.592
  284POPC   D2A 3895   2.724   6.144   5.054
  284POPC   C3A 3896   2.877   6.015   5.484
  284POPC   C4A 3897   2.757   6.101   5.934
  284POPC   C1B 3898   2.594   5.719   4.772
  284POPC   C2B 3899   2.616   5.650   5.237
  284POPC   C3B 3900   2.639   5.564   5.681
  284POPC   C4B 3901   2.443   5.719   6.063
  285POPC   NC3 3902   1.842   5.904   3.841
  285POPC   PO4 3903   2.344   5.555   3.979
  285POPC   GL1 3904   2.009   5.596   4.256
  285POPC   GL2 3905   1.936   5.890   4.359
  285POPC   C1A 3906   1.784   5.421   4.591
  285POPC   D2A 3907   1.644   5.458   5.017
  285POPC   C3A 3908   1.772   5.740   5.350
  285POPC   C4A 3909   1.649   5.659   5.790
  285POPC   C1B 3910   2.048   5.840   4.777
  285POPC   C2B 3911   2.224   6.018   5.147
  285POPC   C3B 3912   2.348   5.973   5.561
  285POPC   C4B 3913   2.046   5.947   5.875
  286POPC   NC3 3914   7.229   9.962   4.254
  286POPC   PO4 3915   7.302  10.535   3.892
  286POPC   GL1 3916   7.145  10.582   4.363
  286POPC   GL2 3917   7.173  10.273   4.623
  286POPC   C1A 3918   7.079  10.702   4.827
  286POPC   D2A 3919   7.218  10.407   5.200
  286POPC   C3A 3920   7.150  10.487   5.653
  286POPC   C4A 3921   7.101  10.657   6.133
  286POPC   C1B 3922   7.551  10.389   4.802
  286POPC   C2B 3923   7.750  10.300   5.192
  286POPC   C3B 3924   7.652  10.315   5.609
  286POPC   C4B 3925   7.476  10.355   6.009
  287POPC   NC3 3926   2.042   5.148   4.032
  287POPC   PO4 3927   2.364   4.644   3.930
  287POPC   GL1 3928   2.126   4.605   4.359
  287POPC   GL2 3929   2.112   4.931   4.494
  287POPC   C1A 3930   1.738   4.635   4.707
  287POPC   D2A 3931   1.522   4.937   5.014
  287POPC   C3A 3932   1.707   4.863   5.427
  287POPC   C4A 3933   1.978   4.612   5.753
  287POPC   C1B 3934   2.260   5.315   4.718
  287POPC   C2B 3935   2.157   5.493   5.129
  287POPC   C3B 3936   2.147   5.495   5.586
  287POPC   C4B 3937   2.022   5.125   5.741
  288POPC   NC3 3938   0.324   4.426   3.884
  288POPC   PO4 3939   0.391   3.826   4.006
  288POPC   GL1 3940   0.433   4.135   4.325
  288POPC   GL2 3941   0.737   4.288   4.336
  288POPC   C1A 3942   0.598   4.054   4.765
  288POPC   D2A 3943   0.363   4.005   5.125
  288POPC   C3A 3944   0.470   4.133   5.541
  288POPC   C4A 3945   0.287   4.520   5.681
  288POPC   C1B 3946   0.710   4.541   4.709
  288POPC   C2B 3947   0.794   4.370   5.132
  288POPC   C3B 3948   0.804   4.533   5.543
  288POPC   C4B 3949   0.706   4.481   5.982
  289POPC   NC3 3950   1.946   8.591   3.688
  289POPC   PO4 3951   2.220   9.154   3.768
  289POPC   GL1 3952   2.030   9.137   4.235
  289POPC   GL2 3953   2.001   8.772   4.331
  289POPC   C1A 3954   2.132   9.167   4.697
  289POPC   D2A 3955   1.893   9.116   5.107
  289POPC   C3A 3956   2.110   9.189   5.501
  289POPC   C4A 3957   2.221   8.863   5.768
  289POPC   C1B 3958   1.748   8.816   4.715
  289POPC   C2B 3959   1.582   8.628   5.082
  289POPC   C3B 3960   1.749   8.639   5.501
  289POPC   C4B 3961   1.644   9.022   5.670
  290POPC   NC3 3962   0.650   1.131   3.700
  290POPC   PO4 3963   0.165   1.519   3.964
  290POPC   GL1 3964   0.301   1.421   4.341
  290POPC   GL2 3965   0.567   1.201   4.225
  290POPC   C1A 3966   0.116   1.443   4.769
  290POPC   D2A 3967  11.444   1.670   5.127
  290POPC   C3A 3968   0.051   1.490   5.506
  290POPC   C4A 3969   0.402   1.480   5.787
  290POPC   C1B 3970   0.355   1.004   4.603
  290POPC   C2B 3971   0.275   0.956   5.048
  290POPC   C3B 3972   0.477   1.130   5.410
  290POPC   C4B 3973   0.742   1.095   5.761
  291POPC   NC3 3974   8.300   0.594   3.766
  291POPC   PO4 3975   8.074  11.494   3.936
  291POPC   GL1 3976   8.123   0.428   4.210
  291POPC   GL2 3977   7.879   0.684   4.381
  291POPC   C1A 3978   8.351   0.618   4.588
  291POPC   D2A 3979   8.331   0.469   5.043
  291POPC   C3A 3980   8.376   0.725   5.464
  291POPC   C4A 3981   8.246   0.662   5.937
  291POPC   C1B 3982   7.913   0.308   4.716
  291POPC   C2B 3983   7.935   0.149   5.195
  291POPC   C3B 3984   7.961   0.249   5.673
  291POPC   C4B 3985   7.829   0.175   6.144
  292POPC   NC3 3986   8.906   1.932   3.742
  292POPC   PO4 3987   9.230   1.503   4.127
  292POPC   GL1 3988   8.752   1.656   4.295
  292POPC   GL2 3989   8.665   2.012   4.173
  292POPC   C1A 3990   8.502   1.619   4.719
  292POPC   D2A 3991   8.612   1.819   5.142
  292POPC   C3A 3992   8.605   1.675   5.590
  292POPC   C4A 3993   8.653   1.635   6.047
  292POPC   C1B 3994   8.658   2.095   4.618
  292POPC   C2B 3995   8.585   2.315   5.018
  292POPC   C3B 3996   8.680   2.228   5.478
  292POPC   C4B 3997   9.102   2.103   5.656
  293POPC   NC3 3998   9.706  10.369   3.852
  293POPC   PO4 3999   9.169  10.120   4.034
  293POPC   GL1 4000   9.460  10.207   4.344
  293POPC   GL2 4001   9.821  10.220   4.311
  293POPC   C1A 4002   9.566  10.035   4.747
  293POPC   D2A 4003   9.423   9.869   5.121
  293POPC   C3A 4004   9.293  10.064   5.482
  293POPC   C4A 4005   9.690   9.929   5.671
  293POPC   C1B 4006   9.728  10.498   4.688
  293POPC   C2B 4007   9.505  10.470   5.111
  293POPC   C3B 4008   9.619  10.445   5.530
  293POPC   C4B 4009   9.946  10.696   5.659
  294POPC   NC3 4010   2.587   1.075   3.912
  294POPC   PO4 4011   1.954   0.798   3.918
  294POPC   GL1 4012   1.964   1.034   4.294
  294POPC   GL2 4013   1.981   1.398   4.277
  294POPC   C1A 4014   1.940   0.961   4.711
  294POPC   D2A 4015   1.865   1.031   5.121
  294POPC   C3A 4016   2.170   1.031   5.443
  294POPC   C4A 4017   2.110   1.047   5.866
  294POPC   C1B 4018   1.870   1.466   4.740
  294POPC   C2B 4019   2.095   1.588   5.141
  294POPC   C3B 4020   2.132   1.516   5.585
  294POPC   C4B 4021   1.783   1.417   5.846
  295POPC   NC3 4022   3.598   1.952   3.719
  295POPC   PO4 4023   3.904   2.501   3.909
  295POPC   GL1 4024   3.682   2.199   4.187
  295POPC   GL2 4025   3.498   1.896   4.224
  295POPC   C1A 4026   3.579   2.218   4.644
  295POPC   D2A 4027   3.582   1.895   4.972
  295POPC   C3A 4028   3.533   2.020   5.379
  295POPC   C4A 4029   3.729   2.010   5.766
  295POPC   C1B 4030   3.227   1.843   4.599
  295POPC   C2B 4031   3.052   1.810   5.008
  295POPC   C3B 4032   3.085   1.751   5.441
  295POPC   C4B 4033   3.220   1.967   5.794
  296POPC   NC3 4034   1.127   5.768   3.882
  296POPC   PO4 4035   1.671   5.392   3.869
  296POPC   GL1 4036   1.481   5.694   4.245
  296POPC   GL2 4037   1.120   5.837   4.374
  296POPC   C1A 4038   1.526   5.860   4.702
  296POPC   D2A 4039   1.285   5.858   5.121
  296POPC   C3A 4040   1.405   6.022   5.538
  296POPC   C4A 4041   1.344   6.073   6.003
  296POPC   C1B 4042   0.923   5.743   4.761
  296POPC   C2B 4043   0.758   5.747   5.160
  296POPC   C3B 4044   0.928   5.783   5.550
  296POPC   C4B 4045   1.141   5.606   5.899
  297POPC   NC3 4046   0.268   9.697   4.155
  297POPC   PO4 4047   0.830   9.813   3.749
  297POPC   GL1 4048   0.838   9.718   4.208
  297POPC   GL2 4049   0.703   9.407   4.358
  297POPC   C1A 4050   0.846   9.908   4.645
  297POPC   D2A 4051   0.612   9.983   5.016
  297POPC   C3A 4052   0.803   9.906   5.400
  297POPC   C4A 4053   0.721  10.050   5.807
  297POPC   C1B 4054   0.479   9.502   4.783
  297POPC   C2B 4055   0.296   9.633   5.206
  297POPC   C3B 4056   0.378   9.687   5.656
  297POPC   C4B 4057   0.443   9.516   6.069
  298POPC   NC3 4058   0.122   2.788   3.894
  298POPC   PO4 4059   0.664   2.256   3.991
  298POPC   GL1 4060   0.615   2.666   4.232
  298POPC   GL2 4061   0.315   2.862   4.349
  298POPC   C1A 4062   0.722   2.812   4.645
  298POPC   D2A 4063   0.617   2.964   5.053
  298POPC   C3A 4064   0.607   2.711   5.436
  298POPC   C4A 4065   0.583   2.751   5.892
  298POPC   C1B 4066   0.083   2.880   4.719
  298POPC   C2B 4067   0.118   2.935   5.164
  298POPC   C3B 4068   0.131   2.784   5.568
  298POPC   C4B 4069   0.126   2.377   5.719
  299POPC   NC3 4070   7.337   2.351   3.853
  299POPC   PO4 4071   7.667   2.787   4.095
  299POPC   GL1 4072   7.439   2.670   4.443
  299POPC   GL2 4073   7.142   2.466   4.323
  299POPC   C1A 4074   7.486   2.766   4.891
  299POPC   D2A 4075   7.645   2.634   5.286
  299POPC   C3A 4076   7.411   2.737   5.645
  299POPC   C4A 4077   7.153   3.104   5.779
  299POPC   C1B 4078   7.130   2.405   4.782
  299POPC   C2B 4079   7.131   2.541   5.217
  299POPC   C3B 4080   6.904   2.716   5.560
  299POPC   C4B 4081   7.000   2.639   5.991
  300POPC   NC3 4082   1.369  10.274   3.970
  300POPC   PO4 4083   0.780  10.541   3.682
  300POPC   GL1 4084   0.896  10.566   4.150
  300POPC   GL2 4085   0.937  10.228   4.255
  300POPC   C1A 4086   0.829  10.529   4.661
  300POPC   D2A 4087   0.995  10.316   5.087
  300POPC   C3A 4088   0.992  10.426   5.573
  300POPC   C4A 4089   1.123  10.585   6.033
  300POPC   C1B 4090   1.268  10.288   4.611
  300POPC   C2B 4091   1.523  10.366   4.980
  300POPC   C3B 4092   1.504  10.534   5.387
  300POPC   C4B 4093   1.477  10.361   5.784
  301POPC   NC3 4094   8.847   1.401   3.869
  301POPC   PO4 4095   8.743   0.714   3.752
  301POPC   GL1 4096   8.760   0.750   4.229
  301POPC   GL2 4097   8.907   1.079   4.249
  301POPC   C1A 4098   8.868   0.836   4.692
  301POPC   D2A 4099   9.154   0.980   5.013
  301POPC   C3A 4100   8.959   1.049   5.442
  301POPC   C4A 4101   9.062   1.103   5.881
  301POPC   C1B 4102   8.921   1.328   4.643
  301POPC   C2B 4103   8.859   1.386   5.037
  301POPC   C3B 4104   9.077   1.580   5.345
  301POPC   C4B 4105   9.101   1.606   5.775
  302POPC   NC3 4106   0.063   1.017   4.002
  302POPC   PO4 4107  10.939   0.831   3.966
  302POPC   GL1 4108  11.156   1.059   4.328
  302POPC   GL2 4109  11.278   1.420   4.350
  302POPC   C1A 4110  11.339   0.983   4.742
  302POPC   D2A 4111  11.189   0.884   5.175
  302POPC   C3A 4112  11.486   0.977   5.497
  302POPC   C4A 4113  11.472   0.889   5.926
  302POPC   C1B 4114  11.082   1.481   4.786
  302POPC   C2B 4115  11.034   1.365   5.236
  302POPC   C3B 4116  11.057   1.202   5.655
  302POPC   C4B 4117  10.899   1.429   6.045
  303POPC   NC3 4118   2.090   8.089   4.011
  303POPC   PO4 4119   1.519   7.797   3.851
  303POPC   GL1 4120   1.749   7.855   4.283
  303POPC   GL2 4121   1.852   8.238   4.420
  303POPC   C1A 4122   1.920   7.842   4.696
  303POPC   D2A 4123   1.727   7.933   5.054
  303POPC   C3A 4124   1.853   7.966   5.421
  303POPC   C4A 4125   1.721   7.578   5.676
  303POPC   C1B 4126   1.930   8.350   4.819
  303POPC   C2B 4127   2.120   8.615   5.128
  303POPC   C3B 4128   2.223   8.404   5.513
  303POPC   C4B 4129   1.969   8.217   5.840
  304POPC   NC3 4130   0.570   5.475   3.487
  304POPC   PO4 4131   0.678   5.765   4.030
  304POPC   GL1 4132   0.601   5.641   4.388
  304POPC   GL2 4133   0.265   5.794   4.357
  304POPC   C1A 4134   0.363   5.455   4.714
  304POPC   D2A 4135   0.216   5.579   5.091
  304POPC   C3A 4136   0.399   5.531   5.486
  304POPC   C4A 4137   0.449   5.739   5.872
  304POPC   C1B 4138   0.464   5.980   4.736
  304POPC   C2B 4139   0.376   6.076   5.120
  304POPC   C3B 4140   0.497   6.111   5.524
  304POPC   C4B 4141   0.140   6.121   5.780
  305POPC   NC3 4142  10.379   6.418   3.851
  305POPC   PO4 4143  10.054   6.890   4.147
  305POPC   GL1 4144  10.282   6.548   4.340
  305POPC   GL2 4145  10.642   6.521   4.378
  305POPC   C1A 4146  10.299   6.336   4.723
  305POPC   D2A 4147  10.133   6.452   5.107
  305POPC   C3A 4148  10.253   6.359   5.516
  305POPC   C4A 4149  10.313   6.627   5.838
  305POPC   C1B 4150  10.697   6.632   4.808
  305POPC   C2B 4151  10.663   6.509   5.238
  305POPC   C3B 4152  10.771   6.652   5.658
  305POPC   C4B 4153  10.718   6.569   6.134
  306POPC   NC3 4154   9.221  10.958   3.955
  306POPC   PO4 4155   9.962  10.729   3.999
  306POPC   GL1 4156   9.598  10.832   4.305
  306POPC   GL2 4157   9.555  11.211   4.263
  306POPC   C1A 4158   9.475  10.901   4.792
  306POPC   D2A 4159   9.683  10.979   5.201
  306POPC   C3A 4160   9.491  10.930   5.613
  306POPC   C4A 4161   9.445  10.681   5.982
  306POPC   C1B 4162   9.689  11.339   4.675
  306POPC   C2B 4163   9.516  11.473   5.077
  306POPC   C3B 4164   9.678  11.398   5.499
  306POPC   C4B 4165  10.056  11.174   5.636
  307POPC   NC3 4166   7.368   9.059   3.870
  307POPC   PO4 4167   7.659   8.526   3.958
  307POPC   GL1 4168   7.515   8.829   4.298
  307POPC   GL2 4169   7.177   8.929   4.362
  307POPC   C1A 4170   7.551   9.058   4.726
  307POPC   D2A 4171   7.479   8.925   5.153
  307POPC   C3A 4172   7.749   8.929   5.477
  307POPC   C4A 4173   7.772   8.890   5.883
  307POPC   C1B 4174   7.058   8.955   4.827
  307POPC   C2B 4175   7.067   9.177   5.252
  307POPC   C3B 4176   7.151   8.925   5.636
  307POPC   C4B 4177   6.947   8.786   6.053
  308POPC   NC3 4178   9.642   4.984   3.946
  308POPC   PO4 4179   9.127   4.559   4.051
  308POPC   GL1 4180   9.397   4.644   4.412
  308POPC   GL2 4181   9.586   4.969   4.440
  308POPC   C1A 4182   9.444   4.713   4.863
  308POPC   D2A 4183   9.453   4.953   5.242
  308POPC   C3A 4184   9.484   4.711   5.637
  308POPC   C4A 4185   9.139   4.769   5.949
  308POPC   C1B 4186   9.887   4.976   4.769
  308POPC   C2B 4187   9.892   5.201   5.148
  308POPC   C3B 4188   9.750   5.180   5.603
  308POPC   C4B 4189   9.910   5.283   6.027
  309POPC   NC3 4190  11.159   9.425   3.861
  309POPC   PO4 4191   0.192   9.243   4.110
  309POPC   GL1 4192  11.343   9.530   4.333
  309POPC   GL2 4193  10.961   9.475   4.319
  309POPC   C1A 4194  11.452   9.644   4.774
  309POPC   D2A 4195  11.242   9.639   5.156
  309POPC   C3A 4196  11.390   9.569   5.556
  309POPC   C4A 4197   0.011   9.205   5.791
  309POPC   C1B 4198  10.922   9.611   4.730
  309POPC   C2B 4199  10.735   9.554   5.110
  309POPC   C3B 4200  10.862   9.615   5.511
  309POPC   C4B 4201  10.996   9.699   5.923
  310POPC   NC3 4202   9.718   3.320   3.668
  310POPC   PO4 4203   9.750   3.891   4.001
  310POPC   GL1 4204   9.664   3.634   4.355
  310POPC   GL2 4205   9.624   3.254   4.416
  310POPC   C1A 4206   9.683   3.758   4.783
  310POPC   D2A 4207   9.844   3.996   5.121
  310POPC   C3A 4208   9.886   3.786   5.523
  310POPC   C4A 4209   9.754   3.691   5.945
  310POPC   C1B 4210   9.725   3.250   4.843
  310POPC   C2B 4211   9.578   3.478   5.209
  310POPC   C3B 4212   9.523   3.370   5.648
  310POPC   C4B 4213   9.715   3.172   6.025
  311POPC   NC3 4214   3.185   0.299   3.711
  311POPC   PO4 4215   3.734   0.229   3.956
  311POPC   GL1 4216   3.465   0.412   4.308
  311POPC   GL2 4217   3.680   0.690   4.398
  311POPC   C1A 4218   3.287   0.414   4.752
  311POPC   D2A 4219   3.031   0.468   5.166
  311POPC   C3A 4220   3.259   0.350   5.540
  311POPC   C4A 4221   3.633   0.063   5.576
  311POPC   C1B 4222   3.782   0.534   4.805
  311POPC   C2B 4223   3.650   0.460   5.221
  311POPC   C3B 4224   3.737   0.580   5.662
  311POPC   C4B 4225   3.777   0.733   6.119
  312POPC   NC3 4226   4.410  10.857   3.920
  312POPC   PO4 4227   4.182  10.136   3.877
  312POPC   GL1 4228   4.172  10.367   4.236
  312POPC   GL2 4229   4.512  10.449   4.220
  312POPC   C1A 4230   4.219  10.219   4.667
  312POPC   D2A 4231   4.021  10.204   5.078
  312POPC   C3A 4232   4.267  10.175   5.462
  312POPC   C4A 4233   4.216  10.074   5.943
  312POPC   C1B 4234   4.395  10.697   4.580
  312POPC   C2B 4235   4.366  10.589   5.008
  312POPC   C3B 4236   4.322  10.708   5.427
  312POPC   C4B 4237   4.324  10.531   5.812
  313POPC   NC3 4238  11.491   1.883   3.720
  313POPC   PO4 4239  10.847   2.004   3.789
  313POPC   GL1 4240  11.000   2.105   4.231
  313POPC   GL2 4241  11.343   1.997   4.213
  313POPC   C1A 4242  10.858   2.065   4.704
  313POPC   D2A 4243  10.888   1.855   5.131
  313POPC   C3A 4244  10.760   2.069   5.525
  313POPC   C4A 4245  10.976   2.249   5.877
  313POPC   C1B 4246  11.364   1.932   4.663
  313POPC   C2B 4247  11.306   2.155   5.060
  313POPC   C3B 4248  11.271   2.047   5.482
  313POPC   C4B 4249  11.093   1.706   5.665
  314POPC   NC3 4250  11.087   4.998   3.963
  314POPC   PO4 4251   0.120   5.447   3.883
  314POPC   GL1 4252  11.463   5.174   4.263
  314POPC   GL2 4253  11.096   5.259   4.398
  314POPC   C1A 4254  11.416   4.900   4.657
  314POPC   D2A 4255   0.090   5.058   5.081
  314POPC   C3A 4256  11.453   4.869   5.475
  314POPC   C4A 4257  11.459   4.979   5.923
  314POPC   C1B 4258  11.346   5.403   4.759
  314POPC   C2B 4259  11.239   5.426   5.213
  314POPC   C3B 4260  11.146   5.272   5.642
  314POPC   C4B 4261  10.901   5.080   5.983
  315POPC   NC3 4262  11.102  10.412   3.942
  315POPC   PO4 4263   0.068  10.871   3.734
  315POPC   GL1 4264  11.430  10.741   4.225
  315POPC   GL2 4265  11.388  10.411   4.386
  315POPC   C1A 4266  11.354  10.845   4.716
  315POPC   D2A 4267  11.282  10.939   5.176
  315POPC   C3A 4268   0.006  10.636   5.506
  315POPC   C4A 4269  11.383  10.511   5.931
  315POPC   C1B 4270  11.175  10.081   4.657
  315POPC   C2B 4271  10.938  10.037   5.063
  315POPC   C3B 4272  11.120  10.049   5.501
  315POPC   C4B 4273  11.488  10.037   5.769
  316POPC   NC3 4274   6.303  10.364   3.931
  316POPC   PO4 4275   6.849   9.957   3.991
  316POPC   GL1 4276   6.731  10.233   4.348
  316POPC   GL2 4277   6.469  10.509   4.378
  316POPC   C1A 4278   6.711  10.350   4.794
  316POPC   D2A 4279   6.704  10.561   5.179
  316POPC   C3A 4280   6.680  10.314   5.526
  316POPC   C4A 4281   6.692  10.472   5.921
  316POPC   C1B 4282   6.233  10.497   4.757
  316POPC   C2B 4283   6.225  10.291   5.131
  316POPC   C3B 4284   6.181  10.468   5.524
  316POPC   C4B 4285   6.276  10.201   5.832
  317POPC   NC3 4286   5.717   9.929   3.905
  317POPC   PO4 4287   5.571   9.274   4.084
  317POPC   GL1 4288   5.789   9.612   4.298
  317POPC   GL2 4289   5.617   9.895   4.404
  317POPC   C1A 4290   5.984   9.681   4.693
  317POPC   D2A 4291   5.889   9.780   5.116
  317POPC   C3A 4292   5.881   9.406   5.376
  317POPC   C4A 4293   5.660   9.197   5.743
  317POPC   C1B 4294   5.454   9.822   4.823
  317POPC   C2B 4295   5.399   9.878   5.261
  317POPC   C3B 4296   5.493   9.667   5.619
  317POPC   C4B 4297   5.882   9.673   5.798
  318POPC   NC3 4298   2.639   3.464   3.943
  318POPC   PO4 4299   2.644   4.072   3.944
  318POPC   GL1 4300   2.564   3.738   4.367
  318POPC   GL2 4301   2.729   3.359   4.411
  318POPC   C1A 4302   2.407   3.516   4.754
  318POPC   D2A 4303   2.311   3.694   5.116
  318POPC   C3A 4304   2.472   3.530   5.470
  318POPC   C4A 4305   2.595   3.481   5.916
  318POPC   C1B 4306   2.908   3.564   4.769
  318POPC   C2B 4307   3.016   3.371   5.164
  318POPC   C3B 4308   2.955   3.274   5.603
  318POPC   C4B 4309   3.100   3.615   5.881
  319POPC   NC3 4310  11.008   2.437   3.814
  319POPC   PO4 4311  11.227   3.090   3.874
  319POPC   GL1 4312  11.306   2.960   4.258
  319POPC   GL2 4313  11.265   2.617   4.215
  319POPC   C1A 4314  11.060   2.934   4.598
  319POPC   D2A 4315  10.733   3.082   4.867
  319POPC   C3A 4316  10.865   2.943   5.254
  319POPC   C4A 4317  10.948   3.053   5.667
  319POPC   C1B 4318  11.215   2.436   4.589
  319POPC   C2B 4319  11.211   2.647   4.991
  319POPC   C3B 4320  11.209   2.552   5.413
  319POPC   C4B 4321  11.222   2.676   5.831
  320POPC   NC3 4322   9.365   4.160   3.996
  320POPC   PO4 4323   9.949   4.570   3.874
  320POPC   GL1 4324   9.883   4.535   4.322
  320POPC   GL2 4325   9.731   4.214   4.388
  320POPC   C1A 4326   9.926   4.464   4.794
  320POPC   D2A 4327   9.855   4.645   5.193
  320POPC   C3A 4328   9.838   4.355   5.489
  320POPC   C4A 4329   9.693   4.234   5.832
  320POPC   C1B 4330   9.490   4.216   4.759
  320POPC   C2B 4331   9.435   4.308   5.189
  320POPC   C3B 4332   9.403   3.986   5.499
  320POPC   C4B 4333   9.312   3.916   5.937
  321POPC   NC3 4334   7.245  10.072   3.762
  321POPC   PO4 4335   7.081   9.411   3.905
  321POPC   GL1 4336   7.123   9.451   4.352
  321POPC   GL2 4337   7.469   9.380   4.328
  321POPC   C1A 4338   7.206   9.445   4.828
  321POPC   D2A 4339   7.590   9.407   5.133
  321POPC   C3A 4340   7.469   9.347   5.565
  321POPC   C4A 4341   7.050   9.435   5.709
  321POPC   C1B 4342   7.639   9.629   4.677
  321POPC   C2B 4343   7.424   9.903   4.967
  321POPC   C3B 4344   7.230   9.733   5.318
  321POPC   C4B 4345   7.212   9.979   5.692
  322POPC   NC3 4346  10.336  10.413   3.987
  322POPC   PO4 4347  10.907  10.626   4.309
  322POPC   GL1 4348  10.534  10.475   4.484
  322POPC   GL2 4349  10.182  10.566   4.442
  322POPC   C1A 4350  10.509  10.434   4.916
  322POPC   D2A 4351  10.530  10.247   5.299
  322POPC   C3A 4352  10.807  10.458   5.589
  322POPC   C4A 4353  11.034  10.816   5.618
  322POPC   C1B 4354  10.118  10.194   4.702
  322POPC   C2B 4355   9.932  10.170   5.108
  322POPC   C3B 4356  10.079  10.205   5.516
  322POPC   C4B 4357  10.349  10.401   5.798
  323POPC   NC3 4358   2.364  10.186   4.014
  323POPC   PO4 4359   1.759  10.012   3.996
  323POPC   GL1 4360   1.890  10.352   4.190
  323POPC   GL2 4361   2.071  10.143   4.425
  323POPC   C1A 4362   1.794  10.573   4.575
  323POPC   D2A 4363   1.970  10.688   4.970
  323POPC   C3A 4364   2.059  10.467   5.344
  323POPC   C4A 4365   1.924  10.626   5.726
  323POPC   C1B 4366   2.009  10.171   4.857
  323POPC   C2B 4367   1.774   9.935   5.143
  323POPC   C3B 4368   1.799  10.083   5.531
  323POPC   C4B 4369   2.151  10.175   5.832
  324POPC   NC3 4370   2.666   9.285   3.693
  324POPC   PO4 4371   2.598   9.921   3.732
  324POPC   GL1 4372   2.630   9.917   4.322
  324POPC   GL2 4373   2.928   9.702   4.471
  324POPC   C1A 4374   2.544   9.799   4.785
  324POPC   D2A 4375   2.742   9.506   5.105
  324POPC   C3A 4376   2.537   9.535   5.507
  324POPC   C4A 4377   2.519   9.826   5.838
  324POPC   C1B 4378   3.080   9.940   4.839
  324POPC   C2B 4379   3.082   9.933   5.301
  324POPC   C3B 4380   2.979   9.723   5.677
  324POPC   C4B 4381   2.991   9.855   6.115
  325POPC   NC3 4382  10.266   8.613   3.866
  325POPC   PO4 4383  10.733   9.216   3.828
  325POPC   GL1 4384  10.658   9.049   4.228
  325POPC   GL2 4385  10.367   8.867   4.287
  325POPC   C1A 4386  10.786   8.844   4.606
  325POPC   D2A 4387  10.841   8.568   4.962
  325POPC   C3A 4388  10.804   8.785   5.323
  325POPC   C4A 4389  10.610   8.814   5.683
  325POPC   C1B 4390  10.281   8.969   4.708
  325POPC   C2B 4391  10.315   8.821   5.138
  325POPC   C3B 4392  10.070   8.967   5.477
  325POPC   C4B 4393  10.218   9.081   5.861
  326POPC   NC3 4394  10.129   4.113   3.882
  326POPC   PO4 4395  10.679   4.547   3.888
  326POPC   GL1 4396  10.585   4.204   4.167
  326POPC   GL2 4397  10.272   4.202   4.347
  326POPC   C1A 4398  10.705   4.053   4.591
  326POPC   D2A 4399  10.891   4.162   4.985
  326POPC   C3A 4400  10.751   4.031   5.391
  326POPC   C4A 4401  10.723   4.290   5.742
  326POPC   C1B 4402  10.187   4.016   4.721
  326POPC   C2B 4403  10.321   4.235   5.084
  326POPC   C3B 4404  10.328   4.433   5.468
  326POPC   C4B 4405  10.202   4.136   5.783
  327POPC   NC3 4406   2.490   8.998   4.130
  327POPC   PO4 4407   3.065   9.040   3.785
  327POPC   GL1 4408   2.995   8.962   4.278
  327POPC   GL2 4409   2.817   8.630   4.290
  327POPC   C1A 4410   2.736   9.070   4.729
  327POPC   D2A 4411   2.434   9.061   5.118
  327POPC   C3A 4412   2.650   9.057   5.532
  327POPC   C4A 4413   3.057   9.219   5.639
  327POPC   C1B 4414   2.987   8.620   4.731
  327POPC   C2B 4415   2.812   8.705   5.159
  327POPC   C3B 4416   2.712   8.570   5.596
  327POPC   C4B 4417   3.060   8.725   5.838
  328POPC   NC3 4418   0.659   2.627   3.712
  328POPC   PO4 4419   1.306   2.573   3.961
  328POPC   GL1 4420   1.068   2.453   4.349
  328POPC   GL2 4421   1.405   2.341   4.467
  328POPC   C1A 4422   1.020   2.424   4.805
  328POPC   D2A 4423   1.106   2.815   5.016
  328POPC   C3A 4424   1.035   2.962   5.385
  328POPC   C4A 4425   1.044   2.706   5.719
  328POPC   C1B 4426   1.375   2.793   4.583
  328POPC   C2B 4427   1.508   3.079   4.877
  328POPC   C3B 4428   1.536   3.097   5.323
  328POPC   C4B 4429   1.375   3.093   5.743
  329POPC   NC3 4430   5.384   2.228   3.995
  329POPC   PO4 4431   6.011   1.934   3.952
  329POPC   GL1 4432   5.912   1.772   4.344
  329POPC   GL2 4433   5.595   1.925   4.374
  329POPC   C1A 4434   5.820   1.672   4.782
  329POPC   D2A 4435   5.903   1.938   5.112
  329POPC   C3A 4436   6.064   1.807   5.499
  329POPC   C4A 4437   6.086   2.185   5.746
  329POPC   C1B 4438   5.354   1.883   4.777
  329POPC   C2B 4439   5.432   1.804   5.225
  329POPC   C3B 4440   5.588   1.933   5.622
  329POPC   C4B 4441   5.720   1.658   5.941
  330POPC   NC3 4442  10.239   9.280   4.023
  330POPC   PO4 4443  10.055   9.897   3.776
  330POPC   GL1 4444  10.190   9.763   4.236
  330POPC   GL2 4445  10.539   9.709   4.159
  330POPC   C1A 4446  10.391   9.485   4.631
  330POPC   D2A 4447  10.261   9.344   5.077
  330POPC   C3A 4448  10.500   9.263   5.462
  330POPC   C4A 4449  10.501   9.504   5.871
  330POPC   C1B 4450  10.562   9.960   4.577
  330POPC   C2B 4451  10.351   9.863   4.994
  330POPC   C3B 4452  10.368   9.774   5.428
  330POPC   C4B 4453  10.625   9.993   5.722
  331POPC   NC3 4454   2.812  10.261   3.532
  331POPC   PO4 4455   3.201  10.256   4.030
  331POPC   GL1 4456   3.018  10.244   4.405
  331POPC   GL2 4457   2.782  10.476   4.303
  331POPC   C1A 4458   2.961  10.459   4.804
  331POPC   D2A 4459   2.948  10.433   5.226
  331POPC   C3A 4460   2.666  10.208   5.477
  331POPC   C4A 4461   2.869  10.248   5.838
  331POPC   C1B 4462   2.514  10.294   4.631
  331POPC   C2B 4463   2.456  10.394   5.035
  331POPC   C3B 4464   2.533  10.722   5.333
  331POPC   C4B 4465   2.509  10.629   5.763
  332POPC   NC3 4466   8.770   8.207   3.900
  332POPC   PO4 4467   9.213   7.811   3.694
  332POPC   GL1 4468   9.088   7.960   4.214
  332POPC   GL2 4469   9.081   8.328   4.302
  332POPC   C1A 4470   9.302   7.967   4.653
  332POPC   D2A 4471   9.199   7.887   5.112
  332POPC   C3A 4472   9.012   7.937   5.526
  332POPC   C4A 4473   9.184   7.743   5.868
  332POPC   C1B 4474   8.838   8.148   4.693
  332POPC   C2B 4475   8.692   8.055   5.146
  332POPC   C3B 4476   8.543   8.181   5.606
  332POPC   C4B 4477   8.460   8.317   6.070
  333POPC   NC3 4478   2.795   4.495   3.958
  333POPC   PO4 4479   3.209   4.802   4.311
  333POPC   GL1 4480   2.699   4.683   4.411
  333POPC   GL2 4481   2.538   4.301   4.387
  333POPC   C1A 4482   2.512   4.572   4.810
  333POPC   D2A 4483   2.756   4.379   5.158
  333POPC   C3A 4484   2.605   4.485   5.570
  333POPC   C4A 4485   2.661   4.736   5.945
  333POPC   C1B 4486   2.574   4.025   4.788
  333POPC   C2B 4487   2.771   3.863   5.197
  333POPC   C3B 4488   2.735   3.926   5.659
  333POPC   C4B 4489   2.867   4.224   5.957
  334POPC   NC3 4490   8.883   9.785   3.914
  334POPC   PO4 4491   8.412   9.419   4.215
  334POPC   GL1 4492   8.777   9.495   4.373
  334POPC   GL2 4493   8.781   9.833   4.388
  334POPC   C1A 4494   8.704   9.491   4.800
  334POPC   D2A 4495   8.765   9.494   5.200
  334POPC   C3A 4496   8.528   9.409   5.537
  334POPC   C4A 4497   8.759   9.423   5.892
  334POPC   C1B 4498   8.806  10.001   4.755
  334POPC   C2B 4499   8.925   9.958   5.140
  334POPC   C3B 4500   8.801   9.842   5.552
  334POPC   C4B 4501   9.017   9.847   5.921
  335POPC   NC3 4502   0.301   7.057   3.973
  335POPC   PO4 4503   0.022   7.622   3.808
  335POPC   GL1 4504   0.199   7.598   4.227
  335POPC   GL2 4505   0.532   7.472   4.261
  335POPC   C1A 4506   0.311   7.584   4.686
  335POPC   D2A 4507   0.312   7.340   5.049
  335POPC   C3A 4508   0.350   7.531   5.451
  335POPC   C4A 4509   0.201   7.342   5.849
  335POPC   C1B 4510   0.578   7.121   4.581
  335POPC   C2B 4511   0.646   6.938   4.998
  335POPC   C3B 4512   0.721   7.180   5.383
  335POPC   C4B 4513   0.712   7.392   5.811
  336POPC   NC3 4514   4.433   1.453   3.487
  336POPC   PO4 4515   4.486   1.498   4.114
  336POPC   GL1 4516   4.406   1.403   4.491
  336POPC   GL2 4517   4.278   1.076   4.444
  336POPC   C1A 4518   4.606   1.271   4.859
  336POPC   D2A 4519   4.474   0.982   5.188
  336POPC   C3A 4520   4.511   1.147   5.603
  336POPC   C4A 4521   4.434   1.420   5.973
  336POPC   C1B 4522   3.910   1.036   4.742
  336POPC   C2B 4523   3.838   0.962   5.203
  336POPC   C3B 4524   4.014   1.144   5.588
  336POPC   C4B 4525   3.933   1.245   6.018
  337POPC   NC3 4526   2.768   0.095   3.997
  337POPC   PO4 4527   2.941   0.715   3.786
  337POPC   GL1 4528   2.964   0.618   4.280
  337POPC   GL2 4529   2.920   0.264   4.447
  337POPC   C1A 4530   2.870   0.719   4.744
  337POPC   D2A 4531   2.641   0.798   5.164
  337POPC   C3A 4532   2.866   0.765   5.588
  337POPC   C4A 4533   2.795   0.557   6.011
  337POPC   C1B 4534   2.562   0.318   4.769
  337POPC   C2B 4535   2.504   0.312   5.235
  337POPC   C3B 4536   2.733   0.241   5.608
  337POPC   C4B 4537   2.587  11.480   5.950
  338W        W 4538   4.581   7.123   1.905
  339W        W 4539   5.146   6.011   0.006
  340W        W 4540   7.843   4.665  10.370
  341W        W 4541  10.014   0.233  10.594
  342W        W 4542   0.167   4.700   3.470
  343W        W 4543   7.488   3.859  10.488
  344W        W 4544  10.864   8.801  11.752
  345W        W 4545   8.568   3.206   8.918
  346W        W 4546   1.422   0.905   0.894
  347W        W 4547   1.261   6.505  10.835
  348W        W 4548   4.325   9.034   2.224
  349W        W 4549   7.661   6.540   2.733
  350W        W 4550  11.373   0.996   2.136
  351W        W 4551  10.028   2.853   3.673
  352W        W 4552   0.465  11.402   3.245
  353W        W 4553   2.248  10.431  10.439
  354W        W 4554  10.715   5.804  11.464
  355W        W 4555   3.827   7.641   0.905
  356W        W 4556  11.493   8.165  11.803
  357W        W 4557  11.105   7.986   2.199
  358W        W 4558   5.980   3.632   7.950
  359W        W 4559   5.974   4.095   3.954
  360W        W 4560   2.541   3.023   0.093
  361W        W 4561   9.176   5.293   2.909
  362W        W 4562   2.430  10.313   0.453
  363W        W 4563   2.616  10.985   3.535
  364W        W 4564   4.646   0.367   0.457
  365W        W 4565   6.235   0.359   2.813
  366W        W 4566   2.338   5.764   0.945
  367W        W 4567   9.341  11.120  10.331
  368W        W 4568   7.264   6.150  10.497
  369W        W 4569   5.809   6.831  11.536
  370W        W 4570  11.283  10.565  11.310
  371W        W 4571   2.208  10.896   3.249
  372W        W 4572   7.962   8.410   1.837
  373W        W 4573   7.005   4.736   1.423
  374W        W 4574   0.888   1.403  10.450
  375W        W 4575   5.660   0.500   0.015
  376W        W 4576  10.430   2.785   3.158
  377W        W 4577   2.651   8.763   3.715
  378W        W 4578   3.277   8.568   0.823
  379W        W 4579   5.244   2.428  10.771
  380W        W 4580   2.711   2.563   9.899
  381W        W 4581   2.668   4.744   3.412
  382W        W 4582   3.800   8.999   3.038
  383W        W 4583   6.087   0.488   9.288
  384W        W 4584   6.752   6.476   1.992
  385W        W 4585   5.831   4.136   8.156
  386W        W 4586   0.610   2.479  11.823
  387W        W 4587   1.778   5.367  10.380
  388W        W 4588   0.573   2.810   0.692
  389W        W 4589   3.237   1.513   0.037
  390W        W 4590   6.607   1.005   0.881
  391W        W 4591   6.068   7.404  10.282
  392W        W 4592   4.419   8.920   0.760
  393W        W 4593   2.647   4.132   9.780
  394W        W 4594   3.703   4.740  11.654
  395W        W 4595  10.780   6.741  11.090
  396W        W 4596   0.978  10.493   2.771
  397W        W 4597   9.562   0.304   1.952
  398W        W 4598   8.902   2.464  10.958
  399W        W 4599   9.212   8.939   3.021
  400W        W 4600   9.169  10.818   9.966
  401W        W 4601   8.985  11.299   1.682
  402W        W 4602   9.040   9.536   9.898
  403W        W 4603   5.242   9.258   1.336
  404W        W 4604   9.392  10.414  11.430
  405W        W 4605   7.676   5.235   0.735
  406W        W 4606   1.494   2.808   1.472
  407W        W 4607   3.857   4.654   2.736
  408W        W 4608   5.684  10.336  11.317
  409W        W 4609  10.475   3.265   9.044
  410W        W 4610   9.855  10.624  11.475
  411W        W 4611   4.251   1.767  10.586
  412W        W 4612   3.198   8.197   9.581
  413W        W 4613  10.510   4.635   1.463
  414W        W 4614   1.114   8.385   8.847
  415W        W 4615  11.358   4.364   0.557
  416W        W 4616  10.450   7.404   1.663
  417W        W 4617   6.570   7.584  11.456
  418W        W 4618   5.521   6.165   0.317
  419W        W 4619   4.200   2.820   0.450
  420W        W 4620   4.712   6.226   0.159
  421W        W 4621   8.045   9.985  10.878
  422W        W 4622   9.457  11.298   1.902
  423W        W 4623   4.316   0.166   9.744
  424W        W 4624   7.104   4.282   0.083
  425W        W 4625   9.167   7.314   3.447
  426W        W 4626   9.464   4.227  11.522
  427W        W 4627   5.421   3.563   9.125
  428W        W 4628  10.599   8.843   0.337
  429W        W 4629   5.648  11.227   2.186
  430W        W 4630   5.699   4.509   2.966
  431W        W 4631   5.108  11.471  10.601
  432W        W 4632   5.759   3.272  10.306
  433W        W 4633  10.940   8.064  11.096
  434W        W 4634   1.819   3.242   3.113
  435W        W 4635  11.229   0.374  10.818
  436W        W 4636   6.005  10.069  11.695
  437W        W 4637   3.615   5.173   8.111
  438W        W 4638   4.747   8.887   8.146
  439W        W 4639   2.256  10.250   9.905
  440W        W 4640   1.746   9.825   0.018
  441W        W 4641   6.969   2.670   1.619
  442W        W 4642  10.037   2.379  10.849
  443W        W 4643   0.350   0.400   9.012
  444W        W 4644   6.470   0.186  11.026
  445W        W 4645   6.488   3.834   9.848
  446W        W 4646   0.979   6.270   3.972
  447W        W 4647   9.296   9.388   8.952
  448W        W 4648   5.241   7.364   1.707
  449W        W 4649  10.233   7.661   0.839
  450W        W 4650   9.126   5.047  11.939
  451W        W 4651   4.982  10.546  10.648
  452W        W 4652   1.336   3.416  10.648
  453W        W 4653   2.694   4.032  11.962
  454W        W 4654   4.473   0.349   8.819
  455W        W 4655   4.748   3.134   2.766
  456W        W 4656   4.036   4.285  11.430
  457W        W 4657   2.616  10.313   0.944
  458W        W 4658  10.798   1.765  10.935
  459W        W 4659   6.981   9.709   3.498
  460W        W 4660  10.897   0.922   0.252
  461W        W 4661   9.861   1.246   9.803
  462W        W 4662   8.455   9.149   8.989
  463W        W 4663   2.462   5.356   1.648
  464W        W 4664   7.738   3.850   4.048
  465W        W 4665   1.098   6.608   8.374
  466W        W 4666   7.395   7.514  10.733
  467W        W 4667   2.143   6.527   3.283
  468W        W 4668   8.788   9.462   1.808
  469W        W 4669   9.508   0.587   9.804
  470W        W 4670   8.138   4.636  10.780
  471W        W 4671   2.112   2.305   0.225
  472W        W 4672  11.168   4.965  11.128
  473W        W 4673   8.384   5.579   0.342
  474W        W 4674   1.349   3.385  11.647
  475W        W 4675   2.347   3.735  10.012
  476W        W 4676   6.223   1.036   9.900
  477W        W 4677   6.572   6.909   2.209
  478W        W 4678  11.049  11.277   2.201
  479W        W 4679   3.503   6.148   1.771
  480W        W 4680   4.670   2.213  11.294
  481W        W 4681   9.585   0.273  11.388
  482W        W 4682   9.428   9.108  10.282
  483W        W 4683  10.442   8.677  11.449
  484W        W 4684   6.006   6.920   0.844
  485W        W 4685   2.491   8.199   9.101
  486W        W 4686   2.899  10.646   3.217
  487W        W 4687   5.759   3.668  11.375
  488W        W 4688   9.635   7.202   9.502
  489W        W 4689  10.568   7.025  11.902
  490W        W 4690   3.319   6.950  11.458
  491W        W 4691  11.297  11.121   0.049
  492W        W 4692   2.741   4.542   0.061
  493W        W 4693   6.566   4.073   9.385
  494W        W 4694   4.031   8.338   3.507
  495W        W 4695   1.252   9.932  10.752
  496W        W 4696   7.630  11.060   1.677
  497W        W 4697  10.005   3.749  11.620
  498W        W 4698  11.125   5.464  10.871
  499W        W 4699   7.214   3.986   2.468
  500W        W 4700   1.861   6.121  11.336
  501W        W 4701   9.758   9.035   0.893
  502W        W 4702   8.452   1.628  10.849
  503W        W 4703   9.652  11.212   2.738
  504W        W 4704   1.364   1.754   0.687
  505W        W 4705   4.337   9.176   1.199
  506W        W 4706   0.339   4.736  11.697
  507W        W 4707   0.586   4.219   0.716
  508W        W 4708  10.500  10.226   0.688
  509W        W 4709   0.800   0.343  11.820
  510W        W 4710   8.461   5.455   3.761
  511W        W 4711   0.840  10.782   9.869
  512W        W 4712   4.710   0.910   2.139
  513W        W 4713   3.598   8.552  11.737
  514W        W 4714   3.416   8.069   3.138
  515W        W 4715   4.284   3.349   2.814
  516W        W 4716   1.171   7.826   1.073
  517W        W 4717   8.763   1.520   3.009
  518W        W 4718   5.276   8.685   8.628
  519W        W 4719   8.088   1.185   9.310
  520W        W 4720   0.914  11.294   0.935
  521W        W 4721   6.642   5.562   2.488
  522W        W 4722   4.360   1.355   9.484
  523W        W 4723   2.164   6.581   1.307
  524W        W 4724   0.914   7.970   9.081
  525W        W 4725   3.545   0.449   2.329
  526W        W 4726   1.986   3.725   8.493
  527W        W 4727   7.160   1.400  11.441
  528W        W 4728   3.689   6.575   3.097
  529W        W 4729   0.830   6.595  10.020
  530W        W 4730   1.594   5.322   0.821
  531W        W 4731   1.605   2.710  11.675
  532W        W 4732   6.413   8.872  10.259
  533W        W 4733   3.127  11.066   3.430
  534W        W 4734  10.611   0.309   1.742
  535W        W 4735  10.022   8.609   9.685
  536W        W 4736   5.260   3.560  11.337
  537W        W 4737  10.573   3.095  11.570
  538W        W 4738   1.764   0.521   2.620
  539W        W 4739   5.522   3.507   4.272
  540W        W 4740   2.466   8.559  10.765
  541W        W 4741   1.748   7.968   3.029
  542W        W 4742   7.980   3.458   2.113
  543W        W 4743   9.667   9.630   0.085
  544W        W 4744   7.993  11.290   2.933
  545W        W 4745  10.004   7.429   0.459
  546W        W 4746   5.557   8.560  10.689
  547W        W 4747   2.122   0.964   9.383
  548W        W 4748   7.242   1.252   2.272
  549W        W 4749   7.147  10.393  10.872
  550W        W 4750   0.721   6.480   2.779
  551W        W 4751   2.303   1.715   2.456
  552W        W 4752   5.696   4.219   0.112
  553W        W 4753   2.039   5.234  11.736
  554W        W 4754   0.512   5.111   2.786
  555W        W 4755   4.148   8.523  10.507
  556W        W 4756   3.355   9.384   1.908
  557W        W 4757   5.251   8.275   2.976
  558W        W 4758  10.036   3.521   0.064
  559W        W 4759   0.682   3.614   2.806
  560W        W 4760   9.603   1.420  10.606
  561W        W 4761   4.335   6.557   1.716
  562W        W 4762  11.136   9.520   9.537
  563W        W 4763   9.266   9.436   3.117
  564W        W 4764   3.958  11.023   3.159
  565W        W 4765   7.034  11.061   1.542
  566W        W 4766   2.179   9.767  10.806
  567W        W 4767   4.082   2.628   2.323
  568W        W 4768   6.201   4.117   8.646
  569W        W 4769   3.264   0.025   2.199
  570W        W 4770   6.072   7.176   3.955
  571W        W 4771  10.481   6.497   2.849
  572W        W 4772   3.416   8.952   3.395
  573W        W 4773   6.732  11.068   0.549
  574W        W 4774   6.141   3.013   8.611
  575W        W 4775   5.567   5.561  10.006
  576W        W 4776   1.348   4.195   2.904
  577W        W 4777   7.624   0.501  11.572
  578W        W 4778   6.913   6.531   0.704
  579W        W 4779   2.327   4.811  10.960
  580W        W 4780   0.509   1.301   9.880
  581W        W 4781   5.937   0.591   9.838
  582W        W 4782   7.599   2.470   1.213
  583W        W 4783   3.806   2.320  11.768
  584W        W 4784   8.245   1.304   1.747
  585W        W 4785   0.705   9.081   3.028
  586W        W 4786   9.966  11.403   9.859
  587W        W 4787   4.904   1.840   3.294
  588W        W 4788   3.640   1.630   9.039
  589W        W 4789   7.377   7.136  11.488
  590W        W 4790   3.172   4.226   2.762
  591W        W 4791   5.619   7.549  10.460
  592W        W 4792  10.460   4.710   1.952
  593W        W 4793   5.143   5.596   0.313
  594W        W 4794   9.437   7.690   9.401
  595W        W 4795   4.961   1.413  11.552
  596W        W 4796   4.941   3.088   8.675
  597W        W 4797   0.316   9.046   9.259
  598W        W 4798   3.751   5.177   2.664
  599W        W 4799  10.336   4.749   2.427
  600W        W 4800   4.349   1.705  11.508
  601W        W 4801   2.241   3.611   1.740
  602W        W 4802  10.912   8.468  11.389
  603W        W 4803   3.730  11.326  10.881
  604W        W 4804   5.721   0.119   1.833
  605W        W 4805   1.661   1.879   1.766
  606W        W 4806   6.211   3.403   0.017
  607W        W 4807   5.055   8.108  11.281
  608W        W 4808   2.860   7.402   0.680
  609W        W 4809   3.530   2.869  11.265
  610W        W 4810   4.241   9.565   8.931
  611W        W 4811   5.630   6.598   1.134
  612W        W 4812  10.717   9.457  11.118
  613W        W 4813   3.722   7.501   3.080
  614W        W 4814   1.314   8.671  11.913
  615W        W 4815   0.208   3.015   9.297
  616W        W 4816   2.716   3.601   1.522
  617W        W 4817   3.150   2.978   2.346
  618W        W 4818   1.915   8.541   9.911
  619W        W 4819   4.655   2.905  11.834
  620W        W 4820   1.952   9.445   2.559
  621W        W 4821   4.078  10.277  11.845
  622W        W 4822   3.644   6.265  11.896
  623W        W 4823   1.262   9.049   0.719
  624W        W 4824   5.170   1.031   9.957
  625W        W 4825   9.060   8.066   2.932
  626W        W 4826   2.756   8.349   1.513
  627W        W 4827   0.870   3.046  11.030
  628W        W 4828   9.149   0.990   8.705
  629W        W 4829   4.301   8.058  11.994
  630W        W 4830   6.124   8.681   3.646
  631W        W 4831   7.780   2.062  11.880
  632W        W 4832   1.288   9.898   2.996
  633W        W 4833   3.270   0.403   1.860
  634W        W 4834   4.210   5.899   8.259
  635W        W 4835   3.153   6.175   0.727
  636W        W 4836   7.593   6.877   9.958
  637W        W 4837  11.215   5.660   2.762
  638W        W 4838   1.425   9.513  10.494
  639W        W 4839   7.427  11.170  11.868
  640W        W 4840   2.036   2.294  10.486
  641W        W 4841   9.293   9.917  11.373
  642W        W 4842   2.349  11.041   9.122
  643W        W 4843   8.358   6.135   3.133
  644W        W 4844   3.426   3.429   4.191
  645W        W 4845   6.520   1.831   0.457
  646W        W 4846   5.307   7.644   0.810
  647W        W 4847  10.849   6.393   3.526
  648W        W 4848   9.410   0.832   9.122
  649W        W 4849   3.609   4.980  10.778
  650W        W 4850   6.040   9.930  11.195
  651W        W 4851   1.687   4.127   9.419
  652W        W 4852   1.645   7.112   1.000
  653W        W 4853   8.145   3.393   2.610
  654W        W 4854   7.354   0.931  11.401
  655W        W 4855   7.051   1.860   1.636
  656W        W 4856   5.228   2.659  11.792
  657W        W 4857   7.930   8.983   0.843
  658W        W 4858  10.061   4.328   9.354
  659W        W 4859   9.875   3.921   3.033
  660W        W 4860   7.433   5.986   9.870
  661W        W 4861   8.521   1.399  11.460
  662W        W 4862   1.443   8.181   1.322
  663W        W 4863   8.013  10.789   0.563
  664W        W 4864   5.233   0.644   0.936
  665W        W 4865   8.232   6.096   0.369
  666W        W 4866   9.082   8.067  10.739
  667W        W 4867   5.470   6.530   9.166
  668W        W 4868   6.226   9.915   8.595
  669W        W 4869   9.929   5.638   9.030
  670W        W 4870  11.208   3.812   2.679
  671W        W 4871   7.525   4.706   1.643
  672W        W 4872   8.526   8.969  11.976
  673W        W 4873   2.703   6.163   1.998
  674W        W 4874   1.249   6.566  10.319
  675W        W 4875   4.798   9.448   1.161
  676W        W 4876   5.192   9.405   9.985
  677W        W 4877   5.180   8.534   2.062
  678W        W 4878  11.406   2.958   8.887
  679W        W 4879   0.802   9.087   0.500
  680W        W 4880   6.051   2.060   2.774
  681W        W 4881   4.079   2.888  11.093
  682W        W 4882   7.042   0.080   9.235
  683W        W 4883   1.746   7.951   0.388
  684W        W 4884  10.870   6.375   9.295
  685W        W 4885   1.293   6.492   9.786
  686W        W 4886   9.002  10.853   2.026
  687W        W 4887   8.048   7.152   0.677
  688W        W 4888   1.206  10.881   9.514
  689W        W 4889   1.401   6.961  10.991
  690W        W 4890   8.592   9.806   9.808
  691W        W 4891   8.846   4.067  11.758
  692W        W 4892   6.287   2.311   3.199
  693W        W 4893   6.039   9.465   0.813
  694W        W 4894   1.127   0.292  10.871
  695W        W 4895   4.736   5.652   0.642
  696W        W 4896   4.208   7.543  10.509
  697W        W 4897   8.944   8.688   8.487
  698W        W 4898   2.959   5.291   1.575
  699W        W 4899   6.322   3.314   1.338
  700W        W 4900   6.525   8.373  11.019
  701W        W 4901   4.062   7.258   2.767
  702W        W 4902  10.764   4.177  10.057
  703W        W 4903   2.683   1.216  10.830
  704W        W 4904   9.197   5.898  10.783
  705W        W 4905   6.988   0.615  11.216
  706W        W 4906   7.149   6.247   2.243
  707W        W 4907   3.081   3.105   9.526
  708W        W 4908   4.949   5.220  11.481
  709W        W 4909   4.112   0.257   1.521
  710W        W 4910   0.871   1.269   1.515
  711W        W 4911   4.670   2.828   3.443
  712W        W 4912  10.411   6.465   9.023
  713W        W 4913   2.630   6.158   2.864
  714W        W 4914   9.977   8.877  11.575
  715W        W 4915   8.258   0.312  10.490
  716W        W 4916   8.837   0.250   1.849
  717W        W 4917   6.589   8.164   1.973
  718W        W 4918   4.141   6.069   0.832
  719W        W 4919   6.307   1.448  11.631
  720W        W 4920   8.011   6.467   0.007
  721W        W 4921   2.653   3.284   0.538
  722W        W 4922   1.252   0.771   9.951
  723W        W 4923   4.692   5.678  11.510
  724W        W 4924   3.005   3.738   2.831
  725W        W 4925  11.067   1.613   2.845
  726W        W 4926   6.916   7.509  11.856
  727W        W 4927   3.778  10.876   8.987
  728W        W 4928   4.917  10.770   3.447
  729W        W 4929   4.402   0.716  11.659
  730W        W 4930  10.465   6.902  10.710
  731W        W 4931   6.643   1.567   0.871
  732W        W 4932   0.218   3.504   9.906
  733W        W 4933   5.012  10.360  11.974
  734W        W 4934   0.829   7.166   0.507
  735W        W 4935   6.101   2.692   1.210
  736W        W 4936   8.902   1.457   1.732
  737W        W 4937   1.197  10.104   3.497
  738W        W 4938  10.935   1.298  10.670
  739W        W 4939   1.646  11.443  10.111
  740W        W 4940   1.137   7.311   1.041
  741W        W 4941   2.104   6.215   0.918
  742W        W 4942   4.507   3.198   2.263
  743W        W 4943  10.056  10.834  10.886
  744W        W 4944  10.365   8.829  10.940
  745W        W 4945   8.103  10.159  10.415
  746W        W 4946  10.008   7.203   1.881
  747W        W 4947   5.471   8.427   9.042
  748W        W 4948   3.815  10.437   1.431
  749W        W 4949   4.806   0.998  11.795
  750W        W 4950   1.268  10.678   1.915
  751W        W 4951   1.782   2.419   2.832
  752W        W 4952   6.682   5.218   1.389
  753W        W 4953  10.029   8.407   9.219
  754W        W 4954   3.354   4.686   2.606
  755W        W 4955   4.590   3.719   1.992
  756W        W 4956   4.297   2.438  10.976
  757W        W 4957   8.579   1.937   9.366
  758W        W 4958  11.305   4.250   9.398
  759W        W 4959   9.456   5.530  10.011
  760W        W 4960   8.380   8.075  10.008
  761W        W 4961   6.945   4.183   0.578
  762W        W 4962   1.268   5.337   1.257
  763W        W 4963   3.460   3.247  10.388
  764W        W 4964   4.709   0.378   9.389
  765W        W 4965   9.770   6.724   8.210
  766W        W 4966   8.185   0.441   9.971
  767W        W 4967   6.321   6.120  11.476
  768W        W 4968   5.174   4.834  11.741
  769W        W 4969   2.248   3.842   8.940
  770W        W 4970  11.493  11.221   0.983
  771W        W 4971   9.952   6.175   8.915
  772W        W 4972   1.130   9.534   9.018
  773W        W 4973   6.284   5.292   1.757
  774W        W 4974   7.928   9.796  11.797
  775W        W 4975   4.554   2.299  10.019
  776W        W 4976   0.398   0.317   1.933
  777W        W 4977   7.495   1.036   3.030
  778W        W 4978   7.469   1.475  10.488
  779W        W 4979   0.068   7.291   0.337
  780W        W 4980  10.702   2.937   9.416
  781W        W 4981   8.475   2.384  11.236
  782W        W 4982   5.753   3.684   2.294
  783W        W 4983   7.230   8.449  11.945
  784W        W 4984   7.799   4.230   1.587
  785W        W 4985   0.139   6.147   9.859
  786W        W 4986   4.763   4.117   9.602
  787W        W 4987   7.668   9.553   9.770
  788W        W 4988   5.577   0.286  11.545
  789W        W 4989   5.553   9.894   8.562
  790W        W 4990  11.249   2.216  10.614
  791W        W 4991   7.795   7.919   0.602
  792W        W 4992  11.059   7.008  11.938
  793W        W 4993   7.962   4.290   2.822
  794W        W 4994   6.752   8.074   0.248
  795W        W 4995  11.274   0.383   9.925
  796W        W 4996   7.557  10.598   2.627
  797W        W 4997   4.540   0.841  10.336
  798W        W 4998   7.459   5.224  11.761
  799W        W 4999   7.217   0.879   9.799
  800W        W 5000   6.626  11.348   9.053
  801W        W 5001   7.950   6.158   8.733
  802W        W 5002   4.611   3.080   0.306
  803W        W 5003   3.053   9.054  11.470
  804W        W 5004   7.546   1.704  11.075
  805W        W 5005   8.838   7.990   2.011
  806W        W 5006  11.309  10.788   0.746
  807W        W 5007   0.790   7.515  11.766
  808W        W 5008   4.727   7.487  11.321
  809W        W 5009   1.028   7.962   9.591
  810W        W 5010   9.844   6.546  11.778
  811W        W 5011   0.091  11.460  11.761
  812W        W 5012  10.544   0.334   9.261
  813W        W 5013   5.352   6.616   2.086
  814W        W 5014   2.904  10.124   1.789
  815W        W 5015   5.324   6.748  11.622
  816W        W 5016  10.224   5.679   9.445
  817W        W 5017  11.074   4.480  10.370
  818W        W 5018   6.451   3.769   8.955
  819W        W 5019   4.198   6.529   2.209
  820W        W 5020   4.035   6.704  10.021
  821W        W 5021   8.862   9.921  11.138
  822W        W 5022   8.949   1.094  11.439
  823W        W 5023   9.714   8.147   1.749
  824W        W 5024   3.731   9.496   2.303
  825W        W 5025   0.271   7.503   1.926
  826W        W 5026   4.704   9.816   8.829
  827W        W 5027   7.088   9.365  11.695
  828W        W 5028   5.430  10.344  10.316
  829W        W 5029   5.474   3.786   8.652
  830W        W 5030  10.465  11.348   9.854
  831W        W 5031  11.457   8.466  10.806
  832W        W 5032   1.318  10.902   3.034
  833W        W 5033   8.896   1.442  10.681
  834W        W 5034   7.258   0.081   9.701
  835W        W 5035  10.332   5.656   0.402
  836W        W 5036   8.625   3.724   8.173
  837W        W 5037  10.335   7.289  10.359
  838W        W 5038  10.325   2.928   9.758
  839W        W 5039   0.449   2.207  10.784
  840W        W 5040  10.935   0.063   0.788
  841W        W 5041   7.883   5.721   0.332
  842W        W 5042  10.870   0.712   9.894
  843W        W 5043   4.069   5.533  11.790
  844W        W 5044   3.733   8.938  10.089
  845W        W 5045   9.538  10.562  11.892
  846W        W 5046   4.668   0.491   0.961
  847W        W 5047   1.005   2.703   2.128
  848W        W 5048   1.975   0.446  11.054
  849W        W 5049  10.908   6.172  11.800
  850W        W 5050   9.352   5.667   0.669
  851W        W 5051   5.920   3.650   8.952
  852W        W 5052   1.645   9.344   2.145
  853W        W 5053   0.008   7.170   3.513
  854W        W 5054   8.014   7.206   2.552
  855W        W 5055   0.865   3.284  11.473
  856W        W 5056   6.564   0.285   1.989
  857W        W 5057   8.084   0.502   3.312
  858W        W 5058  10.697   9.787  11.516
  859W        W 5059   7.709   2.227   2.172
  860W        W 5060   5.111   7.007  10.452
  861W        W 5061   9.644   2.063   1.808
  862W        W 5062   6.633  11.272  10.772
  863W        W 5063   4.410   9.742   0.944
  864W        W 5064   5.936   6.623  10.414
  865W        W 5065   1.228   7.593   9.224
  866W        W 5066   1.896  10.615   9.855
  867W        W 5067  10.741   8.345   0.365
  868W        W 5068   8.864   9.965   1.050
  869W        W 5069   0.697   5.972   2.818
  870W        W 5070  10.833   9.592  10.072
  871W        W 5071   9.995  10.082   1.692
  872W        W 5072   2.771   2.272   3.633
  873W        W 5073   5.612  11.466   3.144
  874W        W 5074  10.982  11.154   9.037
  875W        W 5075   7.987   1.854   1.947
  876W        W 5076   2.972   0.662   9.544
  877W        W 5077  10.838   9.167   9.754
  878W        W 5078   4.620   1.934   2.508
  879W        W 5079   5.455   7.156  11.922
  880W        W 5080   8.579   3.226  11.295
  881W        W 5081   9.974  10.001   9.244
  882W        W 5082   0.347   6.093   9.402
  883W        W 5083   4.119   1.606  11.948
  884W        W 5084   8.496   1.732   8.894
  885W        W 5085  10.504   9.800   0.414
  886W        W 5086   4.198   7.225  10.898
  887W        W 5087   5.497   9.900   2.443
  888W        W 5088   4.983   6.912  11.952
  889W        W 5089   5.042   4.532   1.235
  890W        W 5090   4.361  11.278   2.980
  891W        W 5091   7.105   7.486   2.646
  892W        W 5092  11.154  10.255   2.351
  893W        W 5093   0.509   9.990   1.882
  894W        W 5094   0.813   0.676   9.106
  895W        W 5095   5.655   0.891  11.679
  896W        W 5096   7.849  10.397   0.280
  897W        W 5097   6.653   7.184   1.762
  898W        W 5098   9.423   7.333   1.867
  899W        W 5099   6.434   3.199   9.550
  900W        W 5100   6.169   6.989   3.059
  901W        W 5101   6.185   3.554  10.294
  902W        W 5102   3.386   9.331   0.273
  903W        W 5103   3.873   1.657  10.923
  904W        W 5104   2.007   0.462   9.528
  905W        W 5105   1.906   1.556   2.727
  906W        W 5106   5.165   6.947   9.249
  907W        W 5107  10.623   5.041  10.365
  908W        W 5108   8.946   9.304   9.340
  909W        W 5109   1.362   3.164   9.795
  910W        W 5110   3.813   3.722   2.171
  911W        W 5111   5.887   7.471   9.316
  912W        W 5112   6.729   7.807   3.229
  913W        W 5113   6.400  10.004   2.927
  914W        W 5114   0.902   3.647   9.313
  915W        W 5115   5.689  10.395  10.784
  916W        W 5116   3.532   0.805  10.473
  917W        W 5117   7.105   6.923   9.790
  918W        W 5118   9.727  11.436  10.315
  919W        W 5119   4.961   8.361   0.264
  920W        W 5120   7.063   0.482   2.693
  921W        W 5121   0.310   7.340  10.338
  922W        W 5122   3.577  10.358   2.507
  923W        W 5123   6.970   7.421   9.821
  924W        W 5124   9.044   6.446   8.392
  925W        W 5125   3.945   9.843  11.567
  926W        W 5126  10.425   7.652  11.528
  927W        W 5127   9.902   6.677  10.766
  928W        W 5128   2.828   1.423   3.365
  929W        W 5129   2.967   9.870   9.472
  930W        W 5130   7.633   6.679   0.309
  931W        W 5131   9.366  10.592   0.369
  932W        W 5132   0.240   4.604   0.818
  933W        W 5133  11.064   2.659  10.793
  934W        W 5134   1.830  10.405   2.628
  935W        W 5135   2.445   0.700   1.631
  936W        W 5136   9.818   4.146  11.910
  937W        W 5137  10.027   3.701  11.127
  938W        W 5138   1.353   7.531   3.293
  939W        W 5139   5.040   3.631  10.071
  940W        W 5140   8.664  10.512   0.907
  941W        W 5141   1.881   8.387   1.552
  942W        W 5142   9.340   2.896   1.565
  943W        W 5143   9.251   5.748   8.436
  944W        W 5144   6.781   7.576   0.783
  945W        W 5145   3.126   7.448   0.210
  946W        W 5146   4.763   9.518   3.224
  947W        W 5147   4.487   1.201  11.458
  948W        W 5148   7.610   3.340   2.454
  949W        W 5149   3.146  10.364  11.775
  950W        W 5150   6.687   8.983   9.831
  951W        W 5151   0.326   2.614   9.986
  952W        W 5152   2.319   7.200   9.038
  953W        W 5153   6.259   3.780  11.446
  954W        W 5154   0.671   7.308   2.657
  955W        W 5155   3.631   9.416   0.738
  956W        W 5156   0.508   1.698   9.067
  957W        W 5157  11.460   0.006   8.878
  958W        W 5158   6.750   9.793   0.379
  959W        W 5159   5.883   7.299  11.690
  960W        W 5160   4.952   7.986  10.663
  961W        W 5161   3.279   2.145   9.210
  962W        W 5162   3.703   1.980  11.310
  963W        W 5163   7.240   3.121  10.150
  964W        W 5164   7.722   9.556   0.242
  965W        W 5165   9.934   5.108   9.250
  966W        W 5166   4.459  11.008   0.882
  967W        W 5167   9.768   2.395  11.290
  968W        W 5168  10.794   9.405   9.153
  969W        W 5169   5.294   5.110   0.347
  970W        W 5170   9.145   5.932  10.241
  971W        W 5171   6.078   9.473   2.987
  972W        W 5172  11.290   6.525  11.886
  973W        W 5173   1.004   0.284   9.591
  974W        W 5174   1.011   0.517  10.419
  975W        W 5175   7.342   7.951  10.448
  976W        W 5176   0.225   0.780   2.851
  977W        W 5177   6.078   7.571  11.277
  978W        W 5178   4.547   4.544   1.335
  979W        W 5179  10.355  10.837   1.968
  980W        W 5180   3.082   0.835   1.225
  981W        W 5181   8.616   4.711   1.744
  982W        W 5182   4.704   7.584  10.318
  983W        W 5183   8.610   4.799  11.990
  984W        W 5184   3.225   7.392  11.712
  985W        W 5185   7.278   2.320   1.850
  986W        W 5186   8.445   2.728   3.555
  987W        W 5187   5.700  10.824   9.464
  988W        W 5188  11.379   8.649  11.628
  989W        W 5189   8.994   4.548   8.343
  990W        W 5190   9.319   0.352   1.072
  991W        W 5191   7.061   5.515  11.993
  992W        W 5192   3.929   2.114   2.910
  993W        W 5193   8.127   6.542   1.366
  994W        W 5194   3.905   6.652   8.982
  995W        W 5195   5.270  11.478   9.696
  996W        W 5196   6.918   8.604   1.315
  997W        W 5197  10.924  10.102  11.881
  998W        W 5198   1.907   5.031  10.749
  999W        W 5199   4.291   8.159   1.387
 1000W        W 5200   0.986   5.009   2.612
 1001W        W 5201  10.390   8.964  11.869
 1002W        W 5202   2.684   1.186  10.323
 1003W        W 5203   8.887   2.806   1.811
 1004W        W 5204   7.982   9.041   2.655
 1005W        W 5205   7.142   3.089  10.682
 1006W        W 5206  11.022   5.669  11.846
 1007W        W 5207   2.706   3.104   9.880
 1008W        W 5208   3.924   0.731   1.570
 1009W        W 5209   7.217   9.025  11.264
 1010W        W 5210   7.584   3.622  10.950
 1011W        W 5211   2.680   4.115   1.507
 1012W        W 5212   1.399   3.843   3.360
 1013W        W 5213  10.915  10.630   1.688
 1014W        W 5214   0.777   6.054   2.324
 1015W        W 5215  10.186   8.069   8.836
 1016W        W 5216   3.759  10.438   1.962
 1017W        W 5217  10.760   2.333   9.288
 1018W        W 5218   0.539   0.481   9.498
 1019W        W 5219   6.137  11.442   3.315
 1020W        W 5220   5.247   7.262   2.783
 1021W        W 5221   9.490  10.675   3.260
 1022W        W 5222   0.052   5.868   3.607
 1023W        W 5223   5.990   9.940   3.243
 1024W        W 5224   5.180   6.546   9.598
 1025W        W 5225   6.744  10.960  10.325
 1026W        W 5226   7.877   2.214  10.230
 1027W        W 5227   0.189  10.912   1.768
 1028W        W 5228   9.100   5.075   8.135
 1029W        W 5229   5.637   3.735   0.263
 1030W        W 5230   0.866   2.835   3.136
 1031W        W 5231   1.283   2.547  10.423
 1032W        W 5232   9.076   2.097   9.475
 1033W        W 5233   6.877   8.108  10.701
 1034W        W 5234   2.915   8.045   0.007
 1035W        W 5235   4.046   0.234   2.314
 1036W        W 5236   9.444   3.730   8.958
 1037W        W 5237  10.798   6.586   0.095
 1038W        W 5238   8.250   4.898   0.554
 1039W        W 5239   0.898  11.154   8.991
 1040W        W 5240  11.079   9.652   8.820
 1041W        W 5241   8.877   7.637   3.166
 1042W        W 5242   0.940   2.055   8.671
 1043W        W 5243   5.927   1.284   1.203
 1044W        W 5244   5.742   5.797   2.496
 1045W        W 5245   7.454   8.568   9.642
 1046W        W 5246  11.208   0.727   2.539
 1047W        W 5247   9.014   9.010  10.726
 1048W        W 5248   5.593   4.544  11.196
 1049W        W 5249   2.866   0.430   0.752
 1050W        W 5250   4.198  10.090   8.751
 1051W        W 5251   3.181   6.727  10.779
 1052W        W 5252   0.485  11.470   8.735
 1053W        W 5253   7.105   0.758   1.836
 1054W        W 5254   5.246   0.003   3.533
 1055W        W 5255   1.586   7.211  10.222
 1056W        W 5256   4.761   8.622   8.593
 1057W        W 5257   3.490   0.283   3.241
 1058W        W 5258   3.193   5.744   1.531
 1059W        W 5259   7.291   6.071   1.427
 1060W        W 5260   6.131   2.162   1.269
 1061W        W 5261   3.672   8.530   3.176
 1062W        W 5262   7.600   9.732   2.316
 1063W        W 5263   4.831   9.619  10.276
 1064W        W 5264   5.493   7.581   1.255
 1065W        W 5265   7.429   4.960   9.449
 1066W        W 5266  11.317   0.912   9.983
 1067W        W 5267   3.273   9.404   3.213
 1068W        W 5268   5.732   7.474   1.667
 1069W        W 5269   2.782   4.572  11.181
 1070W        W 5270   9.808   1.879  11.398
 1071W        W 5271   0.189   1.300   8.911
 1072W        W 5272   9.528   3.146  11.062
 1073W        W 5273   1.433   3.924  10.438
 1074W        W 5274   4.313   4.162   0.642
 1075W        W 5275   5.758  10.317   2.281
 1076W        W 5276   9.144   3.189   2.590
 1077W        W 5277   5.820  11.090   1.726
 1078W        W 5278   1.203   2.802   3.512
 1079W        W 5279  10.912  11.437  10.864
 1080W        W 5280   7.665  11.300   2.127
 1081W        W 5281   7.081   0.999   2.684
 1082W        W 5282   2.531   4.367  11.592
 1083W        W 5283   0.999   4.603  10.911
 1084W        W 5284   2.033   1.481   8.471
 1085W        W 5285   7.297   2.207  11.879
 1086W        W 5286   0.769   3.764   1.317
 1087W        W 5287   9.750   9.522   2.001
 1088W        W 5288   7.772   3.885  11.370
 1089W        W 5289   6.397   7.424   3.157
 1090W        W 5290   8.665   5.111   0.399
 1091W        W 5291   4.790   9.124   3.572
 1092W        W 5292   4.272   6.515   9.527
 1093W        W 5293   4.171   4.162   1.218
 1094W        W 5294   8.085   5.157   3.946
 1095W        W 5295   7.086   3.947   9.506
 1096W        W 5296   2.862   1.271   9.285
 1097W        W 5297   5.528   3.241   3.058
 1098W        W 5298   6.948   0.978   9.356
 1099W        W 5299   7.962   9.435   2.983
 1100W        W 5300   4.535   6.523   9.960
 1101W        W 5301   5.125   2.380   1.352
 1102W        W 5302   4.538   6.554  11.457
 1103W        W 5303   7.675   7.479   0.872
 1104W        W 5304   5.458  10.363   0.278
 1105W        W 5305  10.917   2.277  11.982
 1106W        W 5306   5.109   2.041  10.442
 1107W        W 5307   4.662   5.590  11.003
 1108W        W 5308   2.888   0.856   2.655
 1109W        W 5309   1.182   0.437   0.224
 1110W        W 5310  10.483   0.789   1.898
 1111W        W 5311   6.046   7.881  10.501
 1112W        W 5312   5.138   4.464   3.414
 1113W        W 5313   0.540   6.172   8.906
 1114W        W 5314   3.817   4.080   0.855
 1115W        W 5315   4.857   2.745   9.028
 1116W        W 5316   3.292   9.138  10.564
 1117W        W 5317   6.683   9.021  11.703
 1118W        W 5318   5.816   3.262  11.681
 1119W        W 5319   5.096   4.670   2.185
 1120W        W 5320   5.344   6.101   9.993
 1121W        W 5321   4.604   5.113  10.700
 1122W        W 5322   5.246   0.322   1.810
 1123W        W 5323   2.585  11.067   1.535
 1124W        W 5324   1.799   7.782  10.917
 1125W        W 5325   3.627   0.734   0.190
 1126W        W 5326   9.348   0.370  11.866
 1127W        W 5327   4.974   0.224   8.831
 1128W        W 5328   8.168   8.925  11.238
 1129W        W 5329   7.465   0.162  11.940
 1130W        W 5330  10.374  10.311   3.136
 1131W        W 5331   0.595   8.781   1.293
 1132W        W 5332   7.485   9.411   3.302
 1133W        W 5333   0.485   8.191   2.108
 1134W        W 5334  10.451   6.929   1.862
 1135W        W 5335   6.429   0.046  11.905
 1136W        W 5336   5.737   7.550   2.172
 1137W        W 5337   7.003   6.513  11.817
 1138W        W 5338   9.887   8.095   1.282
 1139W        W 5339   6.069   9.625   9.138
 1140W        W 5340   7.221  10.886   3.291
 1141W        W 5341   5.247  11.289   0.472
 1142W        W 5342   4.596  11.407  10.611
 1143W        W 5343  10.474   0.990   8.797
 1144W        W 5344   6.183   2.969   1.715
 1145W        W 5345  11.233   2.709   1.406
 1146W        W 5346   0.907   7.064  11.991
 1147W        W 5347   9.481  10.743   2.755
 1148W        W 5348  10.872   1.124  10.190
 1149W        W 5349   3.432   0.840   1.641
 1150W        W 5350   8.847   2.469   0.926
 1151W        W 5351   8.468  10.246   1.320
 1152W        W 5352   0.973   7.110   9.262
 1153W        W 5353   7.387   1.136   0.729
 1154W        W 5354   6.638   7.577   0.285
 1155W        W 5355   5.090   9.851  11.813
 1156W        W 5356  11.052   3.214   1.337
 1157W        W 5357   1.410   1.465  10.643
 1158W        W 5358   5.016   1.708   2.279
 1159W        W 5359   0.113   6.476   0.514
 1160W        W 5360   0.386   6.623  11.522
 1161W        W 5361   4.823   3.306  11.458
 1162W        W 5362   4.807  11.322  11.580
 1163W        W 5363   7.956   4.417   2.057
 1164W        W 5364   5.143   0.887   2.499
 1165W        W 5365   9.836   0.876   1.066
 1166W        W 5366   8.765   3.582   8.635
 1167W        W 5367   4.101   2.388   9.809
 1168W        W 5368   2.462   1.880   0.968
 1169W        W 5369   0.461  10.843   3.397
 1170W        W 5370   0.113   8.225  10.390
 1171W        W 5371   2.277   9.668   8.934
 1172W        W 5372   5.023   5.659   1.372
 1173W        W 5373   9.307   4.219   9.076
 1174W        W 5374  11.276   5.226   0.539
 1175W        W 5375   1.743   1.042   8.818
 1176W        W 5376   3.569   7.237   1.035
 1177W        W 5377   3.611   4.938   9.450
 1178W        W 5378   7.377  10.892   1.218
 1179W        W 5379   3.139   1.190  11.067
 1180W        W 5380   9.896   8.996  11.077
 1181W        W 5381   3.438   7.462   9.842
 1182W        W 5382  11.224   1.874  11.883
 1183W        W 5383  11.498   1.345   9.803
 1184W        W 5384   7.865   4.604   1.256
 1185W        W 5385   7.882  10.680  10.494
 1186W        W 5386   9.997   5.229   2.939
 1187W        W 5387   7.514   4.119  10.933
 1188W        W 5388   0.082   0.857  11.740
 1189W        W 5389   5.842   1.334  11.851
 1190W        W 5390   2.782   4.064  10.997
 1191W        W 5391   6.772   8.202  11.598
 1192W        W 5392   9.209   1.142  10.432
 1193W        W 5393   4.814   0.167   9.859
 1194W        W 5394   7.984   5.223   1.439
 1195W        W 5395   5.058  10.872   1.731
 1196W        W 5396   8.314  10.985   0.930
 1197W        W 5397  10.280   8.956   0.994
 1198W        W 5398  11.384   5.107   3.566
 1199W        W 5399   1.756   5.215   8.999
 1200W        W 5400   2.563   7.996   0.939
 1201W        W 5401   6.163   6.693   3.816
 1202W        W 5402   7.031   5.641   1.440
 1203W        W 5403   8.730   4.073   2.283
 1204W        W 5404   0.022   1.895   9.065
 1205W        W 5405   9.060   2.380   2.981
 1206W        W 5406   1.439   1.745   0.181
 1207W        W 5407   1.769   2.378   1.794
 1208W        W 5408   0.813   9.804   9.878
 1209W        W 5409   6.890   9.938  10.922
 1210W        W 5410   4.531   4.804   8.253
 1211W        W 5411   7.927   8.936  10.391
 1212W        W 5412   4.654   3.813   0.860
 1213W        W 5413   8.956   9.871  10.618
 1214W        W 5414   1.979   7.566  11.354
 1215W        W 5415   6.024   3.596   4.115
 1216W        W 5416   0.006   0.406  10.397
 1217W        W 5417   8.002  10.778  11.546
 1218W        W 5418   5.830   3.100   1.383
 1219W        W 5419   2.290   4.099  10.579
 1220W        W 5420   0.689   8.723   9.029
 1221W        W 5421   6.213   4.554   9.392
 1222W        W 5422  11.378   9.789   1.633
 1223W        W 5423   1.776  10.091  11.563
 1224W        W 5424   0.913   1.920   9.376
 1225W        W 5425   8.445   9.526   2.791
 1226W        W 5426   5.481   0.844   9.581
 1227W        W 5427   5.417   3.325   1.098
 1228W        W 5428   9.223   2.029   0.387
 1229W        W 5429   5.701   9.001   2.013
 1230W        W 5430  10.012   9.926   2.713
 1231W        W 5431   6.651   4.187   3.150
 1232W        W 5432   9.919   9.887   1.216
 1233W        W 5433   9.227   0.613  10.421
 1234W        W 5434   3.786   8.033  10.008
 1235W        W 5435   8.708   2.188   0.250
 1236W        W 5436   9.095   9.480   1.374
 1237W        W 5437   1.826   2.625  10.130
 1238W        W 5438   8.909   7.177   9.991
 1239W        W 5439   5.622   9.542   8.915
 1240W        W 5440   3.133   2.365  10.124
 1241W        W 5441   1.256   4.728   0.138
 1242W        W 5442  11.417   1.882   2.006
 1243W        W 5443   9.439   5.140   9.048
 1244W        W 5444  11.250  11.255   0.530
 1245W        W 5445   2.595  10.756   9.567
 1246W        W 5446   8.549   9.543   0.789
 1247W        W 5447   3.871   0.426   9.691
 1248W        W 5448   5.931   4.751  11.845
 1249W        W 5449   0.770   0.093   0.262
 1250W        W 5450   7.206   2.302   9.363
 1251W        W 5451   2.583   2.331   0.413
 1252W        W 5452   3.191   1.746   2.509
 1253W        W 5453  10.863   7.994  11.591
 1254W        W 5454   8.492   1.745   1.881
 1255W        W 5455   9.368   7.628   3.072
 1256W        W 5456   8.487   5.736  11.831
 1257W        W 5457   5.639   2.128  10.885
 1258W        W 5458   2.131   6.536   8.531
 1259W        W 5459  10.885   4.122   9.109
 1260W        W 5460   4.822  10.236   9.159
 1261W        W 5461   3.353   6.097  10.202
 1262W        W 5462  11.244   2.330   2.938
 1263W        W 5463   1.168   1.800  10.313
 1264W        W 5464   8.900   9.937   2.044
 1265W        W 5465   3.218   1.586   9.604
 1266W        W 5466   0.744  10.694   8.797
 1267W        W 5467  10.528   1.341  11.043
 1268W        W 5468  11.360   8.818  11.148
 1269W        W 5469   8.766   3.197   3.535
 1270W        W 5470   2.180  11.387   1.390
 1271W        W 5471   3.440  11.148   2.528
 1272W        W 5472   5.896   4.174  11.449
 1273W        W 5473   2.269   9.023   1.004
 1274W        W 5474   0.895   0.403   2.626
 1275W        W 5475   7.657  11.102   2.583
 1276W        W 5476   3.793   8.153   8.717
 1277W        W 5477   6.100   6.504   0.305
 1278W        W 5478  11.351   7.420  11.912
 1279W        W 5479   1.537   4.377   8.987
 1280W        W 5480   5.510  11.420   2.636
 1281W        W 5481  11.434   7.581   1.093
 1282W        W 5482   6.111   4.849   0.854
 1283W        W 5483   4.670   3.582  10.979
 1284W        W 5484   8.520   2.474   1.362
 1285W        W 5485   1.959  10.889  10.944
 1286W        W 5486   7.709   4.371   3.269
 1287W        W 5487   6.681   8.363   8.996
 1288W        W 5488   7.725   2.246   2.685
 1289W        W 5489   1.588   7.044  11.528
 1290W        W 5490   7.099   1.882  11.287
 1291W        W 5491   5.562   6.608   2.612
 1292W        W 5492   9.019   3.316   1.151
 1293W        W 5493   9.393   7.450   0.415
 1294W        W 5494   8.000   2.938  11.861
 1295W        W 5495   0.500   7.104  11.710
 1296W        W 5496  10.939  10.948   2.614
 1297W        W 5497   5.437   2.363   3.515
 1298W        W 5498   1.111   2.450  11.674
 1299W        W 5499   9.923   9.460   2.476
 1300W        W 5500   0.993   8.380   8.317
 1301W        W 5501   9.175   4.220   2.113
 1302W        W 5502   6.206  10.411   1.995
 1303W        W 5503   5.688   4.128   3.535
 1304W        W 5504   3.779   9.817   8.913
 1305W        W 5505  11.027  11.024  10.496
 1306W        W 5506   3.828   9.805  10.608
 1307W        W 5507   2.536   7.519   1.146
 1308W        W 5508  10.895  10.008   0.889
 1309W        W 5509   0.962   3.670   1.816
 1310W        W 5510   2.137   0.855   9.880
 1311W        W 5511   7.014   1.273   1.025
 1312W        W 5512   6.694   4.320  11.774
 1313W        W 5513  10.927   8.523   1.862
 1314W        W 5514   1.046   0.825  10.869
 1315W        W 5515   3.604  11.238  10.385
 1316W        W 5516   9.332   1.041   2.578
 1317W        W 5517   9.489   2.400   0.109
 1318W        W 5518   1.769  10.819   0.128
 1319W        W 5519  10.032   6.103  11.981
 1320W        W 5520   6.558   4.774   1.116
 1321W        W 5521   2.768   7.392   8.876
 1322W        W 5522   8.950  11.477   3.229
 1323W        W 5523  10.989   9.965   3.686
 1324W        W 5524   1.077   5.622   3.376
 1325W        W 5525   2.395   7.935   1.447
 1326W        W 5526   0.435   3.145   2.799
 1327W        W 5527   6.421   6.692   0.652
 1328W        W 5528   3.222  10.137   3.244
 1329W        W 5529   3.587   0.351   1.424
 1330W        W 5530   2.555   1.105   9.678
 1331W        W 5531   3.328   7.162   0.576
 1332W        W 5532  11.036   1.652   9.321
 1333W        W 5533   2.618   3.504  11.802
 1334W        W 5534   5.732   5.253   1.201
 1335W        W 5535   6.147   2.894  11.806
 1336W        W 5536   6.011   1.313  10.291
 1337W        W 5537   4.624   7.954  11.549
 1338W        W 5538  11.320   9.293   9.122
 1339W        W 5539  11.314   9.774   0.715
 1340W        W 5540   7.471   6.838   9.431
 1341W        W 5541   3.323  10.614   9.121
 1342W        W 5542   2.255   6.930   2.295
 1343W        W 5543   8.715   4.690  10.621
 1344W        W 5544   8.972   3.282   3.070
 1345W        W 5545   7.499   7.029   2.663
 1346W        W 5546   9.089   6.479   0.949
 1347W        W 5547   5.333   0.023   9.169
 1348W        W 5548   0.875   9.783  11.828
 1349W        W 5549  10.727  11.127   1.787
 1350W        W 5550   5.781  10.475   2.817
 1351W        W 5551   3.914   1.599   2.066
 1352W        W 5552   3.224   4.662  11.864
 1353W        W 5553   7.033   9.503   3.025
 1354W        W 5554   4.058   1.292  10.613
 1355W        W 5555   3.599  10.725  10.342
 1356W        W 5556   5.390   4.042  11.418
 1357W        W 5557   6.961   9.028   1.067
 1358W        W 5558   8.909   1.436  10.149
 1359W        W 5559   1.933   3.865  10.281
 1360W        W 5560   0.239   5.005   9.464
 1361W        W 5561   3.344   7.644  11.287
 1362W        W 5562   6.488   2.584   1.821
 1363W        W 5563   4.154  11.280   9.414
 1364W        W 5564   1.279   4.359   3.404
 1365W        W 5565   4.100   8.188   2.276
 1366W        W 5566   5.627   1.199  10.912
 1367W        W 5567   1.826   7.113   9.781
 1368W        W 5568   1.806   3.607  11.719
 1369W        W 5569   3.123   8.681   1.313
 1370W        W 5570   8.165   7.639   0.813
 1371W        W 5571   4.573   1.861   9.412
 1372W        W 5572   7.713   1.473   2.208
 1373W        W 5573   7.647   1.410   9.250
 1374W        W 5574   9.277   0.353   8.220
 1375W        W 5575   3.285   2.575   3.556
 1376W        W 5576   2.974   9.634   1.671
 1377W        W 5577   1.288   0.284  10.056
 1378W        W 5578   3.991   4.057  10.558
 1379W        W 5579   2.178   5.312   1.136
 1380W        W 5580   5.099   3.619   3.939
 1381W        W 5581   3.744   8.796  11.106
 1382W        W 5582   7.111   8.923   9.531
 1383W        W 5583   9.049  10.344   9.296
 1384W        W 5584   6.568   1.407   3.362
 1385W        W 5585   2.170   9.961   3.128
 1386W        W 5586   4.158   6.212  10.771
 1387W        W 5587   4.141   9.357   0.745
 1388W        W 5588   4.538   0.108   2.358
 1389W        W 5589   1.434   1.137  11.044
 1390W        W 5590   2.694  11.135  11.734
 1391W        W 5591   8.476   1.002   1.095
 1392W        W 5592   5.086   3.274  10.966
 1393W        W 5593   9.317   0.781   3.009
 1394W        W 5594   3.295   2.629   2.943
 1395W        W 5595  11.210   2.186   3.436
 1396W        W 5596   8.513   9.614   3.619
 1397W        W 5597   5.990   7.288   8.610
 1398W        W 5598   3.084   2.364   0.465
 1399W        W 5599   3.621  10.614  11.751
 1400W        W 5600   2.343   4.146   0.866
 1401W        W 5601   8.437   0.748  10.714
 1402W        W 5602  10.288  10.489   9.739
 1403W        W 5603   2.738   7.858   0.457
 1404W        W 5604   8.426   8.833   8.570
 1405W        W 5605   8.182   5.981   8.286
 1406W        W 5606   5.758  10.309   1.744
 1407W        W 5607   6.612   8.087   0.718
 1408W        W 5608   5.654   2.343   8.670
 1409W        W 5609   3.492   1.907   2.133
 1410W        W 5610   3.315   5.718  10.553
 1411W        W 5611  11.303   2.721   3.489
 1412W        W 5612   6.028   2.822   3.668
 1413W        W 5613   6.188  10.552   1.509
 1414W        W 5614   9.673   1.465  11.117
 1415W        W 5615  10.446   0.700   0.447
 1416W        W 5616   2.573   5.672   2.660
 1417W        W 5617   6.091   8.861   2.799
 1418W        W 5618   5.590   8.642   9.925
 1419W        W 5619  10.994   9.918   0.359
 1420W        W 5620   6.531   4.362   8.964
 1421W        W 5621   8.681   8.100   0.064
 1422W        W 5622   7.444   4.327  10.314
 1423W        W 5623   4.644   5.635  10.492
 1424W        W 5624   8.823   4.813   0.815
 1425W        W 5625   4.905   9.612   3.689
 1426W        W 5626   2.391   7.064   1.431
 1427W        W 5627   9.946   2.839  11.097
 1428W        W 5628   1.365   1.661   9.328
 1429W        W 5629   9.698   9.184   0.409
 1430W        W 5630  10.416   1.663   0.219
 1431W        W 5631   4.192   4.695   9.356
 1432W        W 5632   2.225   6.390   9.399
 1433W        W 5633   9.554   6.511   9.080
 1434W        W 5634   7.712   9.410  10.274
 1435W        W 5635   2.427   8.163   1.906
 1436W        W 5636   8.085   8.605   8.914
 1437W        W 5637   9.741   2.096   0.740
 1438W        W 5638   8.975   7.509  11.503
 1439W        W 5639   8.473   4.749   2.680
 1440W        W 5640   8.608   6.475   9.663
 1441W        W 5641   1.695  10.967   1.866
 1442W        W 5642   8.150   6.413   9.459
 1443W        W 5643  11.331   6.003   3.148
 1444W        W 5644   8.034   0.269  11.327
 1445W        W 5645   7.569   7.167   0.483
 1446W        W 5646   0.316   5.843   2.256
 1447W        W 5647   5.214  10.814  10.260
 1448W        W 5648   7.348   7.827   2.306
 1449W        W 5649   6.038   2.017   8.860
 1450W        W 5650   6.327   6.066  10.127
 1451W        W 5651   8.692   4.078   3.346
 1452W        W 5652   5.602   9.300  11.309
 1453W        W 5653   7.262   9.751   0.043
 1454W        W 5654   8.667   3.718   0.423
 1455W        W 5655   8.878  11.188  11.906
 1456W        W 5656   4.958  11.176   0.902
 1457W        W 5657   4.895   3.262   9.181
 1458W        W 5658   1.918   4.743   8.896
 1459W        W 5659   5.441   6.614  10.360
 1460W        W 5660   1.252   1.244   0.046
 1461W        W 5661   6.224   8.007   0.242
 1462W        W 5662   9.771   8.632   0.578
 1463W        W 5663  10.761   2.771   1.210
 1464W        W 5664   0.294  10.362  11.313
 1465W        W 5665   6.021   0.878   0.044
 1466W        W 5666   1.377   9.090  11.639
 1467W        W 5667   2.295   1.429  10.601
 1468W        W 5668   2.085   9.365   9.339
 1469W        W 5669   5.222   9.284   3.291
 1470W        W 5670   6.501   9.496   2.283
 1471W        W 5671   5.981   5.519  10.349
 1472W        W 5672   8.462   3.061   3.103
 1473W        W 5673   3.916   0.443  10.929
 1474W        W 5674   7.257   5.077   9.943
 1475W        W 5675   7.582   5.885  11.210
 1476W        W 5676   2.942   1.258   0.421
 1477W        W 5677   8.421   9.756   1.269
 1478W        W 5678  10.695   5.267  11.768
 1479W        W 5679   3.204   4.580   3.451
 1480W        W 5680   0.578   0.810  11.754
 1481W        W 5681   8.575   6.928  10.270
 1482W        W 5682   0.680   8.153  10.046
 1483W        W 5683   0.376   0.767  11.283
 1484W        W 5684   5.941   9.008   1.008
 1485W        W 5685   4.739   0.489   1.824
 1486W        W 5686   2.844   0.446   8.961
 1487W        W 5687   7.803   3.082   2.868
 1488W        W 5688   9.083   3.338   9.435
 1489W        W 5689   2.830   4.243   3.504
 1490W        W 5690   1.736   2.693  10.636
 1491W        W 5691  10.879   9.949   9.221
 1492W        W 5692   0.293   7.624  10.839
 1493W        W 5693   9.148   6.230   2.287
 1494W        W 5694   7.502   5.757  11.732
 1495W        W 5695   5.951   5.196  11.396
 1496W        W 5696   1.460   6.187   1.659
 1497W        W 5697   1.903   6.140   1.407
 1498W        W 5698  10.934   4.069   0.596
 1499W        W 5699   9.481   5.957   9.752
 1500W        W 5700   2.572   5.254  11.816
 1501W        W 5701   7.906   1.370   3.170
 1502W        W 5702   2.382   0.966   0.010
 1503W        W 5703   6.122   1.261  10.793
 1504W        W 5704   5.247   1.555  10.594
 1505W        W 5705   0.054   0.329   9.492
 1506W        W 5706   0.382   8.424   0.972
 1507W        W 5707   2.075   4.038  11.400
 1508W        W 5708   2.873   0.327   9.925
 1509W        W 5709   0.268   5.588   2.707
 1510W        W 5710   6.463   2.063  11.855
 1511W        W 5711   4.256   2.553  11.878
 1512W        W 5712   3.573   2.084   9.999
 1513W        W 5713   1.024   2.066   0.087
 1514W        W 5714   6.569   8.139   9.495
 1515W        W 5715   0.125  10.431   2.419
 1516W        W 5716   1.330   3.998   1.965
 1517W        W 5717   4.344  10.981   9.008
 1518W        W 5718  10.958   6.709   9.712
 1519W        W 5719   1.634  10.372   3.535
 1520W        W 5720   2.496   5.790  10.006
 1521W        W 5721   4.889   2.347   3.430
 1522W        W 5722   3.283   5.017  10.061
 1523W        W 5723   2.115   4.573  11.403
 1524W        W 5724  11.333   3.310  10.580
 1525W        W 5725   1.678   7.478   1.723
 1526W        W 5726   6.581   0.762   8.896
 1527W        W 5727   7.826   9.870  11.305
 1528W        W 5728  10.665   4.290  11.768
 1529W        W 5729   6.815   1.006  11.520
 1530W        W 5730   3.173   9.753   0.473
 1531W        W 5731   3.751   2.787   1.183
 1532W        W 5732   7.358   5.590  10.812
 1533W        W 5733   7.160   4.846  11.168
 1534W        W 5734   8.518   8.616   4.112
 1535W        W 5735   7.985   5.733  10.044
 1536W        W 5736  10.538   5.993   2.759
 1537W        W 5737   6.454   4.728  10.185
 1538W        W 5738   2.492   0.517   8.579
 1539W        W 5739   3.320   2.742  10.434
 1540W        W 5740   5.685   1.819   8.528
 1541W        W 5741   5.826   6.117   1.357
 1542W        W 5742   1.861   7.464   9.017
 1543W        W 5743   9.973   9.844  11.722
 1544W        W 5744   1.486   3.303   2.712
 1545W        W 5745   7.740   0.074   0.370
 1546W        W 5746   8.482  11.439   2.127
 1547W        W 5747   5.195   3.968   3.576
 1548W        W 5748   3.788   8.515   0.720
 1549W        W 5749   7.950   1.426   2.672
 1550W        W 5750   3.728   0.707   0.726
 1551W        W 5751   8.028   8.461   2.351
 1552W        W 5752  10.472   2.299   2.984
 1553W        W 5753   2.212   8.102   9.927
 1554W        W 5754  10.981   7.190  10.987
 1555W        W 5755   4.562   3.513   8.627
 1556W        W 5756   5.037   3.568   8.794
 1557W        W 5757   3.842   1.229   1.696
 1558W        W 5758  11.045   0.402   2.913
 1559W        W 5759  10.558   5.210   2.248
 1560W        W 5760   7.194   5.261  10.432
 1561W        W 5761   4.791   3.568   2.462
 1562W        W 5762   8.932   1.996   8.985
 1563W        W 5763   8.622   3.325   0.790
 1564W        W 5764   5.695   2.710   0.024
 1565W        W 5765   4.582  10.775   9.433
 1566W        W 5766   0.844   4.710  10.437
 1567W        W 5767   2.821   1.356   2.834
 1568W        W 5768   5.283   5.093   1.970
 1569W        W 5769   3.280   7.480   8.979
 1570W        W 5770   5.541   2.684   1.425
 1571W        W 5771   4.251   0.754   9.073
 1572W        W 5772   5.536   4.964  10.876
 1573W        W 5773  10.353   4.760  10.722
 1574W        W 5774  10.890   9.831   2.189
 1575W        W 5775   7.957   6.559   2.299
 1576W        W 5776   0.357   5.656   1.049
 1577W        W 5777   8.602   0.743   9.884
 1578W        W 5778  10.509   2.395  11.044
 1579W        W 5779   8.004   7.895   1.786
 1580W        W 5780   5.548   3.810   1.089
 1581W        W 5781   9.112   8.396   0.034
 1582W        W 5782   9.697   5.079  10.012
 1583W        W 5783   9.923   9.097   9.559
 1584W        W 5784  11.296   7.211   0.773
 1585W        W 5785   4.666  10.691  11.037
 1586W        W 5786   9.515  10.093   0.347
 1587W        W 5787   0.719   0.637   0.227
 1588W        W 5788   2.781   6.639   1.794
 1589W        W 5789   3.182   0.432  10.518
 1590W        W 5790   4.816   5.135   0.520
 1591W        W 5791   0.849   4.544   9.893
 1592W        W 5792   1.522   1.867   1.149
 1593W        W 5793   3.982   2.639   9.080
 1594W        W 5794   4.422   6.624   9.058
 1595W        W 5795   9.489   0.082   9.892
 1596W        W 5796  10.567   8.548   0.816
 1597W        W 5797  10.790   2.691   0.710
 1598W        W 5798   0.886  11.078   3.271
 1599W        W 5799   9.004  11.351   2.212
 1600W        W 5800  10.418   3.822  10.843
 1601W        W 5801   1.733   7.262  10.710
 1602W        W 5802   0.861  11.368   2.452
 1603W        W 5803   4.016   1.097   1.215
 1604W        W 5804   0.107   4.601   9.193
 1605W        W 5805  11.380  10.839   1.321
 1606W        W 5806   1.278   8.638  11.398
 1607W        W 5807   1.840   3.390   8.887
 1608W        W 5808   4.347   2.276  10.499
 1609W        W 5809   0.678   3.295   3.204
 1610W        W 5810   3.010   9.510   2.786
 1611W        W 5811   7.610   7.202  11.968
 1612W        W 5812   1.644   0.170  10.763
 1613W        W 5813   7.405   9.838  11.561
 1614W        W 5814  11.400   4.545  11.478
 1615W        W 5815  11.042   2.047   8.965
 1616W        W 5816   8.627   6.429  10.213
 1617W        W 5817   0.266  11.010  11.941
 1618W        W 5818   2.678   6.425   3.979
 1619W        W 5819   4.636   7.045  11.590
 1620W        W 5820   9.847   1.223   1.684
 1621W        W 5821   5.180   1.333   2.795
 1622W        W 5822   1.718   4.893   1.850
 1623W        W 5823   3.842   9.899   2.678
 1624W        W 5824   8.851   2.826   2.322
 1625W        W 5825   4.474   8.209   9.054
 1626W        W 5826   6.727   3.589   9.445
 1627W        W 5827   9.807   6.968   9.090
 1628W        W 5828   4.429   2.763   9.277
 1629W        W 5829   8.616   8.888   2.446
 1630W        W 5830   2.206   0.971  10.357
 1631W        W 5831   2.526   4.507   0.542
 1632W        W 5832   6.059   7.940   9.532
 1633W        W 5833   1.546   1.319   2.246
 1634W        W 5834   4.316   1.442   1.739
 1635W        W 5835   1.458   8.664   1.511
 1636W        W 5836   2.896   2.353  11.599
 1637W        W 5837   8.371   1.384   3.405
 1638W        W 5838   5.007   7.235   9.637
 1639W        W 5839   2.536   3.526   2.590
 1640W        W 5840  10.332   7.948   0.422
 1641W        W 5841   3.837   5.972   0.448
 1642W        W 5842   3.804   0.937  10.894
 1643W        W 5843   5.432   3.314   1.610
 1644W        W 5844   7.277   3.832  11.353
 1645W        W 5845   3.639   0.924   3.386
 1646W        W 5846   2.203   1.766  10.987
 1647W        W 5847   2.242   5.226   0.200
 1648W        W 5848   0.025   4.221  10.259
 1649W        W 5849   2.842   5.026   2.543
 1650W        W 5850   7.939   5.053   9.522
 1651W        W 5851   2.879   9.878   0.887
 1652W        W 5852   4.040   9.834   0.065
 1653W        W 5853   9.083   3.946  11.258
 1654W        W 5854  10.779  10.708   9.157
 1655W        W 5855  11.498   0.052   3.570
 1656W        W 5856   0.537   7.478   0.222
 1657W        W 5857   4.714   2.101  10.795
 1658W        W 5858   8.103   3.179   1.170
 1659W        W 5859   9.158   6.254   2.810
 1660W        W 5860   1.644   8.344   8.833
 1661W        W 5861  10.897   5.754   9.995
 1662W        W 5862   5.538   0.259   0.466
 1663W        W 5863   2.199   8.139   2.802
 1664W        W 5864   0.401  11.259   3.717
 1665W        W 5865   1.058   2.258   2.336
 1666W        W 5866   8.029   7.546   2.148
 1667W        W 5867   9.088   1.988   2.648
 1668W        W 5868   2.329   5.575  11.432
 1669W        W 5869   6.316   8.311  10.346
 1670W        W 5870   8.092   8.002  11.579
 1671W        W 5871   0.221   4.204   3.374
 1672W        W 5872  11.474   5.188   2.773
 1673W        W 5873   2.926  10.193   0.440
 1674W        W 5874   6.095   3.018   2.379
 1675W        W 5875   2.040   4.809   2.725
 1676W        W 5876   8.998  11.150  11.311
 1677W        W 5877   4.783  10.003   3.026
 1678W        W 5878   8.358   7.616  10.737
 1679W        W 5879   4.739   9.393   9.746
 1680W        W 5880   8.094   0.664  11.657
 1681W        W 5881   1.675   9.554   9.628
 1682W        W 5882   7.543   2.000   3.471
 1683W        W 5883   8.937   1.461   8.828
 1684W        W 5884   1.979   7.629   9.917
 1685W        W 5885   0.044  10.926  10.632
 1686W        W 5886   0.227   0.244  10.984
 1687W        W 5887   4.337  10.452   9.094
 1688W        W 5888   6.600   4.385   8.447
 1689W        W 5889   8.586  11.406  11.440
 1690W        W 5890   4.691   2.070   8.467
 1691W        W 5891   9.428   4.132   3.134
 1692W        W 5892   9.031   8.766   9.384
 1693W        W 5893   2.095   7.212   1.873
 1694W        W 5894   9.550   2.635  10.861
 1695W        W 5895   3.271   2.913   1.349
 1696W        W 5896   7.068   1.816   9.464
 1697W        W 5897   3.554   3.845  11.814
 1698W        W 5898  11.113   4.984  10.485
 1699W        W 5899   8.967   9.104   3.461
 1700W        W 5900  11.206   9.303   2.497
 1701W        W 5901   4.200   2.504   3.139
 1702W        W 5902   0.302   7.520   0.731
 1703W        W 5903   3.053   6.173   9.359
 1704W        W 5904   1.321   0.327  11.742
 1705W        W 5905  10.473   9.376   1.272
 1706W        W 5906   9.004   3.762  10.788
 1707W        W 5907   6.007   2.308  10.097
 1708W        W 5908  11.277   3.304  10.073
 1709W        W 5909   8.818   7.107   2.563
 1710W        W 5910   8.361   9.873  11.311
 1711W        W 5911   2.747  11.391   0.692
 1712W        W 5912   7.518   2.712   2.673
 1713W        W 5913  10.513   9.550   8.746
 1714W        W 5914   4.565   8.688   3.387
 1715W        W 5915   0.423   1.940   3.359
 1716W        W 5916   2.357   2.832   1.319
 1717W        W 5917   6.066   9.351  11.058
 1718W        W 5918   7.319   7.819   1.454
 1719W        W 5919   6.131   0.520   8.740
 1720W        W 5920   6.468  10.886   8.823
 1721W        W 5921   7.971   0.444   8.873
 1722W        W 5922   7.123   7.253   9.364
 1723W        W 5923   5.952   7.561   0.247
 1724W        W 5924   1.739   7.425   3.008
 1725W        W 5925  10.464   3.133   2.375
 1726W        W 5926   1.382   9.733   3.807
 1727W        W 5927  10.680   6.969   1.387
 1728W        W 5928   8.366   6.870   9.335
 1729W        W 5929   7.086  10.038   9.088
 1730W        W 5930   4.463   8.193   3.233
 1731W        W 5931   4.576   7.090  10.518
 1732W        W 5932   2.877   9.407  10.905
 1733W        W 5933   3.071   9.987  11.041
 1734W        W 5934   8.142   6.648  10.411
 1735W        W 5935  11.296   1.406   1.820
 1736W        W 5936   4.220   7.645   3.130
 1737W        W 5937   2.150   7.144   0.981
 1738W        W 5938   0.345   1.297   9.404
 1739W        W 5939  11.044  11.250   1.279
 1740W        W 5940   4.481   5.280   0.974
 1741W        W 5941   5.237   7.845   1.630
 1742W        W 5942   9.706   5.526   9.494
 1743W        W 5943   9.120   4.886   8.703
 1744W        W 5944  11.316   5.464  10.387
 1745W        W 5945  10.717   0.573   2.518
 1746W        W 5946   8.239   1.475   2.232
 1747W        W 5947   9.634   7.136  11.820
 1748W        W 5948   1.767   0.573  11.509
 1749W        W 5949   8.529   0.458   2.255
 1750W        W 5950  10.944   7.203   3.132
 1751W        W 5951  10.819   9.088   2.752
 1752W        W 5952   1.727   2.687  11.156
 1753W        W 5953   2.606   7.220   2.808
 1754W        W 5954   6.487   0.170   0.975
 1755W        W 5955   8.641   1.008   1.578
 1756W        W 5956   7.088   8.910  10.768
 1757W        W 5957   9.011   7.439   9.088
 1758W        W 5958   4.895   3.242   3.654
 1759W        W 5959   0.371   8.594  11.844
 1760W        W 5960   5.623   2.760   2.359
 1761W        W 5961  11.426   5.963   0.552
 1762W        W 5962   1.443   2.738   2.506
 1763W        W 5963   1.486   7.151   8.546
 1764W        W 5964   7.158   3.377  11.119
 1765W        W 5965  10.834   7.470  11.805
 1766W        W 5966   6.669   0.542   0.676
 1767W        W 5967   4.353   2.059  11.924
 1768W        W 5968  10.087   6.848  10.319
 1769W        W 5969   1.788  11.290  11.940
 1770W        W 5970   2.220   5.665   0.467
 1771W        W 5971   3.101  11.432  10.125
 1772W        W 5972   3.184   6.478   1.173
 1773W        W 5973  10.897   3.849   3.113
 1774W        W 5974   3.671   9.815   0.405
 1775W        W 5975   3.321   3.749   2.039
 1776W        W 5976   3.399  11.158  11.535
 1777W        W 5977   3.366   4.247   1.783
 1778W        W 5978   3.610   4.812   0.162
 1779W        W 5979   2.968   4.247   0.434
 1780W        W 5980   2.447  11.443   1.862
 1781W        W 5981   8.382   3.134   2.197
 1782W        W 5982   6.278  10.930   1.854
 1783W        W 5983   3.260  11.052   2.030
 1784W        W 5984   0.883   3.227   9.984
 1785W        W 5985   8.001  10.479  10.042
 1786W        W 5986   7.412   8.988  10.377
 1787W        W 5987   8.157   5.168   2.722
 1788W        W 5988   5.697  10.332   9.370
 1789W        W 5989   6.638   7.303   9.179
 1790W        W 5990   2.097   5.620   2.436
 1791W        W 5991   5.436   5.136  11.349
 1792W        W 5992   6.256   0.858   1.425
 1793W        W 5993   7.878   4.546   0.700
 1794W        W 5994   4.131   5.137  10.033
 1795W        W 5995   6.164   3.310  11.259
 1796W        W 5996  10.403   0.267   2.242
 1797W        W 5997   4.262  10.577   0.540
 1798W        W 5998   2.813   5.055   9.883
 1799W        W 5999   7.653   7.570   2.759
 1800W        W 6000   0.501   1.493  10.811
 1801W        W 6001   2.468   9.836   9.367
 1802W        W 6002   9.072   0.368   9.949
 1803W        W 6003   8.949  10.505  10.314
 1804W        W 6004   9.442   1.507   9.591
 1805W        W 6005  11.277   0.972   8.864
 1806W        W 6006   8.562   3.311   9.430
 1807W        W 6007   0.293   5.755  11.345
 1808W        W 6008   4.333   8.329  10.061
 1809W        W 6009   1.535   7.799  11.472
 1810W        W 6010   6.888   3.317   0.490
 1811W        W 6011   8.057   0.677   1.013
 1812W        W 6012   9.972  10.985   9.448
 1813W        W 6013   2.830   3.929   1.971
 1814W        W 6014   5.471   5.288   0.775
 1815W        W 6015   9.509   7.066   4.259
 1816W        W 6016   8.127  10.577   9.187
 1817W        W 6017   5.598   5.723  11.976
 1818W        W 6018  10.007   9.996   0.215
 1819W        W 6019   3.738  11.354   2.177
 1820W        W 6020   3.770   1.227  11.961
 1821W        W 6021   6.304   4.330   1.768
 1822W        W 6022   1.916   2.649   2.266
 1823W        W 6023   3.712   0.188   0.808
 1824W        W 6024  11.468   2.138   0.306
 1825W        W 6025   0.798   9.582   0.318
 1826W        W 6026   9.326   5.508  10.493
 1827W        W 6027   4.245   9.594   1.488
 1828W        W 6028   7.900   4.943  11.876
 1829W        W 6029   7.765   8.646   1.293
 1830W        W 6030   0.386   5.216   2.312
 1831W        W 6031   5.028   0.991   9.425
 1832W        W 6032   2.091   7.470   1.394
 1833W        W 6033   5.005   8.466   3.403
 1834W        W 6034   0.579   8.382  10.511
 1835W        W 6035   6.105   4.049  10.134
 1836W        W 6036  10.001   4.616  11.070
 1837W        W 6037   5.977   3.311   0.945
 1838W        W 6038   7.604  10.481   0.723
 1839W        W 6039   5.302   6.955   0.375
 1840W        W 6040   6.020   2.379  11.751
 1841W        W 6041   4.674   4.787  11.564
 1842W        W 6042   1.563   0.834  11.916
 1843W        W 6043   3.616   5.090  11.283
 1844W        W 6044   5.423   5.729   9.168
 1845W        W 6045  10.258   0.391  11.019
 1846W        W 6046   6.274   6.573   3.334
 1847W        W 6047   6.485   5.552  11.021
 1848W        W 6048   7.962   0.567   2.429
 1849W        W 6049   8.694   2.427   9.367
 1850W        W 6050  11.308   7.029  10.280
 1851W        W 6051   9.543   3.289   1.315
 1852W        W 6052   9.103   6.014   4.082
 1853W        W 6053  11.390  10.365   1.533
 1854W        W 6054   7.159   6.865   0.412
 1855W        W 6055   1.947   5.544  10.820
 1856W        W 6056   8.673   3.238  10.768
 1857W        W 6057   9.083   3.705   2.480
 1858W        W 6058   4.118   0.346  11.479
 1859W        W 6059   3.341   2.376   1.309
 1860W        W 6060   0.375   4.169   2.021
 1861W        W 6061   5.208   6.710   1.612
 1862W        W 6062   6.753   6.723   1.542
 1863W        W 6063  10.089   8.166   0.801
 1864W        W 6064   3.111   1.243   8.826
 1865W        W 6065   4.531   9.463   8.479
 1866W        W 6066   6.156   2.194   0.254
 1867W        W 6067  10.758   0.456  10.963
 1868W        W 6068   8.597   9.977   8.856
 1869W        W 6069   1.171   5.267   9.023
 1870W        W 6070   3.726   9.309   8.978
 1871W        W 6071   5.027  11.279   0.025
 1872W        W 6072  10.326   3.099   0.033
 1873W        W 6073   6.879   2.237  11.619
 1874W        W 6074   2.284   1.272  11.155
 1875W        W 6075   7.118   2.703  11.740
 1876W        W 6076   4.161   3.331   0.377
 1877W        W 6077   4.483   3.519   1.251
 1878W        W 6078   5.314   2.095   3.104
 1879W        W 6079   3.509   2.848   9.468
 1880W        W 6080   9.637   6.236   1.888
 1881W        W 6081   3.112   8.783   8.695
 1882W        W 6082   2.718   9.452  11.454
 1883W        W 6083  10.309  10.011  10.473
 1884W        W 6084   0.290   6.723  11.014
 1885W        W 6085   2.349   9.885   0.874
 1886W        W 6086  10.080   9.525   0.401
 1887W        W 6087   0.355   2.325   0.613
 1888W        W 6088   1.920   0.153   0.410
 1889W        W 6089   9.465   9.407   2.660
 1890W        W 6090  11.408   6.623   9.968
 1891W        W 6091   3.104   8.386   2.367
 1892W        W 6092   3.100   8.487  11.839
 1893W        W 6093   5.627   1.672   0.221
 1894W        W 6094   3.044   4.939   3.831
 1895W        W 6095   4.733   6.120  10.261
 1896W        W 6096   1.635   6.784  10.575
 1897W        W 6097   2.286   6.231   1.730
 1898W        W 6098   1.164   3.681   2.946
 1899W        W 6099   4.321   3.160  11.491
 1900W        W 6100   7.446   6.118   8.643
 1901W        W 6101   9.905  10.916  10.373
 1902W        W 6102   5.855   7.099   3.441
 1903W        W 6103   2.291   8.622   1.732
 1904W        W 6104   1.853   6.120   2.475
 1905W        W 6105   1.315   0.957   1.517
 1906W        W 6106   6.970   4.259  11.335
 1907W        W 6107   6.091   1.264   2.612
 1908W        W 6108   8.641   5.332   1.475
 1909W        W 6109   5.812   3.824  10.530
 1910W        W 6110   3.201   0.702  11.474
 1911W        W 6111   4.717   3.713   3.495
 1912W        W 6112   5.912   4.581   3.436
 1913W        W 6113   0.464   1.451   1.237
 1914W        W 6114   9.524  10.058  11.812
 1915W        W 6115   2.778   8.103  10.793
 1916W        W 6116   2.246   3.508  11.436
 1917W        W 6117   3.631   5.243  11.828
 1918W        W 6118   2.487   4.724  10.111
 1919W        W 6119   7.978   9.610   3.469
 1920W        W 6120   1.118   2.222  10.033
 1921W        W 6121   1.617   9.418   9.131
 1922W        W 6122   7.194   4.205   3.261
 1923W        W 6123   2.257   1.469   9.459
 1924W        W 6124   7.350  11.341   3.046
 1925W        W 6125   3.242   5.259   9.622
 1926W        W 6126   2.502   7.688   9.867
 1927W        W 6127   1.384   8.320   2.803
 1928W        W 6128   2.016   5.613   9.974
 1929W        W 6129   2.377   2.325   1.197
 1930W        W 6130   2.186   6.664   9.915
 1931W        W 6131   0.753   9.966  10.530
 1932W        W 6132   4.678   7.971   2.388
 1933W        W 6133   2.098   6.168  10.028
 1934W        W 6134  10.732   5.880   9.425
 1935W        W 6135   0.253   8.373   3.452
 1936W        W 6136   1.451   2.316   1.379
 1937W        W 6137   3.094   5.073   3.339
 1938W        W 6138   0.680   8.592   2.730
 1939W        W 6139   1.395   4.872   1.433
 1940W        W 6140   9.054   8.468   8.955
 1941W        W 6141   3.183   4.033   3.232
 1942W        W 6142   5.608   8.089   3.949
 1943W        W 6143   9.984   4.659   8.982
 1944W        W 6144   8.154   9.755   9.558
 1945W        W 6145  10.765  11.397   9.439
 1946W        W 6146   0.320   6.582   1.627
 1947W        W 6147   7.395   2.187   9.884
 1948W        W 6148   9.529   9.123   8.510
 1949W        W 6149   8.113   5.239   9.974
 1950W        W 6150   3.977   9.458   2.917
 1951W        W 6151   0.369   6.558   0.962
 1952W        W 6152  10.902   8.999   3.247
 1953W        W 6153   0.429   2.773   8.875
 1954W        W 6154   3.291  11.433   0.379
 1955W        W 6155   0.779   5.902  11.277
 1956W        W 6156   6.453   8.458   0.417
 1957W        W 6157   6.445   1.716   2.556
 1958W        W 6158   6.609   2.721  11.095
 1959W        W 6159   2.821   8.427  10.405
 1960W        W 6160   6.053   5.512   2.186
 1961W        W 6161   0.930   2.204  10.539
 1962W        W 6162   4.704  10.453   2.779
 1963W        W 6163   4.663   9.363   0.682
 1964W        W 6164   8.915  10.406   9.787
 1965W        W 6165   2.017   2.164   2.452
 1966W        W 6166   8.662  10.746  10.781
 1967W        W 6167   1.259   0.477   1.366
 1968W        W 6168   5.643   0.926   3.255
 1969W        W 6169   8.376  10.318   2.123
 1970W        W 6170   4.388   1.340   0.363
 1971W        W 6171   0.402   1.263   2.963
 1972W        W 6172   1.190   5.840   8.498
 1973W        W 6173   4.172   3.686   0.736
 1974W        W 6174   7.456   5.070   8.915
 1975W        W 6175   4.758   4.420  11.914
 1976W        W 6176   2.681   3.512  10.885
 1977W        W 6177   3.179   9.558  11.292
 1978W        W 6178   5.622   8.498   1.264
 1979W        W 6179  10.586   0.030  11.757
 1980W        W 6180   9.011   4.422   3.124
 1981W        W 6181  11.119   4.578   9.050
 1982W        W 6182  11.112   0.540   0.902
 1983W        W 6183   1.513   0.633  10.954
 1984W        W 6184   2.762   5.389  10.273
 1985W        W 6185   3.117   5.109   1.131
 1986W        W 6186   8.242   5.240   1.870
 1987W        W 6187   9.821   0.941   3.485
 1988W        W 6188   1.882   7.981   9.105
 1989W        W 6189   2.212   4.338  11.989
 1990W        W 6190   2.815   2.261   0.894
 1991W        W 6191   4.371   9.522  10.084
 1992W        W 6192   8.534   9.881   2.383
 1993W        W 6193   0.060  10.432   1.026
 1994W        W 6194   5.149   7.663  11.082
 1995W        W 6195   1.869   1.374  10.876
 1996W        W 6196   4.122   3.151   1.413
 1997W        W 6197   7.272   9.268   0.170
 1998W        W 6198   6.744   1.393   9.586
 1999W        W 6199  10.196   1.801  11.735
 2000W        W 6200  10.506  10.928   9.554
 2001W        W 6201   1.870   1.367  10.351
 2002W        W 6202   4.742   6.705   0.400
 2003W        W 6203   0.252   6.971   0.695
 2004W        W 6204  11.264   4.572   2.386
 2005W        W 6205  10.059   8.112   2.153
 2006W        W 6206   3.351   5.131   2.342
 2007W        W 6207  10.090   8.725   1.521
 2008W        W 6208   5.640  10.977   2.929
 2009W        W 6209  11.001  11.409   2.798
 2010W        W 6210  10.889  10.291   1.324
 2011W        W 6211   5.018  10.962  11.292
 2012W        W 6212   8.169   8.951   1.306
 2013W        W 6213   8.691   8.142   9.129
 2014W        W 6214   6.050   8.228   1.215
 2015W        W 6215   8.854   3.769   0.923
 2016W        W 6216   2.293   3.804  11.004
 2017W        W 6217   9.798   2.560   1.810
 2018W        W 6218   1.187   4.739   3.057
 2019W        W 6219   4.255   4.589   0.912
 2020W        W 6220   7.113  10.953   0.202
 2021W        W 6221   9.008  11.328   9.984
 2022W        W 6222  11.336   2.352   9.933
 2023W        W 6223   7.252   4.110   1.543
 2024W        W 6224   1.223   6.948   9.992
 2025W        W 6225   3.239   8.992   2.872
 2026W        W 6226   2.432   0.184   0.975
 2027W        W 6227   3.784   5.713   1.929
 2028W        W 6228   9.999   3.623   9.070
 2029W        W 6229   6.084   0.879   1.945
 2030W        W 6230  10.020   3.684  10.021
 2031W        W 6231   8.442  10.042   0.792
 2032W        W 6232   4.809   2.083   0.162
 2033W        W 6233   6.681   8.647   9.426
 2034W        W 6234   1.703   8.851   0.292
 2035W        W 6235   4.374   5.889   2.528
 2036W        W 6236  10.859   1.199   9.094
 2037W        W 6237  11.034   7.382   0.311
 2038W        W 6238  11.105   5.552   9.535
 2039W        W 6239   9.084   7.936  11.234
 2040W        W 6240   5.798   4.870   9.574
 2041W        W 6241   5.744   3.839   9.390
 2042W        W 6242   0.253   5.542   0.552
 2043W        W 6243   9.608   8.852   9.891
 2044W        W 6244   1.799   6.260   0.516
 2045W        W 6245   3.863   7.523  10.120
 2046W        W 6246   7.185   1.708   9.949
 2047W        W 6247   0.148   5.125   0.062
 2048W        W 6248   3.487   0.777   9.544
 2049W        W 6249   3.632   3.290   1.346
 2050W        W 6250  10.356  10.608   8.707
 2051W        W 6251   6.913   4.916  10.727
 2052W        W 6252   9.113   8.584   1.350
 2053W        W 6253   9.615   3.245   8.948
 2054W        W 6254   1.452   5.234  10.938
 2055W        W 6255   4.661   3.697   2.946
 2056W        W 6256   0.591   5.994  11.750
 2057W        W 6257   2.340   4.309  11.040
 2058W        W 6258   1.841   4.643   2.295
 2059W        W 6259   6.495   8.855   8.935
 2060W        W 6260   8.189   3.311  10.939
 2061W        W 6261   9.216   5.545  11.743
 2062W        W 6262   8.298   4.407   1.471
 2063W        W 6263   3.268   4.672  11.343
 2064W        W 6264   9.545   5.039  10.504
 2065W        W 6265   8.507   0.578   0.776
 2066W        W 6266   8.324   8.013   0.465
 2067W        W 6267   5.450   3.278   2.110
 2068W        W 6268   8.166  10.462   0.938
 2069W        W 6269   6.860   0.750  10.745
 2070W        W 6270   8.297   3.766   3.502
 2071W        W 6271   7.567  10.232   2.162
 2072W        W 6272   9.126   5.208   0.966
 2073W        W 6273   8.775  10.043   3.482
 2074W        W 6274   0.127   7.992   8.652
 2075W        W 6275   3.737   7.653   8.834
 2076W        W 6276   9.891   5.163   8.742
 2077W        W 6277   3.538  11.391   3.562
 2078W        W 6278   8.005   3.113  11.373
 2079W        W 6279  10.101   0.423   1.835
 2080W        W 6280   1.043   4.120   1.028
 2081W        W 6281   7.764  11.163  10.519
 2082W        W 6282   9.980   3.725  10.565
 2083W        W 6283   6.629   3.179   8.668
 2084W        W 6284   7.603   8.104   2.757
 2085W        W 6285   4.478   1.372  10.329
 2086W        W 6286   8.356   2.386   0.880
 2087W        W 6287   3.257  10.484   2.881
 2088W        W 6288   4.044   8.644  11.500
 2089W        W 6289  11.202   6.970   1.315
 2090W        W 6290  10.850   2.104   2.696
 2091W        W 6291   5.829   6.590   3.068
 2092W        W 6292   6.216   9.410   4.097
 2093W        W 6293   6.316  10.511   2.983
 2094W        W 6294   2.359   9.566   2.877
 2095W        W 6295   8.901   4.067   8.511
 2096W        W 6296   3.264   8.950  11.946
 2097W        W 6297   4.762   4.786  10.319
 2098W        W 6298   0.274   6.246   3.324
 2099W        W 6299   1.657   3.043   3.563
 2100W        W 6300   9.582   8.033  11.780
 2101W        W 6301   2.262   9.515   2.156
 2102W        W 6302   8.616   8.034  10.975
 2103W        W 6303   2.718   8.185   9.968
 2104W        W 6304   2.904   9.456   1.182
 2105W        W 6305   6.117   1.668   1.527
 2106W        W 6306   6.518   1.912   3.423
 2107W        W 6307  10.353   2.681   2.629
 2108W        W 6308   3.145   3.415   1.243
 2109W        W 6309   7.991   2.591  11.295
 2110W        W 6310   5.986   6.214  11.081
 2111W        W 6311   2.775   3.309   3.016
 2112W        W 6312   0.469  10.475   9.648
 2113W        W 6313  11.370   9.518   1.182
 2114W        W 6314   6.330   7.116  11.517
 2115W        W 6315   0.324   2.630   0.216
 2116W        W 6316   9.415   6.060   1.003
 2117W        W 6317   2.610   8.511   0.017
 2118W        W 6318   4.664   8.097   0.999
 2119W        W 6319   6.835   3.484   0.013
 2120W        W 6320   2.014   5.600   8.744
 2121W        W 6321  10.958   0.340  11.414
 2122W        W 6322   9.088   7.588  10.651
 2123W        W 6323   5.317   0.849   0.405
 2124W        W 6324   7.337  10.499   0.274
 2125W        W 6325  10.698   1.831  11.823
 2126W        W 6326   5.669   6.716   0.073
 2127W        W 6327   9.821   4.131   8.886
 2128W        W 6328   7.693   6.432   9.711
 2129W        W 6329   9.389   2.952   0.389
 2130W        W 6330   7.945   7.223  10.059
 2131W        W 6331   1.784   8.089   2.531
 2132W        W 6332   5.581   3.532  10.905
 2133W        W 6333   9.797   1.709   1.047
 2134W        W 6334   1.366   6.235   0.226
 2135W        W 6335   5.292   8.659   9.478
 2136W        W 6336   3.421   0.519   8.775
 2137W        W 6337   3.382   9.493   1.377
 2138W        W 6338   8.016   2.632   2.846
 2139W        W 6339   2.352   1.579   1.955
 2140W        W 6340   9.869   9.388  11.505
 2141W        W 6341   4.989   3.777   8.323
 2142W        W 6342   0.270   1.336   0.402
 2143W        W 6343   2.563   4.238   9.269
 2144W        W 6344   3.683   5.256   9.860
 2145W        W 6345   5.934   5.803  10.774
 2146W        W 6346   5.614   6.230   2.267
 2147W        W 6347   2.176   0.736   2.303
 2148W        W 6348   8.917   6.719   2.204
 2149W        W 6349   3.702   5.580  11.386
 2150W        W 6350   5.767   1.649  10.664
 2151W        W 6351   0.800   7.919   0.228
 2152W        W 6352  11.295   1.933   2.508
 2153W        W 6353   6.994   5.061   1.024
 2154W        W 6354  11.186   2.420  11.533
 2155W        W 6355   7.038   8.002   2.816
 2156W        W 6356   9.479   6.427   1.369
 2157W        W 6357   1.208   3.652   9.945
 2158W        W 6358   7.703   5.622   2.064
 2159W        W 6359   3.400   9.052   1.060
 2160W        W 6360   2.934   3.883   1.133
 2161W        W 6361   9.503   9.962   0.861
 2162W        W 6362   5.271   8.780   3.128
 2163W        W 6363   8.799   8.219   0.549
 2164W        W 6364   6.952   9.391   1.999
 2165W        W 6365   5.648   1.521   0.742
 2166W        W 6366   7.450   8.056   9.552
 2167W        W 6367   2.094  10.578   3.660
 2168W        W 6368   8.362   1.195   2.925
 2169W        W 6369   9.226   5.548   9.337
 2170W        W 6370  10.484   9.329   0.701
 2171W        W 6371   8.589   5.938   3.594
 2172W        W 6372   2.259   6.326  10.870
 2173W        W 6373   7.972   4.764   3.045
 2174W        W 6374   5.328   2.412   0.344
 2175W        W 6375   9.552   6.500   3.074
 2176W        W 6376  11.281   3.975   0.222
 2177W        W 6377  10.802   3.637   1.484
 2178W        W 6378   6.551   7.369  10.537
 2179W        W 6379   9.571  10.764  11.064
 2180W        W 6380   5.663   0.507   8.987
 2181W        W 6381   1.870   5.871  10.385
 2182W        W 6382   6.940   9.718   9.993
 2183W        W 6383   3.696   1.927   1.155
 2184W        W 6384   6.407   4.259  11.367
 2185W        W 6385   2.462  10.738   2.308
 2186W        W 6386   1.891   8.965   9.052
 2187W        W 6387   5.356   4.160   1.437
 2188W        W 6388   6.138   5.465   3.161
 2189W        W 6389  10.842  10.039  10.442
 2190W        W 6390   4.531   0.866   9.483
 2191W        W 6391   5.772   2.387   3.111
 2192W        W 6392   1.686   6.686  10.075
 2193W        W 6393   4.632   5.706   9.967
 2194W        W 6394   3.099   7.996   2.729
 2195W        W 6395   1.405  10.227   1.722
 2196W        W 6396   0.832   3.179   1.922
 2197W        W 6397   7.828   8.585   2.804
 2198W        W 6398   8.990   3.129  11.615
 2199W        W 6399  10.483   4.193   0.405
 2200W        W 6400   9.078   7.952  11.757
 2201W        W 6401  10.029   1.557   2.913
 2202W        W 6402   0.680   8.830   9.553
 2203W        W 6403   9.309   9.934   1.323
 2204W        W 6404   6.253   2.363   9.164
 2205W        W 6405   8.853   5.548   0.624
 2206W        W 6406  10.534   1.514   8.805
 2207W        W 6407   3.631  10.319   3.484
 2208W        W 6408   3.732   8.569   1.734
 2209W        W 6409   8.705   1.004  10.316
 2210W        W 6410   5.228   7.659   2.125
 2211W        W 6411   7.188  10.054  10.493
 2212W        W 6412  10.322   6.187   9.469
 2213W        W 6413   2.833   1.496   9.934
 2214W        W 6414  10.352   6.040   1.689
 2215W        W 6415  10.058   2.472   3.314
 2216W        W 6416   5.592   2.191  10.379
 2217W        W 6417   0.843   2.691  10.177
 2218W        W 6418   5.674   8.963   1.481
 2219W        W 6419   9.096   6.269   0.372
 2220W        W 6420  11.016   8.346  11.924
 2221W        W 6421  10.868   1.614  10.046
 2222W        W 6422  10.971   8.059   8.819
 2223W        W 6423   3.650   1.656  11.715
 2224W        W 6424  10.004  10.341  11.078
 2225W        W 6425  10.860   4.762   1.134
 2226W        W 6426   9.972   0.882   2.046
 2227W        W 6427   7.451   4.808   3.284
 2228W        W 6428   1.605   7.576   1.204
 2229W        W 6429   7.165   2.852   9.340
 2230W        W 6430  10.518  11.314   1.375
 2231W        W 6431   1.263   9.092   0.201
 2232W        W 6432   1.300   2.924  10.788
 2233W        W 6433   5.674   9.690  11.945
 2234W        W 6434   2.393  10.048   1.824
 2235W        W 6435   5.640  11.028  11.865
 2236W        W 6436   8.881   1.960  10.858
 2237W        W 6437   3.835   6.239   9.982
 2238W        W 6438   7.440   1.520   3.305
 2239W        W 6439   7.269   1.414   1.779
 2240W        W 6440  10.070   3.209   8.714
 2241W        W 6441   3.228   8.136  11.111
 2242W        W 6442   6.575   0.769   1.819
 2243W        W 6443   7.618   1.382   0.328
 2244W        W 6444   6.401   3.200   0.476
 2245W        W 6445   6.138   5.549   1.244
 2246W        W 6446   3.336   0.716  10.973
 2247W        W 6447   4.161   2.405   1.875
 2248W        W 6448   9.856   3.096   0.929
 2249W        W 6449   4.071  10.068   3.351
 2250W        W 6450   3.449   6.071  11.447
 2251W        W 6451   4.935   4.095   4.065
 2252W        W 6452   0.601   6.507   0.462
 2253W        W 6453   9.957   7.614   8.637
 2254W        W 6454   4.765   8.952   2.530
 2255W        W 6455   8.155   9.165  10.788
 2256W        W 6456   3.709   2.382   9.475
 2257W        W 6457   3.959   3.854   9.277
 2258W        W 6458   5.265   2.138   2.296
 2259W        W 6459   9.961   4.763   9.664
 2260W        W 6460   9.403  11.481   9.005
 2261W        W 6461   4.810  10.735   8.997
 2262W        W 6462   3.718   1.246  10.261
 2263W        W 6463   5.939   3.674   9.833
 2264W        W 6464   9.718   4.180   3.568
 2265W        W 6465   0.402   8.145  10.919
 2266W        W 6466   0.160   4.172  10.758
 2267W        W 6467   0.111   8.819   1.422
 2268W        W 6468   3.800   8.092   1.264
 2269W        W 6469   8.184  11.257   0.338
 2270W        W 6470   5.729  11.336   9.478
 2271W        W 6471   2.700   9.967   3.119
 2272W        W 6472  10.298   5.492  11.480
 2273W        W 6473   5.962   0.720   3.605
 2274W        W 6474   1.515   0.546  10.440
 2275W        W 6475   8.244  10.329   8.694
 2276W        W 6476   1.885   6.047   3.341
 2277W        W 6477   5.620   7.943   0.452
 2278W        W 6478   0.650   6.981  11.251
 2279W        W 6479   5.846   5.315   2.681
 2280W        W 6480   6.665   4.142  10.927
 2281W        W 6481   2.171   2.798  10.914
 2282W        W 6482   9.288  10.868   0.798
 2283W        W 6483   8.978   7.054   1.818
 2284W        W 6484   6.479   0.642  11.265
 2285W        W 6485   5.198   0.923  10.915
 2286W        W 6486   3.217   0.859   2.109
 2287W        W 6487   8.084   5.955  11.047
 2288W        W 6488   3.638   2.610   9.933
 2289W        W 6489   5.496   0.428   2.272
 2290W        W 6490   6.071   1.908  11.497
 2291W        W 6491   0.976   1.738   1.062
 2292W        W 6492  10.725   6.279  11.280
 2293W        W 6493   0.779   7.517   9.501
 2294W        W 6494   0.211   8.510   2.957
 2295W        W 6495   3.862   9.421   1.192
 2296W        W 6496   2.264   2.324  10.033
 2297W        W 6497   4.887   4.313   1.690
 2298W        W 6498   6.020   4.574   0.356
 2299W        W 6499  10.218   6.996   0.265
 2300W        W 6500   3.140   4.244   9.630
 2301W        W 6501   0.822   7.645   0.722
 2302W        W 6502   1.098   7.507   0.218
 2303W        W 6503   0.206   4.777   2.544
 2304W        W 6504   6.976   6.592  10.417
 2305W        W 6505   8.403   1.902   1.024
 2306W        W 6506   2.232   0.214   2.958
 2307W        W 6507   9.789   5.767   0.259
 2308W        W 6508   9.994  11.441   0.641
 2309W        W 6509   5.094   0.218  11.732
 2310W        W 6510   1.459   3.001  10.293
 2311W        W 6511   7.656  11.222   3.413
 2312W        W 6512   3.145   9.986   1.347
 2313W        W 6513  10.489  11.066   2.882
 2314W        W 6514   4.013   5.035   1.026
 2315W        W 6515   9.416  11.028   2.323
 2316W        W 6516   2.810   6.769  11.357
 2317W        W 6517   4.407   0.720   1.374
 2318W        W 6518  10.003   5.688  10.838
 2319W        W 6519   0.784   6.559   2.282
 2320W        W 6520   5.626   8.525   2.319
 2321W        W 6521   4.094   9.386  11.830
 2322W        W 6522   2.843   1.841  10.819
 2323W        W 6523   1.914   2.588   1.333
 2324W        W 6524   2.853   2.614   1.273
 2325W        W 6525   2.815   2.831  10.316
 2326W        W 6526  11.371   5.649   9.092
 2327W        W 6527  10.332  10.982   0.950
 2328W        W 6528   1.815   4.630   9.399
 2329W        W 6529  10.853   1.377   0.514
 2330W        W 6530   4.442   7.130   3.101
 2331W        W 6531   4.182   0.283   9.264
 2332W        W 6532   9.050   4.923   3.257
 2333W        W 6533  10.501   8.935   2.382
 2334W        W 6534   8.479   0.714   2.712
 2335W        W 6535   8.185   5.643   2.206
 2336W        W 6536  10.670   0.799   2.971
 2337W        W 6537  10.382   6.130   1.154
 2338W        W 6538   0.981   7.938  10.429
 2339W        W 6539   8.606   6.487  11.171
 2340W        W 6540   0.554   1.015  10.882
 2341W        W 6541   6.012   2.364   9.600
 2342W        W 6542   6.466   8.602  11.501
 2343W        W 6543   3.208  10.703   2.413
 2344W        W 6544  10.844   6.574  10.197
 2345W        W 6545   6.073   7.844   2.745
 2346W        W 6546   0.874   4.066  10.079
 2347W        W 6547   9.422   5.257   8.550
 2348W        W 6548   7.720  11.281   1.236
 2349W        W 6549   6.357  10.750   0.322
 2350W        W 6550   7.862   5.047   3.493
 2351W        W 6551   2.944   7.279  11.295
 2352W        W 6552   9.143   1.806   9.883
 2353W        W 6553   3.643  10.416  10.854
 2354W        W 6554   0.479  10.276   2.813
 2355W        W 6555   0.086   3.716  10.369
 2356W        W 6556   4.671  10.898  10.339
 2357W        W 6557   1.811   1.810  10.603
 2358W        W 6558   1.965   1.842   0.906
 2359W        W 6559   9.237   7.018   0.098
 2360W        W 6560   3.225   9.103  10.043
 2361W        W 6561   5.188   8.864   1.669
 2362W        W 6562   3.158  10.331   9.533
 2363W        W 6563   1.195   6.315   1.238
 2364W        W 6564  11.222   3.425   3.475
 2365W        W 6565   3.386   3.892   0.373
 2366W        W 6566   0.006   2.456   9.020
 2367W        W 6567   0.247   9.786  10.402
 2368W        W 6568   2.131   1.340   8.972
 2369W        W 6569   7.772  10.505   8.806
 2370W        W 6570   7.851   4.033   0.637
 2371W        W 6571  11.179   6.170  10.064
 2372W        W 6572   5.233   1.265   2.179
 2373W        W 6573   9.731   7.598   0.051
 2374W        W 6574   2.683   5.502   0.268
 2375W        W 6575   7.335   3.261   2.870
 2376W        W 6576   5.254   8.995   2.253
 2377W        W 6577   2.921   5.387   4.079
 2378W        W 6578   7.131   8.608   3.950
 2379W        W 6579   3.870   4.205   1.686
 2380W        W 6580  10.307   8.551   2.121
 2381W        W 6581   0.361   9.279   0.314
 2382W        W 6582  11.440   2.233   1.362
 2383W        W 6583   7.599   4.328   0.278
 2384W        W 6584   2.288   1.331   1.506
 2385W        W 6585   3.659   6.739   1.147
 2386W        W 6586   1.161  10.980   8.553
 2387W        W 6587   9.461   2.969   9.388
 2388W        W 6588   1.425  10.412   0.012
 2389W        W 6589   4.270   3.632   2.394
 2390W        W 6590   0.468   5.040  10.587
 2391W        W 6591   3.224   7.376  10.396
 2392W        W 6592   4.110   5.590   9.756
 2393W        W 6593  10.400   5.905   9.878
 2394W        W 6594   2.612   5.073   1.250
 2395W        W 6595   0.861   6.652   9.016
 2396W        W 6596   4.433   3.658  11.432
 2397W        W 6597   2.367   6.646   2.758
 2398W        W 6598   1.631   7.464   0.278
 2399W        W 6599   2.342   9.390   0.253
 2400W        W 6600   0.867   3.542   2.320
 2401W        W 6601   8.168   6.074   2.496
 2402W        W 6602   7.620  10.094   2.677
 2403W        W 6603   6.411   5.144   2.241
 2404W        W 6604   7.147   4.863   1.958
 2405W        W 6605   1.581   7.034   2.737
 2406W        W 6606   4.187   1.713   2.690
 2407W        W 6607   3.661  10.783  11.242
 2408W        W 6608   1.559   2.287   2.261
 2409W        W 6609   6.457   0.666  10.188
 2410W        W 6610   4.648   9.900   1.369
 2411W        W 6611   5.474   9.188   8.583
 2412W        W 6612   0.887   6.680   9.527
 2413W        W 6613   9.548  10.158   3.382
 2414W        W 6614   1.349   4.376  11.736
 2415W        W 6615   1.055   5.904  11.970
 2416W        W 6616   0.554   1.440   2.492
 2417W        W 6617   8.523   9.609   9.221
 2418W        W 6618   7.180   4.536   2.357
 2419W        W 6619   0.971   1.183   9.998
 2420W        W 6620   5.129   2.917   1.219
 2421W        W 6621   0.410   7.889   1.114
 2422W        W 6622   9.487   9.655  10.362
 2423W        W 6623   9.114  11.335   2.738
 2424W        W 6624  10.641   8.080   1.981
 2425W        W 6625   9.435   7.650   2.282
 2426W        W 6626   9.528   8.332   9.034
 2427W        W 6627  10.795  10.152   2.693
 2428W        W 6628   3.347   0.484   1.000
 2429W        W 6629   7.221   8.051  11.450
 2430W        W 6630   7.549   2.752   3.578
 2431W        W 6631   8.384  10.677  10.356
 2432W        W 6632   9.531   2.431   1.365
 2433W        W 6633   5.469  10.656   3.327
 2434W        W 6634  11.381   2.863   9.846
 2435W        W 6635   5.206   2.885   1.808
 2436W        W 6636   7.065   9.023   3.206
 2437W        W 6637  11.409   3.308  11.085
 2438W        W 6638   4.645   2.728   2.488
 2439W        W 6639   6.438   0.856   9.386
 2440W        W 6640   0.775  10.246   1.388
 2441W        W 6641   8.632   4.879   8.586
 2442W        W 6642   2.335   1.192   3.301
 2443W        W 6643  10.273   3.385   0.980
 2444W        W 6644   2.616   8.872   0.407
 2445W        W 6645   5.518   8.955  10.352
 2446W        W 6646   6.600   4.287   1.304
 2447W        W 6647  10.899   6.251   3.025
 2448W        W 6648   8.426   3.782  11.943
 2449W        W 6649   8.908   0.391   0.215
 2450W        W 6650   4.605   3.020   1.195
 2451W        W 6651   9.295   2.217   0.940
 2452W        W 6652   1.963   9.532   1.764
 2453W        W 6653   1.029   9.061   9.231
 2454W        W 6654   4.795   8.067  10.167
 2455W        W 6655   2.368   5.029  11.403
 2456W        W 6656   1.002   2.770   1.621
 2457W        W 6657   4.311   6.072   9.788
 2458W        W 6658   0.562   2.668   1.888
 2459W        W 6659   9.498   3.988   2.649
 2460W        W 6660   3.873   3.789  11.421
 2461W        W 6661   2.233   7.961   2.322
 2462W        W 6662   0.279   4.911  11.186
 2463W        W 6663   8.401   6.974  11.505
 2464W        W 6664   3.433   3.915   9.329
 2465W        W 6665   0.972   3.716  11.737
 2466W        W 6666   8.133   8.185  11.040
 2467W        W 6667   6.535   9.923  11.333
 2468W        W 6668   1.091   1.835   2.710
 2469W        W 6669  10.142  10.942   9.928
 2470W        W 6670   2.709   4.134   8.801
 2471W        W 6671   0.655   8.104   8.651
 2472W        W 6672   4.960   3.354   1.421
 2473W        W 6673   9.795   3.631   8.579
 2474W        W 6674   5.994   8.487  11.342
 2475W        W 6675   5.190   9.319  10.495
 2476W        W 6676  11.088   5.930  10.504
 2477W        W 6677  10.875  10.245  11.369
 2478W        W 6678   4.356   4.319   1.731
 2479W        W 6679   1.312   1.417   1.280
 2480W        W 6680   6.491   3.439   2.721
 2481W        W 6681   7.458  10.083   1.673
 2482W        W 6682   9.998   7.445   9.148
 2483W        W 6683   4.148   3.418   1.925
 2484W        W 6684   6.897   2.046   0.164
 2485W        W 6685   6.261   2.691   0.263
 2486W        W 6686  11.369   6.092  10.894
 2487W        W 6687   2.603   3.879  11.444
 2488W        W 6688   1.724   1.283   9.291
 2489W        W 6689   8.910   2.824   1.296
 2490W        W 6690   6.584   1.817   1.366
 2491W        W 6691   2.906   6.599   2.693
 2492W        W 6692   8.443   4.525  11.578
 2493W        W 6693   0.297   4.612   0.321
 2494W        W 6694   1.854  11.195   9.086
 2495W        W 6695   0.487   4.324  11.957
 2496W        W 6696  10.700   2.253  11.513
 2497W        W 6697   8.348   7.262  11.952
 2498W        W 6698   2.721   1.751   9.492
 2499W        W 6699   6.239   3.028  10.329
 2500W        W 6700   9.991   8.108   3.227
 2501W        W 6701   2.846   2.264  11.099
 2502W        W 6702   9.212  11.384   9.509
 2503W        W 6703   2.696   3.797   3.239
 2504W        W 6704   6.636   8.645   2.122
 2505W        W 6705   1.901   1.623   1.379
 2506W        W 6706   7.131  11.150  10.909
 2507W        W 6707   4.199   3.043  11.976
 2508W        W 6708   1.646  10.727   1.407
 2509W        W 6709   4.784   8.851  10.994
 2510W        W 6710   3.208   5.117  11.576
 2511W        W 6711   5.666  10.499   0.718
 2512W        W 6712   6.480   3.847  11.895
 2513W        W 6713   3.523   4.973   3.629
 2514W        W 6714   2.219  10.731   2.762
 2515W        W 6715   4.757   2.414  11.762
 2516W        W 6716   3.099   8.391   0.356
 2517W        W 6717   0.766   6.599   1.313
 2518W        W 6718  10.033  11.324   1.197
 2519W        W 6719   7.587   2.855  10.521
 2520W        W 6720   7.956  10.272   1.836
 2521W        W 6721   5.447   1.414   1.204
 2522W        W 6722   0.990   6.894   2.598
 2523W        W 6723   3.142   2.740  10.945
 2524W        W 6724   3.074   4.242  10.602
 2525W        W 6725   5.579   1.859   3.639
 2526W        W 6726  10.027   6.652   2.703
 2527W        W 6727   6.645   9.936   1.308
 2528W        W 6728   8.223   7.642  10.229
 2529W        W 6729   4.312  10.146  11.323
 2530W        W 6730   3.565   0.916   1.166
 2531W        W 6731  10.784   1.417   1.933
 2532W        W 6732   3.288   5.751   9.536
 2533W        W 6733   0.977   3.671   0.267
 2534W        W 6734   2.954   1.776   1.023
 2535W        W 6735  10.043   2.826  10.596
 2536W        W 6736   7.090   9.024   2.707
 2537W        W 6737   8.493   6.248  11.926
 2538W        W 6738   2.436   0.243   0.460
 2539W        W 6739  11.250   3.602   1.781
 2540W        W 6740  10.260   9.405   9.768
 2541W        W 6741   7.482   6.695  11.813
 2542W        W 6742   5.477   7.214   8.518
 2543W        W 6743   3.621   4.453  10.708
 2544W        W 6744   0.925   3.287   1.438
 2545W        W 6745   6.283   3.285   3.732
 2546W        W 6746   1.418   1.392  10.132
 2547W        W 6747  10.206   7.100  11.268
 2548W        W 6748   6.697   9.155   9.334
 2549W        W 6749   3.122  10.478  10.843
 2550W        W 6750   2.658   1.921   3.252
 2551W        W 6751   3.697   2.622  10.768
 2552W        W 6752   9.481   4.603  10.010
 2553W        W 6753   8.133   0.867   1.481
 2554W        W 6754   2.394   6.576  10.378
 2555W        W 6755   5.838   6.100   9.145
 2556W        W 6756   0.898   6.014   1.521
 2557W        W 6757   6.978   5.240  11.556
 2558W        W 6758  10.017   2.244   9.925
 2559W        W 6759   3.357   6.990   2.384
 2560W        W 6760   4.609   0.235   1.390
 2561W        W 6761  11.008   0.534   1.993
 2562W        W 6762  10.450   9.956   1.922
 2563W        W 6763   6.468   5.213  11.447
 2564W        W 6764   5.932  11.455  11.756
 2565W        W 6765   9.507   0.155  10.768
 2566W        W 6766   1.288   8.413   1.929
 2567W        W 6767   6.423   4.904   9.705
 2568W        W 6768   5.062   9.045   0.245
 2569W        W 6769  11.218   3.982   1.419
 2570W        W 6770  10.043   6.292   3.091
 2571W        W 6771   1.106   7.119  11.397
 2572W        W 6772   8.676  10.040   0.249
 2573W        W 6773   7.568   2.979   1.191
 2574W        W 6774   2.616   4.617   9.630
 2575W        W 6775   8.305  11.004   9.648
 2576W        W 6776   0.245   6.997   8.540
 2577W        W 6777   7.497   1.203  10.924
 2578W        W 6778   5.329  10.605  11.619
 2579W        W 6779  10.950   0.970   1.727
 2580W        W 6780  10.556   3.506  11.233
 2581W        W 6781   6.897   3.709   0.795
 2582W        W 6782   8.139   2.985   8.719
 2583W        W 6783   1.898   8.820   1.290
 2584W        W 6784   1.710   0.682   1.241
 2585W        W 6785   2.629   9.408   2.477
 2586W        W 6786  10.876   2.731   8.966
 2587W        W 6787   1.221   5.737  11.490
 2588W        W 6788   4.991   5.300   0.991
 2589W        W 6789  10.772   6.240   9.777
 2590W        W 6790  10.749   5.131  10.850
 2591W        W 6791   0.606   9.471  11.480
 2592W        W 6792   7.658   6.133   2.395
 2593W        W 6793   1.406   7.133   1.454
 2594W        W 6794   5.634   2.202  11.419
 2595W        W 6795   5.785  11.141   9.944
 2596W        W 6796   0.341   1.003   2.373
 2597W        W 6797   6.061   5.704  11.249
 2598W        W 6798   0.797   1.519   3.336
 2599W        W 6799   6.708   1.727   2.990
 2600W        W 6800   8.664   6.106   2.740
 2601W        W 6801   4.071   5.139   9.535
 2602W        W 6802  11.498   2.396  11.048
 2603W        W 6803  11.450   4.586  10.970
 2604W        W 6804   1.398   3.254   1.225
 2605W        W 6805   9.408  10.612   9.563
 2606W        W 6806   1.921   4.415   0.934
 2607W        W 6807   8.542   0.252   3.480
 2608W        W 6808   4.929   7.655   9.349
 2609W        W 6809   5.285   2.795   9.825
 2610W        W 6810   8.569   2.339  11.747
 2611W        W 6811   5.797   8.770   8.623
 2612W        W 6812   6.947   2.633   2.136
 2613W        W 6813   4.694   9.396   2.749
 2614W        W 6814   8.936   6.340   3.718
 2615W        W 6815   2.722   9.070  11.877
 2616W        W 6816  10.530   7.471   0.389
 2617W        W 6817   3.065   6.509   9.931
 2618W        W 6818  10.760   4.786   3.100
 2619W        W 6819   0.368  10.141  11.774
 2620W        W 6820   7.540   4.195   8.750
 2621W        W 6821   1.398   3.647   1.555
 2622W        W 6822  10.950   4.398   0.199
 2623W        W 6823   1.174  10.553   1.402
 2624W        W 6824   6.555   6.147   9.682
 2625W        W 6825   3.618   1.195   8.724
 2626W        W 6826   3.332   1.016  11.843
 2627W        W 6827  10.420   6.682   0.994
 2628W        W 6828   2.097   3.220   0.401
 2629W        W 6829   9.010   4.779   2.755
 2630W        W 6830   2.470   9.426   9.661
 2631W        W 6831   1.711   8.362   0.083
 2632W        W 6832   1.216   7.360   9.688
 2633W        W 6833   0.316   5.763   3.170
 2634W        W 6834  10.920   4.836   2.117
 2635W        W 6835   3.509  10.704   0.702
 2636W        W 6836   6.643   6.232   8.762
 2637W        W 6837   1.514   2.228  11.957
 2638W        W 6838   3.842   2.317   1.466
 2639W        W 6839   8.423   5.564  11.310
 2640W        W 6840   7.904   3.607  11.827
 2641W        W 6841   7.994  11.490  10.194
 2642W        W 6842   0.251   0.926   3.363
 2643W        W 6843   6.723   3.089   0.916
 2644W        W 6844   9.869  10.376   3.030
 2645W        W 6845  11.018   0.350   9.478
 2646W        W 6846   2.065   6.898   3.652
 2647W        W 6847   6.443   9.079   0.901
 2648W        W 6848   5.608   5.592  11.479
 2649W        W 6849   8.147   1.768   1.476
 2650W        W 6850   4.704   4.592   9.433
 2651W        W 6851   7.601   9.395  11.774
 2652W        W 6852   8.778   6.821   3.580
 2653W        W 6853   5.703   0.457   0.899
 2654W        W 6854  10.474   5.083   2.775
 2655W        W 6855   0.516   2.117   0.165
 2656W        W 6856   1.447   6.151  10.528
 2657W        W 6857   0.383   0.816   1.899
 2658W        W 6858   5.463   2.894   0.456
 2659W        W 6859   6.183   1.342   0.229
 2660W        W 6860   7.099   3.540  10.423
 2661W        W 6861   6.078   6.120   3.137
 2662W        W 6862   5.014   2.790   0.235
 2663W        W 6863  10.877   0.457  11.920
 2664W        W 6864  10.380   5.183   0.152
 2665W        W 6865   6.362   6.040   0.358
 2666W        W 6866  11.116   3.950  10.392
 2667W        W 6867   5.593   8.066   2.632
 2668W        W 6868   5.932   8.069   2.255
 2669W        W 6869   4.058   5.988  11.995
 2670W        W 6870   1.820   6.902  11.965
 2671W        W 6871  11.157   6.367   0.365
 2672W        W 6872   6.793   2.187   1.920
 2673W        W 6873   1.063   0.799  11.867
 2674W        W 6874   8.206   7.172  10.506
 2675W        W 6875   1.736   2.239  10.878
 2676W        W 6876   6.220   9.951   2.251
 2677W        W 6877   9.087   0.875  10.002
 2678W        W 6878   6.893   9.109  10.321
 2679W        W 6879   6.793   0.747   2.288
 2680W        W 6880   9.970   4.208  11.398
 2681W        W 6881   9.938   6.700   1.732
 2682W        W 6882   8.530  10.895  11.253
 2683W        W 6883   7.225   4.667   4.137
 2684W        W 6884  10.914   2.138  10.162
 2685W        W 6885   9.286   4.118  10.143
 2686W        W 6886   3.819   6.627   1.643
 2687W        W 6887   5.621   1.798  11.733
 2688W        W 6888   4.343   6.969   9.736
 2689W        W 6889   2.968  11.421   1.730
 2690W        W 6890   8.472   8.898  10.430
 2691W        W 6891   3.890  11.074  11.661
 2692W        W 6892   6.533   7.871  11.861
 2693W        W 6893   4.195   2.206  11.470
 2694W        W 6894   8.070   3.805  10.909
 2695W        W 6895   5.709   2.908   1.864
 2696W        W 6896   6.429   7.799   1.083
 2697W        W 6897   8.704   5.131  11.128
 2698W        W 6898   0.724   5.555   2.501
 2699W        W 6899   3.656   0.520  11.353
 2700W        W 6900   4.933  11.037  10.771
 2701W        W 6901   2.878   8.940   0.905
 2702W        W 6902   8.044   2.698  10.298
 2703W        W 6903   7.116   0.774   0.942
 2704W        W 6904   4.745   7.161   2.676
 2705W        W 6905   6.714   3.688   2.226
 2706W        W 6906  10.086   1.498  10.777
 2707W        W 6907   4.567   9.947   3.505
 2708W        W 6908   8.877   5.625   2.642
 2709W        W 6909   8.225   4.232   3.244
 2710W        W 6910   1.760   6.539  11.024
 2711W        W 6911   0.784   1.851   2.318
 2712W        W 6912   1.308   7.538  10.523
 2713W        W 6913   8.816   7.090  11.801
 2714W        W 6914   0.010   3.755   2.228
 2715W        W 6915   4.718   6.652   1.419
 2716W        W 6916   7.496   4.081   2.880
 2717W        W 6917   7.789  10.685  11.096
 2718W        W 6918   7.928   7.692   1.270
 2719W        W 6919   0.785   6.442  10.521
 2720W        W 6920   7.536   4.659   9.948
 2721W        W 6921   6.550   0.895   3.263
 2722W        W 6922   6.093   5.598   0.276
 2723W        W 6923   9.069   6.693   3.155
 2724W        W 6924   5.448   8.910   1.005
 2725W        W 6925   5.523  10.913  11.256
 2726W        W 6926   6.543  10.944   1.425
 2727W        W 6927   9.042   9.953   9.618
 2728W        W 6928   2.883   6.054   3.309
 2729W        W 6929   3.213   5.545  10.070
 2730W        W 6930   8.436   5.952   9.612
 2731W        W 6931   2.168   5.633   3.499
 2732W        W 6932   5.057   3.785   1.170
 2733W        W 6933   5.581   9.316   9.371
 2734W        W 6934   7.562  10.008   0.399
 2735W        W 6935  10.608   4.512   8.924
 2736W        W 6936   2.635   8.972   1.821
 2737W        W 6937   2.800   7.676  11.678
 2738W        W 6938  11.248  11.479  10.289
 2739W        W 6939   7.567  10.569   1.713
 2740W        W 6940   0.451   9.161   2.229
 2741W        W 6941   4.778  10.205  11.017
 2742W        W 6942   1.881   0.072  11.514
 2743W        W 6943   9.023   6.711  10.960
 2744W        W 6944   3.805   2.722   0.118
 2745W        W 6945   7.875   9.784   1.718
 2746W        W 6946  10.246   5.020  11.663
 2747W        W 6947  10.980   2.973   3.187
 2748W        W 6948   7.102   8.714  10.035
 2749W        W 6949  10.343   7.677   2.084
 2750W        W 6950   6.957   1.268  10.038
 2751W        W 6951   9.121   0.377   2.236
 2752W        W 6952   4.762  11.359   3.316
 2753W        W 6953   8.888   3.541  10.345
 2754W        W 6954   0.003   8.018   1.377
 2755W        W 6955   7.426   7.246   3.120
 2756W        W 6956   5.235  10.803   0.657
 2757W        W 6957  10.682   7.134  11.421
 2758W        W 6958   1.707   9.864   0.524
 2759W        W 6959   2.206   1.862  10.284
 2760W        W 6960   8.458   7.658   1.850
 2761W        W 6961   8.417   4.181  10.758
 2762W        W 6962   2.131   9.852   1.404
 2763W        W 6963   5.063   7.785   0.405
 2764W        W 6964   3.166  11.415  10.624
 2765W        W 6965   5.285   6.927   9.954
 2766W        W 6966   8.653   5.853   1.379
 2767W        W 6967   1.827   8.613  11.336
 2768W        W 6968   1.876   9.387   1.246
 2769W        W 6969   7.540   9.184   9.443
 2770W        W 6970   2.359   6.993   3.199
 2771W        W 6971   1.902   9.004   3.337
 2772W        W 6972   0.850   9.066   2.543
 2773W        W 6973   2.625  11.369  10.878
 2774W        W 6974   6.212  10.437  11.356
 2775W        W 6975   1.241  11.476   1.303
 2776W        W 6976   8.004   7.593   8.844
 2777W        W 6977   6.536   6.699  11.717
 2778W        W 6978   4.239   3.886   8.811
 2779W        W 6979   2.687  10.155  11.984
 2780W        W 6980   6.814   6.557   2.507
 2781W        W 6981   1.107   7.104   1.875
 2782W        W 6982   0.725   8.335   9.380
 2783W        W 6983   7.511   2.551   0.706
 2784W        W 6984   3.532  10.007   9.686
 2785W        W 6985   9.769   1.490   3.350
 2786W        W 6986   9.044   6.166   1.365
 2787W        W 6987   7.647   4.273   2.427
 2788W        W 6988   5.625   5.674   0.485
 2789W        W 6989   2.654   5.063   8.897
 2790W        W 6990  10.132  11.263   2.563
 2791W        W 6991   4.770   0.665   9.904
 2792W        W 6992   1.305   4.397  10.212
 2793W        W 6993   1.324   1.793   9.812
 2794W        W 6994   3.935   8.106   3.047
 2795W        W 6995   3.971   6.455   2.664
 2796W        W 6996  11.287   8.566   9.497
 2797W        W 6997   2.180   7.711   1.867
 2798W        W 6998   5.670   4.297  10.249
 2799W        W 6999   5.209  10.748   8.695
 2800W        W 7000  11.279   2.841  11.232
 2801W        W 7001  10.931   8.483   9.116
 2802W        W 7002   2.518   5.523   8.714
 2803W        W 7003   0.184   9.127  10.848
 2804W        W 7004   8.928   5.666   8.918
 2805W        W 7005   2.720   9.448   3.215
 2806W        W 7006   5.790   8.882  10.999
 2807W        W 7007   0.387   8.935   0.809
 2808W        W 7008   8.550   9.788  10.308
 2809W        W 7009   4.545   3.975  11.810
 2810W        W 7010   6.830   2.268  11.111
 2811W        W 7011   0.339   4.027   9.888
 2812W        W 7012   4.206   0.426   0.036
 2813W        W 7013   4.907   2.804  11.420
 2814W        W 7014   1.777   0.938  10.652
 2815W        W 7015   6.018   5.109   9.987
 2816W        W 7016   9.558   9.882   2.435
 2817W        W 7017  11.461   0.370   1.660
 2818W        W 7018   8.904   1.754   2.195
 2819W        W 7019  11.057   0.039   1.723
 2820W        W 7020   2.860   8.517  11.081
 2821W        W 7021   6.551   3.638  10.858
 2822W        W 7022  10.329   9.167  11.336
 2823W        W 7023   3.873   1.399   3.420
 2824W        W 7024   5.202   4.123  11.907
 2825W        W 7025   1.882   1.967   3.047
 2826W        W 7026   3.276   8.602  11.358
 2827W        W 7027   6.691   6.679   3.630
 2828W        W 7028   2.760   0.015   2.269
 2829W        W 7029   1.105   5.418   0.759
 2830W        W 7030   9.975   1.197  10.323
 2831W        W 7031   2.874   5.896  10.362
 2832W        W 7032   4.869   9.526   0.215
 2833W        W 7033   6.234   5.842   9.400
 2834W        W 7034   5.536   1.929   9.543
 2835W        W 7035   0.449   0.958   1.371
 2836W        W 7036   9.087   5.048   4.274
 2837W        W 7037   6.743   2.587   4.015
 2838W        W 7038   3.238   0.493   2.830
 2839W        W 7039   0.233   2.159   2.829
 2840W        W 7040   6.449  11.174   0.971
 2841W        W 7041   4.509   8.574   0.221
 2842W        W 7042   8.133  10.039   9.121
 2843W        W 7043   0.890  11.043   3.781
 2844W        W 7044  10.038  10.342  11.838
 2845W        W 7045   2.677   8.146   2.937
 2846W        W 7046   9.941   6.239   1.468
 2847W        W 7047   3.262   9.225   2.393
 2848W        W 7048   8.345   0.783   8.991
 2849W        W 7049   0.029   0.672   1.191
 2850W        W 7050   5.240  10.141  10.794
 2851W        W 7051   8.910   9.514   0.403
 2852W        W 7052   9.334   2.251  10.108
 2853W        W 7053   5.636   7.054   9.021
 2854W        W 7054   6.559   9.523   2.805
 2855W        W 7055   8.467   9.026   1.744
 2856W        W 7056   4.575   9.743  10.996
 2857W        W 7057   4.371   9.571  11.451
 2858W        W 7058   4.164  10.048   0.513
 2859W        W 7059   7.938  10.071   0.724
 2860W        W 7060   4.318   1.431  11.035
 2861W        W 7061   8.980   0.663   9.522
 2862W        W 7062   7.570  10.391   1.236
 2863W        W 7063   0.443   9.911   9.495
 2864W        W 7064  10.819   0.221   1.272
 2865W        W 7065   2.761   7.375  10.183
 2866W        W 7066   9.908   6.518   0.284
 2867W        W 7067  10.366   1.306   9.246
 2868W        W 7068   8.374   5.037  11.504
 2869W        W 7069   7.429   0.941   9.163
 2870W        W 7070   8.753   7.553  11.049
 2871W        W 7071   0.765   2.314   9.663
 2872W        W 7072   2.155   9.096   2.875
 2873W        W 7073   8.470   3.219   8.392
 2874W        W 7074   0.301   1.728  10.056
 2875W        W 7075   8.334   4.114   0.501
 2876W        W 7076   6.268   5.746   0.784
 2877W        W 7077   6.092   0.983   8.991
 2878W        W 7078   6.058   7.444   9.788
 2879W        W 7079   2.332   0.246  11.351
 2880W        W 7080   4.331   6.821   2.682
 2881W        W 7081   2.084   7.877   1.045
 2882W        W 7082   8.035   9.255   9.561
 2883W        W 7083   7.626   6.710  11.325
 2884W        W 7084  10.857  11.435   0.222
 2885W        W 7085   2.230   7.488   3.088
 2886W        W 7086   2.404   5.259   2.144
 2887W        W 7087   3.296   4.716   8.960
 2888W        W 7088   2.161   2.894   9.336
 2889W        W 7089  10.511   9.964   3.488
 2890W        W 7090   8.881   0.636   9.002
 2891W        W 7091   3.454  10.943   3.855
 2892W        W 7092   0.124   1.451   2.223
 2893W        W 7093   6.807   7.962  11.174
 2894W        W 7094   2.699  10.678  10.427
 2895W        W 7095   4.582   4.029   2.542
 2896W        W 7096   8.157   3.653   0.350
 2897W        W 7097   2.368   7.564   0.680
 2898W        W 7098   6.468   9.396  10.400
 2899W        W 7099   4.102   6.419  11.235
 2900W        W 7100  10.933   5.363  11.333
 2901W        W 7101   0.886   6.710  11.614
 2902W        W 7102   0.278   0.414   9.951
 2903W        W 7103   7.152  11.320   3.540
 2904W        W 7104   5.943   8.022  10.996
 2905W        W 7105   7.413   9.601   1.852
 2906W        W 7106   5.678  11.367   1.334
 2907W        W 7107   7.955   3.675  10.423
 2908W        W 7108   2.253   1.174   2.785
 2909W        W 7109   0.072   4.182   2.533
 2910W        W 7110   4.069   3.398   8.820
 2911W        W 7111   9.390   6.551   3.563
 2912W        W 7112   5.327  11.306   1.729
 2913W        W 7113   9.027   2.285   1.368
 2914W        W 7114   8.954   9.026   1.556
 2915W        W 7115   9.912   0.449   2.323
 2916W        W 7116   0.344   9.247   1.210
 2917W        W 7117   0.702   9.523   1.952
 2918W        W 7118   5.110   9.600   8.549
 2919W        W 7119   0.331   8.022   3.104
 2920W        W 7120   8.048   9.499   2.462
 2921W        W 7121  11.440  11.387   2.516
 2922W        W 7122   7.108   2.951   4.100
 2923W        W 7123   4.847  10.833   9.867
 2924W        W 7124   6.438   2.351  10.803
 2925W        W 7125   5.218   6.916   3.570
 2926W        W 7126   4.097  11.057  11.180
 2927W        W 7127   2.738  11.048   2.012
 2928W        W 7128  10.605   0.470   0.881
 2929W        W 7129   5.240   2.622   0.825
 2930W        W 7130   0.221   6.964   1.253
 2931W        W 7131   0.584   1.762   2.894
 2932W        W 7132   0.886   7.672   9.994
 2933W        W 7133   1.567   2.148  10.300
 2934W        W 7134   0.180   9.575   2.059
 2935W        W 7135   2.883   2.129   0.055
 2936W        W 7136   8.426   6.760  11.980
 2937W        W 7137  10.612   8.566  10.411
 2938W        W 7138   1.816   9.306  11.858
 2939W        W 7139   6.305  10.472  11.881
 2940W        W 7140   0.347   3.392   2.365
 2941W        W 7141   7.266   2.418  11.341
 2942W        W 7142   3.411   5.664   2.831
 2943W        W 7143   3.572   4.339   3.060
 2944W        W 7144  11.126   0.871  10.950
 2945W        W 7145   3.240   5.168   2.846
 2946W        W 7146   0.836   9.510  10.308
 2947W        W 7147  10.360   0.426  11.995
 2948W        W 7148   5.096  10.161   2.598
 2949W        W 7149   9.548   5.032   2.668
 2950W        W 7150   9.506   6.949   8.650
 2951W        W 7151   2.672   1.990   1.865
 2952W        W 7152   3.864   1.444   9.464
 2953W        W 7153  10.888   5.675   0.741
 2954W        W 7154   3.960  11.303   9.987
 2955W        W 7155   2.662  10.230  10.753
 2956W        W 7156   0.271   5.148   3.226
 2957W        W 7157   7.573   3.353  10.503
 2958W        W 7158   9.856   9.621   9.546
 2959W        W 7159   5.161   9.329   8.997
 2960W        W 7160   5.521   6.319  11.830
 2961W        W 7161   1.223   3.234   0.186
 2962W        W 7162   5.970   1.745   2.386
 2963W        W 7163   0.885  10.351   1.869
 2964W        W 7164   3.788   1.233   2.403
 2965W        W 7165   9.372   2.783   1.035
 2966W        W 7166   7.415   5.009   3.774
 2967W        W 7167   5.053   6.082   0.515
 2968W        W 7168   4.913  10.115   1.744
 2969W        W 7169   9.373   8.133   1.365
 2970W        W 7170   7.943   9.066   9.095
 2971W        W 7171   3.861   5.509   0.249
 2972W        W 7172   1.710   3.156  10.950
 2973W        W 7173   8.945   8.832   0.264
 2974W        W 7174   2.904  10.287   9.099
 2975W        W 7175   9.083   1.488   2.607
 2976W        W 7176   5.126   7.325   8.890
 2977W        W 7177  10.782   3.277   0.907
 2978W        W 7178   2.738   1.862   2.709
 2979W        W 7179   5.853   3.300   9.389
 2980W        W 7180  10.024   9.478   0.900
 2981W        W 7181   8.963   2.939   0.767
 2982W        W 7182   0.180   4.043  11.660
 2983W        W 7183   5.201   1.439  11.087
 2984W        W 7184   2.164   4.272   9.588
 2985W        W 7185   6.795   2.073   2.421
 2986W        W 7186   0.507   0.441  10.399
 2987W        W 7187  10.153   7.089   9.502
 2988W        W 7188   3.547   6.704   9.832
 2989W        W 7189   6.135   6.520   9.949
 2990W        W 7190   2.709   6.705   8.254
 2991W        W 7191   0.346   0.070   1.158
 2992W        W 7192   2.068   4.291   9.081
 2993W        W 7193  11.404   3.895   0.755
 2994W        W 7194   3.715   0.845   9.083
 2995W        W 7195   6.527   4.583  10.702
 2996W        W 7196   8.634  10.475   9.017
 2997W        W 7197   0.139   0.416   3.218
 2998W        W 7198   8.854   4.866  11.530
 2999W        W 7199   9.770  11.327  11.711
 3000W        W 7200   0.451   3.282   8.908
 3001W        W 7201   2.229   0.025   0.017
 3002W        W 7202  10.927   0.441   0.435
 3003W        W 7203   4.873   1.470   9.568
 3004W        W 7204   0.914   1.365   2.851
 3005W        W 7205   4.322   2.333   2.648
 3006W        W 7206   7.257   2.805   3.110
 3007W        W 7207   3.512   9.448   2.765
 3008W        W 7208   4.372   3.699  10.565
 3009W        W 7209  10.776   0.811  10.585
 3010W        W 7210   9.897   7.681   2.978
 3011W        W 7211   1.222   5.777   1.862
 3012W        W 7212   0.785   8.518  11.223
 3013W        W 7213   2.978   5.999   9.866
 3014W        W 7214   1.307   3.171   1.750
 3015W        W 7215   7.404   2.098   0.933
 3016W        W 7216   1.385   8.589   0.955
 3017W        W 7217   4.104   9.198  10.430
 3018W        W 7218   0.679   8.392   3.746
 3019W        W 7219   3.747   4.911  10.281
 3020W        W 7220   9.592   5.122  11.711
 3021W        W 7221  10.005   8.115   2.693
 3022W        W 7222   2.276   1.963   9.256
 3023W        W 7223   5.685   9.030   2.532
 3024W        W 7224   5.139   3.813  10.920
 3025W        W 7225   6.705   2.661   8.551
 3026W        W 7226   4.259   1.121  11.912
 3027W        W 7227   6.548   1.668   8.768
 3028W        W 7228   3.217   5.290  11.044
 3029W        W 7229   2.638   0.614   1.178
 3030W        W 7230   3.855   5.863   1.464
 3031W        W 7231   3.627   4.339   1.250
 3032W        W 7232   5.088   5.709  10.209
 3033W        W 7233   0.696   7.994  11.346
 3034W        W 7234   8.672   7.435  10.372
 3035W        W 7235   4.619   7.954  11.044
 3036W        W 7236  11.212  11.034   1.785
 3037W        W 7237  10.058   5.182   2.445
 3038W        W 7238   6.260   3.268   9.058
 3039W        W 7239   1.395   5.725  10.201
 3040W        W 7240   2.658   1.690  10.370
 3041W        W 7241  10.145   9.599   1.632
 3042W        W 7242   2.654   0.178  11.808
 3043W        W 7243   0.160   2.576   1.016
 3044W        W 7244   3.136   7.534   1.674
 3045W        W 7245   3.642   9.805   3.191
 3046W        W 7246   0.905  10.791  11.936
 3047W        W 7247   6.285   7.675   0.620
 3048W        W 7248   6.034   1.390   8.446
 3049W        W 7249   9.882   5.150  11.299
 3050W        W 7250   9.180   7.938   9.024
 3051W        W 7251   7.964   4.706   2.525
 3052W        W 7252   6.765   8.824  11.146
 3053W        W 7253   7.718   3.635   2.826
 3054W        W 7254   3.155  10.893  11.910
 3055W        W 7255   7.739   7.592  10.369
 3056W        W 7256  11.045  11.499   3.310
 3057W        W 7257   7.060   0.568   9.079
 3058W        W 7258   0.510  10.856  11.546
 3059W        W 7259   9.906   7.605   9.631
 3060W        W 7260   0.890   0.444   0.664
 3061W        W 7261   2.323   7.202   9.923
 3062W        W 7262   1.204   1.191   9.173
 3063W        W 7263   4.422   2.667  11.411
 3064W        W 7264   3.699  11.380   9.086
 3065W        W 7265  10.408   8.171  11.491
 3066W        W 7266  10.932   2.737   0.217
 3067W        W 7267   9.941   4.868   3.453
 3068W        W 7268   8.882   7.249   0.338
 3069W        W 7269   2.771   1.819  11.639
 3070W        W 7270   7.481  10.384   9.796
 3071W        W 7271   9.480   8.848   8.959
 3072W        W 7272   7.486   6.736   3.207
 3073W        W 7273   5.509  10.744   1.936
 3074W        W 7274   1.451   5.271  11.480
 3075W        W 7275   0.015  10.086   2.018
 3076W        W 7276   5.534   0.621  10.157
 3077W        W 7277   5.821   7.574   0.796
 3078W        W 7278   5.240   3.726   2.272
 3079W        W 7279  10.547   1.421   2.916
 3080W        W 7280   8.184   5.048  10.459
 3081W        W 7281   6.661  10.476   1.237
 3082W        W 7282   6.764   3.754  11.314
 3083W        W 7283   6.053  11.018   1.266
 3084W        W 7284   9.865   4.691  11.559
 3085W        W 7285  11.333   9.237   3.426
 3086W        W 7286   0.520   5.904  10.842
 3087W        W 7287   7.467   8.509  11.477
 3088W        W 7288   5.190   5.729   9.674
 3089W        W 7289   8.064   0.017   3.406
 3090W        W 7290   2.673  10.192  10.251
 3091W        W 7291   8.327   0.787  11.211
 3092W        W 7292   9.430   7.377   1.054
 3093W        W 7293   8.974   1.599   9.350
 3094W        W 7294   5.607   4.487   1.082
 3095W        W 7295   2.901   4.637   8.624
 3096W        W 7296   5.330  10.987   9.787
 3097W        W 7297   1.846   6.574   2.797
 3098W        W 7298   4.157  11.442   8.869
 3099W        W 7299   6.596   9.862   8.943
 3100W        W 7300   5.818   6.053  11.541
 3101W        W 7301   0.852   2.661  10.713
 3102W        W 7302   4.573   5.457   1.457
 3103W        W 7303   4.282   7.830  10.077
 3104W        W 7304   2.843   7.510   2.093
 3105W        W 7305   1.437   8.157  10.525
 3106W        W 7306   7.502   2.757   1.649
 3107W        W 7307  11.381   1.254   0.042
 3108W        W 7308   8.049   0.826   1.988
 3109W        W 7309   6.133   0.452  11.772
 3110W        W 7310   5.253  10.507   1.070
 3111W        W 7311   8.110   2.448  11.932
 3112W        W 7312   7.041   4.093   1.082
 3113W        W 7313   3.253   8.651   9.355
 3114W        W 7314   3.594   5.763  11.869
 3115W        W 7315   5.811  10.760   0.281
 3116W        W 7316   4.041   0.778  10.441
 3117W        W 7317  11.375   5.202   9.760
 3118W        W 7318   6.442   4.767  11.713
 3119W        W 7319   1.187   8.587   9.335
 3120W        W 7320   3.261   7.909   0.372
 3121W        W 7321   3.290   8.194   1.265
 3122W        W 7322   1.807  11.228  10.563
 3123W        W 7323   4.563   0.011   0.894
 3124W        W 7324   8.486  11.336   2.646
 3125W        W 7325   6.169   1.296   0.741
 3126W        W 7326   0.897   7.240   4.009
 3127W        W 7327   0.370   3.814   0.988
 3128W        W 7328   3.734   3.200  11.888
 3129W        W 7329   1.628  10.309   9.016
 3130W        W 7330   3.515  11.283   3.051
 3131W        W 7331  11.038   8.729   0.569
 3132W        W 7332   5.705   2.299   9.197
 3133W        W 7333   2.553   5.107   3.791
 3134W        W 7334   6.754  10.535   9.079
 3135W        W 7335   5.746   2.826  10.024
 3136W        W 7336   3.970   4.674   9.815
 3137W        W 7337   4.557   9.078   0.273
 3138W        W 7338   7.761   8.322   9.237
 3139W        W 7339   0.244   0.846  10.247
 3140W        W 7340  11.477   1.275   1.309
 3141W        W 7341  11.117  10.757   3.539
 3142W        W 7342   1.291  11.376  10.496
 3143W        W 7343   6.842   7.865   2.345
 3144W        W 7344   6.509   4.487   2.610
 3145W        W 7345   1.023   4.512   1.343
 3146W        W 7346   4.267  10.321   1.969
 3147W        W 7347   0.619  10.058   0.198
 3148W        W 7348   1.401   9.519  11.018
 3149W        W 7349   8.970   1.095   9.205
 3150W        W 7350   2.907   0.272   0.253
 3151W        W 7351  11.324   8.719   3.364
 3152W        W 7352  11.162   4.639   3.426
 3153W        W 7353  11.218   4.342   9.883
 3154W        W 7354   1.918   1.867   0.033
 3155W        W 7355   6.968   9.795   0.917
 3156W        W 7356   5.286   8.955  10.991
 3157W        W 7357   1.890   3.887   0.884
 3158W        W 7358  10.491   8.448  11.927
 3159W        W 7359   4.394   9.943   9.237
 3160W        W 7360   2.557   1.234   2.389
 3161W        W 7361   8.414   5.547   8.978
 3162W        W 7362   1.552  10.406   0.991
 3163W        W 7363   3.738   1.764  10.425
 3164W        W 7364   5.618   1.677   1.614
 3165W        W 7365   8.177   1.025   2.454
 3166W        W 7366  10.530   9.338   0.181
 3167W        W 7367   6.238   5.082  10.470
 3168W        W 7368   3.598  10.981   9.453
 3169W        W 7369   8.495   2.667  10.003
 3170W        W 7370   2.297   8.674   9.115
 3171W        W 7371  10.875   9.519   3.422
 3172W        W 7372   9.334   4.248   9.648
 3173W        W 7373   5.743   7.990   9.095
 3174W        W 7374   3.156   6.955   1.043
 3175W        W 7375   9.994   4.575  10.152
 3176W        W 7376   2.827   2.802   0.472
 3177W        W 7377   5.591   2.835   3.372
 3178W        W 7378   6.959   0.779  10.243
 3179W        W 7379  11.463  10.953   2.263
 3180W        W 7380   2.111   6.118  11.766
 3181W        W 7381  11.344   7.607   1.624
 3182W        W 7382   1.683   0.692   9.176
 3183W        W 7383  10.584   8.858   1.395
 3184W        W 7384   3.205   8.880   1.983
 3185W        W 7385   6.083   8.309   1.780
 3186W        W 7386   0.363  11.069   1.312
 3187W        W 7387   5.998  10.917  11.446
 3188W        W 7388   9.867   2.239  11.778
 3189W        W 7389   8.930   0.863  10.744
 3190W        W 7390   8.609   3.778   2.669
 3191W        W 7391   1.201   6.507   3.555
 3192W        W 7392   8.873   1.220   9.697
 3193W        W 7393   3.817   7.784  11.427
 3194W        W 7394   8.321   9.524   2.019
 3195W        W 7395   9.310   7.845   1.843
 3196W        W 7396   0.951   9.878   9.382
 3197W        W 7397   8.781   4.566   1.272
 3198W        W 7398   1.085  11.289  11.943
 3199W        W 7399   1.193   1.003   2.607
 3200W        W 7400   5.751   3.261   8.372
 3201W        W 7401   9.946   6.188   9.840
 3202W        W 7402   5.635   0.943   2.207
 3203W        W 7403   2.692   7.170  11.743
 3204W        W 7404   5.755  11.270   0.424
 3205W        W 7405   2.641   2.834   9.462
 3206W        W 7406   3.744   2.726   3.298
 3207W        W 7407  10.938   8.944   9.303
 3208W        W 7408   2.212  11.235   2.769
 3209W        W 7409   9.069   4.674   9.683
 3210W        W 7410   8.137   9.385   1.565
 3211W        W 7411   7.548   9.044   2.925
 3212W        W 7412   2.007   7.636   2.638
 3213W        W 7413   8.713  11.346   0.386
 3214W        W 7414   0.796   1.597  11.351
 3215W        W 7415   8.451   0.568   1.755
 3216W        W 7416   7.500   7.977   1.008
 3217W        W 7417   4.003   2.830   9.561
 3218W        W 7418   0.833   8.799   0.063
 3219W        W 7419  10.770   4.872  11.437
 3220W        W 7420  11.279   8.177   0.367
 3221W        W 7421   2.731   1.525  11.228
 3222W        W 7422   6.621   0.744   2.777
 3223W        W 7423   4.184   0.963   3.418
 3224W        W 7424  10.799  10.776  10.912
 3225W        W 7425   7.258   1.346   9.582
 3226W        W 7426  10.936   2.550   9.714
 3227W        W 7427   9.429   6.624   0.329
 3228W        W 7428   1.879   2.905   2.719
 3229W        W 7429   3.479   4.401   0.455
 3230W        W 7430   9.564   6.554   0.817
 3231W        W 7431  10.238   1.269   3.333
 3232W        W 7432   7.513   9.433  11.289
 3233W        W 7433   9.935   9.488  10.519
 3234W        W 7434   3.920  10.065   9.346
 3235W        W 7435   3.442   7.959   1.751
 3236W        W 7436  10.585   1.836   9.193
 3237W        W 7437  10.784   0.833   3.464
 3238W        W 7438   3.604   8.959   0.566
 3239W        W 7439   6.993   4.314   2.782
 3240W        W 7440   3.140   3.213   0.457
 3241W        W 7441   6.511   9.189   8.477
 3242W        W 7442   6.120   5.218  11.900
 3243W        W 7443   4.329   8.637   2.565
 3244W        W 7444   6.282  11.295   0.379
 3245W        W 7445   3.661   6.506   2.136
 3246W        W 7446   2.814   4.332   0.928
 3247W        W 7447   1.254  10.069   1.263
 3248W        W 7448  11.335  10.291   9.949
 3249W        W 7449   8.085  10.312  11.282
 3250W        W 7450   0.910   5.660   9.975
 3251W        W 7451   8.415   7.089   9.815
 3252W        W 7452   0.782   7.779  10.878
 3253W        W 7453   3.949   3.211   0.902
 3254W        W 7454   6.396   5.753  10.554
 3255W        W 7455  10.428   9.784   0.937
 3256W        W 7456   0.780   9.971   0.674
 3257W        W 7457   0.391  11.049   9.958
 3258W        W 7458   4.659   4.390  10.016
 3259W        W 7459   0.854   1.265  11.730
 3260W        W 7460  11.475   0.167   0.709
 3261W        W 7461  10.917   1.242   3.210
 3262W        W 7462   1.945  10.442   3.129
 3263W        W 7463   6.305   6.035   1.209
 3264W        W 7464   0.307  11.470  10.256
 3265W        W 7465  10.243   0.539   2.728
 3266W        W 7466   5.368  10.091   0.769
 3267W        W 7467   5.982  11.387   2.820
 3268W        W 7468   2.789   9.387   9.267
 3269W        W 7469   8.373   9.268   3.258
 3270W        W 7470   9.916   2.830   0.463
 3271W        W 7471   9.392   0.038   1.459
 3272W        W 7472   5.034   0.006   2.498
 3273W        W 7473   9.695   0.029   0.163
 3274W        W 7474   8.405   8.615   2.054
 3275W        W 7475   3.349   8.467   2.802
 3276W        W 7476   0.375   6.087   0.749
 3277W        W 7477   4.204   6.535   8.573
 3278W        W 7478   5.060   2.370   9.991
 3279W        W 7479   1.136   8.770   2.922
 3280W        W 7480   2.612   8.487   3.302
 3281W        W 7481   0.340  11.044   8.452
 3282W        W 7482   7.505   1.421   1.195
 3283W        W 7483   1.431   2.220   3.223
 3284W        W 7484   9.960   7.191   9.952
 3285W        W 7485   1.310   0.584   2.379
 3286W        W 7486   2.687   3.466   1.013
 3287W        W 7487  11.274   6.869   0.370
 3288W        W 7488   7.476   8.193   0.306
 3289W        W 7489   6.973  10.174   0.066
 3290W        W 7490   0.460   0.464   1.461
 3291W        W 7491   5.506   3.256   0.095
 3292W        W 7492   8.650   5.933  10.081
 3293W        W 7493   2.223   4.121   1.754
 3294W        W 7494   0.407   2.976  11.831
 3295W        W 7495   7.663   0.077   1.672
 3296W        W 7496   1.937   5.136   2.314
 3297W        W 7497   7.479   2.683   2.163
 3298W        W 7498   1.402   6.923   9.508
 3299W        W 7499   8.498   0.272   2.977
 3300W        W 7500   1.560   9.447   0.841
 3301W        W 7501  11.336   1.618   0.428
 3302W        W 7502   6.604   7.102   9.662
 3303W        W 7503   9.059   8.891  11.232
 3304W        W 7504   3.749   4.631   0.832
 3305W        W 7505   1.800   0.463  10.019
 3306W        W 7506   8.377   8.890   9.423
 3307W        W 7507   1.043   7.938  11.744
 3308W        W 7508   0.455   5.544  10.473
 3309W        W 7509   2.962   9.494   9.811
 3310W        W 7510  10.847   0.653   8.953
 3311W        W 7511   3.240   8.209  10.095
 3312W        W 7512   7.470   0.529   0.271
 3313W        W 7513  11.324   6.448  10.463
 3314W        W 7514   3.171   1.270   1.554
 3315W        W 7515   3.188   7.692  10.799
 3316W        W 7516   6.701   9.055   2.401
 3317W        W 7517   8.013   0.516   0.286
 3318W        W 7518   1.886   3.081   1.271
 3319W        W 7519   4.989  10.359   0.507
 3320W        W 7520  10.322   3.669   8.668
 3321W        W 7521   3.884   2.343   0.917
 3322W        W 7522   7.542   5.617   1.563
 3323W        W 7523   1.368   8.915   1.968
 3324W        W 7524   6.207  10.144   1.197
 3325W        W 7525  10.590   6.093   0.679
 3326W        W 7526   4.023   2.195   3.516
 3327W        W 7527   9.767   3.066   1.863
 3328W        W 7528   0.203   4.554   2.992
 3329W        W 7529   0.545   3.894  10.564
 3330W        W 7530   6.046  10.586   1.025
 3331W        W 7531  10.484  11.204   0.490
 3332W        W 7532  10.321  10.485   9.205
 3333W        W 7533   4.364   5.993  11.178
 3334W        W 7534   9.355   1.022   9.591
 3335W        W 7535   3.067   1.450  10.562
 3336W        W 7536   4.736   6.788   9.490
 3337W        W 7537   4.671   1.100   2.890
 3338W        W 7538  10.723   3.624   2.667
 3339W        W 7539   0.609   9.060  10.502
 3340W        W 7540   8.540   1.498   8.417
 3341W        W 7541   0.846   0.503   3.139
 3342W        W 7542   0.419   2.250   8.766
 3343W        W 7543   6.184  11.474   9.874
 3344W        W 7544   4.088   1.620   1.305
 3345W        W 7545   9.936   6.659  11.284
 3346W        W 7546   4.058   5.048   0.052
 3347W        W 7547   8.041  10.536   1.421
 3348W        W 7548   7.278   5.473   1.032
 3349W        W 7549  11.365   6.012   2.411
 3350W        W 7550   9.458   8.418   2.789
 3351W        W 7551   0.582   7.487  11.270
 3352W        W 7552   7.463   6.036   1.907
 3353W        W 7553   3.022   9.748   3.498
 3354W        W 7554   6.786   4.208   2.269
 3355W        W 7555   3.438   6.560   2.645
 3356W        W 7556   4.990   7.535   1.269
 3357W        W 7557   0.872   8.419  11.715
 3358W        W 7558   7.413   9.907  10.041
 3359W        W 7559   0.958   5.668  10.491
 3360W        W 7560   7.993   8.923   3.184
 3361W        W 7561   5.697   3.124  11.182
 3362W        W 7562  11.453   2.818   2.964
 3363W        W 7563   5.206  10.534  11.110
 3364W        W 7564   2.243   8.559   0.779
 3365W        W 7565   0.375   1.761  11.598
 3366W        W 7566   2.887   7.161  10.798
 3367W        W 7567   8.351   5.659   2.745
 3368W        W 7568   0.944   8.037   1.483
 3369W        W 7569   6.723   9.130   4.154
 3370W        W 7570   1.106  11.257   0.470
 3371W        W 7571   6.582   3.045   0.033
 3372W        W 7572   9.174   6.434   1.806
 3373W        W 7573   2.845   2.964   1.918
 3374W        W 7574   6.500   4.376   9.807
 3375W        W 7575   3.203   3.513   3.238
 3376W        W 7576   4.758   0.767  11.301
 3377W        W 7577   9.367   4.081  10.643
 3378W        W 7578   7.778   3.363   8.739
 3379W        W 7579   3.782   6.460   9.451
 3380W        W 7580  10.328   9.501  11.738
 3381W        W 7581   3.814   4.130   2.652
 3382W        W 7582   4.535   7.301   9.412
 3383W        W 7583   6.940   0.485   9.593
 3384W        W 7584   1.061   6.234   8.808
 3385W        W 7585   1.286   2.447  10.937
 3386W        W 7586   4.899   6.557  10.603
 3387W        W 7587   9.360   2.319  11.618
 3388W        W 7588  10.939   6.728   2.675
 3389W        W 7589   4.269   5.311   1.865
 3390W        W 7590   5.023   2.388   1.867
 3391W        W 7591   5.476   4.967   2.799
 3392W        W 7592   9.783   9.934  11.266
 3393W        W 7593   4.391   7.024   0.631
 3394W        W 7594   8.261   6.973   3.358
 3395W        W 7595  10.824  11.058  11.839
 3396W        W 7596  10.503   6.085   3.293
 3397W        W 7597   5.246   2.236   8.962
 3398W        W 7598   7.035   1.017   8.827
 3399W        W 7599   7.062   2.889  11.247
 3400W        W 7600   6.788   7.038  10.186
 3401W        W 7601   5.237   5.728   0.844
 3402W        W 7602  10.033   7.171  10.798
 3403W        W 7603   9.018   6.182   9.779
 3404W        W 7604   4.186   1.934   1.703
 3405W        W 7605   2.947   8.643   9.931
 3406W        W 7606   0.435   9.529   8.521
 3407W        W 7607   9.884   8.554   8.758
 3408W        W 7608   6.509   9.642   9.409
 3409W        W 7609   3.109   1.686   1.882
 3410W        W 7610   8.443   2.566   8.531
 3411W        W 7611   5.239   1.427   9.202
 3412W        W 7612   4.146   3.185   9.889
 3413W        W 7613   9.511  10.274  10.949
 3414W        W 7614   3.023   3.165  10.647
 3415W        W 7615   3.560   8.579   0.243
 3416W        W 7616   1.357   2.648   9.906
 3417W        W 7617   1.786   7.661  10.403
 3418W        W 7618   4.106   6.737  10.837
 3419W        W 7619   7.848   6.917   1.543
 3420W        W 7620   1.953   2.851   1.775
 3421W        W 7621   8.416   6.295   0.818
 3422W        W 7622   6.689  11.264   2.367
 3423W        W 7623   2.762   2.574   9.046
 3424W        W 7624   2.333   6.904   9.488
 3425W        W 7625   4.320   0.370  10.610
 3426W        W 7626   3.117  10.833   9.556
 3427W        W 7627   7.113   5.016   0.085
 3428W        W 7628  10.818   9.002   0.960
 3429W        W 7629   9.596   1.474   2.628
 3430W        W 7630   4.325   9.861   2.839
 3431W        W 7631   0.709   0.885   2.727
 3432W        W 7632   6.762  10.627   3.216
 3433W        W 7633  10.932  10.910   0.325
 3434W        W 7634  10.933   8.071   2.707
 3435W        W 7635   5.831   6.673  10.926
 3436W        W 7636   8.959   4.403  11.387
 3437W        W 7637   2.196   8.378   9.500
 3438W        W 7638   4.141   3.059   3.219
 3439W        W 7639   2.516   2.170   2.328
 3440W        W 7640   4.151   3.650  10.119
 3441W        W 7641   6.547  10.504  10.171
 3442W        W 7642   3.482   8.768   2.410
 3443W        W 7643   6.632   5.190  11.989
 3444W        W 7644   9.876   2.711   9.592
 3445W        W 7645  10.825   8.951  11.232
 3446W        W 7646   1.333   5.210   0.355
 3447W        W 7647   7.199   6.970   0.921
 3448W        W 7648   2.325   1.072   1.943
 3449W        W 7649   8.657   7.790   0.891
 3450W        W 7650   6.984   3.905  11.761
 3451W        W 7651   7.098   8.564   3.437
 3452W        W 7652   9.804   4.567   1.026
 3453W        W 7653   8.632  11.228   1.277
 3454W        W 7654   1.677   0.839   9.653
 3455W        W 7655   8.081   0.983   3.432
 3456W        W 7656   8.199  10.477  10.815
 3457W        W 7657  10.851   5.733   3.128
 3458W        W 7658   2.122   4.917   3.562
 3459W        W 7659   5.278   7.882  10.279
 3460W        W 7660   1.763   2.709   9.605
 3461W        W 7661   0.097   1.743  10.552
 3462W        W 7662   9.407   2.730   3.022
 3463W        W 7663   3.411   1.236   9.279
 3464W        W 7664   7.116   3.928   1.984
 3465W        W 7665   8.798   5.166   8.986
 3466W        W 7666   0.270   8.283   0.236
 3467W        W 7667   7.698   8.046  11.266
 3468W        W 7668   5.129   6.852   2.505
 3469W        W 7669   2.421   9.468  10.170
 3470W        W 7670   6.704   6.912  10.706
 3471W        W 7671   5.061   4.207   2.384
 3472W        W 7672   0.044   9.638  10.903
 3473W        W 7673   5.882   7.516   3.124
 3474W        W 7674  11.391   8.791   9.053
 3475W        W 7675   7.737   8.539  11.950
 3476W        W 7676   5.157   9.361   1.888
 3477W        W 7677   1.831   9.467   3.052
 3478W        W 7678   3.032   5.265   0.634
 3479W        W 7679   5.953   6.063   0.066
 3480W        W 7680  10.849   4.520   9.489
 3481W        W 7681   9.012   6.705   1.407
 3482W        W 7682   0.790  10.799   1.187
 3483W        W 7683   5.984   0.807  10.335
 3484W        W 7684  11.479   1.272  10.804
 3485W        W 7685   9.580   5.412  10.938
 3486W        W 7686   4.298   9.452   9.458
 3487W        W 7687  10.291   2.782   8.943
 3488W        W 7688   4.013   5.547   2.371
 3489W        W 7689  10.831   8.188  10.117
 3490W        W 7690   4.690   0.835   3.318
 3491W        W 7691   1.374   6.115  11.154
 3492W        W 7692   6.059   6.462  11.791
 3493W        W 7693   9.769   4.123  10.310
 3494W        W 7694   8.325   1.438   0.857
 3495W        W 7695   5.740   5.755   0.986
 3496W        W 7696   3.580   8.311   2.160
 3497W        W 7697   8.545   4.679   3.198
 3498W        W 7698   1.232   8.630   0.439
 3499W        W 7699   8.880  10.472   0.459
 3500W        W 7700   0.814   4.754   2.189
 3501W        W 7701   0.538  10.586  10.908
 3502W        W 7702  10.031   1.718   9.575
 3503W        W 7703   4.313   3.708   9.635
 3504W        W 7704   2.414   3.042   3.288
 3505W        W 7705   3.309   9.583   8.845
 3506W        W 7706   2.384   5.325  10.972
 3507W        W 7707   9.355   7.020   0.681
 3508W        W 7708   7.500   4.587   2.811
 3509W        W 7709  11.026  11.369   8.571
 3510W        W 7710   1.583   8.609   3.202
 3511W        W 7711  10.848   8.358   1.289
 3512W        W 7712   6.782   5.217   1.888
 3513W        W 7713  11.312   5.760   1.911
 3514W        W 7714   8.304  11.189  10.494
 3515W        W 7715   2.791   5.037  10.880
 3516W        W 7716   2.253   6.628  11.291
 3517W        W 7717   1.584   8.523   2.351
 3518W        W 7718   3.027  10.555   0.772
 3519W        W 7719   3.255   5.599   9.026
 3520W        W 7720   1.037  10.714  11.001
 3521W        W 7721   1.810   6.582  11.552
 3522W        W 7722   8.147   8.422   3.203
 3523W        W 7723   4.598   9.032   9.377
 3524W        W 7724  11.351   3.308   9.554
 3525W        W 7725   3.192   4.172  11.986
 3526W        W 7726   9.049   2.277   2.227
 3527W        W 7727   1.291   0.741  11.400
 3528W        W 7728   3.124   4.762   9.532
 3529W        W 7729   5.260   1.405   0.429
 3530W        W 7730   9.326   4.686   2.318
 3531W        W 7731   0.477   0.243   2.865
 3532W        W 7732   0.765   6.426  11.154
 3533W        W 7733   3.784   2.580   2.779
 3534W        W 7734   1.057  10.400   0.891
 3535W        W 7735   6.140   7.677   8.918
 3536W        W 7736   0.729   3.334  11.982
 3537W        W 7737   1.743   9.827   8.846
 3538W        W 7738   4.312   1.853   0.384
 3539W        W 7739   3.320   4.613  10.351
 3540W        W 7740  10.424  10.872   0.094
 3541W        W 7741   6.569   9.295  11.182
 3542W        W 7742   8.144   2.146  11.530
 3543W        W 7743   0.939   3.759  11.238
 3544W        W 7744   4.624   1.496  11.934
 3545W        W 7745   5.239  10.620   9.293
 3546W        W 7746   8.851  10.404   2.273
 3547W        W 7747  11.141   5.187   0.002
 3548W        W 7748   8.067  10.369   2.949
 3549W        W 7749   9.375   5.532   2.470
 3550W        W 7750   1.633   1.842  11.609
 3551W        W 7751   6.448   9.366   8.944
 3552W        W 7752   5.999  10.430  10.354
 3553W        W 7753   7.890   8.928   1.742
 3554W        W 7754  10.962   7.428   1.349
 3555W        W 7755   1.869   8.949   2.407
 3556W        W 7756   4.945   8.308  11.745
 3557W        W 7757  10.191  11.387   0.084
 3558W        W 7758   6.694  11.290   1.850
 3559W        W 7759   4.768   9.885   9.567
 3560W        W 7760   8.586  10.343  11.106
 3561W        W 7761   5.391   7.324   3.287
 3562W        W 7762   6.295   3.863   1.395
 3563W        W 7763   2.734   3.051  11.067
 3564W        W 7764  11.365   5.575   0.899
 3565W        W 7765   7.939   3.230   9.595
 3566W        W 7766   5.230  11.084   3.219
 3567W        W 7767   1.296   0.091   2.298
 3568W        W 7768   1.323   9.199   3.149
 3569W        W 7769   7.126   7.392   2.107
 3570W        W 7770   4.097   6.474  11.767
 3571W        W 7771  10.974   1.865   1.717
 3572W        W 7772   9.281  11.478   3.639
 3573W        W 7773   6.171   2.479   8.639
 3574W        W 7774   6.688   9.924   2.503
 3575W        W 7775   3.619   3.588   8.988
 3576W        W 7776   3.110  10.050   9.989
 3577W        W 7777   8.057   0.247   0.746
 3578W        W 7778   9.980  10.277   8.832
 3579W        W 7779   8.711   2.402   2.583
 3580W        W 7780   0.439   2.277   1.361
 3581W        W 7781   3.663   0.369   9.236
 3582W        W 7782  11.381  11.015   8.706
 3583W        W 7783  11.035   2.314   2.271
 3584W        W 7784   1.825   6.042  10.852
 3585W        W 7785   3.438   8.609   9.830
 3586W        W 7786   2.588   7.098   1.933
 3587W        W 7787   9.944   4.840   0.624
 3588W        W 7788   7.692   8.836   2.266
 3589W        W 7789  11.330  10.563   1.985
 3590W        W 7790   0.923   5.426   1.617
 3591W        W 7791   6.984   1.886   0.661
 3592W        W 7792   1.976   2.302  11.743
 3593W        W 7793   6.544   5.693   1.504
 3594W        W 7794   9.109   3.446  11.211
 3595W        W 7795   3.521   7.504   2.606
 3596W        W 7796   3.584   7.078  10.186
 3597W        W 7797   7.269   6.220  11.005
 3598W        W 7798   4.002   9.334   8.523
 3599W        W 7799   6.154   2.852   0.740
 3600W        W 7800   9.551   9.058  11.763
 3601W        W 7801   2.402   9.162   8.982
 3602W        W 7802   9.196   5.797   3.036
 3603W        W 7803   4.991   6.662  11.234
 3604W        W 7804   4.247   4.724  11.248
 3605W        W 7805   5.359   8.848  11.894
 3606W        W 7806   3.244   7.908   2.240
 3607W        W 7807   8.444   1.812   0.516
 3608W        W 7808  11.360   7.853   3.028
 3609W        W 7809   0.992   8.264  10.823
 3610W        W 7810   1.134   4.271  11.272
 3611W        W 7811   6.097   5.283   9.475
 3612W        W 7812   6.671  10.209   0.814
 3613W        W 7813   6.806   0.295  10.067
 3614W        W 7814   5.627   4.069   9.816
 3615W        W 7815   4.623   1.608   2.937
 3616W        W 7816   8.087   8.117   0.978
 3617W        W 7817   1.899  10.312   0.230
 3618W        W 7818   1.315   2.712   9.336
 3619W        W 7819   6.485   2.644   2.331
 3620W        W 7820   4.113   7.555   9.648
 3621W        W 7821   2.293   5.557  10.435
 3622W        W 7822   9.540   8.266  10.743
 3623W        W 7823   1.881   7.006   9.266
 3624W        W 7824   9.974   0.867   0.565
 3625W        W 7825   6.144   8.537   2.246
 3626W        W 7826  11.309   1.103   0.530
 3627W        W 7827   7.490   7.677   0.226
 3628W        W 7828  11.073   6.168   0.862
 3629W        W 7829   2.142   8.999   0.515
 3630W        W 7830   8.388   6.889   2.321
 3631W        W 7831   3.234   4.704   2.093
 3632W        W 7832  10.964   1.396   1.443
 3633W        W 7833   4.669   1.912   0.917
 3634W        W 7834   5.653   0.640   1.784
 3635W        W 7835   3.215   7.571   3.031
 3636W        W 7836   1.067   7.633  11.329
 3637W        W 7837  10.028   9.942   3.244
 3638W        W 7838   5.767   2.218   2.357
 3639W        W 7839   9.043  10.821   1.530
 3640W        W 7840   6.532   8.166   2.908
 3641W        W 7841   1.836  10.406  10.734
 3642W        W 7842   9.941   8.757   0.083
 3643W        W 7843   1.744   4.218   9.930
 3644W        W 7844   4.249   8.483   0.949
 3645W        W 7845   9.838   5.666  11.319
 3646W        W 7846   0.172   1.717   0.053
 3647W        W 7847   3.662  10.472   9.479
 3648W        W 7848   8.519  10.866   0.435
 3649W        W 7849   5.017   3.877   9.211
 3650W        W 7850   8.017   0.041   2.436
 3651W        W 7851   5.452   7.446   0.370
 3652W        W 7852  10.429   0.849  10.950
 3653W        W 7853   8.223   1.911   0.068
 3654W        W 7854   0.702   0.055  11.064
 3655W        W 7855   8.067  10.333   3.458
 3656W        W 7856   8.554   6.612   3.137
 3657W        W 7857  10.953   8.590  10.875
 3658W        W 7858   1.345   0.275   2.807
 3659W        W 7859   5.039   5.240  10.439
 3660W        W 7860   8.539   4.629  11.098
 3661W        W 7861   2.349   5.214   2.649
 3662W        W 7862   9.334   2.379   9.138
 3663W        W 7863   4.059   1.229   9.047
 3664W        W 7864   2.610   6.563   2.286
 3665W        W 7865   7.295   7.960  10.960
 3666W        W 7866   5.104   3.880   2.753
 3667W        W 7867   4.492   9.867   1.871
 3668W        W 7868   8.353  11.450   9.240
 3669W        W 7869   8.487   0.311   8.912
 3670W        W 7870   0.937   2.296   1.420
 3671W        W 7871   2.879  10.530   9.928
 3672W        W 7872   5.107   3.253   0.460
 3673W        W 7873   9.632   3.482   9.405
 3674W        W 7874  10.059   7.181   2.826
 3675W        W 7875  10.603   2.670  11.843
 3676W        W 7876   5.069   3.071   3.188
 3677W        W 7877   6.331   6.586  10.852
 3678W        W 7878   0.360  10.825   0.875
 3679W        W 7879  11.400   3.069   0.071
 3680W        W 7880   1.262   0.356   9.109
 3681W        W 7881  11.231   2.337   1.809
 3682W        W 7882   3.785   5.208   2.062
 3683W        W 7883   2.383   3.114   1.752
 3684W        W 7884   4.301   9.251  10.939
 3685W        W 7885   6.010   5.307  10.878
 3686W        W 7886   5.654   1.335   3.591
 3687W        W 7887   3.309   8.665  10.852
 3688W        W 7888   8.727   5.143   1.958
 3689W        W 7889   6.289   3.989  10.605
 3690W        W 7890   2.324  10.352   1.369
 3691W        W 7891   4.907   4.096   3.154
 3692W        W 7892   8.150  10.749   0.072
 3693W        W 7893   7.294   2.128  10.899
 3694W        W 7894   2.841  11.032   9.939
 3695W        W 7895   6.525   5.668   2.005
 3696W        W 7896   7.079   7.558  11.330
 3697W        W 7897   4.365   5.974   1.542
 3698W        W 7898   9.739   0.095   3.354
 3699W        W 7899   4.187   9.089   1.710
 3700W        W 7900   9.501   4.519   2.789
 3701W        W 7901   3.384   2.276  11.003
 3702W        W 7902   6.142   5.623   9.876
 3703W        W 7903   2.381   7.968  11.510
 3704W        W 7904   2.273   5.678  11.956
 3705W        W 7905   0.365   6.584   9.178
 3706W        W 7906   9.952   1.034  11.034
 3707W        W 7907   0.447  11.350   1.768
 3708W        W 7908  11.376   2.660  10.346
 3709W        W 7909   7.955   6.668   3.730
 3710W        W 7910   2.668   6.653  10.819
 3711W        W 7911   3.149   5.862   2.023
 3712W        W 7912   5.745   6.678   1.634
 3713W        W 7913  11.363   9.069   2.941
 3714W        W 7914   1.109   2.953  11.773
 3715W        W 7915  11.039   7.914   9.329
 3716W        W 7916   5.646   9.428   1.722
 3717W        W 7917   3.835   2.459  11.229
 3718W        W 7918   9.582   5.214   0.730
 3719W        W 7919   8.524   7.430   1.375
 3720W        W 7920   9.517   3.265  11.565
 3721W        W 7921   2.298   3.579  10.524
 3722W        W 7922   9.708   9.589   3.430
 3723W        W 7923   8.578  11.299  10.924
 3724W        W 7924   7.112   2.663  10.322
 3725W        W 7925   3.151   6.169   2.869
 3726W        W 7926   1.127   0.901   0.428
 3727W        W 7927   8.546   5.654   1.846
 3728W        W 7928  10.067   6.138   2.602
 3729W        W 7929   4.159   7.737  10.984
 3730W        W 7930  10.433  11.495   0.916
 3731W        W 7931   0.102   2.648   8.517
 3732W        W 7932   6.132   2.784  11.305
 3733W        W 7933   4.253   0.061   0.447
 3734W        W 7934   6.331   6.941   1.305
 3735W        W 7935   6.070   4.818   1.787
 3736W        W 7936   7.777   5.579   1.114
 3737W        W 7937   7.300   9.383   0.985
 3738W        W 7938   5.152   9.193   0.719
 3739W        W 7939   1.883  10.041   1.837
 3740W        W 7940   5.283   4.655  10.279
 3741W        W 7941   4.302   3.802   0.235
 3742W        W 7942   3.087   2.563   9.469
 3743W        W 7943   6.903   4.709   9.853
 3744W        W 7944   5.062   9.677   0.724
 3745W        W 7945   5.165   0.872   3.019
 3746W        W 7946   9.386   3.563   2.919
 3747W        W 7947   0.288   6.329  10.669
 3748W        W 7948   0.801  11.273   1.424
 3749W        W 7949   3.271   4.239  11.057
 3750W        W 7950   4.052   0.303  10.171
 3751W        W 7951   0.458   5.760   1.556
 3752W        W 7952  10.833   3.226   0.019
 3753W        W 7953   8.145   8.179   2.758
 3754W        W 7954   6.231   8.302  11.829
 3755W        W 7955   9.092   6.501   9.373
 3756W        W 7956   2.167   3.883   2.651
 3757W        W 7957   3.533  10.854   1.245
 3758W        W 7958   9.635   1.911   9.839
 3759W        W 7959   8.301   4.318   2.438
 3760W        W 7960   9.482  10.770   1.856
 3761W        W 7961   9.534   8.547  11.784
 3762W        W 7962   3.305   1.944   0.291
 3763W        W 7963   3.894   9.065   2.537
 3764W        W 7964   9.269   1.368   3.078
 3765W        W 7965   6.109   0.311  10.252
 3766W        W 7966   7.629   4.614  10.967
 3767W        W 7967  10.853  11.057   0.824
 3768W        W 7968   6.054   8.121   0.710
 3769W        W 7969   6.670   4.675  11.223
 3770W        W 7970   2.222   4.257  10.096
 3771W        W 7971   8.512   3.637   9.971
 3772W        W 7972   0.748   9.787   1.162
 3773W        W 7973   3.039   0.450   2.357
 3774W        W 7974   8.439   3.634  10.548
 3775W        W 7975   2.917   5.200   2.072
 3776W        W 7976   6.086   4.116   9.131
 3777W        W 7977   9.255   5.395   3.423
 3778W        W 7978   2.563   5.662   3.161
 3779W        W 7979   6.907  10.687   8.610
 3780W        W 7980   4.179   5.632  10.252
 3781W        W 7981   6.679   3.145   2.332
 3782W        W 7982   0.809  11.232   9.498
 3783W        W 7983   0.273   7.470   8.777
 3784W        W 7984   7.997   1.879   2.450
 3785W        W 7985   9.796   7.899   0.467
 3786W        W 7986   9.833   6.025   9.378
 3787W        W 7987   3.361   3.328  11.568
 3788W        W 7988   5.625   0.890   2.732
 3789W        W 7989  10.944   9.945   3.136
 3790W        W 7990   2.151   8.252   8.714
 3791W        W 7991   8.592  10.088   9.376
 3792W        W 7992   1.826   5.967   9.102
 3793W        W 7993  11.280   7.488   2.113
 3794W        W 7994  10.072   5.346   1.507
 3795W        W 7995   7.944   8.178   9.706
 3796W        W 7996   8.018   1.935   8.934
 3797W        W 7997   9.831   0.908   2.542
 3798W        W 7998   5.694   9.889   0.436
 3799W        W 7999  10.794   2.729  11.287
 3800W        W 8000   9.787   1.515  11.793
 3801W        W 8001   8.991   2.973  11.089
 3802W        W 8002   3.405   5.681   0.574
 3803W        W 8003   0.700   1.192   9.056
 3804W        W 8004   2.557   2.216  10.459
 3805W        W 8005   1.849   3.590   1.314
 3806W        W 8006   3.635   7.856   9.566
 3807W        W 8007   7.893   7.402  10.825
 3808W        W 8008   5.247   3.504  10.531
 3809W        W 8009   4.719  10.033  10.542
 3810W        W 8010   7.956   3.814   9.067
 3811W        W 8011   3.633   8.588   1.216
 3812W        W 8012   6.669   7.387   2.313
 3813W        W 8013   7.588   7.552  11.222
 3814W        W 8014   3.146  10.464  10.345
 3815W        W 8015   0.626   2.787   1.244
 3816W        W 8016   9.804   2.360  10.390
 3817W        W 8017   8.491   9.374  11.140
 3818W        W 8018   8.524  10.568   9.516
 3819W        W 8019   4.461  11.350  10.125
 3820W        W 8020  11.214   9.140  11.526
 3821W        W 8021   1.629   9.403   3.506
 3822W        W 8022   8.100   5.445   8.213
 3823W        W 8023   2.013   8.891   9.553
 3824W        W 8024   8.748   5.322   3.370
 3825W        W 8025   8.433   8.189   1.779
 3826W        W 8026  10.959   1.228   9.671
 3827W        W 8027   9.104   8.100   2.431
 3828W        W 8028   3.974   9.974   1.754
 3829W        W 8029   8.196   5.499   9.467
 3830W        W 8030  10.700   2.310   1.873
 3831W        W 8031   7.382   4.469   1.220
 3832W        W 8032   9.462   6.968  10.833
 3833W        W 8033   0.456   6.852   2.559
 3834W        W 8034  10.380   6.554   0.479
 3835W        W 8035   1.777   4.109  11.823
 3836W        W 8036   4.674   4.099  10.898
 3837W        W 8037   0.553   4.959   3.663
 3838W        W 8038   1.810  10.245   1.382
 3839W        W 8039   7.225  11.427   0.344
 3840W        W 8040   6.292   6.991  10.060
 3841W        W 8041  10.016   9.737   8.791
 3842W        W 8042   2.509  10.566   1.803
 3843W        W 8043   8.917   2.966   0.181
 3844W        W 8044   9.402   0.366   9.357
 3845W        W 8045  10.283   1.289   1.983
 3846W        W 8046   0.795   3.500  10.824
 3847W        W 8047   6.928   1.503   2.593
 3848W        W 8048   8.445  10.504  11.574
 3849W        W 8049  11.005  10.317  10.857
 3850W        W 8050   9.502   1.912  11.926
 3851W        W 8051   3.505   3.337   2.344
 3852W        W 8052  10.011   0.383   0.361
 3853W        W 8053   3.784   8.975  11.984
 3854W        W 8054   8.979  10.361   1.355
 3855W        W 8055   3.786   0.264   0.303
 3856W        W 8056   2.307   1.410  10.038
 3857W        W 8057   9.411   3.622  10.325
 3858W        W 8058   6.994   9.478   9.562
 3859W        W 8059   8.594   5.114   4.124
 3860W        W 8060  10.140   0.807   1.483
 3861W        W 8061   1.416   1.439   2.713
 3862W        W 8062   0.805   9.385   1.476
 3863W        W 8063   7.287  10.950   0.698
 3864W        W 8064   6.485   2.324   2.728
 3865W        W 8065   9.572   1.813   3.007
 3866W        W 8066   4.982   3.378   1.929
 3867W        W 8067   2.449   1.310  11.633
 3868W        W 8068   7.186   3.473   2.206
 3869W        W 8069   8.510  10.959   9.177
 3870W        W 8070  10.450  10.956  10.592
 3871W        W 8071   9.816   3.568   1.828
 3872W        W 8072  11.433   6.678   8.888
 3873W        W 8073   0.222   9.532   3.668
 3874W        W 8074   3.557   5.419   1.365
 3875W        W 8075   6.005   1.860   9.345
 3876W        W 8076   4.717   4.307   0.920
 3877W        W 8077   6.039   1.746   0.510
 3878W        W 8078   3.131   3.448   9.145
 3879W        W 8079   6.095   7.457  10.778
 3880W        W 8080   4.486   8.895  10.578
 3881W        W 8081  10.944   9.422   0.495
 3882W        W 8082   5.126   4.668   0.706
 3883W        W 8083   4.477   8.709   9.001
 3884W        W 8084   5.772   1.869   3.150
 3885W        W 8085  10.319  10.139  11.441
 3886W        W 8086   5.732   4.378   9.417
 3887W        W 8087   9.516   7.385   8.990
 3888W        W 8088   4.768   0.686  10.768
 3889W        W 8089   4.267   4.222   9.532
 3890W        W 8090   7.206   1.824   2.946
 3891W        W 8091   1.330  10.432  11.503
 3892W        W 8092   4.473   1.266   1.280
 3893W        W 8093   4.803   3.623   9.596
 3894W        W 8094   3.386   7.115   3.271
 3895W        W 8095   9.029  10.733  11.731
 3896W        W 8096  11.248   5.778  11.344
 3897W        W 8097   4.791  10.638   0.878
 3898W        W 8098  11.318   0.165   0.198
 3899W        W 8099   4.188   9.867   9.745
 3900W        W 8100   3.589   8.053   2.623
 3901W        W 8101   3.140   9.904   0.000
 3902W        W 8102   2.695   9.081   9.940
 3903W        W 8103   9.446   9.292  10.746
 3904W        W 8104   5.528   4.702   0.159
 3905W        W 8105   8.456   0.501  11.969
 3906W        W 8106  10.911  11.250  11.362
 3907W        W 8107   8.844   5.859  11.462
 3908W        W 8108   9.549   3.626  10.846
 3909W        W 8109   6.335   5.212   2.749
 3910W        W 8110   5.230  10.130   9.455
 3911W        W 8111   0.460   3.310   0.877
 3912W        W 8112  11.415   1.335   3.139
 3913W        W 8113   8.346   1.250  10.560
 3914W        W 8114   4.922  10.852  11.786
 3915W        W 8115   1.765   0.185   9.157
 3916W        W 8116   4.626   8.425  10.729
 3917W        W 8117   5.607  11.288  10.784
 3918W        W 8118   8.535   1.750   2.559
 3919W        W 8119   6.366   7.297   0.948
 3920W        W 8120   0.281   8.993   8.757
 3921W        W 8121  10.508   2.254   2.345
 3922W        W 8122   4.164   9.503   2.009
 3923W        W 8123  10.359   8.509   2.630
 3924W        W 8124  11.318   3.829   9.947
 3925W        W 8125   7.155   0.324  11.583
 3926W        W 8126   2.251   5.754   1.957
 3927W        W 8127   0.465   3.653   1.936
 3928W        W 8128   8.052   2.213   1.255
 3929W        W 8129   7.233   7.833   9.956
 3930W        W 8130   2.748   7.961   2.325
 3931W        W 8131   7.406   5.240   2.261
 3932W        W 8132   8.408   6.424   3.585
 3933W        W 8133   7.645   5.077   2.699
 3934W        W 8134   9.664  10.255   2.053
 3935W        W 8135   6.065   7.795   1.841
 3936W        W 8136  10.398  11.449  10.769
 3937W        W 8137   5.654   1.722  11.181
 3938W        W 8138   7.201   5.186   1.565
 3939W        W 8139   8.573   1.839  11.735
 3940W        W 8140   3.277   2.702   1.838
 3941W        W 8141   0.510   4.346  10.322
 3942W        W 8142   1.231  11.035   1.560
 3943W        W 8143   3.892   4.102   0.360
 3944W        W 8144   9.467   4.777   8.328
 3945W        W 8145   9.036   4.755  11.040
 3946W        W 8146   7.666   1.021   2.501
 3947W        W 8147   4.582  10.839   8.546
 3948W        W 8148   7.196   8.414   0.906
 3949W        W 8149   7.601   8.398   3.220
 3950W        W 8150   5.405   7.784   3.056
 3951W        W 8151   6.286  11.348  11.400
 3952W        W 8152   3.790   2.787   1.688
 3953W        W 8153   7.518   3.105  11.847
 3954W        W 8154   3.256   1.813   1.408
 3955W        W 8155   7.925   3.161   1.632
 3956W        W 8156   1.965   9.444  10.394
 3957W        W 8157   1.059   5.577  11.002
 3958W        W 8158   9.328   2.866   2.080
 3959W        W 8159   2.721   7.606   3.170
 3960W        W 8160   8.461   4.292   0.019
 3961W        W 8161   7.138   7.352   1.609
 3962W        W 8162   7.152   4.554   3.639
 3963W        W 8163   6.659   3.086   1.810
 3964W        W 8164   4.177   3.847   2.859
 3965W        W 8165   4.259   8.851  10.094
 3966W        W 8166   7.879   4.451  11.722
 3967W        W 8167   2.189   7.436  10.868
 3968W        W 8168   9.542   4.596  11.932
 3969W        W 8169   2.129   6.169   2.895
 3970W        W 8170   1.347   8.677  10.610
 3971W        W 8171   8.330   5.077   9.160
 3972W        W 8172   4.811  10.401   1.340
 3973W        W 8173   6.062   3.210   9.886
 3974W        W 8174   9.058   5.589   1.616
 3975W        W 8175   8.463   7.131   1.867
 3976W        W 8176   9.044   4.714   0.348
 3977W        W 8177   5.858   2.631  10.478
 3978W        W 8178   2.090   5.666   2.960
 3979W        W 8179   1.797   8.798  11.795
 3980W        W 8180  11.430   9.019   0.450
 3981W        W 8181   0.726   7.716   2.962
 3982W        W 8182   5.142   9.959   9.933
 3983W        W 8183   8.626   9.300  10.126
 3984W        W 8184   4.791   0.737   9.006
 3985W        W 8185   7.699   2.195   9.244
 3986W        W 8186   4.846   0.819   0.623
 3987W        W 8187   7.646  11.193  11.064
 3988W        W 8188   2.362   3.816   2.186
 3989W        W 8189   8.097   7.204   1.184
 3990W        W 8190   6.745   4.981   0.573
 3991W        W 8191   6.646  10.891   2.772
 3992W        W 8192   1.310   3.795   2.473
 3993W        W 8193   0.715   5.718   0.665
 3994W        W 8194   4.698   1.732   8.929
 3995W        W 8195   8.970   9.562   2.723
 3996W        W 8196   2.031   0.487  10.532
 3997W        W 8197   6.578   1.254   9.087
 3998W        W 8198   6.131   6.941  11.984
 3999W        W 8199   8.917   7.746   0.434
 4000W        W 8200   5.279   8.040   0.034
 4001W        W 8201   2.197   0.905   1.212
 4002W        W 8202   9.485   4.606   3.328
 4003W        W 8203  10.419   0.531   9.713
 4004W        W 8204   7.433   9.255   2.386
 4005W        W 8205  11.274   1.758   1.245
 4006W        W 8206   7.620   8.467  10.991
 4007W        W 8207   1.941  10.808   2.310
 4008W        W 8208   4.265   9.609   3.279
 4009W        W 8209   4.232   2.851   2.758
 4010W        W 8210   9.623   5.986   2.354
 4011W        W 8211   7.968   3.762   9.927
 4012W        W 8212   3.359   5.398   1.876
 4013W        W 8213   4.646   4.371   2.144
 4014W        W 8214   5.920   4.052   3.070
 4015W        W 8215   7.178  10.953   2.778
 4016W        W 8216   9.321   4.613   1.345
 4017W        W 8217   2.652   7.599  10.702
 4018W        W 8218  10.716   2.177  10.629
 4019W        W 8219   1.316   2.277   0.451
 4020W        W 8220   6.078   6.414   0.927
 4021W        W 8221   3.351   1.386   3.330
 4022W        W 8222   6.614   7.063   3.969
 4023W        W 8223   5.698   8.207  10.344
 4024W        W 8224   1.305   5.174   3.354
 4025W        W 8225   2.887   9.278   8.764
 4026W        W 8226   8.243   5.643   3.323
 4027W        W 8227   0.360   2.877   3.360
 4028W        W 8228   2.926   0.807   1.695
 4029W        W 8229   5.697  10.833   8.566
 4030W        W 8230   5.947   1.317  11.296
 4031W        W 8231   6.445   6.154   1.732
 4032W        W 8232   1.267   0.805   8.852
 4033W        W 8233   9.521   4.160   0.851
 4034W        W 8234   3.880   6.884   2.410
 4035W        W 8235   4.317   8.524   9.473
 4036W        W 8236   4.603   8.046   0.492
 4037W        W 8237   3.015   5.119   0.042
 4038W        W 8238   9.383   1.368   9.090
 4039W        W 8239   6.886  10.589   0.508
 4040W        W 8240   5.694   1.156   1.674
 4041W        W 8241  11.318   6.637   1.795
 4042W        W 8242   4.057  10.580   3.390
 4043W        W 8243   3.737   0.278  11.799
 4044W        W 8244   4.031   8.508   0.017
 4045W        W 8245   2.487   0.566   9.650
 4046W        W 8246   2.750  11.387   9.030
 4047W        W 8247   1.788   3.622  11.205
 4048W        W 8248   3.656   6.395   8.603
 4049W        W 8249   1.205   1.877   1.536
 4050W        W 8250  11.298   7.484  10.048
 4051W        W 8251   6.741   7.866   8.277
 4052W        W 8252   0.413  11.271  10.737
 4053W        W 8253   8.769   7.583  11.965
 4054W        W 8254   5.522   3.031  10.688
 4055W        W 8255   6.640   1.873  10.845
 4056W        W 8256  11.275   5.143   9.249
 4057W        W 8257   8.094   9.320  11.952
 4058W        W 8258   7.454   0.531   9.494
 4059W        W 8259   3.245   4.631   0.928
 4060W        W 8260   7.689   9.994   9.517
 4061W        W 8261   4.019   8.464   9.061
 4062W        W 8262   1.756  11.173   0.484
 4063W        W 8263   9.495  11.025   8.729
 4064W        W 8264   0.548   6.182   1.874
 4065W        W 8265   5.024   3.823   1.689
 4066W        W 8266   5.530   5.201  11.860
 4067W        W 8267   2.145   8.408  11.745
 4068W        W 8268   2.357   3.401   8.649
 4069W        W 8269  10.785   5.528  10.473
 4070W        W 8270   3.994   0.936   9.518
 4071W        W 8271   7.617   3.750   1.656
 4072W        W 8272   4.733   9.120  10.192
 4073W        W 8273  10.806   3.901   0.069
 4074W        W 8274   7.951  11.187  11.880
 4075W        W 8275   5.637   0.227  10.490
 4076W        W 8276   3.076   5.126   9.179
 4077W        W 8277   6.767  10.629   0.015
 4078W        W 8278   2.226   9.874  11.848
 4079W        W 8279   4.007   3.159   2.370
 4080W        W 8280   3.217   6.369   4.018
 4081W        W 8281   7.529   0.094   2.647
 4082W        W 8282   3.093  10.010  10.540
 4083W        W 8283   2.993  10.616   1.940
 4084W        W 8284   6.822   1.961   8.411
 4085W        W 8285   8.462   7.494  11.504
 4086W        W 8286   9.518   4.578   8.797
 4087W        W 8287   6.312   8.047  11.381
 4088W        W 8288   1.037   6.273   1.928
 4089W        W 8289  11.004   1.798  11.416
 4090W        W 8290   2.645   7.505   9.369
 4091W        W 8291   8.313   7.765  11.963
 4092W        W 8292   9.529   4.897   0.333
 4093W        W 8293   0.036   2.880  10.789
 4094W        W 8294   6.716  10.290  10.589
 4095W        W 8295   3.772   3.870   8.582
 4096W        W 8296   5.763   8.848   9.470
 4097W        W 8297   3.542   5.344   3.236
 4098W        W 8298   6.630   6.815  11.202
 4099W        W 8299   0.555   9.475   0.781
 4100W        W 8300   3.644   1.734   3.094
 4101W        W 8301   0.553   3.833   0.002
 4102W        W 8302   9.772   1.941  10.874
 4103W        W 8303   5.685   2.169   0.085
 4104W        W 8304   6.407   6.587   2.834
 4105W        W 8305   2.319   4.810  11.863
 4106W        W 8306   0.793   8.495   1.763
 4107W        W 8307  11.077  10.598  11.826
 4108W        W 8308   5.005   4.747   9.852
 4109W        W 8309   2.984   0.778   8.578
 4110W        W 8310   4.475   4.826   9.822
 4111W        W 8311   0.515   7.466   3.750
 4112W        W 8312  10.889   9.512   0.982
 4113W        W 8313   9.825   9.498  11.010
 4114W        W 8314   3.953   0.038   3.197
 4115W        W 8315   9.622   5.952  10.475
 4116W        W 8316   1.951   0.818   1.699
 4117W        W 8317  11.232   2.753   2.436
 4118W        W 8318   3.181   6.652   3.117
 4119W        W 8319   9.940   7.671  10.124
 4120W        W 8320   6.840  11.200   8.583
 4121W        W 8321   2.188   1.376   0.989
 4122W        W 8322   5.280   0.965   1.383
 4123W        W 8323   0.372  10.575   1.415
 4124W        W 8324   8.459   6.190   8.661
 4125W        W 8325  10.823  10.334   8.826
 4126W        W 8326   1.726   8.522   9.317
 4127W        W 8327  10.854   7.869   0.459
 4128W        W 8328   0.059   6.214   1.966
 4129W        W 8329  11.442   7.616   9.575
 4130W        W 8330  10.016   8.489  11.229
 4131W        W 8331  11.354   4.105  11.239
 4132W        W 8332  11.486  10.079   2.803
 4133W        W 8333   6.056   3.760  10.982
 4134W        W 8334   9.808   4.111  10.910
 4135W        W 8335  10.985   6.823  10.621
 4136W        W 8336   2.436  10.510   9.158
 4137W        W 8337   4.332   4.310   0.148
 4138W        W 8338   2.778   0.748  10.988
 4139W        W 8339   6.548   1.243   2.863
 4140W        W 8340   9.421   4.069   8.553
 4141W        W 8341   6.736   2.718   3.159
 4142W        W 8342   6.584  11.048   9.844
 4143W        W 8343   8.805  11.018   0.831
 4144W        W 8344   0.158   2.657  11.526
 4145W        W 8345   6.816   0.830   0.266
 4146W        W 8346   0.317   4.365  11.265
 4147W        W 8347   1.072   4.944   1.801
 4148W        W 8348   6.711  10.343  11.602
 4149W        W 8349   4.026   4.608   0.402
 4150W        W 8350   0.953   3.348   8.876
 4151W        W 8351   0.858  10.842   0.680
 4152W        W 8352   8.196   6.648   1.853
 4153W        W 8353   1.770   9.871   1.032
 4154W        W 8354   7.726   9.609   0.784
 4155W        W 8355  10.091   1.758   0.626
 4156W        W 8356   7.595   3.999   1.159
 4157W        W 8357   9.522   6.214   0.034
 4158W        W 8358   2.828  10.838   9.115
 4159W        W 8359   1.653   4.320  11.313
 4160W        W 8360   7.033   3.229   3.294
 4161W        W 8361   3.658   6.108   2.848
 4162W        W 8362   9.440  11.214   3.195
 4163W        W 8363  10.706   7.100   9.475
 4164W        W 8364   8.148  10.975  10.910
 4165W        W 8365   5.649   7.744   3.527
 4166W        W 8366   2.987   6.489   3.573
 4167W        W 8367  10.516   6.149   0.173
 4168W        W 8368   2.676   3.444   2.006
 4169W        W 8369   6.580   1.853  11.379
 4170W        W 8370  11.272   8.940  10.609
 4171W        W 8371   8.772   6.983   9.042
 4172W        W 8372  10.673  10.328   2.200
 4173W        W 8373  10.014   9.051   3.241
 4174W        W 8374   2.787   6.133  10.842
 4175W        W 8375   9.837   1.054  11.589
 4176W        W 8376   9.662  10.558   8.548
 4177W        W 8377   9.154  10.366   0.879
 4178W        W 8378  10.432   2.164   1.444
 4179W        W 8379   3.511   1.506  11.229
 4180W        W 8380   5.607   1.371   2.509
 4181W        W 8381   3.946   0.737   2.505
 4182W        W 8382  10.820   4.184   8.588
 4183W        W 8383   7.648  10.704  11.911
 4184W        W 8384   7.718   9.025   0.102
 4185W        W 8385  10.791   9.939   8.512
 4186W        W 8386   6.077   4.292  10.965
 4187W        W 8387   8.982   2.782   3.336
 4188W        W 8388   9.880   8.554   2.439
 4189W        W 8389   3.141   3.716  10.859
 4190W        W 8390   2.385   4.652   8.310
 4191W        W 8391   1.914   7.056  11.139
 4192W        W 8392   2.050   1.265   2.318
 4193W        W 8393   2.770   0.472  11.402
 4194W        W 8394   9.922  11.073   1.826
 4195W        W 8395   1.808  10.258  10.214
 4196W        W 8396   9.609   8.577   1.458
 4197W        W 8397  10.699  10.312   9.999
 4198W        W 8398   9.495   6.970   3.265
 4199W        W 8399   5.550   5.264  10.454
 4200W        W 8400   5.711   7.692   8.386
 4201W        W 8401  11.402   6.758  11.421
 4202W        W 8402   9.722   8.308   0.190
 4203W        W 8403   3.768  11.489  11.361
 4204W        W 8404  10.306   8.175  10.601
 4205W        W 8405  10.807   0.939   0.769
 4206W        W 8406   0.805   7.435  10.460
 4207W        W 8407   8.154   6.556   8.442
 4208W        W 8408  10.864   5.174   0.836
 4209W        W 8409   7.599   2.577  10.970
 4210W        W 8410   4.647   7.500  10.819
 4211W        W 8411  10.361   6.439  10.503
 4212W        W 8412   6.068   0.376  10.762
 4213W        W 8413   3.931  11.261   2.682
 4214W        W 8414   2.828   4.522   2.515
 4215W        W 8415   5.009  11.197   8.854
 4216W        W 8416   1.691  11.235   1.424
 4217W        W 8417   2.899   6.061   2.444
 4218W        W 8418   9.882   1.649   2.030
 4219W        W 8419   4.700   1.246   9.119
 4220W        W 8420   4.226   2.766   0.954
 4221W        W 8421   6.616   0.283   2.498
 4222W        W 8422   7.485   0.709   8.710
 4223W        W 8423   7.920   8.247   3.615
 4224W        W 8424   9.465   0.048   2.409
 4225W        W 8425   6.749   5.667   1.002
 4226W        W 8426   9.624   3.427   0.391
 4227W        W 8427  10.846   2.657   2.784
 4228W        W 8428   2.723   9.785   2.126
 4229W        W 8429   8.017   9.400  11.406
 4230W        W 8430   8.331   9.906   3.226
 4231W        W 8431   9.999   3.099   9.261
 4232W        W 8432   4.915   0.011   2.014
 4233W        W 8433   0.005   8.067   0.853
 4234W        W 8434   8.832   6.908   0.963
 4235W        W 8435   3.696   4.465   3.555
 4236W        W 8436  10.298   2.235   9.026
 4237W        W 8437   2.846   7.779  11.173
 4238W        W 8438   3.694   8.441  10.278
 4239W        W 8439   9.114   4.165   1.212
 4240W        W 8440   1.713   5.709   1.638
 4241W        W 8441   8.259   8.392   9.342
 4242W        W 8442  10.898   1.838   0.291
 4243W        W 8443   9.487   7.884   9.879
 4244W        W 8444   7.802   6.102   1.522
 4245W        W 8445   9.717   7.197   1.448
 4246W        W 8446   1.219   4.947   0.945
 4247W        W 8447  10.820   4.982   9.051
 4248W        W 8448   5.057   7.025   2.028
 4249W        W 8449   4.033  10.916   1.380
 4250W        W 8450   4.329   9.628  10.578
 4251W        W 8451  11.139   4.231  10.805
 4252W        W 8452   9.132   0.839   0.335
 4253W        W 8453   0.954   3.124  10.473
 4254W        W 8454   6.834   6.199  11.374
 4255W        W 8455   4.274   1.147   2.569
 4256W        W 8456   8.072   1.167  11.645
 4257W        W 8457   8.356   6.099  11.459
 4258W        W 8458   0.920  10.441   0.365
 4259W        W 8459   0.362   4.684   8.482
 4260W        W 8460   3.885   8.845   8.725
 4261W        W 8461   5.359   9.880   1.702
 4262W        W 8462   0.814   8.159   0.951
 4263W        W 8463   3.447   1.321   2.015
 4264W        W 8464   9.117   1.375   0.469
 4265W        W 8465   8.434   4.303   1.952
 4266W        W 8466  10.277   9.568   9.225
 4267W        W 8467   0.983   8.481   9.793
 4268W        W 8468   7.256   2.321   2.882
 4269W        W 8469   9.442   4.403   0.410
 4270W        W 8470  10.416   6.671  11.480
 4271W        W 8471   2.918   8.975   3.296
 4272W        W 8472   6.042   4.791   2.660
 4273W        W 8473   5.349   3.121   9.372
 4274W        W 8474   0.792   0.141   9.137
 4275W        W 8475   7.232   1.932  10.397
 4276W        W 8476   1.439   7.149   9.051
 4277W        W 8477   4.216   7.430  11.410
 4278W        W 8478  10.964   5.705   2.292
 4279W        W 8479   9.170   9.792   0.085
 4280W        W 8480   8.003   4.072   0.081
 4281W        W 8481  11.051   8.041   1.658
 4282W        W 8482  10.994   5.226   3.005
 4283W        W 8483   1.350   6.617  11.869
 4284W        W 8484   7.939   4.330   9.061
 4285W        W 8485   0.247   8.519   2.443
 4286W        W 8486   0.304   1.831  11.098
 4287W        W 8487   8.871   0.955   0.762
 4288W        W 8488   6.287   2.152   2.266
 4289W        W 8489  10.208   1.039   2.868
 4290W        W 8490   0.030   3.806   9.497
 4291W        W 8491   7.947   7.770   3.801
 4292W        W 8492   9.527   9.116   2.227
 4293W        W 8493  11.252   6.993   2.193
 4294W        W 8494   7.103  10.344   1.938
 4295W        W 8495   7.101  10.131   0.555
 4296W        W 8496   0.941   7.984   1.987
 4297W        W 8497   4.252   8.456   8.607
 4298W        W 8498  10.098   9.008   2.704
 4299W        W 8499   2.413   8.992   3.308
 4300W        W 8500   0.473   0.278   3.613
 4301W        W 8501   8.255   3.227   3.560
 4302W        W 8502   4.075   7.174   1.023
 4303W        W 8503   4.726   6.090   3.531
 4304W        W 8504  10.825   8.558   2.860
 4305W        W 8505   8.167   9.514  10.007
 4306W        W 8506   3.127   6.542   2.191
 4307W        W 8507   0.296   6.506   0.021
 4308W        W 8508   1.676   1.412   0.930
 4309W        W 8509   2.762   8.459   1.000
 4310W        W 8510   7.676   5.134  10.242
 4311W        W 8511   8.145   7.698   2.630
 4312W        W 8512   4.643   0.290  11.489
 4313W        W 8513   6.553   6.225  11.918
 4314W        W 8514   7.053   1.190  10.537
 4315W        W 8515  10.934   1.132   2.706
 4316W        W 8516   0.626   4.662   9.435
 4317W        W 8517   9.452  10.937  11.526
 4318W        W 8518   9.377   9.859   1.850
 4319W        W 8519   9.041   3.645   9.876
 4320W        W 8520   9.970   4.759   2.792
 4321W        W 8521   3.852   5.963   9.511
 4322W        W 8522   8.960   8.992   8.914
 4323W        W 8523   6.808   2.206   3.087
 4324W        W 8524   7.711   6.195   0.467
 4325W        W 8525   4.561   3.435  11.931
 4326W        W 8526   6.481   3.191   3.211
 4327W        W 8527   4.510   2.027   3.562
 4328W        W 8528   7.541   1.898   1.404
 4329W        W 8529   9.832   3.580   2.653
 4330W        W 8530  11.172   9.430   1.979
 4331W        W 8531   9.148   8.553   9.890
 4332W        W 8532   4.544  10.283   0.234
 4333W        W 8533   2.784   4.246   7.759
 4334W        W 8534   2.726  10.633  11.668
 4335W        W 8535  10.468   5.952  10.722
 4336W        W 8536   6.049   3.714   3.612
 4337W        W 8537   6.225   3.664   9.405
 4338W        W 8538   1.186   7.041  10.509
 4339W        W 8539   6.165   0.930  11.563
 4340W        W 8540   7.194  10.511  11.735
 4341W        W 8541   4.682   2.476   1.107
 4342W        W 8542   3.172  11.291  11.104
 4343W        W 8543  10.202   4.174   8.523
 4344W        W 8544   8.424  10.014  11.806
 4345W        W 8545   9.180   3.134  10.232
 4346W        W 8546   6.492   9.838   3.417
 4347W        W 8547   6.266  10.318   3.435
 4348W        W 8548   1.304   5.306   2.868
 4349W        W 8549   9.350   4.731  11.471
 4350W        W 8550   1.753   2.558   0.468
 4351W        W 8551   8.915   4.274  10.880
 4352W        W 8552   2.756   0.369   1.911
 4353W        W 8553   0.662   8.686   2.224
 4354W        W 8554   4.470   0.833   0.270
 4355W        W 8555  10.373   7.943  10.162
 4356W        W 8556   6.985  11.300  10.016
 4357W        W 8557   6.696   0.162  11.471
 4358W        W 8558  10.011   8.390  11.732
 4359W        W 8559   4.076   8.847   0.397
 4360W        W 8560  10.916   6.554   1.182
 4361W        W 8561   8.851   0.555   8.489
 4362W        W 8562   5.036   3.228   9.770
 4363W        W 8563   1.151  10.531   9.112
 4364W        W 8564   3.875  10.339   0.894
 4365W        W 8565   2.989   3.166  11.887
 4366W        W 8566   5.934   6.623   8.955
 4367W        W 8567   8.748   6.851   8.165
 4368W        W 8568   9.846   1.318   9.296
 4369W        W 8569  11.297  10.294   3.311
 4370W        W 8570   2.402   2.001  11.949
 4371W        W 8571   6.140  10.042   9.433
 4372W        W 8572  10.268   2.622   1.283
 4373W        W 8573   5.203   2.590   3.121
 4374W        W 8574   7.574   3.402  11.431
 4375W        W 8575   4.062   7.043  10.412
 4376W        W 8576   4.530   6.646  11.946
 4377W        W 8577   3.779   2.215   2.430
 4378W        W 8578   3.256   0.967   3.041
 4379W        W 8579   6.180   9.047  11.545
 4380W        W 8580   0.767   1.015   3.216
 4381W        W 8581   8.311   6.043   9.120
 4382W        W 8582   2.780  10.581   2.697
 4383W        W 8583   8.113   3.317   9.124
 4384W        W 8584  11.299   9.596   2.921
 4385W        W 8585  11.368   8.462   1.137
 4386W        W 8586   4.432   0.053   1.861
 4387W        W 8587   8.082   7.416   3.058
 4388W        W 8588  11.443   3.230   2.644
 4389W        W 8589   4.801   2.585  10.974
 4390W        W 8590  10.358   7.694   3.248
 4391W        W 8591   9.423   2.688  10.381
 4392W        W 8592  10.966   7.111   1.777
 4393W        W 8593   9.329   8.814   1.827
 4394W        W 8594   0.882   4.120   3.168
 4395W        W 8595   6.063   2.267  11.129
 4396W        W 8596   7.834  10.822   1.044
 4397W        W 8597   7.217  11.348  11.393
 4398W        W 8598   3.209   4.145  10.125
 4399W        W 8599   7.528   7.088  10.988
 4400W        W 8600   9.863   0.030   1.627
 4401W        W 8601  11.417   5.035  11.600
 4402W        W 8602   9.548   6.164   3.871
 4403W        W 8603   3.700   6.780  11.907
 4404W        W 8604  10.881  10.793   2.152
 4405W        W 8605   9.954   6.701   9.823
 4406W        W 8606   4.695   9.438   1.668
 4407W        W 8607   0.590   6.016  10.332
 4408W        W 8608   4.579   2.533   0.269
 4409W        W 8609   4.945   0.396   3.246
 4410W        W 8610   7.737   4.555   9.503
 4411W        W 8611   3.138   1.302   1.042
 4412W        W 8612   8.455   2.230   8.945
 4413W        W 8613   0.799   2.856   0.163
 4414W        W 8614   4.320   9.064   2.838
 4415W        W 8615   7.994   2.847   3.312
 4416W        W 8616   0.335   3.124   1.945
 4417W        W 8617   3.466   6.674   3.561
 4418W        W 8618   0.135   2.559   9.516
 4419W        W 8619   8.886   2.507   8.885
 4420W        W 8620   9.223   8.332   1.828
 4421W        W 8621   9.862   9.950  10.738
 4422W        W 8622  10.344   8.992  10.441
 4423W        W 8623   6.414   7.953   3.689
 4424W        W 8624   5.592   3.361   0.616
 4425W        W 8625   9.956   4.412   3.171
 4426W        W 8626  11.017   3.591   2.244
 4427W        W 8627  10.888   1.991   9.678
 4428W        W 8628   3.473   7.684   1.301
 4429W        W 8629   3.257   1.964  11.745
 4430W        W 8630   8.999   6.119  11.877
 4431W        W 8631   0.693   1.215   2.017
 4432W        W 8632   3.782   9.510   1.691
 4433W        W 8633   5.756   1.356   3.004
 4434W        W 8634  10.728   2.720   2.255
 4435W        W 8635   8.745   9.121   2.899
 4436W        W 8636   1.170   1.542   8.470
 4437W        W 8637  10.350  10.995   9.065
 4438W        W 8638   6.634   0.013   3.452
 4439W        W 8639   1.443   4.841   9.124
 4440W        W 8640   4.595  11.374   8.583
 4441W        W 8641   9.796   3.619   0.847
 4442W        W 8642   2.783   2.481   1.780
 4443W        W 8643   6.825   6.260   9.253
 4444W        W 8644   2.353   8.431  11.258
 4445W        W 8645   3.194   0.034   0.867
 4446W        W 8646   3.059   3.735  11.746
 4447W        W 8647   7.585   0.295   2.182
 4448W        W 8648   0.226   2.855   2.427
 4449W        W 8649   5.143   8.184   2.443
 4450W        W 8650  11.339   0.499   9.063
 4451W        W 8651   1.321   1.827   2.182
 4452W        W 8652   1.227   3.218   9.308
 4453W        W 8653   9.973   4.342   0.401
 4454W        W 8654   9.445   1.572   1.771
 4455W        W 8655   2.623   8.349   0.511
 4456W        W 8656   9.805  10.569   9.953
 4457W        W 8657   1.294   3.308   0.719
 4458W        W 8658   1.623   1.456   3.489
 4459W        W 8659   1.962   9.867   9.318
 4460W        W 8660   2.369   5.825  10.903
 4461W        W 8661   1.044   5.006   9.566
 4462W        W 8662   7.581   3.167   9.193
 4463W        W 8663   0.082   5.949  10.363
 4464W        W 8664   9.253   4.587  10.596
 4465W        W 8665   3.081   0.582   3.312
 4466W        W 8666   9.256   1.177  10.995
 4467W        W 8667  10.406   6.770   2.391
 4468W        W 8668   9.011   1.195   1.290
 4469W        W 8669   4.757   1.712  11.194
 4470W        W 8670   9.402   6.360  10.109
 4471W        W 8671   1.903   3.718   3.315
 4472W        W 8672   9.500   5.019   9.542
 4473W        W 8673  10.913   4.384  11.310
 4474W        W 8674   6.121   9.211   1.504
 4475W        W 8675   4.440   7.799   9.345
 4476W        W 8676   7.012   8.913   9.013
 4477W        W 8677   8.196   0.850  10.272
 4478W        W 8678   8.627   6.672   8.642
 4479W        W 8679   2.887   9.312   2.061
 4480W        W 8680   6.028   6.826   2.605
 4481W        W 8681   3.419   6.216   9.702
 4482W        W 8682   6.761   9.350   0.109
 4483W        W 8683   7.052   3.237  11.617
 4484W        W 8684   1.519   6.099  11.730
 4485W        W 8685   1.131   8.456   3.396
 4486W        W 8686   8.913   6.611   0.014
 4487W        W 8687   3.175   6.108   8.796
 4488W        W 8688   8.028   2.839  10.807
 4489W        W 8689  11.376  10.841   9.187
 4490W        W 8690   1.294   2.236   9.535
 4491W        W 8691   2.582   6.831   3.645
 4492W        W 8692   2.270   3.362   9.151
 4493W        W 8693   0.941   1.639   1.887
 4494W        W 8694   4.059   5.091  11.535
 4495W        W 8695   3.769   0.806  10.004
 4496W        W 8696  10.947   3.971   9.632
 4497W        W 8697   5.690   0.145   9.970
 4498W        W 8698   8.641   1.776   9.862
 4499W        W 8699   7.471   1.850   1.934
 4500W        W 8700  10.790   4.317   3.270
 4501W        W 8701   0.955   2.843   8.978
 4502W        W 8702   4.779   8.047   1.496
 4503W        W 8703   9.073   1.222   2.159
 4504W        W 8704   9.961   5.079  10.797
 4505W        W 8705   5.881   4.112   1.287
 4506W        W 8706   2.161   8.486   0.280
 4507W        W 8707   8.841   3.070   9.801
 4508W        W 8708  10.844   1.845   2.237
 4509W        W 8709   4.250   4.662  10.253
 4510W        W 8710   5.525   5.469  10.933
 4511W        W 8711   1.754   4.209   3.254
 4512W        W 8712   0.442   2.671  11.036
 4513W        W 8713   4.366   0.905   0.854
 4514W        W 8714   4.506  10.564  11.832
 4515W        W 8715  10.557   0.066  11.241
 4516W        W 8716   4.859   6.165   1.519
 4517W        W 8717   8.897   0.683   1.206
 4518W        W 8718  10.804   0.857  11.331
 4519W        W 8719   8.105   2.460   2.365
 4520W        W 8720   7.659  10.885   3.035
 4521W        W 8721   5.647   7.581  10.958
 4522W        W 8722   8.408   2.824   2.596
 4523W        W 8723   4.261   0.775   2.937
 4524W        W 8724   8.531   9.327   9.640
 4525W        W 8725   3.099   1.921  10.355
 4526W        W 8726   8.879   2.917   9.221
 4527W        W 8727   3.376   6.085   0.280
 4528W        W 8728   1.940   9.347   8.718
 4529W        W 8729   3.567   9.025  11.528
 4530W        W 8730   6.097   4.535   8.367
 4531W        W 8731   9.406   5.747   1.968
 4532W        W 8732   4.724  11.320   0.443
 4533W        W 8733   6.300   1.654  10.519
 4534W        W 8734   3.582   1.027  11.375
 4535W        W 8735  11.498   3.160  11.576
 4536W        W 8736   3.897   4.391   8.578
 4537W        W 8737   6.507   2.350   9.845
 4538W        W 8738   5.226   9.142   2.784
 4539W        W 8739   1.882   0.939  11.173
 4540W        W 8740   3.935   0.491   3.444
 4541W        W 8741   6.984   3.639   9.916
 4542W        W 8742   2.140   2.044   1.958
 4543W        W 8743   3.475   4.576   9.858
 4544W        W 8744   6.528   7.299  11.043
 4545W        W 8745   7.152   6.412   9.629
 4546W        W 8746   2.189   3.309  10.972
 4547W        W 8747   7.294   4.975   8.400
 4548W        W 8748   8.560   4.120  11.260
 4549W        W 8749  10.709   9.558  10.596
 4550W        W 8750   4.153   7.072  11.811
 4551W        W 8751   6.875   2.247  10.579
 4552W        W 8752  10.514   1.768  11.353
 4553W        W 8753   3.893   9.351   0.301
 4554W        W 8754   6.516   7.453  10.044
 4555W        W 8755   7.139   0.346   0.633
 4556W        W 8756   4.595   4.162   9.099
 4557W        W 8757   6.947   3.516   1.745
 4558W        W 8758   9.671   3.999   9.350
 4559W        W 8759   9.080  11.030   3.497
 4560W        W 8760   3.582   3.801   3.018
 4561W        W 8761   7.818   3.529   0.700
 4562W        W 8762   4.234   9.936   2.313
 4563W        W 8763   7.214   0.442  10.553
 4564W        W 8764   9.440   6.846   1.678
 4565W        W 8765   2.894   6.532   9.049
 4566W        W 8766   0.040   0.670   0.649
 4567W        W 8767   2.691  10.290   2.236
 4568W        W 8768   3.146   8.515   3.282
 4569W        W 8769   8.591   8.646   9.038
 4570W        W 8770  11.359   7.523  11.093
 4571W        W 8771   4.184   3.349  10.913
 4572W        W 8772   7.140   2.265   1.339
 4573W        W 8773   5.267   3.133   4.008
 4574W        W 8774   6.584   8.792   3.352
 4575W        W 8775   8.868   1.966   0.774
 4576W        W 8776  10.082   7.951  11.967
 4577W        W 8777  11.317   6.828   3.156
 4578W        W 8778   3.294   9.502   9.363
 4579W        W 8779   0.065   7.028   9.257
 4580W        W 8780   4.624  11.257  11.111
 4581W        W 8781  10.008   9.907   2.192
 4582W        W 8782  10.887   3.122  10.413
 4583W        W 8783  10.310  10.328   2.642
 4584W        W 8784   2.398   9.481   1.186
 4585W        W 8785   2.270   7.364   3.590
 4586W        W 8786  10.801   6.738   3.163
 4587W        W 8787  11.201   7.572   3.395
 4588W        W 8788   6.568   4.247  10.284
 4589W        W 8789   9.524   9.467   1.023
 4590W        W 8790   2.147   7.389   9.479
 4591W        W 8791   9.000   1.759   8.417
 4592W        W 8792   0.346   3.137   0.340
 4593W        W 8793   9.069  10.017   2.524
 4594W        W 8794   0.485   3.468   3.632
 4595W        W 8795   8.864   2.943   8.603
 4596W        W 8796  11.374   7.479  10.561
 4597W        W 8797  10.310   2.865   0.825
 4598W        W 8798   5.090   4.794  11.218
 4599W        W 8799   2.833   5.537   9.711
 4600W        W 8800   1.487   2.760   1.991
 4601W        W 8801   6.406   3.539   1.792
 4602W        W 8802   5.183   1.678   8.749
 4603W        W 8803   3.412   3.827   2.528
 4604W        W 8804   9.633  10.447   0.780
 4605W        W 8805   5.636   6.262  10.702
 4606W        W 8806   8.705   8.462  10.159
 4607W        W 8807   1.751   2.242   9.279
 4608W        W 8808  10.509   3.793   9.817
 4609W        W 8809   3.802   4.707   9.002
 4610W        W 8810   5.382   7.402   9.313
 4611W        W 8811   5.529   2.436   1.947
 4612W        W 8812   5.572   0.717  11.216
 4613W        W 8813   6.689   8.503  11.975
 4614W        W 8814   1.842   6.667   0.836
 4615W        W 8815   2.834   9.282  10.393
 4616W        W 8816  10.458   1.160   0.255
 4617W        W 8817   6.991   7.801   9.466
 4618W        W 8818   1.394  10.367  10.996
 4619W        W 8819   3.439   0.894   2.569
 4620W        W 8820  10.800   5.448   0.283
 4621W        W 8821   8.162   3.154   0.676
 4622W        W 8822   3.126   1.419  11.550
 4623W        W 8823   8.312   3.154   9.925
 4624W        W 8824   1.859  10.543  11.737
 4625W        W 8825  10.869   7.524   0.826
 4626W        W 8826   0.035  10.478  10.865
 4627W        W 8827  11.006   2.220  11.086
 4628W        W 8828  11.158   4.143  11.729
 4629W        W 8829   1.512   2.295  11.392
 4630W        W 8830   8.871   0.184  11.762
 4631W        W 8831  10.804   5.755   1.797
 4632W        W 8832   9.212   0.110  10.364
 4633W        W 8833   5.111   7.712   2.618
 4634W        W 8834   9.026   6.743  10.438
 4635W        W 8835   3.545   9.084   9.618
 4636W        W 8836   4.233   6.137  10.283
 4637W        W 8837   2.344   2.593   2.574
 4638W        W 8838   6.624   9.335   3.331
 4639W        W 8839   6.096   8.834   9.857
 4640W        W 8840   8.189   4.068  11.599
 4641W        W 8841   1.299  10.883   1.002
 4642W        W 8842   3.169   2.934   9.062
 4643W        W 8843   6.991   0.145  10.990
 4644W        W 8844   3.788   1.953   0.130
 4645W        W 8845   5.737   2.633  10.980
 4646W        W 8846   3.616   4.902   8.567
 4647W        W 8847  10.320   3.382   9.531
 4648W        W 8848  10.500   7.387   1.158
 4649W        W 8849   2.682   9.645  11.933
 4650W        W 8850  10.453   3.343  10.023
 4651W        W 8851   9.851   2.585   0.962
 4652W        W 8852   6.456   6.594  10.357
 4653W        W 8853  10.778  10.563  10.439
 4654W        W 8854   3.602  10.129  11.978
 4655W        W 8855   4.758   4.068   0.343
 4656W        W 8856  11.258   7.669   2.582
 4657W        W 8857   7.262   9.625   0.536
 4658W        W 8858  10.718   3.422   3.328
 4659W        W 8859  10.298   9.330  10.838
 4660W        W 8860   1.866   6.071   1.955
 4661W        W 8861   8.987   3.760   1.960
 4662W        W 8862  10.234  10.874   1.446
 4663W        W 8863   0.328   6.362   2.387
 4664W        W 8864   5.214   0.691  11.892
 4665W        W 8865   5.758   5.260   1.785
 4666W        W 8866   3.461   1.190   0.356
 4667W        W 8867   9.527   7.769  10.940
 4668W        W 8868   9.997   6.553   9.328
 4669W        W 8869   9.981   0.608  11.403
 4670W        W 8870   2.242   8.924   0.027
 4671W        W 8871  10.012   5.249   0.998
 4672W        W 8872  10.107   6.103   0.499
 4673W        W 8873   9.525   9.876   9.003
 4674W        W 8874   7.730   0.260   9.835
 4675W        W 8875   7.985   0.846   2.920
 4676W        W 8876   4.293   5.368   2.757
 4677W        W 8877   1.348   4.787  10.585
 4678W        W 8878   2.711   4.274   2.996
 4679W        W 8879   1.172   4.886  10.100
 4680W        W 8880   4.782   1.388   1.940
 4681W        W 8881  11.015   9.079   0.136
 4682W        W 8882   9.696   7.150  11.277
 4683W        W 8883   2.638   6.383   8.635
 4684W        W 8884   6.225   7.697   8.366
 4685W        W 8885  10.473   6.659   9.510
 4686W        W 8886   4.833   8.803  11.853
 4687W        W 8887   5.168   2.668   4.201
 4688W        W 8888   5.663   2.737   9.491
 4689W        W 8889   5.938   9.975   2.706
 4690W        W 8890   9.614   6.911   2.782
 4691W        W 8891   5.024   3.231  11.953
 4692W        W 8892   8.902   0.338  10.772
 4693W        W 8893  11.342   8.363   9.962
 4694W        W 8894   1.028   9.277  10.719
 4695W        W 8895   2.616   7.436   0.204
 4696W        W 8896   4.045   3.333   9.350
 4697W        W 8897   5.628   7.549   8.871
 4698W        W 8898   2.534   3.061  11.566
 4699W        W 8899   6.634  11.109   0.048
 4700W        W 8900   8.127   9.610  10.510
 4701W        W 8901  10.207   7.981   1.676
 4702W        W 8902   0.745   0.962   9.532
 4703W        W 8903   7.621   4.864   0.348
 4704W        W 8904   6.494   1.054  11.941
 4705W        W 8905   4.607   3.065  11.065
 4706W        W 8906  10.510   4.161   9.468
 4707W        W 8907   1.448  10.859  11.254
 4708W        W 8908   5.192   0.786   3.515
 4709W        W 8909   9.098  10.294   0.018
 4710W        W 8910  10.002   3.835   2.240
 4711W        W 8911   0.268   6.606   2.974
 4712W        W 8912   3.519   3.366   9.447
 4713W        W 8913   3.705   3.351   3.293
 4714W        W 8914   8.354   4.600   8.919
 4715W        W 8915   3.759   4.107  11.043
 4716W        W 8916   6.861   3.106   2.835
 4717W        W 8917   1.005   1.623   8.962
 4718W        W 8918   8.469   6.390   2.211
 4719W        W 8919   5.248   4.232   9.520
 4720W        W 8920   3.373  10.078   8.672
 4721W        W 8921   5.669   6.608   0.589
 4722W        W 8922   0.259   8.639   1.920
 4723W        W 8923   8.153   8.388   8.441
 4724W        W 8924   1.420   4.319  10.808
 4725W        W 8925   3.565   1.216   9.784
 4726W        W 8926   5.241   8.894   3.634
 4727W        W 8927  10.894   4.417   1.805
 4728W        W 8928  10.473   5.001   9.880
 4729W        W 8929  11.291   7.751  11.543
 4730W        W 8930   0.824   0.774   2.238
 4731W        W 8931   5.553   4.484  10.695
 4732W        W 8932   8.184  11.485   1.165
 4733W        W 8933  11.269   0.877  10.474
 4734W        W 8934   7.004   1.124  11.051
 4735W        W 8935   0.789   0.193  10.054
 4736W        W 8936   1.970  11.331   3.182
 4737W        W 8937   9.014   1.717   1.289
 4738W        W 8938   4.726   2.348   9.536
 4739W        W 8939   9.872   2.934   3.195
 4740W        W 8940   3.810   3.637   0.201
 4741W        W 8941   7.684   0.277   1.166
 4742W        W 8942   8.217   9.006   9.973
 4743W        W 8943  10.062   9.207   8.660
 4744W        W 8944   7.414  10.873   9.546
 4745W        W 8945  11.443   1.163   2.650
 4746W        W 8946  10.951   5.922   0.299
 4747W        W 8947   5.570   2.173   1.502
 4748W        W 8948   4.611   3.284   3.220
 4749W        W 8949   8.575   5.237   0.950
 4750W        W 8950   8.306   7.067   8.839
 4751W        W 8951   3.288  10.489   0.248
 4752W        W 8952  10.365   6.543   1.481
 4753W        W 8953   7.929   2.940   2.392
 4754W        W 8954   3.184   3.859   8.838
 4755W        W 8955   5.534   5.784  10.471
 4756W        W 8956   3.223   8.097   8.659
 4757W        W 8957   9.054   0.175  11.255
 4758W        W 8958   4.217   6.753   1.260
 4759W        W 8959   0.800   0.053  10.555
 4760W        W 8960  10.814   4.716   2.601
 4761W        W 8961  11.079   6.845   9.228
 4762W        W 8962  11.455   3.974   9.001
 4763W        W 8963  10.902   5.375   1.462
 4764W        W 8964  11.419   6.537   9.457
 4765W        W 8965   9.986   1.363   0.268
 4766W        W 8966   4.122   7.006   9.284
 4767W        W 8967   1.804   3.333   1.761
 4768W        W 8968  10.113  10.545   0.757
 4769W        W 8969   8.380   2.225   9.747
 4770W        W 8970   6.731   4.560   9.399
 4771W        W 8971  10.563   2.784   1.703
 4772W        W 8972   4.965   7.017   3.129
 4773W        W 8973   0.268   2.150   9.778
 4774W        W 8974   7.828   7.989   2.298
 4775W        W 8975   3.960   6.012  11.511
 4776W        W 8976  11.346   4.632   1.861
 4777W        W 8977   4.587   7.560   0.337
 4778W        W 8978   5.595   4.595   2.468
 4779W        W 8979  10.450   7.524   9.377
 4780W        W 8980   7.483   4.333  11.396
 4781W        W 8981   8.334   8.720   2.830
 4782W        W 8982   3.663   3.252   1.869
 4783W        W 8983   2.037   6.994  10.294
 4784W        W 8984  10.284   1.777   1.133
 4785W        W 8985  11.379   8.747   8.541
 4786W        W 8986  10.160   2.184   1.905
 4787W        W 8987   7.131   9.934   2.750
 4788W        W 8988   0.273   6.240  11.170
 4789W        W 8989   1.210   1.005   2.021
 4790W        W 8990  10.455   9.821   2.969
 4791W        W 8991   8.707   0.005  10.446
 4792W        W 8992   9.333   2.209  11.115
 4793W        W 8993   8.528   3.477   1.278
 4794W        W 8994   9.135   5.193  10.830
 4795W        W 8995   4.781   7.917   0.023
 4796W        W 8996  11.421  11.406  10.756
 4797W        W 8997   0.668   9.449   3.394
 4798W        W 8998   0.463   0.008   9.723
 4799W        W 8999   1.946   7.926  11.806
 4800W        W 9000  10.415   8.537   8.879
 4801W        W 9001   3.823   2.898  10.340
 4802W        W 9002   4.873   5.003   1.401
 4803W        W 9003   1.138   2.814   0.593
 4804W        W 9004   7.387   3.782   0.738
 4805W        W 9005   8.529   6.777  10.755
 4806W        W 9006   2.132   4.747   0.342
 4807W        W 9007   4.742   1.599  10.706
 4808W        W 9008   1.545   2.862   0.927
 4809W        W 9009   9.038  10.970   0.354
 4810W        W 9010   0.687   7.109   2.177
 4811W        W 9011   1.251   2.827  11.301
 4812W        W 9012  11.009  10.139   1.811
 4813W        W 9013   4.787   1.303   2.457
 4814W        W 9014   9.599   9.801   2.973
 4815W        W 9015  10.802   4.568   0.665
 4816W        W 9016   5.954   6.091   9.747
 4817W        W 9017   9.957   5.303   0.410
 4818W        W 9018   9.177   4.713   9.177
 4819W        W 9019   9.092   7.650  10.137
 4820W        W 9020   0.245   2.247   1.844
 4821W        W 9021   9.937  11.087  11.304
 4822W        W 9022   9.508  10.113   9.465
 4823W        W 9023   9.427   6.621  11.259
 4824W        W 9024   1.152   9.602   3.383
 4825W        W 9025   9.791   8.602   1.950
 4826W        W 9026   8.067   4.573   0.207
 4827W        W 9027   9.949   1.880   0.158
 4828W        W 9028   6.579   7.500   8.694
 4829W        W 9029   7.147   4.559   8.674
 4830W        W 9030   0.495   7.927   9.614
 4831W        W 9031   3.448   6.064   1.241
 4832W        W 9032   1.587   6.167  10.039
 4833W        W 9033   1.696   0.837   2.148
 4834W        W 9034   5.957   1.362   2.070
 4835W        W 9035   1.089   8.512   2.421
 4836W        W 9036   1.858   4.049  10.898
 4837W        W 9037   6.694   2.375   3.554
 4838W        W 9038   6.530   8.536   1.636
 4839W        W 9039   0.903   3.654   0.811
 4840W        W 9040   6.856  11.192   3.130
 4841W        W 9041   1.174   5.543   9.449
 4842W        W 9042   6.843   1.191   1.955
 4843W        W 9043  10.434   9.971  11.926
 4844W        W 9044   6.716   4.684   0.150
 4845W        W 9045   1.614   7.975   0.873
 4846W        W 9046   0.280   3.501  10.790
 4847W        W 9047  10.017   7.566  11.122
 4848W        W 9048   7.112  10.185  11.326
 4849W        W 9049   7.983   5.222   0.310
 4850W        W 9050   5.619   1.370   8.796
 4851W        W 9051   8.942   6.158   8.821
 4852W        W 9052   2.254   4.179   8.515
 4853W        W 9053   5.136   5.642  11.240
 4854W        W 9054   4.728   8.577  10.250
 4855W        W 9055   7.738   1.825   2.973
 4856W        W 9056   0.163   9.455   9.500
 4857W        W 9057   7.681   1.334  11.383
 4858W        W 9058   6.307   4.033   2.251
 4859W        W 9059   0.621   2.221  10.140
 4860W        W 9060   7.579   6.217  11.956
 4861W        W 9061   0.801   5.219  10.246
 4862W        W 9062   7.992   2.482   8.850
 4863W        W 9063   7.413   4.289   0.749
 4864W        W 9064   8.363   3.286  11.768
 4865W        W 9065   8.579   4.574   9.806
 4866W        W 9066   0.373   0.306  11.495
 4867W        W 9067   3.013   3.493   2.381
 4868W        W 9068   8.987   0.433   0.710
 4869W        W 9069   0.337   8.349  11.407
 4870W        W 9070   3.076   5.584   3.204
 4871W        W 9071   1.996   1.011  11.686
 4872W        W 9072  10.518   8.364  11.028
 4873W        W 9073   5.867  10.049   8.948
 4874W        W 9074   2.590   5.994   9.521
 4875W        W 9075   4.166   0.539   0.551
 4876W        W 9076   4.335   8.147   2.732
 4877W        W 9077   8.752   7.111   3.156
 4878W        W 9078   8.043   1.911  11.015
 4879W        W 9079   3.957   8.668   2.205
 4880W        W 9080   2.628  10.999   2.971
 4881W        W 9081   9.661   4.256   2.250
 4882W        W 9082   5.578   1.825   9.041
 4883W        W 9083   3.755   4.619  11.156
 4884W        W 9084   0.409   5.244  11.567
 4885W        W 9085   5.633   4.803   0.660
 4886W        W 9086   7.905   8.749   9.517
 4887W        W 9087   0.749   3.009   8.527
 4888W        W 9088   2.882   7.050   1.486
 4889W        W 9089   5.762  10.875  10.408
 4890W        W 9090   1.271  11.388   9.316
 4891W        W 9091   2.442   2.570   3.076
 4892W        W 9092   0.594   2.656   9.331
 4893W        W 9093   9.762   9.075   1.753
 4894W        W 9094   1.432   6.125   2.193
 4895W        W 9095   9.364   2.826  11.840
 4896W        W 9096   6.141  11.033   9.610
 4897W        W 9097   1.812   3.592  10.694
 4898W        W 9098   1.739   9.911  10.573
 4899W        W 9099   4.389  10.490  10.083
 4900W        W 9100   7.711   0.843  11.946
 4901W        W 9101   5.132   8.504   1.082
 4902W        W 9102   3.208   2.180   1.765
 4903W        W 9103   0.666   9.140  11.075
 4904W        W 9104   9.506   2.354   9.627
 4905W        W 9105   9.948   2.164   1.261
 4906W        W 9106   9.278  11.406  11.663
 4907W        W 9107   7.920   5.504  10.512
 4908W        W 9108  10.606   3.104   0.466
 4909W        W 9109   5.661   8.497   0.740
 4910W        W 9110   5.098   6.339   2.427
 4911W        W 9111   7.479   1.302   8.773
 4912W        W 9112   6.542   1.147  10.331
 4913W        W 9113   7.591   6.515   1.316
 4914W        W 9114   0.557  10.357   0.946
 4915W        W 9115   4.005   7.616   1.374
 4916W        W 9116   5.785   9.955  10.305
 4917W        W 9117   8.495   2.650  10.537
 4918W        W 9118   9.334   7.946   0.225
 4919W        W 9119   3.055   9.128   1.552
 4920W        W 9120   1.851   4.500   3.673
 4921W        W 9121   1.685   0.182   1.193
 4922W        W 9122   7.482   0.910  10.452
 4923W        W 9123   7.376   7.326  10.131
 4924W        W 9124   1.839   1.217   3.104
 4925W        W 9125   9.494   7.631  11.459
 4926W        W 9126   6.598   3.953   2.688
 4927W        W 9127   1.111   5.151  11.868
 4928W        W 9128  11.334   7.194   8.819
 4929W        W 9129   2.076   5.941   9.582
 4930W        W 9130   9.394   9.783  10.880
 4931W        W 9131   1.777   4.898   1.031
 4932W        W 9132   2.850  11.073   2.505
 4933W        W 9133   0.476   1.746   9.573
 4934W        W 9134  10.368   2.229  11.940
 4935W        W 9135   7.018   9.574  11.242
 4936W        W 9136  11.301   6.702   0.854
 4937W        W 9137   6.948   6.086  10.052
 4938W        W 9138   4.632   4.533   3.143
 4939W        W 9139   3.352   3.331   3.693
 4940W        W 9140   5.142   8.889   9.978
 4941W        W 9141   3.884  10.871  10.738
 4942W        W 9142   4.339   0.941  10.840
 4943W        W 9143   4.750   2.812   0.720
 4944W        W 9144   9.828   7.681   1.913
 4945W        W 9145   2.776  11.467  11.361
 4946W        W 9146   7.231  11.390   1.867
 4947W        W 9147  10.860   2.619  10.287
 4948W        W 9148   9.884   6.379  10.305
 4949W        W 9149   2.633   3.077   2.365
 4950W        W 9150   6.401   8.730   8.270
 4951W        W 9151  10.948   9.585  11.968
 4952W        W 9152   0.825   2.433   0.424
 4953W        W 9153   5.464   4.108   9.061
 4954W        W 9154   2.897  10.943  10.810
 4955W        W 9155   8.612   6.412   1.272
 4956W        W 9156   5.087   9.437   2.415
 4957W        W 9157   5.858   6.681   2.152
 4958W        W 9158   9.973   1.979   3.439
 4959W        W 9159   0.809   6.260   0.919
 4960W        W 9160   0.724  10.839   1.728
 4961W        W 9161   5.750   9.187  11.814
 4962W        W 9162   2.655   2.266   9.495
 4963W        W 9163   0.289   1.447   3.463
 4964W        W 9164   9.952   4.266   2.670
 4965W        W 9165   3.828   8.105  11.803
 4966W        W 9166   2.994   5.655   8.575
 4967W        W 9167   9.997   6.181  10.771
 4968W        W 9168   5.505   0.975   9.098
 4969W        W 9169  11.396   2.643   0.529
 4970W        W 9170   9.799  10.923   0.940
 4971W        W 9171  10.018  10.798   2.769
 4972W        W 9172   2.735   7.993   9.501
 4973W        W 9173  10.774   7.632   2.390
 4974W        W 9174   4.757   7.584   1.737
 4975W        W 9175  10.759   4.944   3.584
 4976W        W 9176  10.303   1.936  10.937
 4977W        W 9177   1.610   6.157   0.989
 4978W        W 9178  10.337   6.985   9.047
 4979W        W 9179   8.110   9.946   0.254
 4980W        W 9180   6.932   4.412   1.816
 4981W        W 9181   4.645   4.732   3.612
 4982W        W 9182   6.557   5.465   0.462
 4983W        W 9183   7.917   9.967   9.987
 4984W        W 9184   5.036   4.585   3.917
 4985W        W 9185   2.198   3.320   2.186
 4986W        W 9186   5.680   9.090   3.050
 4987W        W 9187   5.530   4.113   2.583
 4988W        W 9188   2.539   2.676   0.865
 4989W        W 9189  10.258   7.261   2.354
 4990W        W 9190   5.675   3.181   8.888
 4991W        W 9191   8.435  11.001  11.742
 4992W        W 9192   1.038   4.089   0.522
 4993W        W 9193   3.392   6.597  10.319
 4994W        W 9194  10.311   6.571  11.970
 4995W        W 9195   4.161   9.086   9.095
 4996W        W 9196   9.930   5.692   9.928
 4997W        W 9197   3.488   8.502   8.927
 4998W        W 9198   4.372  10.983  10.751
 4999W        W 9199  10.005   1.659  10.083
 5000W        W 9200  10.048   1.281   8.820
 5001W        W 9201  10.050   0.860   0.047
 5002W        W 9202   6.085   5.776   1.711
 5003W        W 9203   1.261   9.449  10.012
 5004W        W 9204   2.512   7.719   2.708
 5005W        W 9205   9.895   0.778   8.913
 5006W        W 9206   3.984   1.341  11.477
 5007W        W 9207   2.080   1.630   3.364
 5008W        W 9208   8.663   3.076  10.286
 5009W        W 9209  10.522  10.816   3.355
 5010W        W 9210   2.281   9.359  11.205
 5011W        W 9211   8.449   2.651   2.042
 5012W        W 9212   7.317  11.341   8.810
 5013W        W 9213   8.184   0.754   8.494
 5014W        W 9214   0.209   6.093   2.798
 5015W        W 9215   8.677   9.989   2.867
 5016W        W 9216   4.549   5.302   9.664
 5017W        W 9217   5.963   6.273   2.659
 5018W        W 9218   3.698  10.781   2.780
 5019W        W 9219   1.609   5.605   3.178
 5020W        W 9220   4.719   4.523   2.627
 5021W        W 9221   8.115   4.613   3.541
 5022W        W 9222   6.843   9.362   0.673
 5023W        W 9223   0.089   5.643  10.811
 5024W        W 9224   0.622   1.467   0.748
 5025W        W 9225   2.341   0.668   0.771
 5026W        W 9226   8.362   2.154   3.714
 5027W        W 9227   4.894   6.054   1.010
 5028W        W 9228  10.244  11.417   9.390
 5029W        W 9229   7.111   2.641   9.799
 5030W        W 9230  10.884   7.533   9.666
 5031W        W 9231   5.542   6.432  11.280
 5032W        W 9232   0.964   2.354   9.127
 5033W        W 9233   5.494   0.006   0.020
 5034W        W 9234   1.609   3.476  10.221
 5035W        W 9235   4.740   2.828   2.013
 5036W        W 9236   4.954   8.076   1.978
 5037W        W 9237   8.543   5.494   9.846
 5038W        W 9238   0.704   4.151  10.999
 5039W        W 9239  11.258   2.232   9.416
 5040W        W 9240   9.629   8.359   9.919
 5041W        W 9241   5.779   9.863   2.007
 5042W        W 9242   6.971   4.569   0.908
 5043W        W 9243   4.794   1.653   0.429
 5044W        W 9244   2.280  11.250  11.432
 5045W        W 9245   1.269   0.490   1.887
 5046W        W 9246   4.086   2.326   0.309
 5047W        W 9247   7.231   4.461   9.541
 5048W        W 9248   9.872  10.479   9.426
 5049W        W 9249   1.921   6.384  10.463
 5050W        W 9250   7.008   8.297   9.720
 5051W        W 9251   0.755   8.400   0.401
 5052W        W 9252   9.393   3.911   1.674
 5053W        W 9253   9.870   2.610   2.818
 5054W        W 9254   6.757  10.754   1.875
 5055W        W 9255   5.475   8.103   2.027
 5056W        W 9256   9.404   0.945  11.896
 5057W        W 9257   5.503  11.033   9.038
 5058W        W 9258   6.227   2.748   9.881
 5059W        W 9259   2.259   7.105   0.071
 5060W        W 9260  11.295  11.392   9.359
 5061W        W 9261   5.661   0.699  10.715
 5062W        W 9262  10.870   8.314   9.609
 5063W        W 9263  10.284   5.967  11.197
 5064W        W 9264   6.969   3.175   1.368
 5065W        W 9265   2.743   8.505   9.472
 5066W        W 9266  10.855   7.618   1.869
 5067W        W 9267   9.400   4.391  11.055
 5068W        W 9268   7.488  11.347   9.314
 5069W        W 9269  10.815   3.917   1.901
 5070W        W 9270   2.587   6.302   9.988
 5071W        W 9271  10.591   7.893  11.997
 5072W        W 9272   0.444  11.332   0.706
 5073W        W 9273  11.427   5.019   2.172
 5074W        W 9274   4.619  11.427   9.124
 5075W        W 9275   8.923   5.343   8.525
 5076W        W 9276   8.882   2.836   2.835
 5077W        W 9277   0.486   3.610  11.539
 5078W        W 9278   8.449   2.953   1.544
 5079W        W 9279   8.062   3.926   1.923
 5080W        W 9280   0.514   5.387  11.012
 5081W        W 9281   2.457   2.523  11.879
 5082W        W 9282   2.781   3.105   1.421
 5083W        W 9283   6.174  10.568   9.400
 5084W        W 9284   4.664  10.883   1.344
 5085W        W 9285   1.037   9.508   0.785
 5086W        W 9286   4.658   6.813   2.297
 5087W        W 9287   5.209   9.854   9.018
 5088W        W 9288   0.277   9.908   0.927
 5089W        W 9289   5.810   7.082   0.389
 5090W        W 9290   7.892   6.944   2.979
 5091W        W 9291   3.845  10.793   9.878
 5092W        W 9292   2.598   6.196  11.880
 5093W        W 9293   1.373   2.029   8.971
 5094W        W 9294   0.825   1.873  10.918
 5095W        W 9295   4.092   0.866  11.294
 5096W        W 9296   2.024  11.110  10.081
 5097W        W 9297   1.412   7.877   8.805
 5098W        W 9298   2.176   4.942   1.493
 5099W        W 9299   2.645   9.745  10.558
 5100W        W 9300  10.555  11.246   2.287
 5101W        W 9301   6.283   0.444   3.319
 5102W        W 9302   3.861   7.347   2.232
 5103W        W 9303   3.852   8.493   2.679
 5104W        W 9304  10.039   3.309   1.436
 5105W        W 9305   3.481   2.220  10.498
 5106W        W 9306   0.363   9.608   1.569
 5107W        W 9307   8.863   4.130   9.870
 5108W        W 9308   0.187   3.665   2.761
 5109W        W 9309   0.499   3.064  10.687
 5110W        W 9310   4.171  10.813   1.885
 5111W        W 9311   4.135  10.911  10.298
 5112W        W 9312   5.366   9.463   0.320
 5113W        W 9313   0.151  10.585   3.061
 5114W        W 9314  10.572   0.882  11.845
 5115W        W 9315   2.875   8.613   2.857
 5116W        W 9316   9.539   2.709   3.506
 5117W        W 9317   5.746   7.778  10.029
 5118W        W 9318   8.548   1.470   1.337
 5119W        W 9319   8.114   9.418   1.052
 5120W        W 9320   9.367   2.736  11.329
 5121W        W 9321   6.734   7.891   9.909
 5122W        W 9322   5.780   4.814  10.350
 5123W        W 9323   7.655  10.297  10.799
 5124W        W 9324   5.101   5.718  10.736
 5125W        W 9325   9.153   3.740   0.205
 5126W        W 9326   2.191   0.807   8.901
 5127W        W 9327   0.294   7.541   3.288
 5128W        W 9328   6.859   8.568   2.973
 5129W        W 9329   0.657  10.353   2.339
 5130W        W 9330   2.944   0.265  10.957
 5131W        W 9331   2.976   4.580   9.983
 5132W        W 9332   6.496   4.048   0.811
 5133W        W 9333   3.864   4.698   8.159
 5134W        W 9334   4.791   2.723   1.541
 5135W        W 9335   8.155   1.824   9.982
 5136W        W 9336   3.365   2.375   0.017
 5137W        W 9337   8.497   1.885  11.253
 5138W        W 9338   3.760  10.350   8.951
 5139W        W 9339   9.587   0.612   0.244
 5140W        W 9340   8.592   5.014  10.136
 5141W        W 9341   6.660  10.372  11.097
 5142W        W 9342   9.550   2.369   2.210
 5143W        W 9343  10.699   1.327  11.541
 5144W        W 9344   1.414   3.882  11.482
 5145W        W 9345   8.052   2.777   0.360
 5146W        W 9346   0.406   5.719   9.958
 5147W        W 9347   4.171   7.465   9.060
 5148W        W 9348  10.363   4.560  11.448
 5149W        W 9349   4.693   3.555   0.434
 5150W        W 9350   6.781   3.142   9.174
 5151W        W 9351   7.687   5.767   8.318
 5152W        W 9352   4.577   6.363   2.519
 5153W        W 9353   5.571   8.975   0.430
 5154W        W 9354   2.752   3.404  10.294
 5155W        W 9355   2.834   2.353   2.746
 5156W        W 9356   5.450   2.405   2.704
 5157W        W 9357   6.721   2.808   0.463
 5158W        W 9358   3.170   0.819   9.109
 5159W        W 9359   8.981  10.008  10.126
 5160W        W 9360  11.381   5.581   0.213
 5161W        W 9361   4.519   3.208   9.526
 5162W        W 9362   8.043   1.839   3.440
 5163W        W 9363   8.478   6.964   0.457
 5164W        W 9364  10.460   8.128   2.966
 5165W        W 9365   7.619   0.731   3.411
 5166W        W 9366   4.089  11.389  10.508
 5167W        W 9367   1.917   5.229  11.234
 5168W        W 9368   4.535   5.443   2.285
 5169W        W 9369   5.587   3.687   3.805
 5170W        W 9370   7.376   4.790  10.535
 5171W        W 9371  11.323   6.412   2.808
 5172W        W 9372   1.701   2.317   0.927
 5173W        W 9373   5.079   9.837   2.132
 5174W        W 9374  11.497  11.454   2.010
 5175W        W 9375   9.185   9.546   2.250
 5176W        W 9376   0.777   7.171   9.925
 5177W        W 9377   6.965   1.256  11.944
 5178W        W 9378   0.777   7.493   1.804
 5179W        W 9379   0.867   9.125   1.049
 5180W        W 9380   5.163   5.576  11.756
 5181W        W 9381  10.119   5.036  10.297
 5182W        W 9382  10.126   1.963  10.472
 5183W        W 9383   4.991   1.511  10.119
 5184W        W 9384   8.846   6.922   9.536
 5185W        W 9385   0.799   2.041  11.623
 5186W        W 9386   0.749   5.507   3.006
 5187W        W 9387   6.275   5.034   0.380
 5188W        W 9388   1.282   5.271  10.432
 5189W        W 9389   5.334   6.720  10.851
 5190W        W 9390   1.615   5.071  11.962
 5191W        W 9391   0.265  11.431   0.238
 5192W        W 9392   0.490   4.581  10.822
 5193W        W 9393  11.300   8.889   1.865
 5194W        W 9394   8.713  11.277   9.564
 5195W        W 9395  10.505   7.365  10.951
 5196W        W 9396   9.105   9.065   2.525
 5197W        W 9397  11.257   4.794   0.814
 5198W        W 9398   3.275   2.641   0.861
 5199W        W 9399   8.535   0.940   9.429
 5200W        W 9400   7.059   8.362   1.949
 5201W        W 9401   5.141   0.009   2.993
 5202W        W 9402   3.024   3.751   4.162
 5203W        W 9403   1.201   8.131   0.619
 5204W        W 9404   1.328   9.554   0.397
 5205W        W 9405   0.724   0.929  10.418
 5206W        W 9406  10.327   2.574   9.407
 5207W        W 9407  10.541   1.588   9.646
 5208W        W 9408  10.230   8.463   0.393
 5209W        W 9409   2.387  10.263   2.780
 5210W        W 9410   9.964   8.062  10.958
 5211W        W 9411   2.273  11.258   0.475
 5212W        W 9412   7.649   2.456   3.169
 5213W        W 9413  10.183   0.303  10.109
 5214W        W 9414   8.464  11.285   3.180
 5215W        W 9415   9.441   6.688   2.161
 5216W        W 9416   4.122   8.083   9.638
 5217W        W 9417   9.818   0.824   9.455
 5218W        W 9418   7.189  10.406   3.410
 5219W        W 9419   0.687   6.937  10.370
 5220W        W 9420  11.303   1.780  10.970
 5221W        W 9421   2.162   2.948   8.818
 5222W        W 9422   7.727   7.735   9.874
 5223W        W 9423   8.596   6.005  11.010
 5224W        W 9424   7.496   7.070   1.874
 5225W        W 9425   1.771  10.987   2.822
 5226W        W 9426   1.819  10.493  11.240
 5227W        W 9427   2.964   7.863  10.376
 5228W        W 9428   1.814   3.718   2.316
 5229W        W 9429   9.443   8.787   0.215
 5230W        W 9430   0.394   6.052   0.241
 5231W        W 9431   0.486   3.882   2.416
 5232W        W 9432   4.683   2.647   2.983
 5233W        W 9433   0.720   0.694   9.965
 5234W        W 9434  10.389   7.477   9.882
 5235W        W 9435   3.219   0.150   9.143
 5236W        W 9436   3.747   0.621   2.961
 5237W        W 9437   1.188   5.710   2.379
 5238W        W 9438   7.576   1.041   1.950
 5239W        W 9439   7.457   8.358   2.311
 5240W        W 9440   8.599   6.450   0.379
 5241W        W 9441  10.222   2.281   0.827
 5242W        W 9442   6.656   9.881   1.999
 5243W        W 9443   3.683  11.458   9.586
 5244W        W 9444   4.665   4.625  10.958
 5245W        W 9445   4.806   9.012   3.067
 5246W        W 9446   2.685   1.137   1.275
 5247W        W 9447   4.769   7.000  10.036
 5248W        W 9448   1.352   9.517  11.907
 5249W        W 9449   2.384   3.796   9.476
 5250W        W 9450   4.658   4.758   1.799
 5251W        W 9451   2.890   9.958  11.534
 5252W        W 9452   9.238   7.356  11.085
 5253W        W 9453   8.796   8.689   0.749
 5254W        W 9454   8.091   1.443   8.705
 5255W        W 9455   9.634   9.557   1.506
 5256W        W 9456   0.723   4.670  11.326
 5257W        W 9457   8.097   8.849  11.753
 5258W        W 9458   1.821   7.409  11.816
 5259W        W 9459   4.720   8.510   0.712
 5260W        W 9460   6.332   7.452   1.472
 5261W        W 9461   3.733   8.861  10.593
 5262W        W 9462  10.359   5.038  11.160
 5263W        W 9463   1.439   5.235   2.376
 5264W        W 9464   1.887   0.465   0.813
 5265W        W 9465   2.824   7.033   2.383
 5266W        W 9466   7.906   5.219  11.433
 5267W        W 9467   1.820   5.257   2.802
 5268W        W 9468   6.372   1.260   1.747
 5269W        W 9469   1.626   3.042   0.451
 5270W        W 9470  11.077   0.934   1.230
 5271W        W 9471   1.457   0.025   0.227
 5272W        W 9472   4.094   3.525  11.792
 5273W        W 9473   5.185   0.819   1.927
 5274W        W 9474  10.048   8.910   9.098
 5275W        W 9475   2.005  10.394   9.401
 5276W        W 9476   2.736   4.610   1.354
 5277W        W 9477   4.539   5.134  11.207
 5278W        W 9478   9.017   5.677   9.777
 5279W        W 9479   4.640   4.014   1.361
 5280W        W 9480   7.811   9.525  10.900
 5281W        W 9481   4.227   1.314   3.045
 5282W        W 9482   9.377   8.633   2.320
 5283W        W 9483   1.437   5.557  11.926
 5284W        W 9484   3.788   1.121   2.916
 5285W        W 9485   9.961   2.754  10.094
 5286W        W 9486   1.143   7.318   2.872
 5287W        W 9487   5.933   5.594   9.059
 5288W        W 9488   6.532   2.859   3.613
 5289W        W 9489   9.715   1.125   2.997
 5290W        W 9490   4.082  11.344   0.871
 5291W        W 9491   0.917  11.054  10.652
 5292W        W 9492   8.315   6.788   0.937
 5293W        W 9493   7.125   7.035  11.940
 5294W        W 9494   9.935  10.888  11.930
 5295W        W 9495   3.730   6.917  11.156
 5296W        W 9496   2.209   8.049   0.566
 5297W        W 9497   9.638   4.209   1.342
 5298W        W 9498  10.639   0.694   1.380
 5299W        W 9499   7.586   7.356   2.297
 5300W        W 9500   1.987   5.328   1.842
 5301W        W 9501  10.562  10.475  11.769
 5302W        W 9502   1.611   7.006   1.911
 5303W        W 9503   8.311   4.032  10.270
 5304W        W 9504   5.651   3.234   2.558
 5305W        W 9505   6.071   0.295   2.267
 5306W        W 9506   9.573   7.682   1.446
 5307W        W 9507   9.903   3.209   9.788
 5308W        W 9508   9.609   4.901   1.720
 5309W        W 9509   8.210   3.671   9.501
 5310W        W 9510   6.673   3.971   1.737
 5311W        W 9511   9.976   8.542  10.720
 5312W        W 9512   8.484  10.265  10.039
 5313W        W 9513   0.320  11.452   9.244
 5314W        W 9514   3.668   3.609  10.982
 5315W        W 9515  11.459  10.722   9.687
 5316W        W 9516   0.176   7.181  11.316
 5317W        W 9517   8.950   9.357  11.421
 5318W        W 9518   2.612   0.836   9.224
 5319W        W 9519   0.535   3.437  10.318
 5320W        W 9520  10.225   2.722   2.100
 5321W        W 9521   5.631   8.546   1.789
 5322W        W 9522   3.958   7.998   1.760
 5323W        W 9523   8.268   3.864   4.006
 5324W        W 9524   1.212   4.052   9.226
 5325W        W 9525   2.264   1.885   9.768
 5326W        W 9526   9.881  10.799   2.255
 5327W        W 9527   5.190   9.819   3.330
 5328W        W 9528   1.969   2.103  11.290
 5329W        W 9529   7.980  10.388   2.428
 5330W        W 9530   1.923   3.198   8.411
 5331W        W 9531   0.392  10.023  10.925
 5332W        W 9532   8.569   3.568   3.135
 5333W        W 9533   9.940   7.680   2.425
 5334W        W 9534   6.555  10.932   9.335
 5335W        W 9535   2.791   5.299  11.341
 5336W        W 9536   4.954   2.519   8.612
 5337W        W 9537   6.731   8.635   0.822
 5338W        W 9538   1.877   6.917   8.768
 5339W        W 9539   3.647   0.171   2.738
 5340W        W 9540   4.990   8.304   8.930
 5341W        W 9541   7.020   9.352   8.561
 5342W        W 9542   1.253   7.573   2.063
 5343W        W 9543   8.001   5.919   0.790
 5344W        W 9544   5.633  10.972   0.950
 5345W        W 9545   0.665   8.769  10.083
 5346W        W 9546   4.004   6.197   1.844
 5347W        W 9547  10.722   7.450   3.523
 5348W        W 9548   1.633   6.658   8.346
 5349W        W 9549   0.314  10.998   9.467
 5350W        W 9550   5.214   4.699   1.668
 5351W        W 9551   2.793   4.823  11.625
 5352W        W 9552   3.154   3.339   1.756
 5353W        W 9553   0.137   7.898   9.996
 5354W        W 9554   6.318   6.477   2.330
 5355W        W 9555   2.209  10.983   1.875
 5356W        W 9556   0.432   0.517   2.430
 5357W        W 9557   9.715   7.039   0.314
 5358W        W 9558   0.888   7.087   1.420
 5359W        W 9559   5.221   1.379   1.689
 5360W        W 9560   1.761   4.809  10.296
 5361W        W 9561   5.788   5.170   0.304
 5362W        W 9562   1.777   8.072   9.617
 5363W        W 9563   1.183   1.931  11.282
 5364W        W 9564  10.984   9.973   9.741
 5365W        W 9565   3.808   9.362   3.417
 5366W        W 9566   6.904   2.620   2.663
 5367W        W 9567   6.371   2.533  10.335
 5368W        W 9568   2.226   1.463   0.067
 5369W        W 9569   1.167   1.314   3.663
 5370W        W 9570   7.778   0.359   3.722
 5371W        W 9571   2.298   5.771   9.146
 5372W        W 9572   8.958   7.483   2.158
 5373W        W 9573  11.242   5.144   1.191
 5374W        W 9574   1.448  10.391   3.008
 5375W        W 9575   2.865   3.225   3.522
 5376W        W 9576  10.428   8.807   3.038
 5377W        W 9577   8.620   7.369   9.444
 5378W        W 9578   1.893   4.546  10.908
 5379W        W 9579  10.092   1.302   1.221
 5380W        W 9580   7.571   1.796   9.587
 5381W        W 9581   3.155   5.619   0.107
 5382W        W 9582   4.051   5.154  11.022
 5383W        W 9583   2.678   3.100   9.003
 5384W        W 9584   0.184   1.801   1.521
 5385W        W 9585   9.792   1.302   0.772
 5386W        W 9586   8.948   0.760   1.913
 5387W        W 9587   7.560   5.061   1.237
 5388W        W 9588   6.714  10.384   2.714
 5389W        W 9589   0.832  10.291  10.087
 5390W        W 9590   0.084   9.367   0.755
 5391W        W 9591   7.661   1.027   9.599
 5392W        W 9592   7.696   6.515   1.839
 5393W        W 9593   8.112   6.688   9.913
 5394W        W 9594   3.742   9.074   2.011
 5395W        W 9595   1.669   8.890  10.922
 5396W        W 9596   7.021   5.997  11.831
 5397W        W 9597   6.236   0.773   2.437
 5398W        W 9598   8.068  10.813   2.722
 5399W        W 9599   0.223   5.466   1.896
 5400W        W 9600   8.096   3.740   1.423
 5401W        W 9601  10.877   1.385   0.009
 5402W        W 9602   8.970   8.584   2.710
 5403W        W 9603   8.457   1.459   9.512
 5404W        W 9604   0.284   7.576  11.713
 5405W        W 9605   7.108   6.689  11.339
 5406W        W 9606   2.316   7.944  10.985
 5407W        W 9607   0.354   1.284  11.840
 5408W        W 9608   3.951   6.311   1.258
 5409W        W 9609   6.655   7.483   3.652
 5410W        W 9610  11.325   8.450   2.174
 5411W        W 9611   9.116  11.415   0.723
 5412W        W 9612   0.162   5.160   0.925
 5413W        W 9613   9.864   0.395  11.849
 5414W        W 9614   5.087   0.250   0.239
 5415W        W 9615   6.238   3.497   2.270
 5416W        W 9616  10.803  10.378   3.404
 5417W        W 9617  11.191   5.260   8.760
 5418W        W 9618   5.737   8.641   3.312
 5419W        W 9619   8.980   3.666   3.450
 5420W        W 9620  11.201   1.509   8.842
 5421W        W 9621   2.731  11.260   0.214
 5422W        W 9622   5.713   2.389   1.024
 5423W        W 9623   5.088   7.733  11.644
 5424W        W 9624   1.188   8.238   0.121
 5425W        W 9625  10.622   7.847   1.412
 5426W        W 9626   7.661   3.055   0.703
 5427W        W 9627  11.409   3.782   3.149
 5428W        W 9628   4.362   5.007   1.421
 5429W        W 9629   0.169   9.256  10.344
 5430W        W 9630   8.736   7.962  10.378
 5431W        W 9631   1.710  10.834   9.418
 5432W        W 9632   9.363   6.639  11.788
 5433W        W 9633   9.136   7.342   9.584
 5434W        W 9634  11.482  11.406   9.832
 5435W        W 9635  10.782   0.220   9.926
 5436W        W 9636   1.978  10.700   8.980
 5437W        W 9637   7.755   6.287   8.254
 5438W        W 9638   0.185   5.534   9.508
 5439W        W 9639  10.809   7.150   8.914
 5440W        W 9640   6.442   2.794   8.973
 5441W        W 9641  10.092   0.741  10.552
 5442W        W 9642   6.797   6.101   1.308
 5443W        W 9643   9.511   3.302   2.274
 5444W        W 9644   5.252   5.819   2.355
 5445W        W 9645   7.305   0.449  10.050
 5446W        W 9646   8.905   0.803   2.423
 5447W        W 9647   3.667   3.603   0.712
 5448W        W 9648   0.198   3.057  10.250
 5449W        W 9649   0.408   8.675  10.906
 5450W        W 9650   7.594   6.354   3.527
 5451W        W 9651   1.295   7.850  10.920
 5452W        W 9652   3.999   1.012   0.416
 5453W        W 9653   9.473   2.801   9.896
 5454W        W 9654   7.292   1.004   0.258
 5455W        W 9655   6.807   0.805   8.404
 5456W        W 9656   5.521   3.775   1.827
 5457W        W 9657   9.526   1.363   1.303
 5458W        W 9658   0.513   7.050   8.990
 5459W        W 9659   0.215   8.735  10.409
 5460W        W 9660   0.298   3.861  11.147
 5461W        W 9661   1.401  10.869  11.787
 5462W        W 9662  10.757   9.347   2.259
 5463W        W 9663   2.072   8.407   3.234
 5464W        W 9664   1.651  10.398   2.146
 5465W        W 9665   4.639   8.124   9.678
 5466W        W 9666   9.467   6.892   9.883
 5467W        W 9667   3.691   5.432  10.340
 5468W        W 9668  11.378   6.044   0.038
 5469W        W 9669   3.350   7.210  10.964
 5470W        W 9670  10.876   8.577   8.614
 5471W        W 9671  10.730   6.987   0.400
 5472W        W 9672   3.349   9.135  11.064
 5473W        W 9673   1.627   9.612  11.475
 5474W        W 9674   5.888   1.516   9.798
 5475W        W 9675   4.899  10.398  10.180
 5476W        W 9676   1.314   5.734   0.387
 5477W        W 9677   2.177   1.733  11.571
 5478W        W 9678   9.819   0.621   3.031
 5479W        W 9679   7.700   9.049   9.910
 5480W        W 9680   7.145   7.117  10.543
 5481W        W 9681   0.016   9.845   8.637
 5482W        W 9682   1.357  10.437   9.978
 5483W        W 9683   5.494  10.753   2.462
 5484W        W 9684   5.022   7.956   3.365
 5485W        W 9685   3.257   0.181  11.460
 5486W        W 9686   2.263   7.491  10.346
 5487W        W 9687   1.497   4.265   2.371
 5488W        W 9688  10.486   2.468   9.924
 5489W        W 9689   4.953   6.406  11.721
 5490W        W 9690   7.077   1.761   1.144
 5491W        W 9691   0.404   0.347   0.508
 5492W        W 9692   8.364   7.193  11.022
 5493W        W 9693   2.362   3.061   2.792
 5494W        W 9694  10.573   6.009   2.193
 5495W        W 9695   4.301  11.377  11.530
 5496W        W 9696   2.421  10.212  11.523
 5497W        W 9697   0.982  11.471   8.584
 5498W        W 9698   9.435   0.775   2.134
 5499W        W 9699   7.698   6.607   8.683
 5500W        W 9700   6.612   8.594   3.831
 5501W        W 9701   2.366   0.396   9.157
 5502W        W 9702   8.472   5.044   9.636
 5503W        W 9703   3.734   0.840   2.050
 5504W        W 9704   1.711   0.368   1.655
 5505W        W 9705   4.268   2.268   9.290
 5506W        W 9706   0.378   8.025   9.114
 5507W        W 9707  10.004  10.029   0.722
 5508W        W 9708   0.420   3.373   1.485
 5509W        W 9709   4.208   0.028  11.007
 5510W        W 9710  11.128   1.433   2.333
 5511W        W 9711   5.097   6.984   1.037
 5512W        W 9712  11.474   5.582   1.424
 5513W        W 9713   1.378   7.070   0.126
 5514W        W 9714   1.407   3.737   1.031
 5515W        W 9715   3.304   7.631   0.805
 5516W        W 9716   6.077   1.672   3.495
 5517W        W 9717   8.454   8.465   3.611
 5518W        W 9718  10.087  10.366   3.537
 5519W        W 9719   9.523   7.734  10.415
 5520W        W 9720   8.050  10.988  10.091
 5521W        W 9721  10.885   8.685   9.960
 5522W        W 9722   2.510   4.317   2.146
 5523W        W 9723   8.685   8.526  11.758
 5524W        W 9724   2.390   6.068  10.443
 5525W        W 9725   2.875   8.890  10.723
 5526W        W 9726   7.125   5.731  11.378
 5527W        W 9727   2.876   9.329   0.286
 5528W        W 9728   5.100   9.076  11.474
 5529W        W 9729   3.445   0.221  10.983
 5530W        W 9730   4.622   4.562   0.497
 5531W        W 9731   0.643   0.519  10.866
 5532W        W 9732   8.407   7.869   3.087
 5533W        W 9733  10.391   5.610   0.906
 5534W        W 9734   1.844   5.691  11.641
 5535W        W 9735   2.035   4.688   9.873
 5536W        W 9736  11.049   5.308   1.956
 5537W        W 9737   4.840  10.448  11.468
 5538W        W 9738   4.417   4.067   3.247
 5539W        W 9739   7.284   2.275   8.827
 5540W        W 9740   3.689   1.827   1.664
 5541W        W 9741   8.397   4.153   9.261
 5542W        W 9742   7.862   3.257   0.239
 5543W        W 9743   4.379   3.249   3.660
 5544W        W 9744   9.044   5.029   1.444
 5545W        W 9745   4.248   7.021   8.773
 5546W        W 9746   7.772   0.922   0.453
 5547W        W 9747   6.126   4.551   1.321
 5548W        W 9748  10.361   6.436   9.994
 5549W        W 9749   5.869   9.401   0.334
 5550W        W 9750   4.176   1.384   0.824
 5551W        W 9751  11.254   9.850  10.194
 5552W        W 9752   7.221   9.542  10.373
 5553W        W 9753   6.020   4.278   2.617
 5554W        W 9754   4.933   2.324   2.676
 5555W        W 9755  10.366   9.459  10.253
 5556W        W 9756   2.592   9.834  11.109
 5557W        W 9757   1.421   1.729   3.113
 5558W        W 9758   5.549   5.395   2.260
 5559W        W 9759   4.881   7.105   1.497
 5560W        W 9760   0.381   1.307  11.302
 5561W        W 9761   5.572   4.633   9.016
 5562W        W 9762   5.917   6.511   9.458
 5563W        W 9763   0.237   6.800   2.094
 5564W        W 9764   9.913  10.453   1.239
 5565W        W 9765   2.308   3.348   1.317
 5566W        W 9766   4.959   9.105   8.560
 5567W        W 9767   8.538   3.862   1.727
 5568W        W 9768   1.524   4.812   2.679
 5569W        W 9769   6.238  11.461   1.401
 5570W        W 9770   1.861   6.931   3.154
 5571W        W 9771   3.159   3.608   0.765
 5572W        W 9772   7.700   9.206   1.295
 5573W        W 9773   7.879   8.074  10.216
 5574W        W 9774   9.573  11.395   0.988
 5575W        W 9775   6.755   6.564   9.945
 5576W        W 9776   3.035   5.517   2.507
 5577W        W 9777   7.323   8.564   2.767
 5578W        W 9778   3.396  10.926  10.806
 5579W        W 9779   8.038   1.310   1.263
 5580W        W 9780   5.927   3.073   0.320
 5581W        W 9781  11.269   1.008   3.561
 5582W        W 9782  10.311   3.707   1.707
 5583W        W 9783   4.601   3.362  10.031
 5584W        W 9784   8.508   7.660   9.045
 5585W        W 9785   7.723   5.252   8.514
 5586W        W 9786   1.722   3.142   2.263
 5587W        W 9787   3.140   7.035   9.893
 5588W        W 9788   2.277   2.436   1.672
 5589W        W 9789   9.498   7.395   9.964
 5590W        W 9790   7.494   0.239  11.152
 5591W        W 9791   6.628   2.340   1.382
 5592W        W 9792   8.640   7.632   9.890
 5593W        W 9793  10.974   3.586   0.460
 5594W        W 9794   3.598   2.343   0.471
 5595W        W 9795   8.129   6.601  11.288
 5596W        W 9796   6.939   0.343   1.122
 5597W        W 9797   0.918   5.733   8.998
 5598W        W 9798  10.293   5.656   2.439
 5599W        W 9799   4.198   6.915  11.330
 5600W        W 9800   0.134   0.730  10.806
 5601W        W 9801   1.457  11.364   0.849
 5602W        W 9802  10.006   0.304   9.134
 5603W        W 9803   2.243   1.914   8.720
 5604W        W 9804   1.387   1.431   1.776
 5605W        W 9805   9.126   9.950   3.118
 5606W        W 9806   8.633   1.156  11.020
 5607W        W 9807   9.284   2.658   2.545
 5608W        W 9808   9.192  11.472   0.206
 5609W        W 9809   7.512   8.770   9.152
 5610W        W 9810   2.771   1.597   1.496
 5611W        W 9811  10.705  10.605   2.912
 5612W        W 9812  10.426   8.219   3.479
 5613W        W 9813   8.381   7.918   1.356
 5614W        W 9814   2.205   0.684   2.811
 5615W        W 9815   6.443   1.166  11.200
 5616W        W 9816   7.195   6.467   1.724
 5617W        W 9817   5.415   5.277   9.544
 5618W        W 9818   0.116   1.621   2.737
 5619W        W 9819   3.175   2.819   9.925
 5620W        W 9820   3.018   4.702   2.986
 5621W        W 9821   2.048   5.149   0.663
 5622W        W 9822   6.040   9.378   9.600
 5623W        W 9823   9.041   5.133   2.396
 5624W        W 9824   8.462   0.429   1.249
 5625W        W 9825  10.341   6.471  11.010
 5626W        W 9826   7.087   8.428  11.074
 5627W        W 9827   4.055   4.740  10.714
 5628W        W 9828   2.339   7.723   8.958
 5629W        W 9829   6.556   3.076   4.134
 5630W        W 9830  11.221  11.024  11.031
 5631W        W 9831   0.006   3.452   9.078
 5632W        W 9832   2.983   8.370   9.026
 5633W        W 9833   6.235   9.340  11.984
 5634W        W 9834   2.255   2.811   9.840
 5635W        W 9835   9.899   6.156  11.466
 5636W        W 9836   8.686   6.590   1.771
 5637W        W 9837  10.411  10.446  10.784
 5638W        W 9838  10.037   4.091   0.893
 5639W        W 9839   7.046   0.752   3.149
 5640W        W 9840  10.407   4.493   2.863
 5641W        W 9841   8.756   2.314   1.816
 5642W        W 9842   9.207   3.821   9.415
 5643W        W 9843   5.486   5.040   9.988
 5644W        W 9844   6.942  10.778   2.365
 5645W        W 9845   3.528   7.722  11.956
 5646W        W 9846   0.217   2.702   1.523
 5647W        W 9847   1.862   8.180   2.010
 5648W        W 9848   9.149   9.061   9.791
 5649W        W 9849   1.203   4.804  11.496
 5650W        W 9850  11.382   9.818   9.218
 5651W        W 9851   8.599   9.344  10.631
 5652W        W 9852   7.973   2.338  10.719
 5653W        W 9853   0.500   8.042  11.822
 5654W        W 9854   4.474   2.816  10.651
 5655W        W 9855   8.923   1.565  11.185
 5656W        W 9856   3.485   3.799   1.171
 5657W        W 9857   6.437   3.522   0.873
 5658W        W 9858   6.564   2.854   1.360
 5659W        W 9859  10.448   3.290  10.621
 5660W        W 9860   3.702   8.286  11.293
 5661W        W 9861   4.136   6.582   0.771
 5662W        W 9862   4.741   0.313  10.343
 5663W        W 9863  10.128   0.110  11.505
 5664W        W 9864  10.982  11.244   9.932
 5665W        W 9865   0.798   5.048   3.217
 5666W        W 9866  10.072   1.364   2.442
 5667W        W 9867   8.895   4.182   0.266
 5668W        W 9868   0.790   9.951   3.216
 5669W        W 9869  10.855   9.638   2.684
 5670W        W 9870   3.434   3.148   0.884
 5671W        W 9871  11.010   6.995   3.587
 5672W        W 9872   1.275   2.332   2.775
 5673W        W 9873   2.152  10.850   1.373
 5674W        W 9874   7.152  10.326   2.439
 5675W        W 9875   3.422  11.075   9.928
 5676W        W 9876   2.225   3.320   9.655
 5677W        W 9877   3.502   3.965  10.622
 5678W        W 9878   1.884   5.531   9.363
 5679W        W 9879   8.674   5.192   2.871
 5680W        W 9880   5.545   7.358   9.792
 5681W        W 9881   4.316   7.520   0.765
 5682W        W 9882   0.943   2.692   2.648
 5683W        W 9883   0.212   6.819  10.505
 5684W        W 9884   5.446   4.116   4.024
 5685W        W 9885   8.185   8.071   8.963
 5686W        W 9886   8.894   5.460  10.222
 5687W        W 9887   7.476   2.369  10.495
 5688W        W 9888   7.708  11.238   9.784
 5689W        W 9889   0.197   5.240   8.990
 5690W        W 9890   1.889   6.991   1.458
 5691W        W 9891   0.978   5.277   2.159
 5692W        W 9892   7.649   0.580   1.763
 5693W        W 9893  11.400   5.694   9.934
 5694W        W 9894   2.627  11.246   9.515
 5695W        W 9895  10.876   7.147  10.004
 5696W        W 9896   3.737   4.745   2.253
 5697W        W 9897   4.665   9.900   0.523
 5698W        W 9898   7.880   1.552  11.928
 5699W        W 9899   0.745   0.422   8.662
 5700W        W 9900  11.343   0.022  11.275
 5701W        W 9901   0.454   7.999   0.607
 5702W        W 9902  10.226  11.317  10.303
 5703W        W 9903   1.441   4.243   0.231
 5704W        W 9904   4.922   1.310   3.262
 5705W        W 9905   7.671   8.983  10.895
 5706W        W 9906   6.903   8.857   8.502
 5707W        W 9907   3.677   5.487  10.859
 5708W        W 9908   4.944   4.341  10.507
 5709W        W 9909   0.382   8.775   0.323
 5710W        W 9910   6.950   4.583  10.340
 5711W        W 9911   8.236   9.597   8.796
 5712W        W 9912   5.022   2.899  10.629
 5713W        W 9913   9.768   4.580  10.618
 5714W        W 9914  11.137   8.493  10.401
 5715W        W 9915   4.454   7.989   1.894
 5716W        W 9916   6.422   1.314   1.240
 5717W        W 9917   1.423   9.080   1.212
 5718W        W 9918   9.911   6.456   3.573
 5719W        W 9919   1.328   7.150   2.325
 5720W        W 9920   8.074   4.157   1.081
 5721W        W 9921   4.805   5.241   1.872
 5722W        W 9922   0.395   3.484   9.424
 5723W        W 9923   6.983   1.695   2.117
 5724W        W 9924   4.423  10.273   0.914
 5725W        W 9925  10.044   8.083   9.817
 5726W        W 9926  10.297   3.974  11.983
 5727W        W 9927   8.400   6.163   1.709
 5728W        W 9928  11.292   3.404   0.859
 5729W        W 9929   4.461   6.302   1.161
 5730W        W 9930   0.020   8.550   0.641
 5731W        W 9931   8.827   1.150   3.399
 5732W        W 9932   3.879   7.110   1.488
 5733W        W 9933   9.023   4.333   0.736
 5734W        W 9934   7.758   1.475   1.670
 5735W        W 9935  11.362  10.128  11.633
 5736W        W 9936   4.166   5.057   2.352
 5737W        W 9937   8.924   7.580   1.663
 5738W        W 9938   3.161   7.709   9.417
 5739W        W 9939   2.292   4.785   0.959
 5740W        W 9940   1.438  11.433   8.824
 5741W        W 9941   1.437  11.316  11.558
 5742W        W 9942   7.136   2.924   8.821
 5743W        W 9943  11.187   9.275  11.003
 5744W        W 9944   0.432   3.757   3.232
 5745W        W 9945   1.018   8.464  10.313
 5746W        W 9946   8.811   5.985   8.349
 5747W        W 9947   6.365   0.808  10.690
 5748W        W 9948   5.509   3.712   8.143
 5749W        W 9949   9.557   8.624   3.269
 5750W        W 9950   5.907   3.383   1.885
 5751W        W 9951   2.273   8.436  10.308
 5752W        W 9952   5.709   9.121   3.572
 5753W        W 9953   3.610   1.885   9.506
 5754W        W 9954   1.348   4.758   2.193
 5755W        W 9955   6.050   8.346   2.703
 5756W        W 9956  10.378   6.586   3.377
 5757W        W 9957   0.296  10.561   9.155
 5758W        W 9958   9.557   5.545   1.127
 5759W        W 9959   8.528   0.989   2.080
 5760W        W 9960   2.896   7.878   1.326
 5761W        W 9961   0.086  10.585  11.733
 5762W        W 9962   5.191   0.962  11.445
 5763W        W 9963   9.067   7.601   2.653
 5764W        W 9964   2.273   0.857  10.846
 5765W        W 9965   6.282  10.514  10.782
 5766W        W 9966   3.527   3.800   3.543
 5767W        W 9967  10.578   9.981  10.984
 5768W        W 9968   6.157   1.748  11.012
 5769W        W 9969   8.103   7.680  11.188
 5770W        W 9970   2.168   8.897  11.035
 5771W        W 9971   8.923   6.037   0.783
 5772W        W 9972  10.183   4.262  10.596
 5773W        W 9973   3.277   9.085   9.081
 5774W        W 9974  10.511   9.045   8.889
 5775W        W 9975  10.031   9.014   2.188
 5776W        W 9976  10.327   5.374  10.623
 5777W        W 9977   1.686   3.793   2.848
 5778W        W 9978  11.265  10.274   0.628
 5779W        W 9979   1.931  11.434   1.845
 5780W        W 9980   4.525  10.912  11.462
 5781W        W 9981   2.765   2.059   9.046
 5782W        W 9982   6.174   9.053   2.307
 5783W        W 9983   8.949   0.372   2.727
 5784W        W 9984   9.549   6.446   9.602
 5785W        W 9985   1.373   3.835  10.957
 5786W        W 9986   7.423   7.609  11.710
 5787W        W 9987   0.981   3.674  10.389
 5788W        W 9988   4.891   7.197   0.565
 5789W        W 9989  10.450  10.772   2.461
 5790W        W 9990   3.323   3.763   9.794
 5791W        W 9991   1.749  11.376   3.608
 5792W        W 9992   7.193   7.486   1.077
 5793W        W 9993   3.130  10.805  11.281
 5794W        W 9994   0.289  10.075   1.405
 5795W        W 9995   8.623   1.981   1.464
 5796W        W 9996   5.169   1.938  10.945
 5797W        W 9997   4.706   6.060  10.773
 5798W        W 9998  10.068   7.591   1.351
 5799W        W 9999   2.340   9.886   2.468
 5800W        W10000  10.364   4.958   8.836
 5801W        W10001   4.681  10.570   1.830
 5802W        W10002   6.996   0.375   0.125
 5803W        W10003   0.599  11.361  11.781
 5804W        W10004   9.209   5.212  11.334
 5805W        W10005   8.024   5.661   8.681
 5806W        W10006   8.556  11.040   1.776
 5807W        W10007   2.522   4.772   2.889
 5808W        W10008   3.704   3.071   9.041
 5809W        W10009   3.381   9.437   3.709
 5810W        W10010   2.590   9.336   0.724
 5811W        W10011   2.694   4.279  10.265
 5812W        W10012   3.685   4.234   2.175
 5813W        W10013   8.464   9.583   0.162
 5814W        W10014   7.720   6.434   9.171
 5815W        W10015   1.916   0.984   0.750
 5816W        W10016   8.972  10.871   2.527
 5817W        W10017   2.838   5.559  10.770
 5818W        W10018  10.888  10.530   0.876
 5819W        W10019   5.650  10.139   9.840
 5820W        W10020   5.645   9.573   3.253
 5821W        W10021   6.524   1.228   2.342
 5822W        W10022   6.102   1.507   8.973
 5823W        W10023   0.864   4.869   8.514
 5824W        W10024   8.691   4.732   9.285
 5825W        W10025   6.206   1.609   3.005
 5826W        W10026   6.671   0.581  11.764
 5827W        W10027   4.695   1.317   0.799
 5828W        W10028   9.457   8.777  10.832
 5829W        W10029   2.647   9.006  11.162
 5830W        W10030   3.655   2.364   1.958
 5831W        W10031   0.012   8.948   2.312
 5832W        W10032   1.813   8.692   1.937
 5833W        W10033   8.943   8.447  11.035
 5834W        W10034   8.039   4.788   1.722
 5835W        W10035   7.094   6.497   1.183
 5836W        W10036   5.968   8.489   0.318
 5837W        W10037   9.897   1.861   2.493
 5838W        W10038   8.647   6.471   9.125
 5839W        W10039   6.226   3.641   3.146
 5840W        W10040   2.618   8.828   1.335
 5841W        W10041   3.661   9.939   1.341
 5842W        W10042   0.871   4.607  11.812
 5843W        W10043  11.410   3.655  11.465
 5844W        W10044  10.481   5.708  11.918
 5845W        W10045   7.493   4.081   9.811
 5846W        W10046   7.906   7.941   3.170
 5847W        W10047   1.457   9.890   9.287
 5848W        W10048  10.509   0.086   2.780
 5849W        W10049   2.230  10.661   0.888
 5850W        W10050   2.885   3.436  11.367
 5851W        W10051  11.437   1.059  11.300
 5852W        W10052   8.285   3.719   0.866
 5853W        W10053   5.298   9.774   1.187
 5854W        W10054   0.331   7.485   9.281
 5855W        W10055  10.410   4.216   1.787
 5856W        W10056   8.951   0.135   8.780
 5857W        W10057   0.373   8.357   1.486
 5858W        W10058  10.774   1.817   1.234
 5859W        W10059   1.170  10.348   2.307
 5860W        W10060  10.074   3.256  11.436
 5861W        W10061   6.416   7.828  10.896
 5862W        W10062   6.049   4.338   0.836
 5863W        W10063   6.644   1.288   0.440
 5864W        W10064   8.017   4.258  11.120
 5865W        W10065   8.738   5.803  10.566
 5866W        W10066   7.415   8.291  10.073
 5867W        W10067   8.931   8.072   9.896
 5868W        W10068   6.742  11.423   1.348
 5869W        W10069   1.630   6.176   9.525
 5870W        W10070   1.694   0.945  10.149
 5871W        W10071   1.634   2.512   3.565
 5872W        W10072   6.848   1.402   1.492
 5873W        W10073   5.226   2.153  11.852
 5874W        W10074  11.360   0.410  11.732
 5875W        W10075   2.148   9.057   1.999
 5876W        W10076   8.907   8.515   2.192
 5877W        W10077   3.921   7.037   3.240
 5878W        W10078  10.872   5.876   3.622
 5879W        W10079   2.499   7.061  10.500
 5880W        W10080  10.479   5.644   1.406
 5881W        W10081   3.202   5.622  11.534
 5882W        W10082   7.937   7.010   9.578
 5883W        W10083   6.700   0.314   3.035
 5884W        W10084   9.367   3.206   8.492
 5885W        W10085   4.715   7.043   9.020
 5886W        W10086   5.088   7.160  10.982
 5887W        W10087   8.325   4.815   2.171
 5888W        W10088  11.314   4.790   0.286
 5889W        W10089   2.365   8.637   2.876
 5890W        W10090   6.469   8.011   8.680
 5891W        W10091  11.048   2.828   1.872
 5892W        W10092   6.534   8.475   9.907
 5893W        W10093   5.558   3.276   9.816
 5894W        W10094  10.539   5.548  11.041
 5895W        W10095  10.284   0.290   1.338
 5896W        W10096   3.417  10.191   0.644
 5897W        W10097   4.918   1.154  10.517
 5898W        W10098   2.660  10.974  11.250
 5899W        W10099   7.535  10.173  11.922
 5900W        W10100   2.108   6.660   0.363
 5901W        W10101  10.392   1.048   9.698
 5902W        W10102   7.335   8.342   1.418
 5903W        W10103   2.537   8.864  10.351
 5904W        W10104   2.692   5.815   1.633
 5905W        W10105   7.501   9.576   2.801
 5906W        W10106   8.646   3.274   2.647
 5907W        W10107   6.480  11.382   2.840
 5908W        W10108   5.293   4.768   9.423
 5909W        W10109   1.672   9.755  10.098
 5910W        W10110   0.260   7.625   2.756
 5911W        W10111   2.883  10.433   1.397
 5912W        W10112  10.396   3.819   1.214
 5913W        W10113   6.219   8.163   9.097
 5914W        W10114   9.514   0.226   0.594
 5915W        W10115   6.051   7.089   1.703
 5916W        W10116   4.484  10.494  10.593
 5917W        W10117   0.366  11.025   8.963
 5918W        W10118  11.065   1.859   0.789
 5919W        W10119   3.374   9.782   0.947
 5920W        W10120   5.428   1.055  10.439
 5921W        W10121   6.553   9.530   1.644
 5922W        W10122   6.244   1.892   8.413
 5923W        W10123   0.290   8.472   8.792
 5924W        W10124   1.666   3.146  11.955
 5925W        W10125   9.054   8.510   3.235
 5926W        W10126   4.659   8.766   9.791
 5927W        W10127   9.293   2.843   8.896
 5928W        W10128   7.260  11.483   1.328
 5929W        W10129   6.299   8.825   0.025
 5930W        W10130   9.448   6.147   8.723
 5931W        W10131  10.003   4.569   1.786
 5932W        W10132   1.743   1.989   3.550
 5933W        W10133   1.052   2.319   3.566
 5934W        W10134  11.222   9.455  10.516
 5935W        W10135   2.605   1.110   8.791
 5936W        W10136  10.888   4.728   9.967
 5937W        W10137   2.127   6.804  10.758
 5938W        W10138   7.135   7.954  11.957
 5939W        W10139   1.443  10.901  10.742
 5940W        W10140   9.261   7.491  11.917
 5941W        W10141   4.238   8.457   1.833
 5942W        W10142  10.007   5.778   1.226
 5943W        W10143   4.483  10.685   2.302
 5944W        W10144  10.079   2.661  11.965
 5945W        W10145   2.777   8.519   2.005
 5946W        W10146  10.510   4.556  10.290
 5947W        W10147   7.402   9.873  10.989
 5948W        W10148   4.220  11.184   2.260
 5949W        W10149   8.243   8.584   0.820
 5950W        W10150   8.967   6.765   0.498
 5951W        W10151   6.711   1.864   9.814
 5952W        W10152   1.605   0.675   0.426
 5953W        W10153   9.170   6.732   2.647
 5954W        W10154   8.997   7.396   0.809
 5955W        W10155   7.115   5.569   9.969
 5956W        W10156   2.639   9.926   1.357
 5957W        W10157  11.319   0.676   0.165
 5958W        W10158   7.119   2.528   0.253
 5959W        W10159   5.310   5.242   1.490
 5960W        W10160   5.220   0.221  10.181
 5961W        W10161  11.004   8.877   2.291
 5962W        W10162   0.695   9.253   8.890
 5963W        W10163   7.460   1.848   2.463
 5964W        W10164  10.979   5.983   8.967
 5965W        W10165   2.647  11.484   2.767
 5966W        W10166   0.699   4.123  11.535
 5967W        W10167   8.876   5.585  11.024
 5968W        W10168  11.182   7.218  11.476
 5969W        W10169   5.783   6.989  10.075
 5970W        W10170   9.201   2.337   3.492
 5971W        W10171   1.781  11.297   2.313
 5972W        W10172   6.936   2.236  10.083
 5973W        W10173  10.432   7.547   8.869
 5974W        W10174   0.893   0.219   1.647
 5975W        W10175   8.611   8.975  11.479
 5976W        W10176   1.425   9.801   1.994
 5977W        W10177   4.271   4.335   2.822
 5978W        W10178  10.065   5.073   1.945
 5979W        W10179  10.339  11.087  11.629
 5980W        W10180  10.613   3.165   2.882
 5981W        W10181  10.973   7.677  10.788
 5982W        W10182   7.026   7.132  11.050
 5983W        W10183   9.363   9.527  11.685
 5984W        W10184  10.604   8.004   0.893
 5985W        W10185   5.048   5.234  10.959
 5986W        W10186   1.580   1.940   2.636
 5987W        W10187   1.449   4.501   1.090
 5988W        W10188   9.246   7.068  11.519
 5989W        W10189   0.189   9.435   2.592
 5990W        W10190   1.061   6.694   0.325
 5991W        W10191  11.425   1.501  11.567
 5992W        W10192   6.249   8.962   9.382
 5993W        W10193   3.797  10.847   2.277
 5994W        W10194   6.139   5.703  11.751
 5995W        W10195   5.548   1.866   2.675
 5996W        W10196   2.505   8.968   9.476
 5997W        W10197  10.035  10.958   0.451
 5998W        W10198  10.052   8.579   3.424
 5999W        W10199   7.087   6.999   3.462
 6000W        W10200   4.206  10.023  10.286
 6001W        W10201   3.321  10.347  11.296
 6002W        W10202   3.020   6.224   1.605
 6003W        W10203   2.706   0.436   3.004
 6004W        W10204   6.145  11.008  11.935
 6005W        W10205   7.993   6.105   2.009
 6006W        W10206   4.538   4.312  11.383
 6007W        W10207   5.039   0.188   0.753
 6008W        W10208   4.060   9.698  11.067
 6009W        W10209   9.949   8.570   2.939
 6010W        W10210   5.130   3.601   3.206
 6011W        W10211  10.448   1.940  10.062
 6012W        W10212   2.760   5.548   3.615
 6013W        W10213   7.667   9.860  10.514
 6014W        W10214   8.272   5.560   1.222
 6015W        W10215   3.887   0.772  11.751
 6016W        W10216   1.009   6.976   3.594
 6017W        W10217   2.331   7.959   3.282
 6018W        W10218   0.541   7.933   3.561
 6019W        W10219   7.923   1.433   9.749
 6020W        W10220   1.350   2.536   8.807
 6021W        W10221   8.257   8.064  10.555
 6022W        W10222  10.854   0.983   2.226
 6023W        W10223   0.489   1.914   1.004
 6024W        W10224   9.363   9.609   9.434
 6025W        W10225   7.931   5.179   2.267
 6026W        W10226   8.796   4.601   2.267
 6027W        W10227   5.130   3.698   0.200
 6028W        W10228   9.293   7.143   2.361
 6029W        W10229   8.367   0.447   9.423
 6030W        W10230   7.905  11.253   0.762
 6031W        W10231   1.008   7.314  10.927
 6032W        W10232   9.157   5.135   9.913
 6033W        W10233   6.518  10.260   0.320
 6034W        W10234   6.987   3.584   2.675
 6035W        W10235   6.194  11.432   1.900
 6036W        W10236   6.106   9.494   3.535
 6037W        W10237   1.461   8.900   3.611
 6038W        W10238   5.538   9.521   0.779
 6039W        W10239  11.009   3.221   9.120
 6040W        W10240   0.697   6.533   3.457
 6041W        W10241   0.006   5.352  11.223
 6042W        W10242   2.723   4.012   2.508
 6043W        W10243   9.775   3.087   0.026
 6044W        W10244   7.099   4.432  10.838
 6045W        W10245   3.807   6.968   0.629
 6046W        W10246   7.424   6.693   2.252
 6047W        W10247  11.025  10.958   9.527
 6048W        W10248   6.988   8.647  11.553
 6049W        W10249   4.640   7.214   1.033
 6050W        W10250   1.722   0.312   2.155
 6051W        W10251   5.496   4.553   9.840
 6052W        W10252  10.407   3.044  11.086
 6053W        W10253  10.190   7.047   1.399
 6054W        W10254   2.432   8.635   9.871
 6055W        W10255   8.433   0.302  10.990
 6056W        W10256  10.972   5.393   3.500
 6057W        W10257  10.595   1.399   2.412
 6058W        W10258   9.593   8.240   0.888
 6059W        W10259   3.674   9.482  11.335
 6060W        W10260   6.595   0.338  10.557
 6061W        W10261   3.651   5.764   9.936
 6062W        W10262   6.975   1.753  11.758
 6063W        W10263   9.853   8.141  10.340
 6064W        W10264  10.376   3.994   2.574
 6065W        W10265   8.248   2.184   2.756
 6066W        W10266  10.213   2.180  11.396
 6067W        W10267   2.426  10.430   3.270
 6068W        W10268   3.802   9.807  10.083
 6069W        W10269   8.641   1.009   8.606
 6070W        W10270   2.615   4.880   1.792
 6071W        W10271   6.046   3.242   2.869
 6072W        W10272   2.687   3.388   9.438
 6073W        W10273  10.015   7.680  10.621
 6074W        W10274   6.912   5.860  10.926
 6075W        W10275   5.941  10.800   2.223
 6076W        W10276   4.493   7.677   1.251
 6077W        W10277   9.615  11.075   1.421
 6078W        W10278   5.908   5.028   2.237
 6079W        W10279   9.937   2.221   9.400
 6080W        W10280   4.547   4.460   4.052
 6081W        W10281   9.082   8.232   0.967
 6082W        W10282   6.066   8.480  10.781
 6083W        W10283  10.176  10.379   2.145
 6084W        W10284   6.264   8.480   8.682
 6085W        W10285   7.693   3.487   1.189
 6086W        W10286   1.837   1.733   2.228
 6087W        W10287   3.130  11.343   9.594
 6088W        W10288   8.959   0.692  11.776
 6089W        W10289   0.776   9.266   9.859
 6090W        W10290   9.352   4.745   0.810
 6091W        W10291   2.209   5.737   1.448
 6092W        W10292   0.768   4.307   9.084
 6093W        W10293   8.915   3.911   9.003
 6094W        W10294   0.288   9.770   0.444
 6095W        W10295   1.929   7.788   8.600
 6096W        W10296   4.856   8.937   1.035
 6097W        W10297  10.877   5.050   9.556
 6098W        W10298   7.383   9.652   9.290
 6099W        W10299   4.251   9.463   2.503
 6100W        W10300  11.082   4.306   1.024
 6101W        W10301   0.877   4.095   2.162
 6102W        W10302   5.799   6.157  10.225
 6103W        W10303   3.464   9.525   9.843
 6104W        W10304   9.938   1.716   1.533
 6105W        W10305   9.513   5.369   0.140
 6106W        W10306   2.836   5.735   0.712
 6107W        W10307   6.989   4.724  11.656
 6108W        W10308   8.770   8.577   1.714
 6109W        W10309   3.895   9.827   0.883
 6110W        W10310   9.559   3.743  11.353
 6111W        W10311   3.678   0.243  10.528
 6112W        W10312   4.621   6.996  11.055
 6113W        W10313   7.828   0.858  11.238
 6114W        W10314   8.491  11.283  10.040
 6115W        W10315   2.778  10.638   0.186
 6116W        W10316   8.980   2.820  10.604
 6117W        W10317   4.430  10.946   3.399
 6118W        W10318  10.342  10.637  11.311
 6119W        W10319   3.729   8.098   0.305
 6120W        W10320   2.849   8.184  11.489
 6121W        W10321   4.740   3.313  10.535
 6122W        W10322   1.156   8.961   9.748
 6123W        W10323  10.116   1.455  11.346
 6124W        W10324   6.246   1.364   9.473
 6125W        W10325   0.472   7.848  10.417
 6126W        W10326   3.122   8.898   0.440
 6127W        W10327   3.338   0.427   0.499
 6128W        W10328   5.191   8.160   9.416
 6129W        W10329  11.216   2.800   9.354
 6130W        W10330   9.334  10.516   2.329
 6131W        W10331   9.020  10.468   3.320
 6132W        W10332   0.341   8.860  11.381
 6133W        W10333   2.166   2.394   9.542
 6134W        W10334   8.039   0.369   1.499
 6135W        W10335   9.713  11.445   9.424
 6136W        W10336   1.713   4.827  11.533
 6137W        W10337   1.986  10.538   1.771
 6138W        W10338   8.137   8.906   0.350
 6139W        W10339   6.296   6.677   1.858
 6140W        W10340   4.211   4.631  11.767
 6141W        W10341   7.102   8.943   0.585
 6142W        W10342   4.208   2.742   3.607
 6143W        W10343   2.995   3.739   3.653
 6144W        W10344   3.729   8.841   9.227
 6145W        W10345   6.438   0.465   0.205
 6146W        W10346   6.168  11.257   2.368
 6147W        W10347   5.149   6.576   0.682
 6148W        W10348   5.153  11.051   2.712
 6149W        W10349   2.736   0.195  10.436
 6150W        W10350   7.715  10.767   2.168
 6151W        W10351   8.141  11.037   1.416
 6152W        W10352   5.456   8.021  10.760
 6153W        W10353  10.291   1.298   0.701
 6154W        W10354   5.609   8.582   3.796
 6155W        W10355   9.522   2.519   0.596
 6156W        W10356   5.189   4.470   2.843
 6157W        W10357   0.934   3.213   3.634
 6158W        W10358   2.371  11.155   0.980
 6159W        W10359   3.642   6.903  10.659
 6160W        W10360   6.613   5.628  10.102
 6161W        W10361   6.435   2.386  11.448
 6162W        W10362   1.985   8.449  10.883
 6163W        W10363   1.191   9.447   9.517
 6164W        W10364   6.304   7.184   0.434
 6165W        W10365   8.828   1.681   0.181
 6166W        W10366   9.780   2.832   2.349
 6167W        W10367   4.026   4.628   1.392
 6168W        W10368   5.488  10.046   2.966
 6169W        W10369   6.310  10.298   8.977
 6170W        W10370   7.023  10.979   9.041
 6171W        W10371   5.719   2.828   2.868
 6172W        W10372   1.157   1.682  11.752
 6173W        W10373  11.485   9.098  11.950
 6174W        W10374   7.900   5.465  11.890
 6175W        W10375   5.564   7.094  11.164
 6176W        W10376   4.293   2.049   8.800
 6177W        W10377   6.167   6.478   1.423
 6178W        W10378   3.337   9.951   2.767
 6179W        W10379   0.720   1.150   0.197
 6180W        W10380   0.269  10.065   9.023
 6181W        W10381   7.147   9.988   9.599
 6182W        W10382  10.916   6.237   2.506
 6183W        W10383   6.665  10.351   2.212
 6184W        W10384  10.838   3.426   9.618
 6185W        W10385   7.934   1.317  10.262
 6186W        W10386   9.832   4.236   9.799
 6187W        W10387   7.315   0.714   2.301
 6188W        W10388   0.929   8.020   2.528
 6189W        W10389  10.398   9.891   9.968
 6190W        W10390   3.730   6.489   0.356
 6191W        W10391   5.360   5.496   2.742
 6192W        W10392   1.855   4.095   1.360
 6193W        W10393   9.105  10.740   8.965
 6194W        W10394  10.077   1.751   9.070
 6195W        W10395  10.276   0.743   3.303
 6196W        W10396   1.329   6.604  11.348
 6197W        W10397   6.519   1.753   9.283
 6198W        W10398   9.331   0.491   8.737
 6199W        W10399   6.619  10.542   9.672
 6200W        W10400   1.783   8.527  10.415
 6201W        W10401   6.562   4.205   0.255
 6202W        W10402   0.646   4.530   3.390
 6203W        W10403   9.320   4.137  11.984
 6204W        W10404   6.693   9.447   1.164
 6205W        W10405   9.941  10.580   1.743
 6206W        W10406   2.114   7.610   0.248
 6207W        W10407   8.877   1.018   2.898
 6208W        W10408   8.528  10.398   3.160
 6209W        W10409   6.973  11.443  11.873
 6210W        W10410   3.410   9.890   1.790
 6211W        W10411   6.205   8.590   0.850
 6212W        W10412  11.208   7.922  10.348
 6213W        W10413  11.244   0.858   3.048
 6214W        W10414   7.729   0.755  10.024
 6215W        W10415   8.139   5.423   0.751
 6216W        W10416   9.060   5.686   1.117
 6217W        W10417   6.123   7.536   3.584
 6218W        W10418   8.832   1.457   0.887
 6219W        W10419   5.974  11.342  10.380
 6220W        W10420   5.959   8.076   8.631
 6221W        W10421   8.479   7.421   2.327
 6222W        W10422   4.584   0.061  11.997
 6223W        W10423  10.010   3.309   2.267
 6224W        W10424   8.716   8.400   9.573
 6225W        W10425  11.345   3.196   2.143
 6226W        W10426   0.690   1.657   0.018
 6227W        W10427   4.888   2.300   0.624
 6228W        W10428   9.301   8.318   3.658
 6229W        W10429  10.283   2.679  11.448
 6230W        W10430  10.581   8.121   9.185
 6231W        W10431   8.604   8.790   3.261
 6232W        W10432   0.918  10.292  11.850
 6233W        W10433   8.201   5.969  10.483
 6234W        W10434   2.091  10.060   3.608
 6235W        W10435   3.605   7.230   0.098
 6236W        W10436   4.750   9.912  11.447
 6237W        W10437   0.368  10.308  10.493
 6238W        W10438   9.295   0.587  10.963
 6239W        W10439   5.047   1.828   2.777
 6240W        W10440   1.993  10.233   0.740
 6241W        W10441   1.001   6.066  10.804
 6242W        W10442   4.896   7.529   3.064
 6243W        W10443   5.457   0.444   3.218
 6244W        W10444   7.928   0.487  10.876
 6245W        W10445   4.560   3.209   1.691
 6246W        W10446   2.269   6.733   1.795
 6247W        W10447   9.336   1.440   0.023
 6248W        W10448   3.778   0.320   1.896
 6249W        W10449   7.493   3.563  10.012
 6250W        W10450   4.545   7.509  11.813
 6251W        W10451   4.602   3.884  10.042
 6252W        W10452   5.752   5.671   9.542
 6253W        W10453   8.902  10.276  11.525
 6254W        W10454   5.477   1.369  11.504
 6255W        W10455   5.206   0.480   9.752
 6256W        W10456  11.457   6.896   2.661
 6257W        W10457   1.922   8.110  11.303
 6258W        W10458   5.980   5.337   0.745
 6259W        W10459  10.856   7.291  10.491
 6260W        W10460   5.680   8.067   1.547
 6261W        W10461   0.885  10.992   2.773
 6262W        W10462   0.815   6.383   0.002
 6263W        W10463   1.333  11.255   2.672
 6264W        W10464   7.278   6.902   1.434
 6265W        W10465   4.746   9.320  11.211
 6266W        W10466   8.915   9.015   2.053
 6267W        W10467   8.582   4.546   0.453
 6268W        W10468   8.893   4.236   1.680
 6269W        W10469   7.859   3.538   3.649
 6270W        W10470   5.629   8.029   0.992
 6271W        W10471   0.881   9.674  11.027
 6272W        W10472   9.901  11.462   2.157
 6273W        W10473   1.788   0.391   3.147
 6274W        W10474   9.061   6.229  11.151
 6275W        W10475   9.887  10.450  10.601
 6276W        W10476   7.831   5.622   2.578
 6277W        W10477  11.332   6.513   2.312
 6278W        W10478   0.151   2.188  10.304
 6279W        W10479   3.531   4.255  11.501
 6280W        W10480  10.496   0.388  10.513
 6281W        W10481   9.674   0.721   1.669
 6282W        W10482   3.977   3.654   1.205
 6283W        W10483   2.599   6.188   0.753
 6284W        W10484  11.083   4.706  11.823
 6285W        W10485   1.644   4.816   0.511
 6286W        W10486   4.156  10.549  11.013
 6287W        W10487   1.644   1.839   8.523
 6288W        W10488   3.680   8.350   9.423
 6289W        W10489   1.412  10.733   2.542
 6290W        W10490   4.287  10.349   9.595
 6291W        W10491   7.291   3.686   3.154
 6292W        W10492   1.204   4.559   0.628
 6293W        W10493   7.597  10.350  11.442
 6294W        W10494   9.004   9.815   9.130
 6295W        W10495   3.305   2.111   0.858
 6296W        W10496   4.194   2.014   2.225
 6297W        W10497   3.378   1.804  10.799
 6298W        W10498   1.362   8.043   2.283
 6299W        W10499   3.100   4.268   9.121
 6300W        W10500   7.139   3.046   1.921
 6301W        W10501   2.678   9.080   2.856
 6302W        W10502   7.663   3.657   9.503
 6303W        W10503  10.979  11.008   3.121
 6304W        W10504   7.721   0.392  10.400
 6305W        W10505   2.337   4.364   2.639
 6306W        W10506   8.433   2.835   9.523
 6307W        W10507   3.370   4.440   8.516
 6308W        W10508   9.169   6.743   3.997
 6309W        W10509   6.700   2.838  10.063
 6310W        W10510   7.885   0.990   8.884
 6311W        W10511   3.869   6.480  10.447
 6312W        W10512   5.698   1.867   1.117
 6313W        W10513   9.539   1.905   9.304
 6314W        W10514   8.952  11.221   9.096
 6315W        W10515   1.428   0.750   2.998
 6316W        W10516   2.717   8.673  11.546
 6317W        W10517   6.852  10.103   3.153
 6318W        W10518   6.925   1.946   8.999
 6319W        W10519   3.652   9.390  10.328
 6320W        W10520   9.468   0.516   3.414
 6321W        W10521   5.046   4.636   8.178
 6322W        W10522   9.990   2.337   0.356
 6323W        W10523   2.159   4.611   1.887
 6324W        W10524   6.750   8.378   8.465
 6325W        W10525  10.660   6.098  10.275
 6326W        W10526   7.484   1.255  10.031
 6327W        W10527   4.108   1.906   9.620
 6328W        W10528   5.953   9.131   9.009
 6329W        W10529   1.372   3.601   8.996
 6330W        W10530   9.578   6.126  11.053
 6331W        W10531   1.089   4.509   2.565
 6332W        W10532   1.742   3.927   8.899
 6333W        W10533   1.925   2.109   1.369
 6334W        W10534   3.712   3.127  10.821
 6335W        W10535   5.657   1.007   0.839
 6336W        W10536   9.407   0.783  11.413
 6337W        W10537   5.482   7.063   1.377
 6338W        W10538   3.618   9.585  11.892
 6339W        W10539  10.415   7.105   3.253
 6340W        W10540   0.146   2.396   3.285
 6341W        W10541  10.388   4.052   3.106
 6342W        W10542   9.422   3.169   3.258
 6343W        W10543   0.908   4.049   2.665
 6344W        W10544   8.190   3.849   2.923
 6345W        W10545   7.914   7.994   0.123
 6346W        W10546   0.758   4.685   0.912
 6347W        W10547   8.165   2.379   9.331
 6348W        W10548   5.608   4.713   1.988
 6349W        W10549   3.922   8.948   0.975
 6350W        W10550   8.897   6.020   1.854
 6351W        W10551   6.705   0.896   9.809
 6352W        W10552   8.804   3.444  11.986
 6353W        W10553   6.560   2.590   0.919
 6354W        W10554   6.932   6.006   1.814
 6355W        W10555   9.554   8.624   9.446
 6356W        W10556   1.294  10.805   0.333
 6357W        W10557   3.724   8.380  10.788
 6358W        W10558   0.818   1.763   9.944
 6359W        W10559   1.797   9.364   0.359
 6360W        W10560   2.325   5.206  10.007
 6361W        W10561   9.315   1.696   0.871
 6362W        W10562   9.856   0.177   2.763
 6363W        W10563   9.475  11.009   9.248
 6364W        W10564   1.964   2.741   3.223
 6365W        W10565   9.310   1.081   1.714
 6366W        W10566  10.418   5.943   9.025
 6367W        W10567   3.084   1.109   9.701
 6368W        W10568   8.454   7.505   0.409
 6369W        W10569   5.564  10.166   3.480
 6370W        W10570   9.102   1.918   3.187
 6371W        W10571   9.409   3.300   9.824
 6372W        W10572   9.317   5.731  11.270
 6373W        W10573   0.505   7.020   3.492
 6374W        W10574  10.254   3.227   3.356
 6375W        W10575   3.638   3.130   9.894
 6376W        W10576   1.393   8.116   9.259
 6377W        W10577   0.460   9.766   2.872
 6378W        W10578   1.303   0.350   3.324
 6379W        W10579   6.575   7.079   2.701
 6380W        W10580   7.350   3.574  11.882
 6381W        W10581   7.645  11.056   0.321
 6382W        W10582   4.801   8.964   2.016
 6383W        W10583   4.233   4.374   3.632
 6384W        W10584   5.466   8.475   0.239
 6385W        W10585   1.747   2.218   9.809
 6386W        W10586   8.614   5.907   2.283
 6387W        W10587   1.197   9.937  10.250
 6388W        W10588   3.040   7.418   1.178
 6389W        W10589   9.820   2.855   1.389
 6390W        W10590   6.079   0.397   1.215
 6391W        W10591   4.342  11.313   1.329
 6392W        W10592   5.960   6.265   1.859
 6393W        W10593   0.816  10.493  11.393
 6394W        W10594   7.085   2.740   1.116
 6395W        W10595   5.323   4.172   8.304
 6396W        W10596   1.394  10.965   9.028
 6397W        W10597   4.616   9.198   8.901
 6398W        W10598   1.134   9.989   0.238
 6399W        W10599   4.920   3.352   0.915
 6400W        W10600  11.117   1.632   3.479
 6401W        W10601   4.908   2.829   9.504
 6402W        W10602  10.142   7.925   9.330
 6403W        W10603   5.213  10.098  11.350
 6404W        W10604   2.744   3.854  10.520
 6405W        W10605   7.180   3.013   2.436
 6406W        W10606   2.847   6.042   0.300
 6407W        W10607   9.445   5.647   8.897
 6408W        W10608   8.449   4.094   8.757
 6409W        W10609  11.010   2.290   0.490
 6410W        W10610   5.237   2.405   9.456
 6411W        W10611   2.147   9.042  10.041
 6412W        W10612   4.066  10.413   2.433
 6413W        W10613   0.454   6.953   0.219
 6414W        W10614   9.578   5.036   1.216
 6415W        W10615   3.347  10.395   1.642
 6416W        W10616   3.380   6.662   0.691
 6417W        W10617   3.269   1.586   0.646
 6418W        W10618   4.619   8.420  11.246
 6419W        W10619   7.972   2.838   9.252
 6420W        W10620  10.373   1.813   3.195
 6421W        W10621   3.671   1.271   0.811
 6422W        W10622   1.648   9.100   9.886
 6423W        W10623   4.587   5.239  10.185
 6424W        W10624   5.151   0.433  11.264
 6425W        W10625   8.146  10.752   1.881
 6426W        W10626   2.403   9.284  10.702
 6427W        W10627  10.435   3.981  11.415
 6428W        W10628   6.146   2.832   9.385
 6429W        W10629   1.346   7.577   0.668
 6430W        W10630   4.031   2.890   8.609
 6431W        W10631  10.112   3.821   0.467
 6432W        W10632  11.327   1.365  10.292
 6433W        W10633   8.012   6.992   0.202
 6434W        W10634   1.112   9.486  11.452
 6435W        W10635  11.346   9.780   2.411
 6436W        W10636   9.650  11.154  10.744
 6437W        W10637   4.181   8.145  11.428
 6438W        W10638   9.411   6.889   1.165
 6439W        W10639   4.746   5.746   1.831
 6440W        W10640   3.147  10.967  10.352
 6441W        W10641   7.173   2.911   0.630
 6442W        W10642   6.682   0.020   9.634
 6443W        W10643   7.136  10.487   0.943
 6444W        W10644   9.606   1.249   2.165
 6445W        W10645   3.807  11.281   0.439
 6446W        W10646   6.727   7.985   4.085
 6447W        W10647   1.254   9.380   1.746
 6448W        W10648   4.207   6.613   3.128
 6449W        W10649   9.541   8.714  11.322
 6450W        W10650   1.185   5.924   0.840
 6451W        W10651  11.486   0.475   2.180
 6452W        W10652   2.916   7.979   1.837
 6453W        W10653   4.743   4.436   8.568
 6454W        W10654  10.451   3.744  10.345
 6455W        W10655   6.066   4.576   8.888
 6456W        W10656   3.409   0.011   8.665
 6457W        W10657   0.941   5.111  10.788
 6458W        W10658   0.227  10.583  10.096
 6459W        W10659   9.176  10.836  10.737
 6460W        W10660   7.591   6.074   1.035
 6461W        W10661   9.527   9.115   3.412
 6462W        W10662   7.685   2.149  11.297
 6463W        W10663   0.456   9.102  11.819
 6464W        W10664  10.372   5.464  10.133
 6465W        W10665   8.875   3.310   2.163
 6466W        W10666   0.323   8.959   2.720
 6467W        W10667   9.171   3.292  10.717
 6468W        W10668   4.809   8.507   9.368
 6469W        W10669  11.237   4.754   2.890
 6470W        W10670   7.210  11.237   2.351
 6471W        W10671   6.099   4.048   0.392
 6472W        W10672   1.856   3.662   9.811
 6473W        W10673  11.286   8.650   2.661
 6474W        W10674   1.543   8.275  11.630
 6475W        W10675   7.853  11.425   8.907
 6476W        W10676   0.692   5.290   8.779
 6477W        W10677   3.787   9.312  10.844
 6478W        W10678   2.780   7.002   9.249
 6479W        W10679   8.036   5.968  11.916
 6480W        W10680   3.900   2.383  10.303
 6481W        W10681   8.404   1.322  10.020
 6482W        W10682   0.473  11.042   2.186
 6483W        W10683   0.856   2.347  11.167
 6484W        W10684   9.615   6.095   3.367
 6485W        W10685   2.742   5.219   3.004
 6486W        W10686   1.752   8.941   0.820
 6487W        W10687   7.008  10.715  11.258
 6488W        W10688  11.056   7.219   2.620
 6489W        W10689   9.843   5.466  10.395
 6490W        W10690   1.271   3.264   3.233
 6491W        W10691   7.540   2.836   0.265
 6492W        W10692   4.394   0.503  11.092
 6493W        W10693   0.885   9.992   2.676
 6494W        W10694  10.339   0.887   0.998
 6495W        W10695   5.580   6.908   9.530
 6496W        W10696   0.216   6.634   3.678
 6497W        W10697   6.411   8.116   2.431
 6498W        W10698   5.614   3.680   2.808
 6499W        W10699   5.271   3.128  10.214
 6500W        W10700   1.339   5.828   1.318
 6501W        W10701   8.399   7.925   9.501
 6502W        W10702   5.729   0.876   8.621
 6503W        W10703   7.451   0.014  10.701
 6504W        W10704   9.023   2.030  11.874
 6505W        W10705   8.843   9.910   1.550
 6506W        W10706   4.188   8.237  10.932
 6507W        W10707  10.055   8.619  10.205
 6508W        W10708   6.413   0.447   9.720
 6509W        W10709   5.147  11.086   2.194
 6510W        W10710   2.876   6.979   0.375
 6511W        W10711   1.822   1.769   9.528
 6512W        W10712   7.888   0.191   9.345
 6513W        W10713   9.312   1.725  10.887
 6514W        W10714   4.012  11.292   1.755
 6515W        W10715   0.470   0.582   0.960
 6516W        W10716  11.387   9.511   0.266
 6517W        W10717   2.221  10.998  11.901
 6518W        W10718  10.452   0.807  10.179
 6519W        W10719   8.798   9.480   8.783
 6520W        W10720   0.025   8.115   9.525
 6521W        W10721   9.585   1.652   0.438
 6522W        W10722   5.240   4.267   0.394
 6523W        W10723   0.649   5.009   0.045
 6524W        W10724   3.485   7.818  10.362
 6525W        W10725  10.098   6.981  11.746
 6526W        W10726   4.083  11.412  11.997
 6527W        W10727   4.171   0.344   1.026
 6528W        W10728   1.747   8.094  10.124
 6529W        W10729   7.528   8.873   3.421
 6530W        W10730  10.449   9.874   2.436
 6531W        W10731   6.101   7.150   2.206
 6532W        W10732  10.336   4.693   0.948
 6533W        W10733  10.483   5.140   1.199
 6534W        W10734   7.833   9.922   3.106
 6535W        W10735  11.476   7.122   1.734
 6536W        W10736   6.147  10.338   9.867
 6537W        W10737   7.635   0.239   3.219
 6538W        W10738   2.876   6.623   0.766
 6539W        W10739   2.781  10.404  11.218
 6540W        W10740   4.193   3.583   3.292
 6541W        W10741  10.480   8.435   1.667
 6542W        W10742   0.207   0.846   9.213
 6543W        W10743   5.566   8.802  11.433
 6544W        W10744   5.981   8.307   9.929
 6545W        W10745   7.357   2.098   0.415
 6546W        W10746   3.118   1.750   3.024
 6547W        W10747   1.422   5.310   1.808
 6548W        W10748   5.958   8.608   9.073
 6549W        W10749   0.330   1.824   0.524
 6550W        W10750   0.324   4.703   2.054
 6551W        W10751   1.673   9.893   3.345
 6552W        W10752   1.274   6.662   2.155
 6553W        W10753   0.554   4.396   2.453
 6554W        W10754   5.759   0.801   1.300
 6555W        W10755   1.575   6.136   2.919
 6556W        W10756   0.448   8.094   2.627
 6557W        W10757   9.018   7.217   1.321
 6558W        W10758   1.716  10.865   3.366
 6559W        W10759   9.790   5.618   8.506
 6560W        W10760   0.628   7.663   2.283
 6561W        W10761   6.220   7.912   3.227
 6562W        W10762   4.397   5.384   0.260
 6563W        W10763   4.920   5.208   0.014
 6564W        W10764   6.590   0.358   9.230
 6565W        W10765   0.873   6.823  10.841
 6566W        W10766   6.520   9.115   1.922
 6567W        W10767   2.711   2.034   9.986
 6568W        W10768   5.024   8.407   9.846
 6569W        W10769   9.288   3.289   0.024
 6570W        W10770   8.384   7.960   3.590
 6571W        W10771   1.234   6.806   1.113
 6572W        W10772   8.910   2.129  11.387
 6573W        W10773   8.554   4.025   1.243
 6574W        W10774  10.143   5.924  10.333
 6575W        W10775   1.732   1.028   2.643
 6576W        W10776   4.221   4.330  10.936
 6577W        W10777   6.002  11.445   0.909
 6578W        W10778   1.049   6.227  11.563
 6579W        W10779   8.948   6.640  11.500
 6580W        W10780   5.472   6.194   0.828
 6581W        W10781   0.844   0.497  11.331
 6582W        W10782   2.573   0.210   1.470
 6583W        W10783   6.875   2.531   9.039
 6584W        W10784   7.825   9.360   2.020
 6585W        W10785   9.525   7.924   2.700
 6586W        W10786   5.612   5.664   1.494
 6587W        W10787   4.168   8.302   0.469
 6588W        W10788   7.709   6.917   1.003
 6589W        W10789   1.253   1.821   3.589
 6590W        W10790   6.163   6.207  10.581
 6591W        W10791   9.464   1.923   1.355
 6592W        W10792   2.309   3.131   0.870
 6593W        W10793   2.233   9.123   1.514
 6594W        W10794   7.111   3.796   0.296
 6595W        W10795   4.090   4.300   9.053
 6596W        W10796   2.798   0.671  11.865
 6597W        W10797   4.217  10.363   2.925
 6598W        W10798   9.534   4.887  11.008
 6599W        W10799   8.989   9.469  10.935
 6600W        W10800  11.419   2.152   8.583
 6601W        W10801   8.032  11.481  10.854
 6602W        W10802   8.638   1.804  10.392
 6603W        W10803   4.747   8.500   1.774
 6604W        W10804   8.622   0.220   9.805
 6605W        W10805   4.090   5.128   9.028
 6606W        W10806   3.225   7.216   9.426
 6607W        W10807   3.723   7.276  11.593
 6608W        W10808   5.532   7.147   0.831
 6609W        W10809   4.948   1.398   1.265
 6610W        W10810   9.515   7.038   3.751
 6611W        W10811   0.949   0.027   3.541
 6612W        W10812   3.797   9.573   9.428
 6613W        W10813  11.325   0.186   1.193
 6614W        W10814   0.897   8.768  10.790
 6615W        W10815   1.469  10.396   9.486
 6616W        W10816   6.216  10.391   2.511
 6617W        W10817   9.429  11.049   0.024
 6618W        W10818   0.417   2.174   9.279
 6619W        W10819   7.382   3.350   0.393
 6620W        W10820   2.425   4.579   8.805
 6621W        W10821   9.923   7.241   0.972
 6622W        W10822   0.463   3.812   9.035
 6623W        W10823   9.551   3.798   9.825
 6624W        W10824   8.610   1.299   0.444
 6625W        W10825   0.294   9.051   9.846
 6626W        W10826   8.010  10.320  11.798
 6627W        W10827   6.239   7.882  10.008
 6628W        W10828   2.768   0.948   0.803
 6629W        W10829   2.892   4.437   1.831
 6630W        W10830   6.079  10.061  10.719
 6631W        W10831  10.452   1.688   1.646
 6632W        W10832   0.403  11.240   2.763
 6633W        W10833   2.125   6.444   2.186
 6634W        W10834   5.411   4.091   3.106
 6635W        W10835   3.113   0.809   0.251
 6636W        W10836   7.635  10.690   3.510
 6637W        W10837   4.557   7.109   0.138
 6638W        W10838  10.829   6.597   1.691
 6639W        W10839   2.454  10.752   8.702
 6640W        W10840   7.033   6.901   1.940
 6641W        W10841   0.300   1.928   2.381
 6642W        W10842   2.663   7.048   0.993
 6643W        W10843   1.565   6.195   8.708
 6644W        W10844   6.065   9.276  10.114
 6645W        W10845   6.123   0.816   0.924
 6646W        W10846   6.139  10.210   0.680
 6647W        W10847   3.656   7.884  10.912
 6648W        W10848   7.436   4.650  11.914
 6649W        W10849   9.790   0.537  10.945
 6650W        W10850   7.134   7.902   0.567
 6651W        W10851   1.423   3.067   8.857
 6652W        W10852  10.800   9.025   1.845
 6653W        W10853   8.584   8.886  10.950
 6654W        W10854   9.068   8.887  11.762
 6655W        W10855   1.746   6.745   2.330
 6656W        W10856   7.467  10.879  11.448
 6657W        W10857   1.794   3.853   1.819
 6658W        W10858   1.503   5.638   8.854
 6659W        W10859   5.453   8.221   3.459
 6660W        W10860   9.415   9.594   0.524
 6661W        W10861   0.837   1.958   0.602
 6662W        W10862   4.872   3.933  11.326
 6663W        W10863  10.162   4.320   2.209
 6664W        W10864   8.525   0.937  11.691
 6665W        W10865   2.196   4.599  10.501
 6666W        W10866   1.093   9.014  10.269
 6667W        W10867   7.971   2.714   0.911
 6668W        W10868   2.242  11.499  10.421
 6669W        W10869   7.067   1.438   9.116
 6670W        W10870   1.017   8.494   1.289
 6671W        W10871   7.428   0.701  10.936
 6672W        W10872   6.496   8.606   2.616
 6673W        W10873  10.248   4.135  10.101
 6674W        W10874   1.492   1.478   8.856
 6675W        W10875   2.263  10.698  11.422
 6676W        W10876   0.989   0.022  11.472
 6677W        W10877   1.247   8.120  10.026
 6678W        W10878   2.344   4.335   3.528
 6679W        W10879   1.643   6.571   1.297
 6680W        W10880   1.380   6.689   8.805
 6681W        W10881   9.266   2.440   1.794
 6682W        W10882   8.368   4.107   9.774
 6683W        W10883   5.027   5.281   9.913
 6684W        W10884   0.252   4.082   0.356
 6685W        W10885   4.144   1.884   0.858
 6686W        W10886   7.035   4.269   9.094
 6687W        W10887   2.364   6.651   0.835
 6688W        W10888   7.018   4.080  10.455
 6689W        W10889   8.879   2.640  11.460
 6690W        W10890   8.994   2.680  10.110
 6691W        W10891  10.500   3.552   0.260
 6692W        W10892   4.034   4.019  11.858
 6693W        W10893   9.861   5.564   2.157
 6694W        W10894   7.934   7.164  11.296
 6695W        W10895   8.230   8.195   4.023
 6696W        W10896   8.710   5.528   9.376
 6697W        W10897   7.563   9.185   0.568
 6698W        W10898   8.009   6.519   3.237
 6699W        W10899   5.445   8.134   8.622
 6700W        W10900   0.076   4.225   1.132
 6701W        W10901   1.195   2.189   0.937
 6702W        W10902   9.978   9.206   1.326
 6703W        W10903   1.346   8.989   2.465
 6704W        W10904   3.694   1.878   0.642
 6705W        W10905   5.097   8.601  11.357
 6706W        W10906  10.868  10.408   0.304
 6707W        W10907   6.165   7.109   9.066
 6708W        W10908   0.920   6.114   0.431
 6709W        W10909   6.207   8.478   3.172
 6710W        W10910  11.275   0.788   9.498
 6711W        W10911   0.924   0.825   1.142
 6712W        W10912   7.509   8.088   1.864
 6713W        W10913   7.614  10.033   9.004
 6714W        W10914   5.286   8.794   4.143
 6715W        W10915  11.173   0.496   3.408
 6716W        W10916   6.051   3.553   0.485
 6717W        W10917   5.279  10.421   1.578
 6718W        W10918   8.521  11.308   8.770
 6719W        W10919   6.667   3.223  11.135
 6720W        W10920  10.882   3.762  11.570
 6721W        W10921   9.809  10.117  10.235
 6722W        W10922   0.411   5.693   9.068
 6723W        W10923   8.597   9.290   1.310
 6724W        W10924   7.581   2.587   9.552
 6725W        W10925   0.757   4.144   1.663
 6726W        W10926   8.689   3.657  11.518
 6727W        W10927   3.983   7.749   2.678
 6728W        W10928   5.764  11.359  11.284
 6729W        W10929   7.095   7.376   0.367
 6730W        W10930   7.419   1.819   9.059
 6731W        W10931   8.841   0.205   9.300
 6732W        W10932   7.416   9.255   8.947
 6733W        W10933   4.234  10.844   2.721
 6734W        W10934  11.166   2.412   0.962
 6735W        W10935   3.055   2.251   3.197
 6736W        W10936  10.978   9.279   1.431
 6737W        W10937   1.407   3.783  11.994
 6738W        W10938   1.574   1.233   8.383
 6739W        W10939   2.786   0.212   9.426
 6740W        W10940   8.435   2.727   9.030
 6741W        W10941   7.040  10.774   9.912
 6742W        W10942   2.385   2.723   2.075
 6743W        W10943   9.108   1.949   1.761
 6744W        W10944   1.585   5.710   9.727
 6745W        W10945   2.018   8.074  10.560
 6746W        W10946   1.061   6.120  10.179
 6747W        W10947  11.204   4.112   3.469
 6748W        W10948   7.496   5.685  10.295
 6749W        W10949   7.884   6.098   2.926
 6750W        W10950   7.681   4.698   8.621
 6751W        W10951   9.438   9.060   1.343
 6752W        W10952   4.054   4.589   3.202
 6753W        W10953   3.177   6.696   9.465
 6754W        W10954   7.819   1.859   0.385
 6755W        W10955   9.298   3.734   0.685
 6756W        W10956  10.550   1.669  10.499
 6757W        W10957   4.144   4.784   1.896
 6758W        W10958   8.113  11.073   2.295
 6759W        W10959   4.574   2.128   3.037
 6760W        W10960   1.758  10.675   0.610
 6761W        W10961   2.006   2.771   0.011
 6762W        W10962  10.669   9.522   1.768
 6763W        W10963  10.845   5.488   9.096
 6764W        W10964   9.844   5.622   2.667
 6765W        W10965   2.821   4.665   8.050
 6766W        W10966  10.087   5.263   9.720
 6767W        W10967   4.337   7.315  10.080
 6768W        W10968   4.226   3.824   1.627
 6769W        W10969   7.945   2.701   1.931
 6770W        W10970   6.164   4.560   2.213
 6771W        W10971   2.884   4.887  10.387
 6772W        W10972   0.677   6.143   9.819
 6773W        W10973   5.219   8.186   0.678
 6774W        W10974   5.194   9.621   9.506
 6775W        W10975   3.756   4.148   9.702
 6776W        W10976  11.047   9.790  10.879
 6777W        W10977   7.084   6.840   2.903
 6778W        W10978   3.354   7.432   2.134
 6779W        W10979   3.742   5.741   0.964
 6780W        W10980   8.725   5.943   0.293
 6781W        W10981   0.270  10.298   0.521
 6782W        W10982   0.136   6.182  11.644
 6783W        W10983   1.664   7.567   9.503
 6784W        W10984   5.109   8.432  10.877
 6785W        W10985   7.524   5.726   0.677
 6786W        W10986  10.816   8.139  10.620
 6787W        W10987   5.668   2.896   0.932
 6788W        W10988  10.662   4.351   2.265
 6789W        W10989  11.049   1.354  11.163
 6790W        W10990   3.709   7.417  10.604
 6791W        W10991   1.318   1.966  10.762
 6792W        W10992   6.758  11.190  11.268
 6793W        W10993   4.129   1.217   9.943
 6794W        W10994   5.820   2.541   0.501
 6795W        W10995   0.010   0.347   2.696
 6796W        W10996   4.324  10.498   1.469
 6797W        W10997   6.975   7.579  10.322
 6798W        W10998   5.738   5.747   3.000
 6799W        W10999   6.801   1.648  10.356
 6800W        W11000   8.833  11.018  10.380
 6801W        W11001   8.442   9.049   0.892
 6802W        W11002  10.951   3.160   2.504
 6803W        W11003   1.825   3.154  11.454
 6804W        W11004   6.235  11.489   9.369
 6805W        W11005   0.886   5.457   0.241
 6806W        W11006   9.960   7.946  11.455
 6807W        W11007   9.649   5.611   3.150
 6808W        W11008   5.573   7.658  11.923
 6809W        W11009   5.131   9.668   2.856
 6810W        W11010   5.248   0.652   8.702
 6811W        W11011   4.098   8.972   9.592
 6812W        W11012   5.178   9.938   0.298
 6813W        W11013  10.784   6.151   1.468
 6814W        W11014   9.634   3.938   0.362
 6815W        W11015   9.896   5.789   1.713
 6816W        W11016   9.108   4.696   1.846
 6817W        W11017   5.392   3.286   3.542
 6818W        W11018   4.096   5.472   1.267
 6819W        W11019   1.760   2.723   9.069
 6820W        W11020   7.849   1.294   0.796
 6821W        W11021  11.081   0.238   2.408
 6822W        W11022   0.360  10.474   1.936
 6823W        W11023   2.074   8.918  10.547
 6824W        W11024   9.967   9.144  10.101
 6825W        W11025   0.856   8.207   3.009
 6826W        W11026   2.389   4.786   2.339
 6827W        W11027   6.949   5.332  11.040
 6828W        W11028   5.788   8.145   3.093
 6829W        W11029   1.842   4.315   2.751
 6830W        W11030   9.843   8.998  10.569
 6831W        W11031  10.921   2.295   1.398
 6832W        W11032   8.838   0.658  11.202
 6833W        W11033   2.229   6.207   8.904
 6834W        W11034   0.678   0.943   0.664
 6835W        W11035  10.039   3.255  10.302
 6836W        W11036   8.018   2.695   1.423
 6837W        W11037   0.132   9.326  11.321
 6838W        W11038   5.226   9.103   8.127
 6839W        W11039   6.207   2.817  10.797
 6840W        W11040   8.391   2.231  10.253
 6841W        W11041   8.434  11.479  11.942
 6842W        W11042   6.645  10.287   1.696
 6843W        W11043   6.478   7.616   9.558
 6844W        W11044   8.481   2.873   1.015
 6845W        W11045   7.432   1.424   2.729
 6846W        W11046   9.650   5.794  11.772
 6847W        W11047   3.166   3.833   1.572
 6848W        W11048   4.554   9.843  11.926
 6849W        W11049   2.278   4.400   1.322
 6850W        W11050   8.872   7.144  10.739
 6851W        W11051   5.373   1.440   9.706
 6852W        W11052   4.264   0.705   9.912
 6853W        W11053   6.116   0.854   2.957
 6854W        W11054   1.869   8.539   2.778
 6855W        W11055   7.020   1.316   3.086
 6856W        W11056   8.471   2.130   2.219
 6857W        W11057   7.249   6.703  10.838
 6858W        W11058  11.304  10.318   9.018
 6859W        W11059   4.381   2.328   0.721
 6860W        W11060   8.836   6.024   9.310
 6861W        W11061   1.434   3.660   9.497
 6862W        W11062  11.258   5.725   8.533
 6863W        W11063   7.450  10.012   0.908
 6864W        W11064  11.465   1.787   9.566
 6865W        W11065   1.668   5.634   2.144
 6866W        W11066   0.977   8.980   3.441
 6867W        W11067  11.347   1.254   9.302
 6868W        W11068  10.867   7.591  11.282
 6869W        W11069   0.695   5.717   9.506
 6870W        W11070   4.474   6.107  11.707
 6871W        W11071   9.315   1.178   0.880
 6872W        W11072   1.498   8.369  10.999
 6873W        W11073   1.288   1.214   3.171
 6874W        W11074   9.992  10.996   8.533
 6875W        W11075   0.765   7.497   8.968
 6876W        W11076   8.998   3.895   2.974
 6877W        W11077  10.460   3.547  11.752
 6878W        W11078   7.160   4.641   0.435
 6879W        W11079  10.855   6.650   2.181
 6880W        W11080   1.314  11.126   3.530
 6881W        W11081   8.391   4.921   1.355
 6882W        W11082   8.709   3.801   9.503
 6883W        W11083   1.846   1.792   9.019
 6884W        W11084   8.091  10.963   8.852
 6885W        W11085   7.869   9.574   9.178
 6886W        W11086   5.922   6.074   0.599
 6887W        W11087   9.362  10.140  10.473
 6888W        W11088   0.837   7.393   3.338
 6889W        W11089   2.817   8.862   9.102
 6890W        W11090   9.543   8.190  11.272
 6891W        W11091   1.204   7.583   1.538
 6892W        W11092   1.275   3.354  11.149
 6893W        W11093   6.139   8.700   1.351
 6894W        W11094   1.463  11.400   3.144
 6895W        W11095   8.718   0.496  10.313
 6896W        W11096  10.503   2.141   0.422
 6897W        W11097   9.465   5.913   1.487
 6898W        W11098  10.910   6.674  11.583
 6899W        W11099   1.742   3.200   9.402
 6900W        W11100   5.900  10.858  10.915
 6901W        W11101   2.163  10.317   2.221
 6902W        W11102   2.286   2.725  10.365
 6903W        W11103   8.498   9.795  10.822
 6904W        W11104   6.402   1.510  10.005
 6905W        W11105  11.449   0.893   1.643
 6906W        W11106   0.407   2.252  11.362
 6907W        W11107   8.145   1.267  11.134
 6908W        W11108   9.632   6.035   2.867
 6909W        W11109   7.036   2.793   3.610
 6910W        W11110   9.638   1.876  10.363
 6911W        W11111   1.879   7.086   0.509
 6912W        W11112   5.131   2.773   3.646
 6913W        W11113   4.863   6.147   9.761
 6914W        W11114   8.018   3.881   2.445
 6915W        W11115   4.652   1.153   9.903
 6916W        W11116   8.393   2.804  11.532
 6917W        W11117   2.782   5.791  11.234
 6918W        W11118   8.440   0.056   1.612
 6919W        W11119   3.815  11.396   1.295
 6920W        W11120  11.390  10.588   0.233
 6921W        W11121   5.824   0.694   0.468
 6922W        W11122   1.780   4.318  10.443
 6923W        W11123   5.087   4.788  10.716
 6924W        W11124  10.583   1.741   0.728
 6925W        W11125   3.577  11.196   0.875
 6926W        W11126   0.105   4.669  10.498
 6927W        W11127   6.216   9.640   1.260
 6928W        W11128  11.434   7.737   9.064
 6929W        W11129   4.545   6.495  10.963
 6930W        W11130   5.264  10.314   2.097
 6931W        W11131   1.492   7.578   2.569
 6932W        W11132   5.970   7.745   1.285
 6933W        W11133   7.345   5.875   0.231
 6934W        W11134   0.189   7.273   2.381
 6935W        W11135   6.078   7.063  11.094
 6936W        W11136   9.570   0.958  10.137
 6937W        W11137   9.929   9.663  10.051
 6938W        W11138   0.942   3.880   8.824
 6939W        W11139   0.744  10.762   9.318
 6940W        W11140   8.652   7.908   2.633
 6941W        W11141  11.170   9.654  11.353
 6942W        W11142   3.342   3.798  11.328
 6943W        W11143  10.419   2.641   0.345
 6944W        W11144   5.688   7.070   2.934
 6945W        W11145   7.245   2.299   2.381
 6946W        W11146   2.495   5.019   7.896
 6947W        W11147  10.015   2.348   2.406
 6948W        W11148   9.599   5.145   2.186
 6949W        W11149   5.251  11.010   1.288
 6950W        W11150   4.405   2.535   8.819
 6951W        W11151  11.481   4.408  11.993
 6952W        W11152   9.025   3.350   0.481
 6953W        W11153   7.558  10.816  10.080
 6954W        W11154   8.891   4.276   9.378
 6955W        W11155  10.298   3.205   1.868
 6956W        W11156   7.427   6.514   0.773
 6957W        W11157  11.035   5.793   1.221
 6958W        W11158   3.232   5.220  10.529
 6959W        W11159  10.713   5.517   2.685
 6960W        W11160  11.438   9.332   8.603
 6961W        W11161   5.218   4.199   0.914
 6962W        W11162   8.997   7.045   8.585
 6963W        W11163   7.448   4.788   0.837
 6964W        W11164   3.144   1.872  11.258
 6965W        W11165  11.040   5.182   2.483
 6966W        W11166   3.643   4.680   1.747
 6967W        W11167   0.729   2.377   0.943
 6968W        W11168   2.690   6.613   1.273
 6969W        W11169   2.296   3.519   3.054
 6970W        W11170   5.709   1.061   9.964
 6971W        W11171   9.567   8.161   2.238
 6972W        W11172   8.072   1.659  11.473
 6973W        W11173  10.435   8.407   9.908
 6974W        W11174   0.363   7.459   9.825
 6975W        W11175   7.229   8.467  10.551
 6976W        W11176  11.484   9.275   1.608
 6977W        W11177  10.509  11.456   8.907
 6978W        W11178   5.132   1.662  11.983
 6979W        W11179  10.841   2.494   3.298
 6980W        W11180   7.884  10.737   9.637
 6981W        W11181   7.427   5.311  11.251
 6982W        W11182   1.718   9.961  11.069
 6983W        W11183  10.484   3.616   2.188
 6984W        W11184  11.226   6.054   9.541
 6985W        W11185   4.195   4.074   2.152
 6986W        W11186   8.208   5.166   8.669
 6987W        W11187   3.268   5.810  11.048
 6988W        W11188   6.056  11.061   9.115
 6989W        W11189   7.339   6.252  11.507
 6990W        W11190   3.218   5.616   1.036
 6991W        W11191   0.693   1.840   1.487
 6992W        W11192   7.463   4.576   9.081
 6993W        W11193   1.137   0.806   3.485
 6994W        W11194   6.928   8.367   2.459
 6995W        W11195   5.623   9.139   9.866
 6996W        W11196   3.026   2.868  11.450
 6997W        W11197   8.620   8.319   8.638
 6998W        W11198   6.029   3.301  10.746
 6999W        W11199  11.481   9.840   9.748
 7000W        W11200   8.473   3.680   9.066
 7001W        W11201   2.345   0.779  11.355
 7002W        W11202   0.315  11.324  11.324
 7003W        W11203   5.350   2.638  10.319
 7004W        W11204   7.988   8.416   0.394
 7005W        W11205   8.854   8.082   3.414
 7006W        W11206   0.010   5.120  10.769
 7007W        W11207   0.511   7.043   9.509
 7008W        W11208   0.854   6.198   9.314
 7009W        W11209   9.355   2.220  10.622
 7010W        W11210   8.632  10.547   0.030
 7011W        W11211   4.179   5.675  10.786
 7012W        W11212   4.865   1.166   0.260
 7013W        W11213  10.841   8.492   3.379
 7014W        W11214   1.520   9.001   9.401
 7015W        W11215   6.107   4.445  10.457
 7016W        W11216  10.427  10.022   8.959
 7017W        W11217  10.433   9.977   1.404
 7018W        W11218   0.398   3.165  11.225
 7019W        W11219   7.627   0.912   1.142
 7020W        W11220   3.402   2.128   2.791
 7021W        W11221   0.605   1.824  10.445
 7022W        W11222   4.731   4.224   3.620
 7023W        W11223   3.093  11.432  11.881
 7024W        W11224   1.155   6.229   2.599
 7025W        W11225   4.715   6.710   8.634
 7026W        W11226   2.590   8.412   2.479
 7027W        W11227   2.353   5.508   9.580
 7028W        W11228   1.359   4.153   1.471
 7029W        W11229  11.459   4.823   8.753
 7030W        W11230   2.398   3.581   0.235
 7031W        W11231   7.076   3.820  10.879
 7032W        W11232   2.614   7.513   1.639
 7033W        W11233   4.599   2.261   1.620
 7034W        W11234   3.687   9.034   1.492
 7035W        W11235   3.937   8.537   9.825
 7036W        W11236  11.450   6.508   1.290
 7037W        W11237   6.975   0.280   1.673
 7038W        W11238   7.227   3.662   1.298
 7039W        W11239  11.064   1.763  10.499
 7040W        W11240   9.692   0.461  10.273
 7041W        W11241   5.469   4.832   3.306
 7042W        W11242   5.735   0.368   2.773
 7043W        W11243   4.126   7.787   0.385
 7044W        W11244   7.994   0.306   2.863
 7045W        W11245   9.374   8.700   0.935
 7046W        W11246   6.019   9.522   2.462
 7047W        W11247   9.249   7.196  10.372
 7048W        W11248   4.559  10.426   3.304
 7049W        W11249   3.073   1.263   2.378
 7050W        W11250  10.916   9.791   1.405
 7051W        W11251   8.460   7.464   3.417
 7052W        W11252  10.703   2.216   0.926
 7053W        W11253   8.120   1.430   0.374
 7054W        W11254   8.533  10.804   2.260
 7055W        W11255   0.222   9.416   3.138
 7056W        W11256   8.848   3.283   1.643
 7057W        W11257   5.967   2.473   1.638
 7058W        W11258   4.296   1.937  11.055
 7059W        W11259   6.710   6.617   0.230
 7060W        W11260   1.425   0.694   3.899
 7061W        W11261   2.531   5.304   0.751
 7062W        W11262   3.923   4.058   3.306
 7063W        W11263   3.854   3.552  10.518
 7064W        W11264   5.261  10.484   9.823
 7065W        W11265   0.705   9.993  11.397
 7066W        W11266   9.007  10.663  11.200
 7067W        W11267   7.941   7.506  11.692
 7068W        W11268   8.227   8.357  11.918
 7069W        W11269  10.850   1.964   3.180
 7070W        W11270  11.451   7.070  10.854
 7071W        W11271   4.291   8.923  11.876
 7072W        W11272   4.974  11.263  10.122
 7073W        W11273   5.217   0.439  10.737
 7074W        W11274   3.693   5.470   9.391
 7075W        W11275   6.873   8.149   1.526
 7076W        W11276   2.930   8.053   3.375
 7077W        W11277   1.847   9.873   2.302
 7078W        W11278   2.929   6.020   1.152
 7079W        W11279   1.888   1.358   1.838
 7080W        W11280   6.063   9.065  10.604
 7081W        W11281   6.071   1.774  11.988
 7082W        W11282   7.593   3.809   2.168
 7083W        W11283   7.573   2.645  10.058
 7084W        W11284   2.013   4.181   2.236
 7085W        W11285  11.018   3.296  11.424
 7086W        W11286  10.726  11.427  10.356
 7087W        W11287   2.598   6.528   0.342
 7088W        W11288  10.525   7.706  10.574
 7089W        W11289   2.279   3.620   0.731
 7090W        W11290   5.931   3.739   8.453
 7091W        W11291   5.276   2.129   0.920
 7092W        W11292   6.949   9.498   9.051
 7093W        W11293  10.587   3.712   9.268
 7094W        W11294   3.402   6.123   2.385
 7095W        W11295   7.220   6.381   0.282
 7096W        W11296   2.895   6.411  10.408
 7097W        W11297   2.664   6.562   3.183
 7098W        W11298   6.751   3.651   3.131
 7099W        W11299   5.147   4.165  10.035
 7100W        W11300   9.601   0.903  10.654
 7101W        W11301   9.023  10.339  10.813
 7102W        W11302   0.980   4.142   0.011
 7103W        W11303   8.019   6.075   3.497
 7104W        W11304   9.275   6.975   9.206
 7105W        W11305   9.475   0.531   2.594
 7106W        W11306   4.981   8.843   9.031
 7107W        W11307   3.264   0.912   0.730
 7108W        W11308   6.698   6.157  10.500
 7109W        W11309   5.728   9.423   1.227
 7110W        W11310   3.811  10.285  11.362
 7111W        W11311   2.561   0.446   2.514
 7112W        W11312   9.465  11.319  11.185
 7113W        W11313   9.572   5.088   3.179
 7114W        W11314   7.593   7.321   1.368
 7115W        W11315   6.581   9.004   1.415
 7116W        W11316   1.362   9.911   2.487
 7117W        W11317  11.357   9.054   9.579
 7118W        W11318   6.584   1.590   0.026
 7119W        W11319   0.347   9.949   2.400
 7120W        W11320   3.340   8.071  11.617
 7121W        W11321   2.755   5.536   9.193
 7122W        W11322  10.119   3.291   0.509
 7123W        W11323   3.531   4.838   3.115
 7124W        W11324   7.880   2.207   0.766
 7125W        W11325   2.234  11.493   8.861
 7126W        W11326   1.161   4.518   9.435
 7127W        W11327   1.861   1.303   9.797
 7128W        W11328   8.209   6.201   9.996
 7129W        W11329   4.130   8.697   1.389
 7130W        W11330   1.514   4.680   9.801
 7131W        W11331   6.108   4.114   9.635
 7132W        W11332   7.213   5.144   0.571
 7133W        W11333   9.896   7.294   3.312
 7134W        W11334   3.049   8.088   0.807
 7135W        W11335   8.482   8.487  11.274
 7136W        W11336   3.664   6.269   0.828
 7137W        W11337   8.377   6.984   2.832
 7138W        W11338  10.801   8.418   2.352
 7139W        W11339   0.480   7.889   1.656
 7140W        W11340  10.260   1.305  11.821
 7141W        W11341   5.284   2.822  11.100
 7142W        W11342  11.435   3.129   1.644
 7143W        W11343   7.609   7.394   9.153
 7144W        W11344   7.577  10.922   9.044
 7145W        W11345   4.643   1.879   1.958
 7146W        W11346   2.382  10.746  10.032
 7147W        W11347   2.872   6.250  11.449
 7148W        W11348  11.334   3.761  10.848
 7149W        W11349   8.505   2.560   3.026
 7150W        W11350   8.630   8.744   1.254
 7151W        W11351   5.634   8.595   2.823
 7152W        W11352   1.781   0.351  11.970
 7153W        W11353   2.357   7.437   2.293
 7154W        W11354   2.253   8.886  11.526
 7155W        W11355   5.678   7.059  10.613
 7156W        W11356   0.984   1.353  10.943
 7157W        W11357   0.273   8.933   3.284
 7158W        W11358   1.294   9.941   9.760
 7159W        W11359   2.172   9.875   0.358
 7160W        W11360  10.550   7.933   9.684
 7161W        W11361   2.641   2.643  10.767
 7162W        W11362   6.121   6.190   8.706
 7163W        W11363   0.045   2.356   2.338
 7164W        W11364  11.351   4.653   1.329
 7165W        W11365   9.911  11.280   8.985
 7166W        W11366   6.200   9.826   0.321
 7167W        W11367   6.079   6.991   9.574
 7168W        W11368   4.653   4.920   2.292
 7169W        W11369   7.953  11.141   9.324
 7170W        W11370   8.968   1.543  11.694
 7171W        W11371   5.233  10.569   2.884
 7172W        W11372   3.859   5.077   0.531
 7173W        W11373   3.025   0.044   3.224
 7174W        W11374   6.946   8.867   1.771
 7175W        W11375  10.432   2.902  10.249
 7176W        W11376   4.452   7.986  10.549
 7177W        W11377  10.801  10.878   8.652
 7178W        W11378   9.483   3.790   2.161
 7179W        W11379   0.120   3.307   3.165
 7180W        W11380   0.448   6.187   1.298
 7181W        W11381   4.326  10.942   9.833
 7182W        W11382   2.852   1.173  11.925
 7183W        W11383   7.341   9.932   3.218
 7184W        W11384   5.253   7.852   9.017
 7185W        W11385   6.721   8.581  10.563
 7186W        W11386   9.057  10.899   3.022
 7187W        W11387   2.221   9.504   3.393
 7188W        W11388  10.053   4.858   1.369
 7189W        W11389  10.464   8.035   2.458
 7190W        W11390   6.092   4.679  11.338
 7191W        W11391   6.554  10.012   9.835
 7192W        W11392   4.678   6.709   0.916
 7193W        W11393   3.122   1.847   3.512
 7194W        W11394   1.637   1.766  11.095
 7195W        W11395   3.720  10.294   2.995
 7196W        W11396   1.302   7.423  11.752
 7197W        W11397   3.908   6.057   2.329
 7198W        W11398   8.481   2.774   0.027
 7199W        W11399   9.042   9.419  10.402
 7200W        W11400   8.505   8.555   0.306
 7201W        W11401   0.268   8.535   9.307
 7202W        W11402   0.822   3.239   0.500
 7203W        W11403   9.086   2.639   9.601
 7204W        W11404   9.375   0.216   2.995
 7205W        W11405   6.500   9.463   9.886
 7206W        W11406   9.308   1.008   3.472
 7207W        W11407   7.017   8.460   0.422
 7208W        W11408   5.601   9.505   2.750
 7209W        W11409  11.278   8.221   3.580
 7210W        W11410   1.462   5.683  10.700
 7211W        W11411   6.982  11.486   2.729
 7212W        W11412   0.454  10.755   2.623
 7213W        W11413   8.721   2.310   3.395
 7214W        W11414  11.403   7.964  10.834
 7215W        W11415   9.144  11.185   1.187
 7216W        W11416   5.241   3.326   8.346
 7217W        W11417  10.395   4.511   9.799
 7218W        W11418   4.661   6.686   3.388
 7219W        W11419   8.509   7.278   0.878
 7220W        W11420   5.673   4.828   1.473
 7221W        W11421   2.824   2.114   1.393
 7222W        W11422   9.556   9.355   9.856
 7223W        W11423   3.273   0.439  11.928
 7224W        W11424   9.394   3.251   0.818
 7225W        W11425   7.798   3.124  10.093
 7226W        W11426   6.977   7.978   1.062
 7227W        W11427   9.462   0.719   0.734
 7228W        W11428   5.880  10.602   8.980
 7229W        W11429  10.737   4.154   1.397
 7230W        W11430   9.913   6.215   0.954
 7231W        W11431   5.329   4.922   1.099
 7232W        W11432   1.351   1.234  11.545
 7233W        W11433   9.808  10.365   2.522
 7234W        W11434   3.677   6.528  11.465
 7235W        W11435  10.153   4.286   1.348
 7236W        W11436   3.142   0.009   2.708
 7237W        W11437   0.672   9.436   9.376
 7238W        W11438   2.123  11.452  10.939
 7239W        W11439  10.417   1.363  10.093
 7240W        W11440   5.210   8.393  10.334
 7241W        W11441   6.180  10.846  10.085
 7242W        W11442   7.627  10.455   9.305
 7243W        W11443   0.465   9.080   1.715
 7244W        W11444  10.397   1.853   2.671
 7245W        W11445   8.514   2.035   8.477
 7246W        W11446   4.746   0.527  11.972
 7247W        W11447  10.286   9.479   2.119
 7248W        W11448   4.822   0.928   1.126
 7249W        W11449   8.463   3.224   0.286
 7250W        W11450   8.331   7.983   2.234
 7251W        W11451   0.664   8.610   3.252
 7252W        W11452   3.825   8.615   4.032
 7253W        W11453   5.925   4.990   3.106
 7254W        W11454   2.331   2.130   2.851
 7255W        W11455   5.268  10.823   0.153
 7256W        W11456  10.421   6.948   9.932
 7257W        W11457   3.234   6.522  11.726
 7258W        W11458   3.604   7.000   1.938
 7259W        W11459   6.456   5.246   0.922
 7260W        W11460   4.651   7.605   9.801
 7261W        W11461   2.022   2.731   0.871
 7262W        W11462   1.707   9.117   1.657
 7263W        W11463   5.149   4.322  10.992
 7264W        W11464   6.358   7.075   3.531
 7265W        W11465   0.488   7.165  10.803
 7266W        W11466   5.674   2.067   0.609
 7267W        W11467   5.486   8.933   9.041
 7268W        W11468   8.625   0.806   0.326
 7269W        W11469   0.837   6.768   0.819
 7270W        W11470   1.303   7.029   0.639
 7271W        W11471   9.687   8.122   9.468
 7272W        W11472   0.119   3.067   1.168
 7273W        W11473   2.764   1.670   2.246
 7274W        W11474   8.500   5.615   8.485
 7275W        W11475   8.583   8.446  10.669
 7276W        W11476   0.614   7.200   0.992
 7277W        W11477   2.118   9.740   9.821
 7278W        W11478   7.766   6.357  10.998
 7279W        W11479   5.137   0.039   1.254
 7280W        W11480   2.376   6.063   2.399
 7281W        W11481  10.024   9.489   2.988
 7282W        W11482   5.578   7.058   1.924
 7283W        W11483   3.619   6.916   9.335
 7284W        W11484   7.132   0.258   3.286
 7285W        W11485   4.742   2.230   9.037
 7286W        W11486   2.311   3.850   1.270
 7287W        W11487  10.962   3.777   1.021
 7288W        W11488   0.417   5.058   0.506
 7289W        W11489   4.108  10.652  11.512
 7290W        W11490   0.845   1.010  11.307
 7291W        W11491   6.354   2.564   8.171
 7292W        W11492   3.679   7.501   1.755
 7293W        W11493   0.913   5.194  11.325
 7294W        W11494   3.124  10.956   0.438
 7295W        W11495   4.341   4.981   0.583
 7296W        W11496   1.539  10.965   9.907
 7297W        W11497   3.919   2.813  11.597
 7298W        W11498   5.339   4.020  10.506
 7299W        W11499   6.673   4.706   2.151
 7300W        W11500   6.577   7.663   2.742
 7301W        W11501   9.010   6.666   9.937
 7302W        W11502   8.116  11.242  11.347
 7303W        W11503   7.584   3.224   3.320
 7304W        W11504   9.377   1.808   8.810
 7305W        W11505   3.058   0.937  10.608
 7306W        W11506   1.749   5.242   1.404
 7307W        W11507   8.771   5.353  11.611
 7308W        W11508   6.209   1.932   9.795
 7309W        W11509   2.890   7.868   9.016
 7310W        W11510   9.543   2.225   2.694
 7311W        W11511   8.551   6.380   8.171
 7312W        W11512   7.900   4.835   9.062
 7313W        W11513   4.732   8.480   2.301
 7314W        W11514   9.504   3.714   3.421
 7315W        W11515   0.360  10.090   9.992
 7316W        W11516   4.799   1.168   3.737
 7317W        W11517   6.419   2.887   2.768
 7318W        W11518   1.999   3.397   2.654
 7319W        W11519   1.446   7.955   1.784
 7320W        W11520   3.114   6.519   0.259
 7321W        W11521   4.242   0.559   1.946
 7322W        W11522   7.017   2.395   0.746
 7323W        W11523   1.710   8.431   0.583
 7324W        W11524   0.017   2.062   0.873
 7325W        W11525   5.577   2.720   3.886
 7326W        W11526   6.537   3.375  11.615
 7327W        W11527   5.591   4.611   8.255
 7328W        W11528   7.446   8.863   0.947
 7329W        W11529   0.408   9.631  11.945
 7330W        W11530   5.735   1.400   9.320
 7331W        W11531   5.561   2.360   9.860
 7332W        W11532   0.807   5.532  11.707
 7333W        W11533   3.602  10.879   0.211
 7334W        W11534   5.289   9.824  10.403
 7335W        W11535   8.856   9.348  11.920
 7336W        W11536  10.829   3.676   8.815
 7337W        W11537   4.262   7.703   2.272
 7338W        W11538   9.582   6.439   2.569
 7339W        W11539   4.465   8.458  11.725
 7340W        W11540   4.134   5.534   0.697
 7341W        W11541  11.354   8.968   0.984
 7342W        W11542   3.000   9.706   8.435
 7343W        W11543   4.186   1.803   3.210
 7344W        W11544  11.451   1.859   3.149
 7345W        W11545   0.490   3.638   0.476
 7346W        W11546   8.954   3.742   1.445
 7347W        W11547   0.890  10.511  10.543
 7348W        W11548   7.678   1.924  10.632
 7349W        W11549   3.111  11.020   0.961
 7350W        W11550   0.670   4.088   3.654
 7351W        W11551   1.714  11.338   9.583
 7352W        W11552   1.081   1.269   0.844
 7353W        W11553   4.488   4.661   8.947
 7354W        W11554   3.665   3.185   0.399
 7355W        W11555   8.164   7.529   9.720
 7356W        W11556   2.225  10.235  11.042
 7357W        W11557   1.910   3.788   0.245
 7358W        W11558  10.866   3.594  10.659
 7359W        W11559   3.511  10.769   3.256
 7360W        W11560   9.422   1.837   2.249
 7361W        W11561   3.285   0.636  10.026
 7362W        W11562   0.001  11.348   1.511
 7363W        W11563   2.283   2.745   0.436
 7364W        W11564  11.351   8.876  10.077
 7365W        W11565   4.688   5.934   4.038
 7366W        W11566   6.380  10.911  11.087
 7367W        W11567   6.630   5.707  11.502
 7368W        W11568   7.875   2.206   9.730
 7369W        W11569  11.103   3.691   9.257
 7370W        W11570  10.831   4.953   0.350
 7371W        W11571   2.299   9.361  11.729
 7372W        W11572   1.717   5.249   8.491
 7373W        W11573   0.949   9.515   2.904
 7374W        W11574   1.864   7.903   1.505
 7375W        W11575   1.812   5.689   1.135
 7376W        W11576   1.860   7.537   0.741
 7377W        W11577   3.829   3.547   2.664
 7378W        W11578   6.116   9.475   1.947
 7379W        W11579   7.652   4.554   3.754
 7380W        W11580   1.262   6.667   1.628
 7381W        W11581   9.860  10.492   0.303
 7382W        W11582   1.818   4.590   1.441
 7383W        W11583   1.621   5.668  11.186
 7384W        W11584   9.368  10.320   9.981
 7385W        W11585   2.727   5.552   1.193
 7386W        W11586   5.650   7.551   2.670
 7387W        W11587   0.975   4.201  10.566
 7388W        W11588   9.515   4.406   1.789
 7389W        W11589   2.645  10.261   9.564
 7390W        W11590   5.338   4.252   1.954
 7391W        W11591   0.449   1.737   1.942
 7392W        W11592   3.699   1.723   2.572
 7393W        W11593   0.856   0.754   1.685
 7394W        W11594   2.324   7.026   8.548
 7395W        W11595   8.370   5.247  11.962
 7396W        W11596  10.391   2.095   9.579
 7397W        W11597   1.176   5.802   2.906
 7398W        W11598   6.036   2.582   2.109
 7399W        W11599   3.555   5.174   8.990
 7400W        W11600   8.026   5.697   3.844
 7401W        W11601   2.391   6.096   3.334
 7402W        W11602  11.027   8.276   0.796
 7403W        W11603   4.415   0.363   3.248
 7404W        W11604   9.220   0.489   1.590
 7405W        W11605   5.617   4.048  10.966
 7406W        W11606   9.603   7.398   2.681
 7407W        W11607   0.040  10.253   9.471
 7408W        W11608   5.958  10.263   0.188
 7409W        W11609   2.837   9.970   2.611
 7410W        W11610   1.840   7.250   2.323
 7411W        W11611   1.426   8.640  10.060
 7412W        W11612   8.989   5.114   9.445
 7413W        W11613   4.068  10.773   9.403
 7414W        W11614   6.395   7.993   1.534
 7415W        W11615  10.371   4.697   0.381
 7416W        W11616   7.313   5.749   2.388
 7417W        W11617   3.268   8.214  10.608
 7418W        W11618   2.747   0.939   3.151
 7419W        W11619  10.502   9.313   3.125
 7420W        W11620   6.652   3.750  10.329
 7421W        W11621   3.235   6.950   8.981
 7422W        W11622   8.403   0.262   8.410
 7423W        W11623   3.750   2.777   0.676
 7424W        W11624   2.500  11.400   3.264
 7425W        W11625  11.140   7.926   9.830
 7426W        W11626   5.020   3.114   2.340
 7427W        W11627   6.751   9.804  10.447
 7428W        W11628   3.529   4.449   9.360
 7429W        W11629  11.089   8.791   1.412
 7430W        W11630   3.090  10.921   1.522
 7431W        W11631   6.994  11.142   9.521
 7432W        W11632   6.388   9.385   0.464
 7433W        W11633   8.373   9.961   1.754
 7434W        W11634   4.959   3.695  11.741
 7435W        W11635   7.666   1.763  10.111
 7436W        W11636   3.657  10.904   1.746
 7437W        W11637   0.320   4.305   8.825
 7438W        W11638   4.712   5.715   0.028
 7439W        W11639  10.761   0.813   9.418
 7440W        W11640   1.195  11.339   9.827
 7441W        W11641   2.389   8.931   2.438
 7442W        W11642  10.547   4.220   0.931
 7443W        W11643   0.162   2.201  11.820
 7444W        W11644   2.942   2.664  11.999
 7445W        W11645  10.723   5.253   8.557
 7446W        W11646   7.598   8.093  11.766
 7447W        W11647   0.587   5.116   1.856
 7448W        W11648   2.237   3.848  11.839
 7449W        W11649  10.317   0.994  11.416
 7450W        W11650  11.374  10.083  11.133
 7451W        W11651  10.531  11.361   3.298
 7452W        W11652   7.031   1.861   3.442
 7453W        W11653   3.017   2.127   2.235
 7454W        W11654   8.146   9.941   2.705
 7455W        W11655   3.196   9.605  10.265
 7456W        W11656  10.669   0.366   3.254
 7457W        W11657   3.286   4.122   0.838
 7458W        W11658   4.105   6.968   1.936
 7459W        W11659  11.034  10.703   9.981
 7460W        W11660   5.130   7.218  11.512
 7461W        W11661   8.124  10.840   3.263
 7462W        W11662   2.209   5.074   8.640
 7463W        W11663  10.797   0.330   8.534
 7464W        W11664   5.538   7.272   3.797
 7465W        W11665  10.369   5.464   8.859
 7466W        W11666   2.863   2.737   3.297
 7467W        W11667  10.748   9.277  11.620
 7468W        W11668  10.326   5.606   3.026
 7469W        W11669   8.125  10.262   9.599
 7470W        W11670   1.775  10.097   9.737
 7471W        W11671   5.522   4.557   3.765
 7472W        W11672   4.683   9.303  11.777
 7473W        W11673   7.609   4.773   2.168
 7474W        W11674   7.132   8.435   9.248
 7475W        W11675   1.050   4.791   3.579
 7476W        W11676   1.582   8.174   3.495
 7477W        W11677   4.033   7.603  11.889
 7478W        W11678   9.161   3.660  11.681
 7479W        W11679   5.630   0.342   9.484
 7480W        W11680   8.616   8.010  11.522
 7481W        W11681  11.317  10.019   1.167
 7482W        W11682  11.393   8.262   9.054
 7483W        W11683   3.385  10.377   1.120
 7484W        W11684   1.852   8.371   1.055
 7485W        W11685   1.203   9.058  11.139
 7486W        W11686   2.654   9.769   0.439
 7487W        W11687   5.036   5.320   2.354
 7488W        W11688   7.744   2.373   0.281
 7489W        W11689  10.305   9.125   1.748
 7490W        W11690   8.939  10.439   2.808
 7491W        W11691   1.083   4.412   8.685
 7492W        W11692   2.894   8.868   2.404
 7493W        W11693   1.717   1.409  11.896
 7494W        W11694   3.498   2.554   9.014
 7495W        W11695   7.156   8.795   2.245
 7496W        W11696   6.796   7.652   1.408
 7497W        W11697   2.678   0.315   3.527
 7498W        W11698   1.227   9.553   1.245
 7499W        W11699   7.821   8.579  10.005
 7500W        W11700   6.125   7.336   2.692
 7501W        W11701   2.635   0.710   0.362
 7502W        W11702   3.114   1.675   9.112
 7503W        W11703   8.040   4.725  11.294
 7504W        W11704   4.650   8.518   1.270
 7505W        W11705   5.083   6.098   1.977
 7506W        W11706   4.711   4.834   0.943
 7507W        W11707   1.217   0.752   9.435
 7508W        W11708   7.532   2.652   9.057
 7509W        W11709   6.566   9.032  10.727
 7510W        W11710   1.808   6.629   9.586
 7511W        W11711  10.472   0.197   0.449
 7512W        W11712   8.207   8.492  10.311
 7513W        W11713   4.494   5.255  11.739
 7514W        W11714   0.921   3.102   0.975
 7515W        W11715   9.987   6.804   0.703
 7516W        W11716   2.395   8.023   0.065
 7517W        W11717   0.717   5.683   1.990
 7518W        W11718   8.679   2.046   2.945
 7519W        W11719   5.035   4.390  11.497
 7520W        W11720   9.288   8.396   0.513
 7521W        W11721   8.877   2.291  10.444
 7522W        W11722   3.936   2.385   8.613
 7523W        W11723  10.956   5.248  10.043
 7524W        W11724   6.776   5.126  10.132
 7525W        W11725   9.042   2.528   0.455
 7526W        W11726   8.859   4.443   8.868
 7527W        W11727   3.223   8.416   1.758
 7528W        W11728   3.567   4.873   1.256
 7529W        W11729  10.547   3.742   0.726
 7530W        W11730   6.566   3.339  10.019
 7531W        W11731   0.957   4.797   9.047
 7532W        W11732   5.444   8.378  11.692
 7533W        W11733   1.913   3.682   9.310
 7534W        W11734   3.897   2.147  10.791
 7535W        W11735  10.427   1.172  10.561
 7536W        W11736   3.434   5.234   4.114
 7537W        W11737   6.127   2.802   3.172
 7538W        W11738   4.063   9.140  11.373
 7539W        W11739   6.011   4.782  10.833
 7540W        W11740   8.232   8.438   1.379
 7541W        W11741   9.314   1.811  11.436
 7542W        W11742   1.626   6.494   3.281
 7543W        W11743   8.143   7.340   9.254
 7544W        W11744   8.257   1.714   2.986
 7545W        W11745   8.561  10.853   2.861
 7546W        W11746   2.243   4.064   3.110
 7547W        W11747  11.436   9.597  11.769
 7548W        W11748   0.442   2.638   2.853
 7549W        W11749   6.181   5.049   1.330
 7550W        W11750   6.592   9.025   2.906
 7551W        W11751   7.689  11.452  11.528
 7552W        W11752   6.320   0.887   0.457
 7553W        W11753   0.862   8.936  11.530
 7554W        W11754   2.130   9.812  11.341
 7555W        W11755   5.015   7.414   0.053
 7556W        W11756  10.731  10.843   1.275
 7557W        W11757   3.969   7.954   9.174
 7558W        W11758   5.055   4.075   8.738
 7559W        W11759   9.090   3.324   8.928
 7560W        W11760   4.361   9.545   0.310
 7561W        W11761   2.370   6.695   8.992
 7562W        W11762   6.146   6.001   2.246
 7563W        W11763   6.228   4.493   3.045
 7564W        W11764   0.857   5.655   1.161
 7565W        W11765   0.364   9.559   9.960
 7566W        W11766   8.565   5.193   8.181
 7567W        W11767   3.332   2.489   2.422
 7568W        W11768  10.370   0.483   8.795
 7569W        W11769   8.570   3.674  11.028
 7570W        W11770  11.364   8.248  11.286
 7571W        W11771  10.184   0.255   3.161
 7572W        W11772   6.197   6.602  11.330
 7573W        W11773  10.812   3.287   1.871
 7574W        W11774   5.135   7.405  10.102
 7575W        W11775   0.511  10.846  10.428
 7576W        W11776   5.169   8.653   2.619
 7577W        W11777   9.924   0.011  11.039
 7578W        W11778   7.097   9.328   1.489
 7579W        W11779   9.189   8.246   9.450
 7580W        W11780   5.225   1.926   0.422
 7581W        W11781   4.218   4.548   2.362
 7582W        W11782   8.956   8.917  10.237
 7583W        W11783   0.652   2.390   3.251
 7584W        W11784   7.600   6.400   4.047
 7585W        W11785   9.008   6.469   7.884
 7586W        W11786   7.975   6.849  10.863
 7587W        W11787   2.814  11.363   1.197
 7588W        W11788   9.616   4.551   9.344
 7589W        W11789   6.902   7.599  10.832
 7590W        W11790   5.635   9.821  10.851
 7591W        W11791   0.399   6.560   9.683
 7592W        W11792   2.128   0.408   1.336
 7593W        W11793   3.019   2.345  10.629
 7594W        W11794  10.819  10.763  11.417
 7595W        W11795   1.232   7.847   2.913
 7596W        W11796   0.354   7.108   3.005
 7597W        W11797   5.038   8.839  10.545
 7598W        W11798   7.456   1.649   0.729
 7599W        W11799   5.606   0.254  11.008
 7600W        W11800   7.896   7.800   9.352
 7601W        W11801   6.435   9.693  10.864
 7602W        W11802   5.239   2.887   2.725
 7603W        W11803   5.191   6.161  10.466
 7604W        W11804   5.209   2.107   8.477
 7605W        W11805   1.450   0.229  11.257
 7606W        W11806   2.717   1.627   0.119
 7607W        W11807   0.839   6.906   3.092
 7608W        W11808   8.231   3.615   8.629
 7609W        W11809   0.902   9.071   2.013
 7610W        W11810   6.112  11.346  10.894
 7611W        W11811   5.626   9.458  10.283
 7612W        W11812   3.561   0.154  10.045
 7613W        W11813  11.194  10.505   2.811
 7614W        W11814   6.612   8.939   0.425
 7615W        W11815   0.337   4.188   9.361
 7616W        W11816   1.505   7.418  11.150
 7617W        W11817   8.496   2.825  11.011
 7618W        W11818   2.842   9.791   8.958
 7619W        W11819   4.820   2.468  10.444
 7620W        W11820   3.521   1.311  10.724
 7621W        W11821   4.798   7.653   0.811
 7622W        W11822   1.544   5.167   9.485
 7623W        W11823   3.478   5.442   8.528
 7624W        W11824  10.328   5.578   1.928
 7625W        W11825   2.746   5.721  11.750
 7626W        W11826   9.211   5.195   1.898
 7627W        W11827   2.699   3.636   8.974
 7628W        W11828   5.963  10.353   8.526
 7629W        W11829   6.666  10.134   9.367
 7630W        W11830   2.230   2.446   9.036
 7631W        W11831   6.325   8.199   8.227
 7632W        W11832   6.979  11.500  10.481
 7633W        W11833   8.662  10.811   9.947
 7634W        W11834   6.018   4.548   9.928
 7635W        W11835   5.660   2.713  11.502
 7636W        W11836   4.107  10.637   8.670
 7637W        W11837   5.775   3.215   3.875
 7638W        W11838   5.061   0.702  10.331
 7639W        W11839   2.668   4.540  10.693
 7640W        W11840  11.090  11.489  11.765
 7641W        W11841   7.460   1.264  11.836
 7642W        W11842   5.557   5.938  11.096
 7643W        W11843   1.808   6.403   0.031
 7644W        W11844   5.456  11.274  10.289
 7645W        W11845   2.929   8.422   8.387
 7646W        W11846   4.223   5.534  11.309
 7647W        W11847   4.765   7.472   2.256
 7648W        W11848   6.057   2.115  10.593
 7649W        W11849   9.283   8.162  10.264
 7650W        W11850   2.803   1.263   1.918
 7651W        W11851   8.886   1.157   0.013
 7652W        W11852   4.734   9.320  10.693
 7653W        W11853   0.924  11.278   1.942
 7654W        W11854   1.128   2.664   1.124
 7655W        W11855   8.209   6.063   1.228
 7656W        W11856   9.937   0.356   9.639
 7657W        W11857   0.297   6.960   9.995
 7658W        W11858   2.597   8.569   8.728
 7659W        W11859   2.689   5.042   8.396
 7660W        W11860   2.743   4.235   8.305
 7661W        W11861  11.396   4.803  10.068
 7662W        W11862   4.276   2.712  10.206
 7663W        W11863   5.048   4.431   9.096
 7664W        W11864   5.642   9.830   9.348
 7665W        W11865   5.856   3.605   1.429
 7666W        W11866   9.509  10.422   9.052
 7667W        W11867   6.189   5.714   2.700
 7668W        W11868  10.433   5.221   9.304
 7669W        W11869   9.305   7.458   8.532
 7670W        W11870  11.236   8.332   3.066
 7671W        W11871   0.004   6.029   1.092
 7672W        W11872  11.290   4.742   9.565
 7673W        W11873  11.321   1.849  10.058
 7674W        W11874   2.987   6.919  10.359
 7675W        W11875   6.841   7.127  11.532
 7676W        W11876   6.438   6.629   9.547
 7677W        W11877   5.159   2.359  11.320
 7678W        W11878   7.746   5.069  10.760
 7679W        W11879   6.730   3.650   1.286
 7680W        W11880   2.658   1.445   0.793
 7681W        W11881   2.822   2.595   2.297
 7682W        W11882   7.159  10.467   2.920
 7683W        W11883   9.793   9.375   9.099
 7684W        W11884  10.602   4.774  11.928
 7685W        W11885   7.605  10.375   3.121
 7686W        W11886   0.893   1.441   9.516
 7687W        W11887   3.682   3.899  10.151
 7688W        W11888  10.525   5.154   1.715
 7689W        W11889   0.680   9.558   2.461
 7690W        W11890   1.776   5.154   9.929
 7691W        W11891   3.837   3.279  11.352
 7692W        W11892   9.953  10.088   9.751
 7693W        W11893  10.310  11.412   1.848
 7694W        W11894   7.119   2.604  10.839
 7695W        W11895   4.763   9.518   9.242
 7696W        W11896   5.156   9.579  11.377
 7697W        W11897  10.005   2.106   2.927
 7698W        W11898   7.977   5.727  11.478
 7699W        W11899   9.950   4.913   0.062
 7700W        W11900   1.206  10.843  10.276
 7701W        W11901   7.608   0.544   0.754
 7702W        W11902   6.803   7.156   1.226
 7703W        W11903  10.284   0.778   9.247
 7704W        W11904   0.058   6.957  11.880
 7705W        W11905   6.493   4.544   0.638
 7706W        W11906   8.164  11.489   9.711
 7707W        W11907   0.693   3.025   2.373
 7708W        W11908   5.151   8.001   1.153
 7709W        W11909  10.356   0.923   2.386
 7710W        W11910   0.221   9.821  11.392
 7711W        W11911   8.462   9.486  11.641
 7712W        W11912   2.323   0.654   3.308
 7713W        W11913   2.313  10.491  11.955
 7714W        W11914   0.094   1.555   0.880
 7715W        W11915   2.313   8.405   1.261
 7716W        W11916   3.748   3.078   2.853
 7717W        W11917   4.403   9.410   3.704
 7718W        W11918   2.328  11.228   2.296
 7719W        W11919   3.659   7.582   0.440
 7720W        W11920   2.642   4.971   0.352
 7721W        W11921   1.327   9.987  11.759
 7722W        W11922   7.906   1.483  10.756
 7723W        W11923  10.501   1.174   1.535
 7724W        W11924   0.733   3.142   9.324
 7725W        W11925   7.100   1.628  10.821
 7726W        W11926   6.240   7.650   2.297
 7727W        W11927   6.573   6.528   1.111
 7728W        W11928   1.762   2.036   0.487
 7729W        W11929   9.397   1.310  11.514
 7730W        W11930   3.687   3.723   1.653
 7731W        W11931   7.445   4.314   1.967
 7732W        W11932   1.908   1.536   0.474
 7733W        W11933   1.146   9.449   2.271
 7734W        W11934   9.962   6.654   8.722
 7735W        W11935   5.961  10.711   3.274
 7736W        W11936   0.255   9.516   8.999
 7737W        W11937   7.857   5.502  11.014
 7738W        W11938   8.188   9.049   2.189
 7739W        W11939   0.982   3.200   2.777
 7740W        W11940   3.011   4.211  11.504
 7741W        W11941  10.190   4.481  11.929
 7742W        W11942   7.575  10.327  10.293
 7743W        W11943   1.662   8.993   2.862
 7744W        W11944  10.832   6.574   0.677
 7745W        W11945   6.711   0.073   0.426
 7746W        W11946  11.286   6.109   1.548
 7747W        W11947   9.593   3.683  11.915
 7748W        W11948   1.988  11.459   0.869
 7749W        W11949   3.743   7.822   2.188
 7750W        W11950   1.749   5.783   0.650
 7751W        W11951   8.862   8.117   1.479
 7752W        W11952   4.935   6.522   9.086
 7753W        W11953   0.027   2.718   1.984
 7754W        W11954  10.454  11.088  11.121
 7755W        W11955   6.699   2.210   9.399
 7756W        W11956   4.387   1.534   2.247
 7757W        W11957   3.585   4.197   8.930
 7758W        W11958   4.793   0.216  10.964
 7759W        W11959   2.862   7.073   3.274
 7760W        W11960   5.724  10.635   9.950
 7761W        W11961  10.948   4.780   8.591
 7762W        W11962   9.238   9.095   0.619
 7763W        W11963  10.578   2.767  10.706
 7764W        W11964   6.183   1.736   1.005
 7765W        W11965   6.489  10.686   0.811
 7766W        W11966   3.158   4.211   2.254
 7767W        W11967   5.237   6.812   8.763
 7768W        W11968   0.412   5.571   0.043
 7769W        W11969  11.461   6.181   9.072
 7770W        W11970  10.900   5.904  10.989
 7771W        W11971   4.242  10.093  10.799
 7772W        W11972   8.991   9.051   1.057
 7773W        W11973   5.057  11.100   9.356
 7774W        W11974   8.527   5.310   2.386
 7775W        W11975   3.167   3.314   9.981
 7776W        W11976   8.189   0.971   0.108
 7777W        W11977   1.382  10.379  10.487
 7778W        W11978   1.914   4.286   0.433
 7779W        W11979   6.548   3.707   0.394
 7780W        W11980   6.441  10.806   2.314
 7781W        W11981   0.686   9.779   8.950
 7782W        W11982   6.184   4.298  11.890
 7783W        W11983   9.585  11.063   9.799
 7784W        W11984   2.409   5.064  10.512
 7785W        W11985   8.214   5.111  10.992
 7786W        W11986   9.402   3.750   1.179
 7787W        W11987   7.032   7.019   2.434
 7788W        W11988   1.761   7.718   2.164
 7789W        W11989  11.329   9.384   9.985
 7790W        W11990   2.491   3.110  10.618
 7791W        W11991   8.874   9.797  11.667
 7792W        W11992   5.165   1.900   1.827
 7793W        W11993   4.817  11.305   1.566
 7794W        W11994   2.914   3.652   0.244
 7795W        W11995   5.375   2.726   9.040
 7796W        W11996   7.980   0.213  11.872
 7797W        W11997   6.400   9.101   3.733
 7798W        W11998   8.353   3.402   1.761
 7799W        W11999   5.996   0.184   0.212
 7800W        W12000   6.506  10.843  11.584
 7801W        W12001  10.457   2.229   3.527
 7802W        W12002   0.786   6.703   1.810
 7803W        W12003   8.423   1.409  11.962
 7804W        W12004   1.784   1.756  10.039
 7805W        W12005   3.261   8.684  10.339
 7806W        W12006   6.601   6.135   0.796
 7807W        W12007   9.476   8.109   3.220
 7808W        W12008   1.426   3.524   2.067
 7809W        W12009   6.272   8.848  11.086
 7810W        W12010   8.875   6.210   3.233
 7811W        W12011   8.774   9.580   3.192
 7812W        W12012   5.701   5.133   9.142
 7813W        W12013   9.329   3.386   1.792
 7814W        W12014   7.637   5.416   9.806
 7815W        W12015   3.130   2.084   9.693
 7816W        W12016   0.963   1.984   3.183
 7817W        W12017   8.952   0.507   3.253
 7818W        W12018  10.403   6.443   1.990
 7819W        W12019   7.915   4.269  10.040
 7820W        W12020   6.666   2.531  11.984
 7821W        W12021   4.473   5.780   1.072
 7822W        W12022  10.847   7.020   0.917
 7823W        W12023   4.444   3.241   0.778
 7824W        W12024  10.652   9.627   9.581
 7825W        W12025  11.385   5.496   3.222
 7826W        W12026   6.660   2.729   9.501
 7827W        W12027   5.501  10.159  11.810
 7828W        W12028   2.791   4.844   0.829
 7829W        W12029   2.484   9.534   1.699
 7830W        W12030   5.122   6.480   1.169
 7831W        W12031   1.806   3.361   0.837
 7832W        W12032  10.444   9.106   9.403
 7833W        W12033   4.286   8.670   3.808
 7834W        W12034   0.839   0.269   1.143
 7835W        W12035   5.961   8.194   3.582
 7836W        W12036   7.635   6.555  10.537
 7837W        W12037   4.456   4.217  10.454
 7838W        W12038   8.964  10.844   9.470
 7839W        W12039   7.858   6.938   9.076
 7840W        W12040   8.520   6.917   1.396
 7841W        W12041   2.683  10.793   1.123
 7842W        W12042  10.039  11.268   3.075
 7843W        W12043   3.094   7.039   1.943
 7844W        W12044   3.786   5.961  11.029
 7845W        W12045   4.820   6.140  11.300
 7846W        W12046   9.558   8.610  10.355
 7847W        W12047   3.384  10.019   9.187
 7848W        W12048   2.240   7.875   9.454
 7849W        W12049   3.352   3.462   0.077
 7850W        W12050   1.477   7.845  11.979
 7851W        W12051   4.485   2.755   9.768
 7852W        W12052   8.585   9.144   0.435
 7853W        W12053   9.090  11.340  10.802
 7854W        W12054   7.184   2.365   3.380
 7855W        W12055   2.567   2.634  11.287
 7856W        W12056   0.344   4.813   1.252
 7857W        W12057   4.679   0.137   2.850
 7858W        W12058   5.782   4.369   1.686
 7859W        W12059   6.659   6.071   2.277
 7860W        W12060   5.884   2.724   8.968
 7861W        W12061   8.287   5.142   3.213
 7862W        W12062   6.921   5.106   2.378
 7863W        W12063   9.125   8.411  11.506
 7864W        W12064   2.252   5.271   9.108
 7865W        W12065   1.278   4.128   9.751
 7866W        W12066   0.850   0.276   2.142
 7867W        W12067   7.463  11.477  10.183
 7868W        W12068   0.755   2.169   1.904
 7869W        W12069   7.170   0.766  11.839
 7870W        W12070   8.351   4.543  10.293
 7871W        W12071  11.102   4.102   2.285
 7872W        W12072   9.901   3.783   1.341
 7873W        W12073   3.126   9.341   0.738
 7874W        W12074   3.818   1.634   9.934
 7875W        W12075  10.850   4.640  10.831
 7876W        W12076   8.254   6.362  10.816
 7877W        W12077  10.101   3.841   9.532
 7878W        W12078  10.689   4.162  10.571
 7879W        W12079   5.131   7.503  10.604
 7880W        W12080  11.434  10.963   2.786
 7881W        W12081   0.426   5.285   1.398
 7882W        W12082  10.119   3.780   3.453
 7883W        W12083   6.334   3.956   8.180
 7884W        W12084   3.254   5.425   3.672
 7885W        W12085   8.509   0.774   3.230
 7886W        W12086   1.810   6.498   9.078
 7887W        W12087   2.317   1.852   0.445
 7888W        W12088  10.866   3.908  11.083
 7889W        W12089   5.219   1.843  11.435
 7890W        W12090   5.460   8.168   9.894
 7891W        W12091   5.873   2.015   1.908
 7892W        W12092   2.314   7.544  11.791
 7893W        W12093   3.059   0.327   1.394
 7894W        W12094   7.616   3.114  10.971
 7895W        W12095   2.444  10.678  10.895
 7896W        W12096   4.238   3.212  10.403
 7897W        W12097   8.589   4.259   2.861
 7898W        W12098   1.366   0.389   0.844
 7899W        W12099   0.299   0.399   0.002
 7900W        W12100   7.054   0.238   2.219
 7901W        W12101   9.110   6.630   8.863
 7902W        W12102   4.196   7.487   1.833
 7903W        W12103   8.583   1.827   3.375
 7904W        W12104   1.512   0.330   9.588
 7905W        W12105   1.445   2.880   8.349
 7906W        W12106   7.341   6.458  10.096
 7907W        W12107  10.574   7.109   2.758
 7908W        W12108  11.363   9.768   3.399
 7909W        W12109   6.447   9.763   0.814
 7910W        W12110   1.888   7.726   3.470
 7911W        W12111   2.842   1.889   0.537
 7912W        W12112   7.030   4.837   9.105
 7913W        W12113   3.292   6.215  10.704
 7914W        W12114   9.613   3.112   2.761
 7915W        W12115   6.457   6.070  10.981
 7916W        W12116  10.354  10.377   0.235
 7917W        W12117   3.123   6.050  11.847
 7918W        W12118   5.360   1.909  10.016
 7919W        W12119   7.708   5.948  10.699
 7920W        W12120   7.502   5.387   0.242
 7921W        W12121   9.415  10.250   2.827
 7922W        W12122   1.000   9.848   1.657
 7923W        W12123   4.611   1.766   1.432
 7924W        W12124   6.153   2.249   0.763
 7925W        W12125   1.813   2.276   8.758
 7926W        W12126   2.179   7.081  11.568
 7927W        W12127   9.442   9.116   9.387
 7928W        W12128   4.655   1.887  10.294
 7929W        W12129   1.355   6.995   3.224
 7930W        W12130   9.990   3.284  10.849
 7931W        W12131   8.957   5.062   3.752
 7932W        W12132   6.473   9.961  11.898
 7933W        W12133   5.206   8.347   1.570
 7934W        W12134   6.595   2.328   0.467
 7935W        W12135  11.292  10.534  10.407
 7936W        W12136   4.796   0.987   1.624
 7937W        W12137   7.710   8.973  11.428
 7938W        W12138   5.526   7.558  11.436
 7939W        W12139   7.617   3.129   2.014
 7940W        W12140   7.947   6.882  11.713
 7941W        W12141   4.650   9.446   2.175
 7942W        W12142   2.250   6.151   0.273
 7943W        W12143   3.940   0.420   8.800
 7944W        W12144   5.946   0.955   9.475
 7945W        W12145   7.511   4.100   9.265
 7946W        W12146   9.493   1.901   3.548
 7947W        W12147   4.645  11.070   1.997
 7948W        W12148   5.716   1.180   0.346
 7949W        W12149   5.398  10.829  10.749
 7950W        W12150   6.978   4.193   9.948
 7951W        W12151   7.672   7.072  10.482
 7952W        W12152   3.682   6.453  10.930
 7953W        W12153  10.005   8.213   8.377
 7954W        W12154  10.988   0.421  10.353
 7955W        W12155  10.826   4.198   2.738
 7956W        W12156   1.328   6.619   2.876
 7957W        W12157   2.296   4.724   9.260
 7958W        W12158   2.372   1.622   2.962
 7959W        W12159   2.989   7.518   2.570
 7960W        W12160   5.486  11.467   0.882
 7961W        W12161   9.572   5.403   1.617
 7962W        W12162   1.000   7.066   8.731
 7963W        W12163   7.083   3.034   0.118
 7964W        W12164   1.787   5.416   0.299
 7965W        W12165   6.818   3.273   3.747
 7966W        W12166   6.683   5.343  10.584
 7967W        W12167   3.593   1.432   1.295
 7968W        W12168   4.175   7.994   0.888
 7969W        W12169   4.345   4.846   2.794
 7970W        W12170   2.185   0.380   1.921
 7971W        W12171   8.336  10.390   0.439
 7972W        W12172   5.245   9.365  11.849
 7973W        W12173   7.629   2.578  11.811
 7974W        W12174   2.851   2.860   2.780
 7975W        W12175   4.827   2.880  10.131
 7976W        W12176   0.772   7.587   1.283
 7977W        W12177   8.637  10.847   3.377
 7978W        W12178   0.799   4.128   9.565
 7979W        W12179   6.126   0.419   1.728
 7980W        W12180  10.539  10.716   0.568
 7981W        W12181   4.987  10.644   2.396
 7982W        W12182   5.609   9.640   9.812
 7983W        W12183   8.047   7.381   1.664
 7984W        W12184   3.028   9.046   9.558
 7985W        W12185  10.294   3.576   2.955
 7986W        W12186   5.122   1.653   0.852
 7987W        W12187   5.110   1.141   8.800
 7988W        W12188   9.997  10.809   3.298
 7989W        W12189   8.510   0.404  11.487
 7990W        W12190   8.553   7.453   2.832
 7991W        W12191   4.427   0.602   2.435
 7992W        W12192   7.471   3.054   9.705
 7993W        W12193   7.249  10.872   1.973
 7994W        W12194   0.005   5.536  11.722
 7995W        W12195   5.079  10.308   3.317
 7996W        W12196   8.691   9.384   2.338
 7997W        W12197   9.554   1.114   0.369
 7998W        W12198   6.566   9.508  11.641
 7999W        W12199   1.797   5.897   0.133
 8000W        W12200   5.637   3.678   3.306
 8001W        W12201   8.646   1.253   2.497
 8002W        W12202   9.031   4.533  11.873
 8003W        W12203  11.018   9.058   8.785
 8004W        W12204   2.460   7.045  11.071
 8005W        W12205   0.933   9.920   2.171
 8006W        W12206   9.639  10.982   3.653
 8007W        W12207   8.817   7.081  11.248
 8008W        W12208   6.551   2.196   8.785
 8009W        W12209   3.243   6.483  11.204
 8010W        W12210   0.702   3.666   9.802
 8011W        W12211   8.110   6.218   3.977
 8012W        W12212  10.484   8.596   9.410
 8013W        W12213  10.776   9.071  10.743
 8014W        W12214   6.552   4.781   1.647
 8015W        W12215   7.958   4.128   3.672
 8016W        W12216   7.545   2.862  11.404
 8017W        W12217   3.345   2.779   0.332
 8018W        W12218   2.699   6.532   9.538
 8019W        W12219   7.200   6.600   3.765
 8020W        W12220   1.453   2.797   3.039
 8021W        W12221   1.376   6.025   3.386
 8022W        W12222   0.671   5.219   0.931
 8023W        W12223   8.342   5.579  10.814
 8024W        W12224   8.681  10.505   1.771
 8025W        W12225   2.622   8.054   8.599
 8026W        W12226   6.919   9.863  11.671
 8027W        W12227   9.143   1.812  10.401
 8028W        W12228   2.715   6.019   8.997
 8029W        W12229   2.255   6.618  11.850
 8030W        W12230   5.276   6.036  11.508
 8031W        W12231   5.827   2.709   8.332
 8032W        W12232   0.302   7.456   1.413
 8033W        W12233  10.807   7.666  10.147
 8034W        W12234   3.426   5.242   0.322
 8035W        W12235   9.297   9.321   1.811
 8036W        W12236   7.003   9.808   1.656
 8037W        W12237   5.935   8.664  10.314
 8038W        W12238   5.852   0.037   9.023
 8039W        W12239  10.879   7.995   3.237
 8040W        W12240   3.237  10.226   2.160
 8041W        W12241   6.496  11.406  10.274
 8042W        W12242   5.420   9.564   3.704
 8043W        W12243   4.471   1.642   9.886
 8044W        W12244   2.434   2.179  11.463
 8045W        W12245   6.128   8.818   1.833
 8046W        W12246   0.258  10.063   3.236
 8047W        W12247   3.413  10.515   9.921
 8048W        W12248   9.083  10.217   8.799
 8049W        W12249   6.990  10.974  11.690
 8050W        W12250   8.701   5.745   3.114
 8051W        W12251  10.323   2.424  10.402
 8052W        W12252   5.024   6.514  10.096
 8053W        W12253   6.899   9.000   3.681
 8054W        W12254   9.904   4.068   1.788
 8055W        W12255   9.340   6.054   9.242
 8056W        W12256   0.352   1.322  10.369
 8057W        W12257  11.280   4.247   2.978
 8058W        W12258   7.243  11.074  10.398
 8059W        W12259  10.346   1.778   2.164
 8060W        W12260   8.656   5.217  10.629
 8061W        W12261   7.573   4.831  11.458
 8062W        W12262   3.121   4.769   0.413
 8063W        W12263   3.437   8.009   9.111
 8064W        W12264   7.804   3.869   3.261
 8065W        W12265   2.471   7.480  11.314
 8066W        W12266   4.196   3.841  11.021
 8067W        W12267   0.430   0.848   8.750
 8068W        W12268   7.927   0.700   9.323
 8069W        W12269   9.802   2.824  11.580
 8070W        W12270  11.391   8.624   0.137
 8071W        W12271   3.418   9.919  11.553
 8072W        W12272   1.761   4.590   0.009
 8073W        W12273   0.938  11.495   2.972
 8074W        W12274   5.229   5.590   1.870
 8075W        W12275   6.750   0.501   3.544
 8076W        W12276   2.409   7.070   0.546
 8077W        W12277   9.552  11.180   0.508
 8078W        W12278   2.777   6.902   8.729
 8079W        W12279  10.387   5.093   3.277
 8080W        W12280   1.457   3.722   0.495
 8081W        W12281  10.389   5.140   0.661
 8082W        W12282  11.378   8.429   1.650
 8083W        W12283   4.169   4.160  10.028
 8084W        W12284   4.769   0.624   2.804
 8085W        W12285   9.602   2.287   3.200
 8086W        W12286   7.578   7.580   1.837
 8087W        W12287   6.604   2.079   0.932
 8088W        W12288  10.148   8.996   0.497
 8089W        W12289   6.545   0.413   1.438
 8090W        W12290   3.304   6.645   1.677
 8091W        W12291   3.562   8.072   0.803
 8092W        W12292   3.248   3.241   2.798
 8093W        W12293   0.756   2.225   2.767
 8094W        W12294   5.953   3.828  11.862
 8095W        W12295   0.439   3.057   9.756
 8096W        W12296  10.427  10.064   9.483
 8097W        W12297   9.052   4.999  10.377
 8098W        W12298   5.561   9.441   2.228
 8099W        W12299   3.112   5.138   8.682
 8100W        W12300   3.596   9.932  11.067
 8101W        W12301   4.276   2.657   1.448
 8102W        W12302   8.461  10.396   2.623
 8103W        W12303   2.185   2.273   0.729
 8104W        W12304   4.742   0.320   8.356
 8105W        W12305   9.809   7.021   2.330
 8106W        W12306   0.449   4.811  10.105
 8107W        W12307   3.786   5.944  10.487
 8108W        W12308  11.062   2.880  11.716
 8109W        W12309   2.795   0.810  10.020
 8110W        W12310   0.516   9.509  10.726
 8111W        W12311   6.945  11.402   0.865
 8112W        W12312   6.859   6.043   0.339
 8113W        W12313   0.830  11.201  10.172
 8114W        W12314   7.353   8.928  11.769
 8115W        W12315  10.461   8.926   3.523
 8116W        W12316   3.824   2.118   9.059
 8117W        W12317   4.150   1.970  10.129
 8118W        W12318   6.313   6.310   9.173
 8119W        W12319   5.179   1.148   0.852
 8120W        W12320   0.670   5.237   9.286
 8121W        W12321   8.060   5.692   1.677
 8122W        W12322   9.080   8.536  10.542
 8123W        W12323  10.908   9.113  10.258
 8124W        W12324   6.328  10.034  10.287
 8125W        W12325   8.183   6.560   8.951
 8126W        W12326   2.100   7.116   2.745
 8127W        W12327   7.094  10.568   1.491
 8128W        W12328   6.084   9.798   9.901
 8129W        W12329  10.973   4.896   1.612
 8130W        W12330   0.390   2.612  10.486
 8131W        W12331  10.002   0.768   9.950
 8132W        W12332   1.850  11.001  11.518
 8133W        W12333   0.216   4.517   9.745
 8134W        W12334   2.463   6.149   1.270
 8135W        W12335   7.494   9.705   1.333
 8136W        W12336  11.115   7.848   0.023
 8137W        W12337   4.371   8.963   8.523
 8138W        W12338   8.175   3.188  10.440
 8139W        W12339   1.235   9.960  11.271
 8140W        W12340   3.966  10.848   0.870
 8141W        W12341   6.279  10.970  10.565
 8142W        W12342   5.079   9.665  10.872
 8143W        W12343   5.133   2.625   2.298
 8144W        W12344   3.674   4.348  11.978
 8145W        W12345   2.691  11.192  10.404
 8146W        W12346   7.531   4.054  11.827
 8147W        W12347   9.049   9.528   0.879
 8148W        W12348   7.970   8.479  11.428
 8149W        W12349   2.247  10.956  10.511
 8150W        W12350   2.823   3.660   9.856
 8151W        W12351   7.449  10.783  10.745
 8152W        W12352   1.256   1.003  10.437
 8153W        W12353   6.032   3.825   0.908
 8154W        W12354   5.709   4.269   8.645
 8155W        W12355   2.930   3.026   0.929
 8156W        W12356  10.450   7.865  11.056
 8157W        W12357   1.425  10.318   0.503
 8158W        W12358   6.094   8.961   0.503
 8159W        W12359   2.700   0.803   2.164
 8160W        W12360   1.049   1.410   2.339
 8161W        W12361   5.536   1.479  10.192
 8162W        W12362   2.549  11.448   9.989
 8163W        W12363   7.261  10.512   8.955
 8164W        W12364  10.401   8.922   9.910
 8165W        W12365   1.612   9.049  10.390
 8166W        W12366   9.580   6.135   0.531
 8167W        W12367   3.616   7.019   2.827
 8168W        W12368   7.890   5.346   9.064
 8169W        W12369   8.507   1.258   9.029
 8170W        W12370  11.280   6.588  10.958
 8171W        W12371   3.636   2.841   2.196
 8172W        W12372  11.362   2.563  12.000
 8173W        W12373   3.562  10.179  10.338
 8174W        W12374  10.833   7.619   2.902
 8175W        W12375  10.246   9.670  11.249
 8176W        W12376   3.713   7.424   9.318
 8177W        W12377  11.415  11.002  10.143
 8178W        W12378   3.191   6.962  11.978
 8179W        W12379   5.529   4.465  11.692
 8180W        W12380   4.749  10.919   2.996
 8181W        W12381   4.594   6.276   0.663
 8182W        W12382   5.916   7.251   1.215
 8183W        W12383   5.679   6.644   3.592
 8184W        W12384   2.081   0.074   9.866
 8185W        W12385   3.890   5.105   1.575
 8186W        W12386   6.648   8.292   3.393
 8187W        W12387   8.910   7.801   9.459
 8188W        W12388   3.376   1.376   2.785
 8189W        W12389  10.619   5.464   9.695
 8190W        W12390   1.270   6.444   0.725
 8191W        W12391   8.118   6.592   0.490
 8192W        W12392   6.739  10.292   3.630
 8193W        W12393   3.501   8.477   3.648
 8194W        W12394   6.207   7.003  10.586
 8195W        W12395   0.186  10.867  11.152
 8196W        W12396   7.493   0.293   9.034
 8197W        W12397  11.192   2.912   0.941
 8198W        W12398   8.078   0.289   1.994
 8199W        W12399   0.331   8.469   9.816
 8200W        W12400   1.485   1.254   0.492
 8201W        W12401   7.707   8.426   0.820
 8202W        W12402   8.253   2.252   1.751
 8203W        W12403  11.123   1.360   0.941
 8204W        W12404   6.892  10.922   1.048
 8205W        W12405  11.465   0.531   3.825
 8206W        W12406   1.874   9.361  10.888
 8207W        W12407   9.943   6.520   2.216
 8208W        W12408   8.013   2.722   9.782
 8209W        W12409   2.203   9.922  10.306
 8210W        W12410   6.637   1.365  10.780
 8211W        W12411   8.685   6.602   2.646
 8212W        W12412   2.227   5.178   3.139
 8213W        W12413   8.113   8.646  10.806
 8214W        W12414   7.491   8.605   1.845
 8215W        W12415   5.170   6.241  10.960
 8216W        W12416   6.112  10.890   2.725
 8217W        W12417   5.334   6.035   1.281
 8218W        W12418   9.998   5.430  11.901
 8219W        W12419   7.113  10.577  10.390
 8220W        W12420   3.141  10.980   2.910
 8221W        W12421   4.504   3.607   9.156
 8222W        W12422   2.129  10.174   8.936
 8223W        W12423   7.239   3.315   0.923
 8224W        W12424   7.396   9.101   1.891
 8225W        W12425   2.150  11.011   9.600
 8226W        W12426   7.555   0.590   2.780
 8227W        W12427   8.950   4.541  10.172
 8228W        W12428   3.348   9.601  10.772
 8229W        W12429   7.175   5.563   1.931
 8230W        W12430   0.445   4.120   2.885
 8231W        W12431  10.352   7.614   2.730
 8232W        W12432   0.677  11.046  11.104
 8233W        W12433   2.310   2.286  10.942
 8234W        W12434   7.110   1.478   0.386
 8235W        W12435   2.206  10.764   0.376
 8236W        W12436   3.228   9.727   2.292
 8237W        W12437  11.057   7.906   1.142
 8238W        W12438   6.558   7.859  10.399
 8239W        W12439   0.070   3.786   3.620
 8240W        W12440  10.908   3.142  10.939
 8241W        W12441  10.968   0.156   9.006
 8242W        W12442   5.464   3.670  11.791
 8243W        W12443   6.226   4.168   3.467
 8244W        W12444   2.369   4.055   0.367
 8245W        W12445   2.118   2.728  11.498
 8246W        W12446  10.334   4.065   9.002
 8247W        W12447   1.366   2.704   0.138
 8248W        W12448   8.243   0.984   0.628
 8249W        W12449   7.941   4.101   9.526
 8250W        W12450   5.837   7.637   4.011
 8251W        W12451   8.074   4.736   9.902
 8252W        W12452   4.123   5.211  10.529
 8253W        W12453   1.126   4.448   1.850
 8254W        W12454  11.393  10.066  10.621
 8255W        W12455  11.220   6.284  11.376
 8256W        W12456   7.085   6.386   4.227
 8257W        W12457   5.016   4.718   0.214
 8258W        W12458   9.980   9.244  11.988
 8259W        W12459   0.922   3.682   3.431
 8260W        W12460   5.246   4.555   8.642
 8261W        W12461  11.482   3.516   0.392
 8262W        W12462   1.402  11.471   1.805
 8263W        W12463   1.327  11.099   2.187
 8264W        W12464   9.562   6.775  10.373
 8265W        W12465   5.621   6.520   9.882
 8266W        W12466   3.379   7.127   1.492
 8267W        W12467   1.317   5.978   9.183
 8268W        W12468   1.291   9.931   0.790
 8269W        W12469   0.393   0.027   2.341
 8270W        W12470   6.470   2.042  10.255
 8271W        W12471  10.275  10.535  10.264
 8272W        W12472   7.938   0.972  10.724
 8273W        W12473   6.610   7.816   9.112
 8274W        W12474   1.716   7.250   3.499
 8275W        W12475   4.071  10.758   0.041
 8276W        W12476   8.550  10.740   1.340
 8277W        W12477   6.583   5.718   0.017
 8278W        W12478   6.759   7.075   0.659
 8279W        W12479   6.659   3.272  10.524
 8280W        W12480   7.922   6.429   0.918
 8281W        W12481  10.065   5.876   3.390
 8282W        W12482   4.619  10.009  10.019
 8283W        W12483   9.420  10.647   1.226
 8284W        W12484   9.065   4.277   2.618
 8285W        W12485   8.961   5.571   2.138
 8286W        W12486   9.968   6.804   3.183
 8287W        W12487  11.079   0.940  11.754
 8288W        W12488   3.779   4.402  10.230
 8289W        W12489   9.249   5.805   0.197
 8290W        W12490   5.474   6.255   1.717
 8291W        W12491  11.405   7.333   2.980
 8292W        W12492  10.406   9.402   2.630
 8293W        W12493   6.538   8.312   1.164
 8294W        W12494   9.750   7.266  10.404
 8295W        W12495   4.333   7.204   2.344
 8296W        W12496  11.126   6.347   8.384
 8297W        W12497   4.137   4.844   8.600
 8298W        W12498  11.121   3.109   0.486
 8299W        W12499   1.578   6.687   0.382
 8300W        W12500   8.122   9.390   0.522
 8301W        W12501   8.048   9.929   2.191
 8302W        W12502   4.742  10.791   0.319
 8303W        W12503   8.692   8.859   9.814
 8304W        W12504   3.805  10.408   0.357
 8305W        W12505   9.604   8.909   2.703
 8306W        W12506   6.099   3.776   2.669
 8307W        W12507   0.712  10.268   9.161
 8308W        W12508   1.796   6.550   1.786
 8309W        W12509  11.488   5.082   1.643
 8310W        W12510   3.945   9.356   9.879
 8311W        W12511   1.679  11.286  11.103
 8312W        W12512   3.509   5.618   2.336
 8313W        W12513   2.152   0.201   3.487
 8314W        W12514   9.442   9.230  11.257
 8315W        W12515   6.434   1.686   2.038
 8316W        W12516  10.476   5.550   3.523
 8317W        W12517   1.947   3.134  10.493
 8318W        W12518   1.780   0.026   2.758
 8319W        W12519   6.909   8.243  10.216
 8320W        W12520   9.286   9.270   0.138
 8321W        W12521   2.472   7.961  10.366
 8322W        W12522   2.347   1.872   1.489
 8323W        W12523   4.811   8.016   2.890
 8324W        W12524  11.458  10.050   0.144
 8325W        W12525   7.660   5.168   1.819
 8326W        W12526   2.623   0.694  10.497
 8327W        W12527   3.419   6.472   9.074
 8328W        W12528   5.754  11.131   3.482
 8329W        W12529   4.721   9.827   2.518
 8330W        W12530   2.155   3.272  11.880
 8331W        W12531   3.850   7.129   9.748
 8332W        W12532   3.783   7.414  11.103
 8333W        W12533   7.728   8.465  10.499
 8334W        W12534   0.124   7.796   0.174
 8335W        W12535   1.621   5.696   2.656
 8336W        W12536  10.389   4.723   9.334
 8337W        W12537   6.108   1.172   3.368
 8338W        W12538   1.819   9.137  11.362
 8339W        W12539   8.553   2.721   0.527
 8340W        W12540   3.903  10.291   9.942
 8341W        W12541   9.061   9.975   0.571
 8342W        W12542   2.298   3.225  10.151
 8343W        W12543   8.614   0.057   0.865
 8344W        W12544   7.780   7.930  10.756
 8345W        W12545   1.597   9.769   1.508
 8346W        W12546  10.379   4.578   3.427
 8347W        W12547   6.146   9.040   3.274
 8348W        W12548   7.961  10.030   1.253
 8349W        W12549   8.855   5.477   0.104
 8350W        W12550  11.027   6.195   1.993
 8351W        W12551  11.321   7.693   0.583
 8352W        W12552   5.528   3.694  10.134
 8353W        W12553   8.446   2.173  10.767
 8354W        W12554   3.161   4.805   1.576
 8355W        W12555   1.472   4.753  11.082
 8356W        W12556   3.108   7.081   2.823
 8357W        W12557  10.832   6.346  10.731
 8358W        W12558   3.205  10.567   3.622
 8359W        W12559   6.242   9.963   1.708
 8360W        W12560   1.828   1.400  11.391
 8361W        W12561  10.899   6.591   8.816
 8362W        W12562   6.945   4.649   3.175
 8363W        W12563  10.342   8.303   1.216
 8364W        W12564   2.351   1.143   0.501
 8365W        W12565   0.561   2.445   2.349
 8366W        W12566   6.640   2.864  11.570
 8367W        W12567  10.781   2.901   3.657
 8368W        W12568   2.618   9.861   9.883
 8369W        W12569   2.242   0.515  11.792
 8370W        W12570   7.795   8.152   1.409
 8371W        W12571   0.288   1.304   1.721
 8372W        W12572  11.049  10.428   9.502
 8373W        W12573   5.497   6.140   9.515
 8374W        W12574   3.564   2.232   3.272
 8375W        W12575   0.473   7.078   1.709
 8376W        W12576   3.890   1.502   0.388
 8377W        W12577   5.557   7.816   9.539
 8378W        W12578   9.082   7.736   1.202
 8379W        W12579   7.504   8.686   0.412
 8380W        W12580  10.442  10.417   1.677
 8381W        W12581   4.175   8.609   3.069
 8382W        W12582   4.263   9.091   3.340
 8383W        W12583   8.619   8.325   3.008
 8384W        W12584   5.527   0.353   1.371
 8385W        W12585  11.097   3.402   2.963
 8386W        W12586   5.821  10.561  11.776
 8387W        W12587   4.535   4.871   0.097
 8388W        W12588   1.717   4.901   3.174
 8389W        W12589   8.082   1.832   9.446
 8390W        W12590   9.839   3.432   3.148
 8391W        W12591   7.887   1.760   1.019
 8392W        W12592  11.362  11.037  11.543
 8393W        W12593   5.172   6.499   0.175
 8394W        W12594   2.189  11.476   9.379
 8395W        W12595   0.656  11.085   0.270
 8396W        W12596   5.187   1.847   1.331
 8397W        W12597   6.453   5.043  10.949
 8398W        W12598   3.137   4.307   1.335
 8399W        W12599   1.775   9.920   2.810
 8400W        W12600   4.635   8.286   3.719
 8401W        W12601   6.985   8.873   0.096
 8402W        W12602   5.072   1.904   9.305
 8403W        W12603   2.041  11.073   8.606
 8404W        W12604   7.420   3.284   1.577
 8405W        W12605   0.241   1.072   0.897
 8406W        W12606   1.010  11.003  11.480
 8407W        W12607   4.485  11.073  11.947
 8408W        W12608   1.142  10.053   8.919
 8409W        W12609   5.613   9.805  11.440
 8410W        W12610   5.235   0.432   2.735
 8411W        W12611   3.271   3.263  11.073
 8412W        W12612  10.073   6.033   2.111
 8413W        W12613   0.463  10.558   0.104
 8414W        W12614   2.120   4.573   3.155
 8415W        W12615   3.385   2.418  11.490
 8416W        W12616   4.280   2.171   1.239
 8417W        W12617   5.852   8.660  11.836
 8418W        W12618   6.039   0.324  11.285
 8419W        W12619   4.174   0.279   2.796
 8420W        W12620   0.797   4.521   0.325
 8421W        W12621   9.933   8.582   1.060
 8422W        W12622   6.034   0.833  11.071
 8423W        W12623   5.206   0.533   9.232
 8424W        W12624   8.986   2.523  11.950
 8425W        W12625   7.753   6.163  10.233
 8426W        W12626   2.077   5.077   9.540
 8427W        W12627   2.443   0.358  10.848
 8428W        W12628   9.998   5.380   3.405
 8429W        W12629   5.099   9.122   9.482
 8430W        W12630   4.374   7.206   1.455
 8431W        W12631   8.433   0.250   0.401
 8432W        W12632   0.886  10.210  10.968
 8433W        W12633   2.078   9.467   0.766
 8434W        W12634   4.850   3.835  10.495
 8435W        W12635   3.536   5.247   0.869
 8436W        W12636   1.198   3.139   2.301
 8437W        W12637   7.311   0.549   1.385
 8438W        W12638   0.281   3.925   1.520
 8439W        W12639   8.851   2.242   9.915
 8440W        W12640   0.171  10.965   0.432
 8441W        W12641   9.475   9.845   9.892
 8442W        W12642  10.405   6.174  11.655
 8443W        W12643   1.300   6.482   9.263
 8444W        W12644   8.822   4.075  10.402
 8445W        W12645   7.963   7.501   0.288
 8446W        W12646   0.730   2.783  11.445
 8447W        W12647   6.347   7.602   4.055
 8448W        W12648   0.478   4.823   8.950
 8449W        W12649   4.944   0.463   2.293
 8450W        W12650   6.991  10.250  10.015
 8451W        W12651   3.879   8.829   3.542
 8452W        W12652   4.536   8.904  11.434
 8453W        W12653   4.595   2.345   2.166
 8454W        W12654   0.568   4.303   1.219
 8455W        W12655   3.742   7.136   8.886
 8456W        W12656   0.365   6.460  10.185
 8457W        W12657   0.260   0.874   9.720
 8458W        W12658   5.782   8.133  11.998
 8459W        W12659   5.618   9.308  10.777
 8460W        W12660   1.903   1.074   0.229
 8461W        W12661   2.806   4.669   9.149
 8462W        W12662  10.740   7.151   2.230
 8463W        W12663  10.371   7.137   0.740
 8464W        W12664  10.624   1.340   1.068
 8465W        W12665   6.169   0.375   0.651
 8466W        W12666  11.431   8.159   2.616
 8467W        W12667   2.571   1.591   9.012
 8468W        W12668   4.399   6.597  10.447
 8469W        W12669   8.586  10.241  10.569
 8470W        W12670   3.316   0.308   9.626
 8471W        W12671   3.194   3.680  10.333
 8472W        W12672   7.113   6.055   0.847
 8473W        W12673   7.049   7.589   8.970
 8474W        W12674   8.146   1.839  10.489
 8475W        W12675  11.391   4.122   1.869
 8476W        W12676   4.786   1.906  11.681
 8477W        W12677   6.986   5.729  10.442
 8478W        W12678   6.024   9.578  10.574
 8479W        W12679   5.100   7.829   9.801
 8480W        W12680   3.823   3.626   9.738
 8481W        W12681   1.029   8.939   1.540
 8482W        W12682   5.179   8.696   0.608
 8483W        W12683   7.962   7.043   2.063
 8484W        W12684   9.155   5.201   0.452
 8485W        W12685   4.793  10.370   9.669
 8486W        W12686   8.386   5.516  10.313
 8487W        W12687   2.641  10.885   0.619
 8488W        W12688   9.381   0.838   1.258
 8489W        W12689   9.780   2.659   9.088
 8490W        W12690  10.849   3.011   9.918
 8491W        W12691  11.410   0.552  11.257
 8492W        W12692   2.804   1.017  11.425
 8493W        W12693   2.219   2.176   3.402
 8494W        W12694   9.468   1.463  10.104
 8495W        W12695   5.919   1.820  10.201
 8496W        W12696   4.505   7.608   2.712
 8497W        W12697   5.443   6.116   2.760
 8498W        W12698   4.732   8.528   2.895
 8499W        W12699   4.225   2.911   1.925
 8500W        W12700   6.067  10.962   0.694
 8501W        W12701   7.907   4.192  10.582
 8502W        W12702   4.266  11.063   0.410
 8503W        W12703   5.199  11.418  11.102
 8504W        W12704   7.231   9.244   9.944
 8505W        W12705   9.385   6.177  11.540
 8506W        W12706  10.674   3.903   3.597
 8507W        W12707   3.950   8.007  10.496
 8508W        W12708   6.787  10.770  10.789
 8509W        W12709   4.895  10.091   0.953
 8510W        W12710   1.646   0.904   3.473
 8511W        W12711   7.093  10.480   9.459
 8512W        W12712   9.889  10.762   8.987
 8513W        W12713   2.139   0.188   2.429
 8514W        W12714   2.389   6.114  11.338
 8515W        W12715   4.160   1.719   9.149
 8516W        W12716  10.476   4.316  11.017
 8517W        W12717   9.776   0.399   1.285
 8518W        W12718   0.917   4.986   0.511
 8519W        W12719   1.289   5.327   9.905
 8520W        W12720   8.484   5.797   0.834
 8521W        W12721   1.166   8.152  11.307
 8522W        W12722   0.215   3.460  11.941
 8523W        W12723   2.727   3.860   0.669
 8524W        W12724   2.621   5.092   9.422
 8525W        W12725   9.877   5.698   0.747
 8526W        W12726   8.586   8.277   1.036
 8527W        W12727   6.035   9.430   8.601
 8528W        W12728   9.610   3.135  10.537
 8529W        W12729   6.334   2.098   1.734
 8530W        W12730   5.809   9.860   1.477
 8531W        W12731   7.129   9.882   2.185
 8532W        W12732   4.649  11.263   9.618
 8533W        W12733   5.704   8.332   9.482
 8534W        W12734   5.665   5.822   1.984
 8535ION    NA+12735   2.769   6.680  11.879
 8536ION    NA+12736   4.196   1.066   2.072
 8537ION    NA+12737   1.128  10.593   3.379
 8538ION    NA+12738   6.811   0.880   1.364
 8539ION    NA+12739   7.203   3.413   9.464
 8540ION    NA+12740  10.233   9.544   3.502
 8541ION    NA+12741  11.452   2.011  11.406
 8542ION    NA+12742   5.636   4.061   0.652
 8543ION    NA+12743  11.246   7.137   9.645
 8544ION    NA+12744   8.225   4.610   9.424
 8545ION    NA+12745   6.820   6.436  10.909
 8546ION    NA+12746   7.753   2.283   1.670
 8547ION    NA+12747   8.046   4.977   0.992
 8548ION    NA+12748   8.126   2.306   3.240
 8549ION    NA+12749   1.830  10.994   0.993
 8550ION    NA+12750   0.905   9.288  11.903
 8551ION    NA+12751   7.851   6.237  11.511
 8552ION    NA+12752   5.356   1.587   3.228
 8553ION    NA+12753   3.996  10.438  10.472
 8554ION    NA+12754   1.847   3.113   9.939
 8555ION    NA+12755   9.847   4.722   2.284
 8556ION    NA+12756   0.860   8.668   0.823
 8557ION    NA+12757   6.325   7.424  11.918
 8558ION    NA+12758   8.052   3.414   3.133
 8559ION    NA+12759   8.876   6.303  10.666
 8560ION    NA+12760   9.739   7.747   0.943
 8561ION    NA+12761   6.389  10.982   3.210
 8562ION    NA+12762   8.236   2.294   0.402
 8563ION    NA+12763   0.929   2.818   9.675
 8564ION    NA+12764   2.115   0.619   0.303
 8565ION    NA+12765   3.402   2.838  11.797
 8566ION    NA+12766   6.595   7.671   1.893
 8567ION    NA+12767   3.214   4.884   8.259
 8568ION    NA+12768   4.660  11.151   2.547
 8569ION    NA+12769   5.690  10.279   1.209
 8570ION    NA+12770   3.171   4.708  10.833
 8571ION    NA+12771  10.477   0.500  11.499
 8572ION    NA+12772   7.114   7.539   3.425
 8573ION    NA+12773   7.638   3.768   0.261
 8574ION    NA+12774  10.239   7.444  11.970
 8575ION    NA+12775   3.713   9.985   2.192
 8576ION    NA+12776   3.220   1.135  10.179
 8577ION    NA+12777   1.458   7.665  10.008
 8578ION    NA+12778   1.413   8.814   8.917
 8579ION    NA+12779   3.132   9.431  11.804
 8580ION    NA+12780   8.901   0.162   1.310
 8581ION    NA+12781   0.537   5.241   9.804
 8582ION    NA+12782   5.609   7.091   2.425
 8583ION    NA+12783   2.912   3.858   9.386
 8584ION    NA+12784   7.035   5.614   0.558
 8585ION    NA+12785   3.494  11.421   1.727
 8586ION    NA+12786   0.915  10.806   2.283
 8587ION    NA+12787   4.829   6.536   1.918
 8588ION    NA+12788   1.040   6.266   3.096
 8589ION    NA+12789   9.773   2.160   8.919
 8590ION    NA+12790   6.657   6.901   3.160
 8591ION    NA+12791   9.171  10.350   1.844
 8592ION    NA+12792   1.501   4.161   0.734
 8593ION    NA+12793   1.673   4.367   1.876
 8594ION    NA+12794   3.372   6.202   3.329
 8595ION    NA+12795   9.616   7.681   3.492
 8596ION    NA+12796   5.772   8.034  11.482
 8597ION    NA+12797   1.166   6.009   9.684
 8598ION    NA+12798   8.450   3.649   2.206
 8599ION    NA+12799   9.821   2.332   3.787
 8600ION    NA+12800   7.400   1.738   0.045
 8601ION    NA+12801   8.532   8.381   2.496
 8602ION    NA+12802   0.003  11.069   3.285
 8603ION    NA+12803   6.814   7.482   4.210
 8604ION    NA+12804   5.325  11.285  11.576
 8605ION    NA+12805   6.048   2.551   2.625
 8606ION    NA+12806   8.295   8.538   9.817
 8607ION    NA+12807   7.332   8.873   1.436
 8608ION    NA+12808   4.721  10.213   2.206
 8609ION    NA+12809   4.282   5.817   2.028
 8610ION    NA+12810   0.033   8.011   1.900
 8611ION    NA+12811   4.152  10.054   1.278
 8612ION    NA+12812   8.140   0.942   9.764
 8613ION    NA+12813   4.359   5.912   0.387
 8614ION    NA+12814  10.086   0.428   0.865
 8615ION    NA+12815   9.728   7.869   9.017
 8616ION    NA+12816   6.013   3.905   1.849
 8617ION    NA+12817   7.322   9.365  10.830
 8618ION    NA+12818   5.909   3.251   3.362
 8619ION    NA+12819   1.764   1.156   1.365
 8620ION    NA+12820   7.661   2.849   8.611
 8621ION    NA+12821   6.194   8.474   9.503
 8622ION    NA+12822   0.648   4.679   1.617
 8623ION    NA+12823   3.177   6.590   8.598
 8624ION    NA+12824   4.133   6.804   0.253
 8625ION    CL-12825   5.524   1.704   2.132
 8626ION    CL-12826   0.209   7.857  11.291
 8627ION    CL-12827  11.330   4.327   8.642
 8628ION    CL-12828   2.115   8.489   2.326
 8629ION    CL-12829   7.017   7.820   1.871
 8630ION    CL-12830   4.673   8.955   1.520
 8631ION    CL-12831   8.196   3.597  11.382
 8632ION    CL-12832   0.142   7.831   2.292
 8633ION    CL-12833   9.216   5.875   3.557
 8634ION    CL-12834   0.276   0.872   0.223
 8635ION    CL-12835   7.451  11.472   0.817
 8636ION    CL-12836   3.311  11.351   1.327
 8637ION    CL-12837   6.937   3.146   9.704
 8638ION    CL-12838   5.020   0.531   1.394
 8639ION    CL-12839  11.482  11.441   3.024
 8640ION    CL-12840   4.768   1.188  11.021
 8641ION    CL-12841   5.809   9.911   0.966
 8642ION    CL-12842  11.135   7.353   9.269
 8643ION    CL-12843   0.257   4.448   1.616
 8644ION    CL-12844   6.052   7.770  11.751
 8645ION    CL-12845  10.610  10.935  10.116
 8646ION    CL-12846   3.580  11.333  11.977
 8647ION    CL-12847   7.221   1.047   1.429
 8648ION    CL-12848   9.118   1.568   3.539
 8649ION    CL-12849   3.239  11.140   9.120
 8650ION    CL-12850   0.976  10.356   9.595
 8651ION    CL-12851   3.298   3.005   3.294
 8652ION    CL-12852   6.888   7.290   3.104
 8653ION    CL-12853   6.705   2.779  10.605
 8654ION    CL-12854  11.469   3.543   1.304
 8655ION    CL-12855   2.362   0.437  10.131
 8656ION    CL-12856   9.470  10.629  10.370
 8657ION    CL-12857   1.017   7.896   3.389
 8658ION    CL-12858   6.477   7.264   4.425
 8659ION    CL-12859   8.468   4.954   3.645
 8660ION    CL-12860   5.380   2.848   8.532
 8661ION    CL-12861   8.191   6.511   2.759
 8662ION    CL-12862   6.990   9.495   2.505
 8663ION    CL-12863   5.195   3.392   2.740
 8664ION    CL-12864  11.205   3.557  11.931
 8665ION    CL-12865  10.533   3.204   1.392
 8666ION    CL-12866   7.541   7.317   9.656
 8667ION    CL-12867   1.015   1.522   0.397
 8668ION    CL-12868   3.337   1.559  10.106
 8669ION    CL-12869  10.880   3.600  10.114
 8670ION    CL-12870   1.353   1.237   9.656
 8671ION    CL-12871  11.434   5.494   2.331
 8672ION    CL-12872   2.662   6.827   9.985
 8673ION    CL-12873   6.885   9.422  10.763
 8674ION    CL-12874   8.314   4.614   0.967
 8675ION    CL-12875   4.255   8.738  11.016
 8676ION    CL-12876   5.289   3.773   0.663
 8677ION    CL-12877   0.222   5.262  10.123
 8678ION    CL-12878   5.815   4.174   2.148
 8679ION    CL-12879   9.129   9.580   3.570
 8680ION    CL-12880  10.976   5.542   8.105
 8681ION    CL-12881   3.019   7.763   9.892
 8682ION    CL-12882   5.323   1.186  11.963
 8683ION    CL-12883   9.898   6.688   1.201
 8684ION    CL-12884   9.200   7.180   2.918
 8685ION    CL-12885   4.085   7.260   0.292
 8686ION    CL-12886   9.318   6.385  10.665
 8687ION    CL-12887   0.704   4.625   2.888
 8688ION    CL-12888  10.427  10.450   1.151
 8689ION    CL-12889   7.121  10.114   1.281
 8690ION    CL-12890   5.311   3.695   9.627
 8691ION    CL-12891   4.549   6.186   2.006
 8692ION    CL-12892   4.231   6.347   0.307
 8693ION    CL-12893  10.884   0.877   8.498
 8694ION    CL-12894   5.536   8.304  11.192
 8695ION    CL-12895   5.324   3.110  11.555
 8696ION    CL-12896   4.457   3.058   8.853
 8697ION    CL-12897   9.966   7.460  11.617
 8698ION    CL-12898   0.739   6.007   3.333
 8699ION    CL-12899  10.114   3.120   2.772
 8700ION    CL-12900   9.337   7.820   0.759
 8701ION    CL-12901   7.489   1.760  11.607
 8702ION    CL-12902   2.701   5.670   2.153
 8703ION    CL-12903   5.668  10.695   1.397
 8704ION    CL-12904   1.248   2.310   1.849
 8705ION    CL-12905   1.168  11.279  11.044
 8706ION    CL-12906   4.895   1.928   9.808
 8707ION    CL-12907   8.074  11.293   1.838
 8708ION    CL-12908   1.444   9.452   2.703
 8709ION    CL-12909   6.628   7.106   0.038
 8710ION    CL-12910   1.754  10.753  10.349
 8711ION    CL-12911   0.860   4.988   1.352
 8712ION    CL-12912   6.050   9.554  11.551
 8713ION    CL-12913   5.454  10.334   8.895
 8714ION    CL-12914   9.527  10.307   1.577
  11.50000  11.50000  12.00000
