Protein in INSANE! Membrane UpperLeaflet>POPC=1.0 LowerLeaflet>POPC=1.0
12676
    1AU     AUC    1   9.588   4.472   7.218 -0.0701 -0.0222  0.0115
    1AU     AUC    2   9.584   4.646   6.991  0.0016  0.0345 -0.0053
    1AU     AUC    3   9.810   4.653   7.201  0.1087 -0.1027  0.0148
    1AU     AUC    4   9.370   4.276   7.248  0.0468  0.0346 -0.0236
    1AU     AUC    5   9.581   4.297   7.457  0.1391 -0.0686 -0.0328
    1AU     AUC    6   9.377   4.520   7.415  0.0219 -0.0652  0.1001
    1AU     AUC    7   9.511   4.743   7.250  0.0594  0.0949  0.0808
    1AU     AUC    8   9.662   4.188   7.197 -0.0562  0.0768 -0.0078
    1AU     AUC    9   9.786   4.399   7.030  0.0186 -0.0769 -0.0036
    1AU     AUC   10   9.836   4.383   7.327 -0.0191  0.0201 -0.0663
    1AU     AUC   11   9.673   4.593   7.478 -0.0402  0.0200  0.0227
    1AU     AUC   12   9.483   4.341   6.978  0.1223  0.0169 -0.0544
    1AU     AUC   13   9.317   4.559   7.121  0.0357 -0.0885  0.0195
    1AU     AUC   14   9.577   4.771   6.774  0.0403 -0.0337  0.0892
    1AU     AUC   15   9.809   4.803   6.964  0.0270 -0.0495 -0.0124
    1AU     AUC   16   9.990   4.863   7.171 -0.0098 -0.0298  0.0527
    1AU     AUC   17   9.154   4.103   7.273 -0.0763 -0.0280  0.0593
    1AU     AUC   18   9.370   4.131   7.482 -0.0461 -0.0092  0.0307
    1AU     AUC   19   9.575   4.150   7.689 -0.0054  0.0540 -0.0476
    1AU     AUC   20   9.175   4.589   7.603 -0.1401 -0.0262 -0.0024
    1AU     AUC   21   9.304   4.805   7.453  0.0308  0.0857  0.0680
    1AU     AUC   22   9.438   4.993   7.244  0.0147  0.0292 -0.0660
    1AU     AUC   23   9.716   3.923   7.183  0.0178 -0.0020 -0.0309
    1AU     AUC   24   9.843   4.129   7.018 -0.0244  0.0427  0.0888
    1AU     AUC   25   9.996   4.359   6.828 -0.0582 -0.0506 -0.0369
    1AU     AUC   26  10.086   4.324   7.420  0.0041  0.0880 -0.0183
    1AU     AUC   27   9.915   4.497   7.552  0.0343 -0.0672  0.0114
    1AU     AUC   28   9.723   4.737   7.711  0.0486 -0.0084  0.0827
    1AU     AUC   29   9.388   4.251   6.758  0.0674  0.0880  0.0483
    1AU     AUC   30   9.236   4.421   6.866 -0.0280 -0.0479 -0.0155
    1AU     AUC   31   9.088   4.614   7.018 -0.0875 -0.0960  0.1100
    1AU     AUC   32  10.046   4.581   7.320 -0.1471 -0.0432 -0.0240
    1AU     AUC   33   9.869   4.790   7.450 -0.0523  0.0311 -0.0112
    1AU     AUC   34   9.511   4.498   6.754 -0.0450  0.0183  0.0363
    1AU     AUC   35   9.339   4.719   6.871 -0.0066  0.0442 -0.0403
    1AU     AUC   36   9.841   4.226   7.588 -0.0637  0.0631 -0.0676
    1AU     AUC   37   9.670   4.446   7.695 -0.0031  0.0386 -0.0821
    1AU     AUC   38   9.283   4.154   7.014 -0.0629 -0.1018  0.0364
    1AU     AUC   39   9.122   4.366   7.129 -0.0521  0.0682 -0.1051
    1AU     AUC   40   9.511   4.906   7.018  0.0291  0.0568 -0.0058
    1AU     AUC   41   9.702   4.931   7.245  0.0185 -0.0617  0.0274
    1AU     AUC   42   9.168   4.333   7.445  0.0622  0.0706  0.0155
    1AU     AUC   43   9.362   4.374   7.663 -0.0028 -0.0740  0.0694
    1AU     AUC   44   9.776   4.575   6.791 -0.0435 -0.0503 -0.0116
    1AU     AUC   45  10.003   4.602   7.002 -0.0898 -0.0077 -0.0182
    1AU     AUC   46   9.430   4.024   7.214 -0.0269  0.1496  0.0583
    1AU     AUC   47   9.639   4.027   7.464  0.0632 -0.0890  0.0256
    1AU     AUC   48   9.462   4.662   7.649  0.0467 -0.0894 -0.0092
    1AU     AUC   49   9.600   4.868   7.508  0.0461 -0.0162  0.1023
    1AU     AUC   50   9.917   4.110   7.299 -0.0371  0.1017  0.0242
    1AU     AUC   51  10.039   4.323   7.117 -0.0171 -0.0235  0.0254
    1AU     AUC   52   9.121   4.608   7.298  0.0124  0.0494  0.0437
    1AU     AUC   53   9.252   4.820   7.153 -0.1028  0.0101 -0.0240
    1AU     AUC   54   9.561   4.071   6.943  0.0374 -0.1079  0.0042
    1AU     AUC   55   9.680   4.274   6.782  0.1350  0.0420  0.0262
    1AU    AUSL   56  10.143   4.857   7.414 -0.1008  0.0854  0.0667
    1AU    AUSL   57  10.301   4.393   7.323  0.0478  0.0101 -0.0050
    1AU     AUL   58  10.217   4.795   7.014 -0.0179  0.0226  0.0574
    1AU       S   59  10.707   4.325   7.255 -0.0391 -0.0171  0.1141
    1AU     LIG   60  11.142   4.267   7.422 -0.2267 -0.3011 -0.2096
    1AU     LIG   61  11.416   4.485   7.639 -0.1714  0.0795 -0.0223
    1AU     LIG   62  11.577   4.886   7.635 -0.2157  0.1207  0.0986
    1AU     LIG   63  11.984   5.006   7.660 -0.4675  0.1798  0.2599
    1AU     LIG   64  12.386   5.231   7.529 -0.1190 -0.2347  0.0725
    1AU     LIG   65  12.524   5.491   7.203  0.1290  0.0076 -0.3527
    1AU       S   66  10.565   5.004   7.557 -0.0615  0.2398 -0.3480
    1AU     LIG   67  10.831   5.320   7.342  0.1019 -0.2505 -0.2244
    1AU     LIG   68  11.078   5.519   7.142 -0.0421  0.3088  0.0477
    1AU     LIG   69  11.392   5.760   7.020  0.2001 -0.3016 -0.1970
    1AU     LIG   70  11.782   5.651   6.733 -0.2671  0.1713 -0.1787
    1AU     LIG   71  12.131   5.519   6.438 -0.1873  0.3705  0.1538
    1AU     LIG   72  12.380   5.252   6.068 -0.0520  0.1264  0.0372
    1AU    AUSL   73  10.180   4.565   7.528 -0.0636  0.0017 -0.1147
    1AU    AUSL   74   9.993   4.533   7.775 -0.0154  0.0021 -0.0577
    1AU     AUL   75  10.284   4.286   7.621 -0.0399 -0.0469 -0.0324
    1AU       S   76  10.542   4.686   7.744  0.6084  0.0514 -0.1532
    1AU     LIG   77  10.926   4.909   7.846  0.1593 -0.0800 -0.2198
    1AU     LIG   78  11.240   5.252   7.792  0.1546 -0.3316  0.3685
    1AU     LIG   79  11.719   5.390   7.870 -0.0553  0.3429 -0.0973
    1AU     LIG   80  12.161   5.346   7.975 -0.2344  0.1936  0.1452
    1AU     LIG   81  12.421   5.082   8.070  0.4340 -0.0686 -0.0406
    1AU     LIG   82  12.570   4.643   8.226  0.2699  0.1770  0.2846
    1AU       S   83  10.265   4.489   8.148  0.2448 -0.3064  0.2275
    1AU     LIG   84  10.710   4.155   7.991 -0.1972 -0.1575  0.2635
    1AU     LIG   85  11.066   3.869   7.808 -0.0585 -0.1231  0.1826
    1AU     LIG   86  11.398   3.824   7.480 -0.1132  0.0849 -0.2292
    1AU     LIG   87  11.588   4.169   7.297 -0.1174 -0.1418 -0.0236
    1AU     LIG   88  11.899   4.545   7.336  0.1801  0.0162  0.5217
    1AU     LIG   89  12.180   4.856   7.156 -0.0139  0.3377 -0.0241
    1AU    AUSL   90  10.005   4.781   7.667 -0.0178  0.0167  0.1507
    1AU    AUSL   91   9.983   5.073   7.325 -0.0100 -0.0550 -0.0395
    1AU     AUL   92   9.971   5.093   7.758 -0.0367  0.0419  0.0604
    1AU       S   93  10.436   4.978   7.890  0.1542  0.1718 -0.1351
    1AU     LIG   94  10.407   5.413   7.982  0.1335  0.0484 -0.3204
    1AU     LIG   95  10.624   5.699   8.025  0.1843  0.0275  0.1624
    1AU     LIG   96  10.660   6.080   7.845 -0.0248 -0.2304  0.5560
    1AU     LIG   97  11.049   6.303   7.670 -0.0323 -0.1861 -0.1006
    1AU     LIG   98  11.494   6.357   7.716 -0.0988 -0.0396 -0.0173
    1AU     LIG   99  11.895   6.244   7.481 -0.3106  0.3446 -0.3289
    1AU       S  100  10.325   5.368   7.222 -0.2862 -0.3574  0.1210
    1AU     LIG  101  10.673   5.182   6.884 -0.3423  0.6784 -0.1782
    1AU     LIG  102  11.103   5.331   6.635 -0.1089 -0.0856 -0.2319
    1AU     LIG  103  11.413   5.212   6.833  0.0079 -0.0899  0.0462
    1AU     LIG  104  11.852   5.191   7.005 -0.0502  0.2156 -0.0519
    1AU     LIG  105  12.201   5.338   6.878 -0.3668 -0.1426 -0.1308
    1AU     LIG  106  12.606   5.303   6.529 -0.1282  0.2956 -0.3333
    1AU    AUSL  107   9.305   4.723   6.634 -0.0176 -0.0557  0.0721
    1AU    AUSL  108   9.148   4.884   6.864  0.0953 -0.0923  0.0266
    1AU     AUL  109   8.837   4.670   6.922  0.0314 -0.0592 -0.0849
    1AU       S  110   9.048   4.853   6.256 -0.3133 -0.0810 -0.0331
    1AU     LIG  111   8.822   5.206   6.178  0.1249 -0.0805  0.2905
    1AU     LIG  112   8.437   5.311   6.092  0.1182 -0.3015  0.1005
    1AU     LIG  113   8.029   5.562   6.054 -0.0684 -0.4378 -0.1978
    1AU     LIG  114   7.776   5.839   6.216  0.1272  0.1569  0.3694
    1AU     LIG  115   7.670   6.254   6.110  0.1425 -0.0253  0.1080
    1AU     LIG  116   7.454   6.354   5.678  0.0091 -0.2283 -0.3123
    1AU       S  117   8.962   5.247   6.620 -0.0474 -0.0204  0.3457
    1AU     LIG  118   8.703   5.636   6.370  0.2715 -0.1634  0.2054
    1AU     LIG  119   8.338   6.031   6.368  0.1177  0.1720  0.1692
    1AU     LIG  120   8.045   6.379   6.398 -0.2051 -0.0853 -0.2907
    1AU     LIG  121   7.775   6.704   6.302  0.1299 -0.1050  0.2145
    1AU     LIG  122   7.605   7.181   6.365  0.0500  0.1663  0.0854
    1AU     LIG  123   7.211   7.309   6.548  0.0660 -0.2822  0.4051
    1AU    AUSL  124   9.176   4.407   6.621  0.0511 -0.0847 -0.0658
    1AU    AUSL  125   9.729   4.606   6.544  0.0104 -0.0241  0.0126
    1AU     AUL  126   9.412   4.452   6.305 -0.0111 -0.0908 -0.0525
    1AU       S  127   9.929   4.665   6.105  0.0253  0.4596 -0.0021
    1AU     LIG  128  10.289   4.801   5.839  0.0073  0.1207 -0.1406
    1AU     LIG  129  10.653   4.746   6.056  0.1405 -0.0605  0.6219
    1AU     LIG  130  11.095   4.674   6.195  0.0310  0.1313  0.0990
    1AU     LIG  131  11.452   4.376   6.359  0.3799 -0.1573  0.1424
    1AU     LIG  132  11.811   4.273   6.313 -0.0956 -0.2133 -0.2822
    1AU     LIG  133  12.285   4.378   6.321 -0.1176  0.1437 -0.3177
    1AU       S  134   8.797   4.457   6.275 -0.1424 -0.2537 -0.1545
    1AU     LIG  135   8.900   3.996   6.103  0.0400 -0.1169 -0.0248
    1AU     LIG  136   9.057   3.579   6.119  0.1602  0.0314 -0.1634
    1AU     LIG  137   8.978   3.187   6.359 -0.0689  0.1325 -0.1549
    1AU     LIG  138   8.612   2.924   6.437 -0.0162 -0.2746  0.0914
    1AU     LIG  139   8.186   2.983   6.410 -0.4748  0.1381  0.0363
    1AU     LIG  140   7.999   3.278   6.619 -0.1451  0.0012 -0.2347
    1AU    AUSL  141   9.052   4.643   6.731  0.0009 -0.0113 -0.0190
    1AU    AUSL  142   9.128   4.162   6.753 -0.0598 -0.0771  0.1026
    1AU     AUL  143   9.317   4.451   6.558  0.0409  0.0446 -0.0194
    1AU       S  144   8.782   3.872   6.565 -0.0200 -0.2914 -0.2310
    1AU     LIG  145   8.504   3.628   6.281 -0.2324 -0.0682  0.5445
    1AU     LIG  146   8.125   3.610   6.193 -0.2087 -0.0278  0.2161
    1AU     LIG  147   7.796   3.405   6.209  0.0650 -0.4539  0.0279
    1AU     LIG  148   7.642   2.947   6.438  0.0438 -0.0255 -0.3265
    1AU     LIG  149   7.327   2.752   6.703  0.0077  0.0313  0.1552
    1AU     LIG  150   7.210   2.428   6.900 -0.1440 -0.1338 -0.0061
    1AU       S  151   8.852   4.661   6.369 -0.2209  0.4467  0.3662
    1AU     LIG  152   8.440   4.922   6.434  0.0898  0.1811 -0.1729
    1AU     LIG  153   8.069   4.762   6.674  0.0847  0.0877  0.1542
    1AU     LIG  154   7.881   4.980   7.016  0.2866  0.0740  0.4157
    1AU     LIG  155   7.555   4.860   7.247 -0.0847 -0.2389  0.0458
    1AU     LIG  156   7.162   4.741   7.310  0.3684 -0.0086  0.3605
    1AU     LIG  157   6.789   4.670   7.142  0.0173  0.1925 -0.2726
    1AU    AUSL  158   9.791   4.368   7.878 -0.0336 -0.0357 -0.0004
    1AU    AUSL  159   9.612   4.609   7.925 -0.1505 -0.0082 -0.0851
    1AU     AUL  160   9.862   4.855   7.909  0.0217 -0.0125  0.0458
    1AU       S  161  10.036   4.324   8.267 -0.1417 -0.1687 -0.1330
    1AU     LIG  162  10.095   4.545   8.627 -0.0212 -0.0100 -0.3345
    1AU     LIG  163  10.068   4.932   8.717 -0.0845 -0.0429  0.0229
    1AU     LIG  164   9.886   5.349   8.547  0.1802  0.1217 -0.0559
    1AU     LIG  165  10.061   5.633   8.223 -0.0605 -0.0992 -0.4896
    1AU     LIG  166  10.170   5.963   7.893 -0.3390 -0.1914  0.2199
    1AU     LIG  167  10.304   6.421   7.905  0.0429  0.3038  0.3789
    1AU       S  168   9.647   4.648   8.358  0.3078 -0.0111  0.1333
    1AU     LIG  169   9.424   5.036   8.594 -0.1323 -0.2531 -0.1308
    1AU     LIG  170   9.073   5.273   8.778 -0.0532  0.0699  0.0679
    1AU     LIG  171   8.908   5.580   8.660 -0.0538  0.5676 -0.0371
    1AU     LIG  172   8.693   5.851   8.392 -0.0113  0.0066  0.0740
    1AU     LIG  173   8.738   6.265   8.267 -0.2243  0.0825 -0.2067
    1AU     LIG  174   8.870   6.631   8.065 -0.3036  0.0087  0.1708
    1AU    AUSL  175  10.004   4.251   7.739 -0.0305  0.0146  0.0312
    1AU    AUSL  176   9.868   4.000   7.688 -0.0479 -0.0478 -0.0160
    1AU     AUL  177   9.673   4.086   7.960 -0.0025 -0.0161  0.0333
    1AU       S  178  10.097   3.545   7.773 -0.1816  0.0889  0.3093
    1AU     LIG  179  10.320   3.316   8.037  0.1341 -0.0299 -0.0113
    1AU     LIG  180  10.703   3.213   8.227 -0.1566 -0.1584  0.1387
    1AU     LIG  181  11.123   3.426   8.289 -0.0090 -0.3718 -0.0864
    1AU     LIG  182  11.399   3.379   7.914  0.3306 -0.1640  0.0786
    1AU     LIG  183  11.611   3.328   7.597  0.2805 -0.5691 -0.0836
    1AU     LIG  184  11.880   3.610   7.546  0.0432 -0.0599  0.1483
    1AU       S  185  10.220   4.187   8.113  0.0308 -0.1634  0.0535
    1AU     LIG  186  10.234   3.775   8.360  0.1550  0.1449 -0.1719
    1AU     LIG  187   9.858   3.480   8.346 -0.1565 -0.2244 -0.0500
    1AU     LIG  188   9.479   3.331   8.466 -0.2196 -0.2312  0.0857
    1AU     LIG  189   9.134   3.318   8.174  0.2771  0.3115  0.3568
    1AU     LIG  190   8.826   2.959   8.275 -0.0973 -0.0688  0.0108
    1AU     LIG  191   8.470   2.794   8.058  0.2604 -0.0901 -0.0495
    1AU    AUSL  192   9.005   4.159   7.012 -0.0709 -0.0706 -0.0833
    1AU    AUSL  193   9.308   3.934   6.808  0.0085  0.0159  0.1304
    1AU     AUL  194   9.280   4.149   6.513 -0.1319  0.1340 -0.0101
    1AU       S  195   8.638   3.919   6.853  0.1223 -0.2552 -0.0026
    1AU     LIG  196   8.271   3.954   6.577  0.0581  0.2315  0.1217
    1AU     LIG  197   7.891   3.734   6.624  0.0577 -0.2298  0.3171
    1AU     LIG  198   7.515   3.457   6.762 -0.2378  0.0512 -0.3060
    1AU     LIG  199   7.163   3.408   6.935 -0.3229  0.0098  0.1073
    1AU     LIG  200   6.798   3.248   6.962  0.1056 -0.1675 -0.2817
    1AU     LIG  201   6.512   3.106   7.266  0.1445 -0.0489 -0.0386
    1AU       S  202   9.228   3.582   6.632  0.2045  0.0046 -0.5287
    1AU     LIG  203   8.700   3.420   6.681  0.1499  0.3280  0.4503
    1AU     LIG  204   8.393   3.511   6.778  0.3658 -0.0824  0.1316
    1AU     LIG  205   8.158   3.765   7.045  0.3603 -0.3671  0.1500
    1AU     LIG  206   7.787   3.920   7.089  0.3697  0.0451  0.0672
    1AU     LIG  207   7.260   3.958   7.182 -0.4621 -0.1124  0.2598
    1AU     LIG  208   6.983   4.103   6.927  0.3018 -0.2222  0.2879
    1AU    AUSL  209   8.974   4.406   6.868 -0.0408  0.0186 -0.0574
    1AU    AUSL  210   8.902   4.239   7.265  0.0550  0.0005  0.0177
    1AU     AUL  211   8.663   4.459   7.026  0.0492 -0.0106 -0.0376
    1AU       S  212   8.548   3.965   7.330 -0.0312 -0.3431  0.1305
    1AU     LIG  213   8.162   3.839   7.546  0.3104 -0.2797 -0.2379
    1AU     LIG  214   7.892   3.567   7.485  0.2553 -0.1111  0.0047
    1AU     LIG  215   7.915   3.257   7.175  0.0632 -0.2602 -0.0256
    1AU     LIG  216   7.702   2.959   6.969 -0.0466 -0.1563 -0.0061
    1AU     LIG  217   7.655   2.557   7.247  0.0947 -0.2432  0.1867
    1AU     LIG  218   7.254   2.560   7.410  0.3161 -0.5091 -0.1227
    1AU       S  219   8.708   4.130   6.600 -0.2317  0.1909  0.2047
    1AU     LIG  220   8.386   4.399   6.465 -0.3318  0.1625  0.0855
    1AU     LIG  221   7.965   4.555   6.204  0.0956  0.2507  0.0867
    1AU     LIG  222   7.940   4.997   6.247 -0.1224  0.3029  0.2039
    1AU     LIG  223   7.792   5.190   6.604  0.0008 -0.1204  0.0906
    1AU     LIG  224   7.431   5.068   6.790 -0.2744  0.0589 -0.1012
    1AU     LIG  225   7.094   4.854   6.717 -0.0853 -0.0117 -0.2623
    1AU    AUSL  226   9.585   5.153   7.056 -0.0213  0.0898 -0.0594
    1AU    AUSL  227   9.416   5.043   6.842  0.0192  0.0467  0.0082
    1AU     AUL  228   9.337   5.243   7.308 -0.0029  0.0180  0.0323
    1AU       S  229   9.218   5.342   6.543 -0.3674  0.3467 -0.0909
    1AU     LIG  230   9.207   5.761   6.502  0.0965  0.0296 -0.1114
    1AU     LIG  231   9.365   6.094   6.557 -0.4375  0.0644  0.1185
    1AU     LIG  232   9.590   6.470   6.783 -0.5670  0.2351  0.4913
    1AU     LIG  233   9.445   6.620   7.229  0.3595  0.1306  0.1736
    1AU     LIG  234   9.362   6.676   7.665  0.0968 -0.1421 -0.0581
    1AU     LIG  235   9.646   6.914   7.894 -0.0537 -0.1893  0.1476
    1AU       S  236   9.579   5.564   6.842  0.4909  0.0214  0.4153
    1AU     LIG  237   9.746   5.969   6.907  0.3417 -0.5318  0.0032
    1AU     LIG  238   9.870   6.265   7.210 -0.3995  0.0359  0.2975
    1AU     LIG  239  10.257   6.226   7.426 -0.1183 -0.2113  0.1434
    1AU     LIG  240  10.628   6.347   7.371 -0.1617 -0.2788 -0.0593
    1AU     LIG  241  11.117   6.645   7.270 -0.0222 -0.2375 -0.0029
    1AU     LIG  242  11.392   6.832   7.413  0.2087  0.0346 -0.2081
    1AU    AUSL  243   9.726   5.036   6.834 -0.0581 -0.0177  0.0595
    1AU    AUSL  244   9.980   4.882   6.877  0.0274  0.0502 -0.0267
    1AU     AUL  245   9.577   4.926   6.551  0.0653  0.0501 -0.0150
    1AU       S  246   9.855   5.420   6.640  0.1211 -0.0289  0.0475
    1AU     LIG  247   9.752   5.691   6.246  0.0399  0.3488 -0.2200
    1AU     LIG  248   9.689   6.095   6.107 -0.0536  0.1659 -0.0484
    1AU     LIG  249   9.864   6.471   6.190  0.0898 -0.1639  0.0310
    1AU     LIG  250   9.799   6.829   6.492  0.1637  0.1505 -0.3701
    1AU     LIG  251   9.675   6.961   6.916  0.2677  0.0563  0.4177
    1AU     LIG  252   9.702   7.019   7.377 -0.2263  0.0200  0.1221
    1AU       S  253  10.289   5.112   6.601  0.1126  0.0025 -0.4326
    1AU     LIG  254  10.435   5.532   6.719 -0.0441 -0.1341 -0.3018
    1AU     LIG  255  10.604   5.805   6.794  0.2794 -0.3711  0.4121
    1AU     LIG  256  10.775   5.913   7.113 -0.0077  0.2892  0.0388
    1AU     LIG  257  11.154   6.090   7.280 -0.0290 -0.2689 -0.1388
    1AU     LIG  258  11.465   6.342   7.153 -0.0090  0.0561 -0.1463
    1AU     LIG  259  11.837   6.626   7.164  0.1045 -0.0414 -0.0322
    1AU    AUSL  260   9.852   5.083   7.072 -0.0873 -0.0129  0.0348
    1AU    AUSL  261   9.700   5.158   7.316  0.0335 -0.0092 -0.0946
    1AU     AUL  262   9.588   5.136   7.444  0.0705  0.0858 -0.1407
    1AU       S  263  10.058   5.473   7.374 -0.0343 -0.0970 -0.2378
    1AU     LIG  264   9.786   5.853   7.507  0.1331 -0.0683 -0.1961
    1AU     LIG  265   9.398   6.188   7.527 -0.2817 -0.0737  0.1462
    1AU     LIG  266   9.086   6.145   7.861  0.0801  0.1319 -0.1704
    1AU     LIG  267   8.572   6.223   7.842  0.0203 -0.0002 -0.1945
    1AU     LIG  268   8.436   6.130   7.408  0.2376  0.1803  0.4743
    1AU     LIG  269   8.011   5.911   7.171  0.2970  0.1441 -0.2172
    1AU       S  270   9.949   5.502   6.911 -0.0563 -0.1129  0.5266
    1AU     LIG  271  10.213   5.860   7.060 -0.0362  0.3373  0.1001
    1AU     LIG  272  10.499   6.259   6.912 -0.2395 -0.0780 -0.0833
    1AU     LIG  273  10.679   6.657   6.948 -0.3611 -0.2270  0.1380
    1AU     LIG  274  11.073   6.944   6.865 -0.1547 -0.0861 -0.1674
    1AU     LIG  275  11.510   6.912   6.990 -0.2131  0.1747  0.0756
    1AU     LIG  276  11.824   7.027   6.808  0.0474 -0.1731  0.6373
    1AU    AUSL  277   9.058   4.394   7.723  0.0778 -0.0284  0.0425
    1AU    AUSL  278   9.491   4.340   7.910  0.0208 -0.0428  0.0783
    1AU     AUL  279   9.229   4.318   7.909 -0.0099  0.0311 -0.0465
    1AU       S  280   9.453   4.282   8.404 -0.3298 -0.3327  0.0278
    1AU     LIG  281   9.005   4.323   8.484 -0.4119  0.1169  0.1002
    1AU     LIG  282   8.748   3.960   8.694  0.0986 -0.1477  0.0112
    1AU     LIG  283   8.768   3.701   9.031 -0.1993  0.1725  0.2472
    1AU     LIG  284   9.113   3.399   8.995 -0.1061 -0.1914  0.2448
    1AU     LIG  285   9.157   3.046   8.661  0.2871 -0.2497 -0.1117
    1AU     LIG  286   9.240   2.640   8.582  0.1170  0.3935 -0.0677
    1AU       S  287   8.692   4.215   8.037 -0.9538 -0.3270 -0.3943
    1AU     LIG  288   8.281   4.191   8.006 -0.2114 -0.0709 -0.0674
    1AU     LIG  289   7.959   4.346   7.715 -0.0714 -0.1466  0.0047
    1AU     LIG  290   7.828   4.465   7.351  0.0539  0.3669  0.4089
    1AU     LIG  291   7.559   4.484   6.928 -0.3988 -0.1056  0.0676
    1AU     LIG  292   7.532   4.588   6.602 -0.2165 -0.1825  0.0862
    1AU     LIG  293   7.417   4.430   6.223 -0.1520 -0.1508  0.5017
    1AU    AUSL  294   9.029   4.188   7.532 -0.0035  0.0623  0.0199
    1AU    AUSL  295   8.927   4.450   7.481  0.0019  0.0491  0.0525
    1AU     AUL  296   8.860   4.596   7.396  0.0251  0.0469 -0.0209
    1AU       S  297   8.701   3.989   7.829 -0.6510  0.5534  0.1064
    1AU     LIG  298   8.777   3.563   7.795  0.0056  0.3746 -0.3401
    1AU     LIG  299   8.790   3.084   7.762 -0.3894  0.0359 -0.0494
    1AU     LIG  300   8.656   2.837   7.496 -0.1022 -0.0801 -0.1798
    1AU     LIG  301   8.464   2.579   7.154 -0.1546 -0.1827 -0.2255
    1AU     LIG  302   8.422   2.433   6.681 -0.3282 -0.1044 -0.5655
    1AU     LIG  303   8.438   2.037   6.548  0.2190  0.2138  0.1464
    1AU       S  304   8.449   4.290   7.531 -0.0007  0.0477  0.3367
    1AU     LIG  305   8.280   4.673   7.668 -0.3074 -0.2813  0.5282
    1AU     LIG  306   7.819   4.845   7.734 -0.0547  0.1948 -0.0299
    1AU     LIG  307   7.376   5.103   7.668 -0.0285  0.1056  0.2787
    1AU     LIG  308   7.200   5.583   7.759 -0.0970  0.3447 -0.1842
    1AU     LIG  309   7.151   5.938   8.047 -0.0247  0.3911 -0.3585
    1AU     LIG  310   6.975   6.010   8.369 -0.0614 -0.2173 -0.0538
    1AU    AUSL  311   9.398   4.070   7.811 -0.0354 -0.1175 -0.0694
    1AU    AUSL  312   9.269   3.836   7.351  0.0910  0.0462 -0.0161
    1AU     AUL  313   9.183   4.133   7.696 -0.0956 -0.0396 -0.0407
    1AU       S  314   9.160   3.418   7.475  0.0320  0.1960 -0.3359
    1AU     LIG  315   8.970   3.083   7.237  0.0917 -0.0844  0.2307
    1AU     LIG  316   8.675   3.013   6.975 -0.0591  0.0904 -0.0447
    1AU     LIG  317   8.275   3.000   6.919 -0.0838  0.2079 -0.4243
    1AU     LIG  318   8.009   2.642   6.805  0.0701 -0.2466  0.2302
    1AU     LIG  319   7.674   2.266   6.839  0.2293  0.2449 -0.3348
    1AU     LIG  320   7.468   2.096   7.154  0.1652  0.0294 -0.2346
    1AU       S  321   9.036   3.881   8.091  0.2047  0.1119 -0.5144
    1AU     LIG  322   8.611   3.733   8.246 -0.1005  0.4307  0.1249
    1AU     LIG  323   8.215   3.658   7.992  0.3314  0.0820  0.0996
    1AU     LIG  324   7.859   3.842   7.887  0.0239  0.2364 -0.4468
    1AU     LIG  325   7.679   4.023   7.597  0.2313  0.6432  0.1124
    1AU     LIG  326   7.355   4.385   7.540  0.0964  0.2784 -0.4884
    1AU     LIG  327   6.895   4.264   7.443 -0.1186  0.2426 -0.3484
    1AU    AUSL  328   9.984   4.617   6.687 -0.0251  0.0658 -0.0643
    1AU    AUSL  329  10.240   4.651   7.250  0.0632 -0.0043  0.0406
    1AU     AUL  330  10.231   4.577   6.830  0.0538  0.0646  0.0146
    1AU       S  331  10.287   4.819   6.438 -0.0909 -0.2728  0.4011
    1AU     LIG  332  10.709   4.823   6.497 -0.2068  0.0680 -0.4694
    1AU     LIG  333  11.074   4.885   6.817 -0.1066 -0.1692  0.0488
    1AU     LIG  334  11.474   4.678   6.928 -0.2310 -0.1355 -0.2682
    1AU     LIG  335  11.867   4.738   6.805 -0.0650 -0.0533  0.3143
    1AU     LIG  336  12.183   4.432   6.931 -0.2707  0.2126  0.3915
    1AU     LIG  337  12.367   4.057   6.843 -0.2068 -0.6922 -0.0437
    1AU       S  338  10.667   4.651   7.266 -0.1469  0.0724  0.2863
    1AU     LIG  339  11.025   4.783   7.360  0.0763 -0.3046  0.4603
    1AU     LIG  340  11.324   5.044   7.272  0.4096 -0.0807  0.1458
    1AU     LIG  341  11.584   5.412   7.389 -0.0581  0.3013  0.0938
    1AU     LIG  342  11.867   5.721   7.270  0.2300  0.0429  0.1147
    1AU     LIG  343  12.019   6.118   6.975  0.2633  0.1731  0.1279
    1AU     LIG  344  12.113   6.373   6.655  0.2696 -0.0200  0.0471
    1AU    AUSL  345   9.822   4.844   6.647 -0.0635 -0.0426 -0.0438
    1AU    AUSL  346   9.861   4.355   6.577  0.0645  0.1040 -0.0650
    1AU     AUL  347   9.532   4.637   6.511  0.1110 -0.0274 -0.1170
    1AU       S  348  10.086   5.032   6.399  0.4277 -0.2001  0.1065
    1AU     LIG  349  10.206   5.436   6.265  0.1221  0.3665  0.2982
    1AU     LIG  350  10.176   5.911   6.452  0.2496  0.2111 -0.0407
    1AU     LIG  351  10.082   6.298   6.637  0.2752 -0.0299 -0.0172
    1AU     LIG  352  10.124   6.629   6.937  0.1693 -0.3783 -0.0987
    1AU     LIG  353  10.258   7.003   7.121 -0.1239  0.0939  0.0934
    1AU     LIG  354  10.724   7.089   7.206 -0.2467 -0.0128 -0.0175
    1AU       S  355  10.103   4.382   6.188 -0.0992 -0.3014  0.2756
    1AU     LIG  356  10.497   4.219   6.243 -0.0387  0.0636 -0.0424
    1AU     LIG  357  10.942   4.183   6.348  0.4271 -0.2419  0.0211
    1AU     LIG  358  11.239   3.828   6.441 -0.2060 -0.1652  0.1335
    1AU     LIG  359  11.713   3.627   6.597  0.2484 -0.0114 -0.0745
    1AU     LIG  360  12.037   3.350   6.592  0.2483  0.2037  0.2021
    1AU     LIG  361  12.501   3.180   6.414 -0.2625 -0.1235  0.0812
    1AU    AUSL  362   9.542   3.793   7.356  0.0771 -0.0207 -0.1282
    1AU    AUSL  363   9.219   3.889   7.075  0.0278  0.0267 -0.0854
    1AU     AUL  364   9.143   3.938   7.492  0.0192  0.0495  0.0440
    1AU       S  365   9.082   3.468   6.960  0.1240  0.2389  0.2248
    1AU     LIG  366   8.647   3.482   7.281 -0.2878 -0.0848 -0.0673
    1AU     LIG  367   8.319   3.307   7.502  0.0531  0.3293 -0.1183
    1AU     LIG  368   8.063   3.158   7.860  0.1304  0.1447  0.3273
    1AU     LIG  369   7.771   3.089   8.138 -0.3925  0.2910 -0.0114
    1AU     LIG  370   7.788   2.714   8.396 -0.0829 -0.0096 -0.0599
    1AU     LIG  371   7.663   2.374   8.570  0.0940 -0.0746  0.0281
    1AU       S  372   9.403   3.406   7.410 -0.6011 -0.1168  0.2062
    1AU     LIG  373   9.347   2.962   7.579  0.1220  0.0355 -0.0197
    1AU     LIG  374   9.148   2.545   7.601  0.0071  0.0797 -0.0976
    1AU     LIG  375   9.195   2.171   7.422 -0.0961 -0.2729  0.2139
    1AU     LIG  376   9.170   1.800   7.108 -0.3484 -0.0209  0.3324
    1AU     LIG  377   9.074   1.316   7.176  0.1828 -0.0534  0.0088
    1AU     LIG  378   9.166   0.993   6.964  0.1396  0.0391  0.0786
    1AU    AUSL  379   9.405   3.901   7.586 -0.0388 -0.0019  0.1596
    1AU    AUSL  380   9.815   3.821   7.446  0.0834 -0.0392  0.0353
    1AU     AUL  381   9.610   3.872   7.756 -0.0401 -0.0179  0.0321
    1AU       S  382   9.883   3.466   7.578 -0.0532 -0.1915  0.6288
    1AU     LIG  383   9.820   3.008   7.488  0.3776  0.2646 -0.1252
    1AU     LIG  384   9.868   2.636   7.276  0.1989  0.2154 -0.0023
    1AU     LIG  385   9.686   2.138   7.279  0.2580 -0.0907 -0.1840
    1AU     LIG  386   9.687   1.810   7.089  0.0292 -0.1414 -0.1609
    1AU     LIG  387   9.735   1.783   6.740 -0.3490  0.2272  0.3109
    1AU     LIG  388  10.127   1.901   6.548 -0.0871 -0.4913 -0.0377
    1AU       S  389   9.246   3.479   7.668 -0.2240 -0.0804 -0.8154
    1AU     LIG  390   9.590   3.299   7.946 -0.1053 -0.0512  0.1765
    1AU     LIG  391   9.853   3.025   7.999 -0.0439 -0.0772  0.1831
    1AU     LIG  392  10.079   2.770   7.830 -0.1440 -0.2053  0.1254
    1AU     LIG  393  10.341   2.541   7.674  0.0059  0.4598  0.0328
    1AU     LIG  394  10.669   2.495   7.532  0.0084  0.1967  0.2059
    1AU     LIG  395  11.133   2.313   7.459 -0.0090 -0.1382 -0.3202
    1AU    AUSL  396   9.460   4.847   7.814 -0.0223 -0.1111  0.0335
    1AU    AUSL  397   9.345   4.575   7.854 -0.0563 -0.0381  0.1453
    1AU     AUL  398   9.126   4.633   7.903  0.1257  0.0716  0.0726
    1AU       S  399   9.414   4.647   8.319  0.1747 -0.1445 -0.1105
    1AU     LIG  400   8.983   4.821   8.487  0.0105 -0.1886  0.2582
    1AU     LIG  401   8.500   4.769   8.201  0.1908  0.1030 -0.0306
    1AU     LIG  402   8.234   5.143   8.035  0.0466 -0.2409  0.1388
    1AU     LIG  403   7.836   5.334   7.777 -0.1559  0.0753 -0.0622
    1AU     LIG  404   7.646   5.563   7.506 -0.2167  0.0184 -0.2435
    1AU     LIG  405   7.273   5.383   7.220  0.3407  0.5120  0.0712
    1AU       S  406   9.312   5.119   8.149  0.1905 -0.2206  0.0532
    1AU     LIG  407   9.516   5.571   8.186  0.1196 -0.0402 -0.0582
    1AU     LIG  408   9.600   6.033   8.041  0.0531  0.2571 -0.1988
    1AU     LIG  409   9.810   6.370   7.768 -0.2137 -0.0430 -0.2509
    1AU     LIG  410   9.994   6.660   7.458 -0.1806 -0.1425 -0.1952
    1AU     LIG  411  10.385   6.863   7.546  0.0668 -0.1896 -0.5063
    1AU     LIG  412  10.794   6.824   7.758  0.0097  0.2786 -0.0258
    1AU    AUSL  413   9.210   4.821   7.695  0.0645  0.0094 -0.0121
    1AU    AUSL  414   9.152   5.025   7.376  0.0670  0.0117 -0.0774
    1AU     AUL  415   8.918   4.674   7.688  0.0432  0.0074 -0.0100
    1AU       S  416   9.055   5.161   8.034  0.1513  0.2244 -0.1097
    1AU     LIG  417   8.653   5.356   7.922  0.2839 -0.1223 -0.2207
    1AU     LIG  418   8.718   5.732   7.869  0.2237 -0.6250  0.0710
    1AU     LIG  419   8.900   5.937   7.481  0.1572  0.0645  0.2579
    1AU     LIG  420   8.841   6.351   7.468 -0.2026 -0.0736 -0.0452
    1AU     LIG  421   8.992   6.828   7.365  0.0521  0.1280  0.2956
    1AU     LIG  422   8.972   7.091   7.033  0.1461  0.1390  0.1462
    1AU       S  423   8.836   5.381   7.405 -0.1136  0.0431 -0.5344
    1AU     LIG  424   8.409   5.600   7.423  0.1314 -0.1417 -0.3246
    1AU     LIG  425   8.125   5.881   7.664 -0.1526  0.2192  0.2191
    1AU     LIG  426   7.778   6.025   7.570 -0.0135 -0.1780  0.3347
    1AU     LIG  427   7.664   6.390   7.404 -0.4035  0.1893 -0.0274
    1AU     LIG  428   7.432   6.581   7.128  0.0020  0.1995 -0.1054
    1AU     LIG  429   7.126   6.776   6.882 -0.0199 -0.0331  0.2624
    1AU    AUSL  430   9.367   5.017   7.567 -0.0976  0.0091  0.0491
    1AU    AUSL  431   9.829   4.990   7.536 -0.0040  0.0257  0.0317
    1AU     AUL  432   9.692   5.038   7.715  0.1087 -0.0645  0.0110
    1AU       S  433  10.237   5.380   7.470 -0.1783  0.0360  0.2674
    1AU     LIG  434  10.511   5.737   7.522  0.0718 -0.0547 -0.0208
    1AU     LIG  435  11.028   5.747   7.622  0.0637 -0.0677 -0.5077
    1AU     LIG  436  11.129   5.830   8.050 -0.1880  0.0602  0.3116
    1AU     LIG  437  11.345   5.607   8.264  0.1892 -0.1671  0.3982
    1AU     LIG  438  11.633   5.679   8.579 -0.0714 -0.1283 -0.2498
    1AU     LIG  439  11.970   5.594   8.786  0.0385 -0.3032  0.1017
    1AU       S  440   9.221   5.366   7.829  0.4874 -0.0167  0.0798
    1AU     LIG  441   9.324   5.712   7.703  0.1538  0.0931 -0.1066
    1AU     LIG  442   9.334   5.851   7.171 -0.5561 -0.2211 -0.1045
    1AU     LIG  443   9.196   6.213   7.017 -0.1034  0.0238 -0.1916
    1AU     LIG  444   8.911   6.426   6.997 -0.4060 -0.1720  0.1593
    1AU     LIG  445   8.573   6.695   7.136 -0.2599  0.2803 -0.3053
    1AU     LIG  446   8.539   6.759   7.649 -0.1092 -0.5875  0.0682
    1AU    AUSL  447  10.201   4.130   7.231  0.0476 -0.0709  0.0240
    1AU    AUSL  448  10.225   4.410   7.059  0.0310 -0.0756 -0.0088
    1AU     AUL  449  10.269   4.289   6.898  0.0201 -0.0075 -0.0191
    1AU       S  450  10.497   3.814   7.231 -0.1398 -0.3106  0.0187
    1AU     LIG  451  10.884   3.712   7.368 -0.2150 -0.1000  0.0931
    1AU     LIG  452  11.043   3.322   7.223  0.0981  0.1975 -0.1019
    1AU     LIG  453  11.490   3.056   7.150 -0.0890 -0.1979  0.5472
    1AU     LIG  454  11.828   2.749   7.068 -0.3702  0.1939  0.0899
    1AU     LIG  455  11.995   2.534   7.360  0.1544  0.1336 -0.1785
    1AU     LIG  456  12.283   2.318   7.664  0.1675  0.2078 -0.1689
    1AU       S  457  10.739   4.494   7.004  0.0712 -0.4263  0.1617
    1AU     LIG  458  11.132   4.282   6.851  0.1348 -0.1232  0.1894
    1AU     LIG  459  11.555   4.091   6.805 -0.1378  0.3749  0.1975
    1AU     LIG  460  11.869   3.976   6.943  0.1923  0.0984 -0.0668
    1AU     LIG  461  12.127   4.068   7.323 -0.0223  0.1711  0.1483
    1AU     LIG  462  12.367   4.402   7.459 -0.0212 -0.0028 -0.0047
    1AU     LIG  463  12.606   4.756   7.645 -0.0915  0.0599  0.2372
    1AU    AUSL  464   9.990   3.882   7.137 -0.0459  0.0602  0.0161
    1AU    AUSL  465  10.040   3.994   7.417 -0.0302 -0.0429  0.0327
    1AU     AUL  466  10.114   4.071   7.547 -0.0277  0.0666 -0.0193
    1AU       S  467  10.287   3.610   7.085 -0.5067 -0.0343 -0.5416
    1AU     LIG  468  10.636   3.294   6.912 -0.1433  0.1435 -0.0364
    1AU     LIG  469  10.879   2.910   6.945 -0.1873  0.0638  0.0816
    1AU     LIG  470  10.956   2.454   7.029 -0.1844 -0.5859  0.0873
    1AU     LIG  471  11.051   2.009   7.051 -0.0758  0.2385  0.1833
    1AU     LIG  472  11.186   1.753   7.493  0.3046  0.1436 -0.0213
    1AU     LIG  473  11.299   2.009   7.924  0.1000 -0.0552  0.0459
    1AU       S  474  10.115   3.546   7.552 -0.1950 -0.2954 -0.1398
    1AU     LIG  475  10.526   3.282   7.402 -0.0300 -0.3443 -0.1200
    1AU     LIG  476  10.633   2.924   7.382 -0.1203 -0.2278  0.2843
    1AU     LIG  477  11.084   2.794   7.398 -0.1923  0.0954 -0.3045
    1AU     LIG  478  11.485   2.691   7.546 -0.0876 -0.1834 -0.2088
    1AU     LIG  479  11.865   2.794   7.781  0.1425  0.3716  0.2197
    1AU     LIG  480  11.952   3.242   7.992  0.2555  0.0352 -0.1284
    1AU    AUSL  481  10.068   4.101   6.974  0.0111 -0.1397 -0.0939
    1AU    AUSL  482   9.804   3.893   6.915  0.0104  0.0166  0.0499
    1AU     AUL  483  10.115   4.096   6.714 -0.0297  0.0440 -0.0817
    1AU       S  484   9.865   3.479   6.820 -0.1189  0.0793 -0.0285
    1AU     LIG  485  10.159   3.091   7.060 -0.1623 -0.0882  0.1925
    1AU     LIG  486  10.295   2.687   6.996  0.3165  0.1640  0.2516
    1AU     LIG  487  10.223   2.253   7.219 -0.1632 -0.0673 -0.1010
    1AU     LIG  488  10.235   1.739   7.103 -0.1221  0.1267 -0.2050
    1AU     LIG  489   9.938   1.347   7.044 -0.0474  0.4064  0.1015
    1AU     LIG  490   9.645   0.944   7.184 -0.4764  0.2020 -0.1533
    1AU       S  491  10.410   3.754   6.919 -0.1238 -0.0819  0.1235
    1AU     LIG  492  10.782   3.952   6.791  0.0044 -0.1007 -0.2117
    1AU     LIG  493  11.144   3.742   6.957 -0.3747 -0.0397  0.2662
    1AU     LIG  494  11.593   3.585   7.093 -0.0946  0.3123 -0.2513
    1AU     LIG  495  11.926   3.274   7.048  0.0062 -0.2336 -0.2921
    1AU     LIG  496  12.245   3.021   7.117  0.0756 -0.2328 -0.1425
    1AU     LIG  497  12.620   2.715   7.286  0.0976 -0.1548 -0.1402
    1AU    AUSL  498   9.039   4.906   7.136 -0.0237 -0.0688 -0.0491
    1AU    AUSL  499   9.242   5.093   7.081 -0.0848  0.0306  0.0819
    1AU     AUL  500   8.930   4.797   7.182 -0.0740  0.0846  0.1649
    1AU       S  501   8.716   5.293   7.163 -0.1622  0.3401 -0.2540
    1AU     LIG  502   8.441   5.260   6.866 -0.2469  0.4516 -0.0719
    1AU     LIG  503   8.221   5.545   6.569 -0.2185  0.0666  0.2076
    1AU     LIG  504   7.879   5.908   6.672 -0.2358 -0.1314 -0.1421
    1AU     LIG  505   7.670   6.336   6.756  0.1850  0.2682  0.1147
    1AU     LIG  506   7.706   6.727   6.808 -0.3357 -0.4537 -0.1648
    1AU     LIG  507   7.926   7.195   6.780  0.2059  0.1500 -0.1165
    1AU       S  508   9.094   5.407   6.804  0.1323 -0.0395 -0.0353
    1AU     LIG  509   8.903   5.775   6.913 -0.2443 -0.0674 -0.1253
    1AU     LIG  510   8.524   5.839   6.948  0.0236 -0.1616  0.0405
    1AU     LIG  511   8.296   6.202   6.892 -0.0738 -0.0518  0.3926
    1AU     LIG  512   8.076   6.451   7.039  0.0699 -0.0991 -0.1813
    1AU     LIG  513   8.129   6.901   7.130  0.2271 -0.0552  0.2858
    1AU     LIG  514   8.044   7.364   7.228  0.1617 -0.1651  0.0235
    1AU    AUSL  515   9.024   4.795   7.469 -0.0350 -0.0814  0.0540
    1AU    AUSL  516   8.909   4.488   7.143  0.0358 -0.0304  0.0949
    1AU     AUL  517   8.673   4.704   7.215 -0.0300 -0.0506 -0.0040
    1AU       S  518   8.771   5.162   7.529  0.4984  0.2688 -0.1120
    1AU     LIG  519   8.244   5.104   7.333  0.2228  0.0640 -0.0859
    1AU     LIG  520   8.017   5.423   7.068 -0.4850  0.0322 -0.1560
    1AU     LIG  521   7.698   5.532   6.999 -0.0190 -0.1813 -0.0324
    1AU     LIG  522   7.428   5.580   6.619 -0.2231 -0.1599  0.3350
    1AU     LIG  523   7.138   5.550   6.291  0.0158 -0.2407  0.3130
    1AU     LIG  524   6.790   5.613   5.987 -0.0503  0.0956  0.0164
    1AU       S  525   8.382   4.210   7.374 -0.1224  0.3309  0.1449
    1AU     LIG  526   8.115   4.248   7.014 -0.0125 -0.1131  0.4254
    1AU     LIG  527   7.907   4.250   6.583  0.1386 -0.4035  0.0504
    1AU     LIG  528   7.696   4.033   6.252 -0.1711  0.1293 -0.0172
    1AU     LIG  529   7.492   4.099   5.780 -0.1907 -0.1626  0.1615
    1AU     LIG  530   7.223   4.077   5.494  0.0334  0.1423 -0.4023
    1AU     LIG  531   7.014   4.339   5.213  0.1140  0.5626 -0.2494
    1AU    AUSL  532   9.591   3.969   6.766 -0.0137 -0.0252  0.0119
    1AU    AUSL  533   9.513   3.823   7.000  0.0161  0.0887 -0.0283
    1AU     AUL  534   9.541   4.079   6.627 -0.0609  0.0700 -0.0568
    1AU       S  535   9.359   3.429   6.906  0.0695 -0.1072 -0.2769
    1AU     LIG  536   9.533   3.063   7.070 -0.0545 -0.1684  0.0497
    1AU     LIG  537   9.359   2.761   7.144 -0.4814  0.6130 -0.0281
    1AU     LIG  538   8.955   2.568   7.106  0.5393 -0.0062  0.2593
    1AU     LIG  539   8.742   2.154   7.063  0.4263  0.0799  0.5065
    1AU     LIG  540   8.597   1.786   7.035 -0.0605  0.1978  0.3333
    1AU     LIG  541   8.576   1.398   7.203 -0.0300 -0.1795  0.6731
    1AU       S  542   9.754   3.533   6.592 -0.0079 -0.2639  0.0884
    1AU     LIG  543   9.639   3.123   6.594  0.2568 -0.3277 -0.0859
    1AU     LIG  544   9.188   2.970   6.691  0.3147 -0.2578  0.1825
    1AU     LIG  545   9.038   2.653   6.656 -0.0379 -0.1051  0.0795
    1AU     LIG  546   8.896   2.260   6.641 -0.0189 -0.3230 -0.1388
    1AU     LIG  547   8.856   2.025   6.236  0.1862  0.0227  0.3582
    1AU     LIG  548   9.117   2.092   5.900  0.3404 -0.1837 -0.4735
    1AU    AUSL  549   9.832   4.094   6.725  0.0878  0.0858 -0.0275
    1AU    AUSL  550   9.591   4.349   6.506  0.0693 -0.0897  0.0081
    1AU     AUL  551   9.692   4.044   6.385 -0.0791 -0.0353 -0.0019
    1AU       S  552   9.973   3.629   6.616  0.2301  0.3620  0.3520
    1AU     LIG  553  10.211   3.264   6.524  0.2676 -0.0011  0.1898
    1AU     LIG  554  10.531   2.951   6.526  0.0346  0.0197  0.0092
    1AU     LIG  555  10.688   2.585   6.649  0.3073 -0.0199  0.0820
    1AU     LIG  556  10.455   2.228   6.794 -0.0988  0.2073 -0.2878
    1AU     LIG  557   9.910   2.286   6.838 -0.3833 -0.0426 -0.0721
    1AU     LIG  558   9.438   2.322   6.842  0.0639 -0.1579 -0.2419
    1AU       S  559   9.874   4.328   6.016 -0.2698 -0.2596  0.0913
    1AU     LIG  560   9.954   4.007   5.836  0.3160  0.3821  0.3758
    1AU     LIG  561  10.293   3.769   5.856 -0.0847  0.0232  0.3624
    1AU     LIG  562  10.766   3.853   5.998  0.1297  0.2875  0.0827
    1AU     LIG  563  11.130   3.950   5.899  0.1597  0.2323  0.1035
    1AU     LIG  564  11.631   3.877   6.064  0.3257  0.0618 -0.2284
    1AU     LIG  565  12.055   3.797   6.272  0.2310 -0.1119 -0.1404
    2POPC   NC3  566   6.053   9.815   8.601  0.0515  0.2915 -0.0036
    2POPC   PO4  567   5.872   9.462   8.962 -0.3366  0.1727 -0.0179
    2POPC   GL1  568   5.626   9.592   8.478 -0.0635  0.1984 -0.0395
    2POPC   GL2  569   5.783   9.513   8.192  0.1795 -0.2499  0.0215
    2POPC   C1A  570   5.545   9.965   8.208 -0.1219  0.0587 -0.0930
    2POPC   D2A  571   5.680  10.203   8.037  0.2539 -0.0878  0.0643
    2POPC   C3A  572   5.692  10.115   7.568  0.0321 -0.1780  0.1465
    2POPC   C4A  573   5.875  10.317   7.210  0.0022  0.1761  0.1562
    2POPC   C1B  574   5.353   9.618   7.925 -0.2084  0.0600 -0.1386
    2POPC   C2B  575   5.360   9.761   7.581  0.0568  0.1974  0.3052
    2POPC   C3B  576   5.466   9.966   7.141 -0.2262  0.0035 -0.1600
    2POPC   C4B  577   5.608  10.101   6.822  0.1653  0.1737  0.2272
    3POPC   NC3  578   1.636   8.656   9.501  0.0806 -0.2335 -0.4118
    3POPC   PO4  579   1.890   8.786   9.186  0.2000  0.1865 -0.0390
    3POPC   GL1  580   1.869   8.371   8.931  0.0302 -0.3100 -0.0199
    3POPC   GL2  581   1.793   8.078   8.829 -0.2371 -0.0448  0.0514
    3POPC   C1A  582   1.584   8.446   8.481 -0.0120  0.0124 -0.0017
    3POPC   D2A  583   1.345   8.299   8.225  0.2714 -0.0921 -0.0466
    3POPC   C3A  584   1.303   7.818   8.087 -0.0102  0.0584  0.1351
    3POPC   C4A  585   1.562   7.564   7.938 -0.1869  0.0764  0.0207
    3POPC   C1B  586   1.689   7.939   8.419 -0.1686  0.1773  0.1237
    3POPC   C2B  587   1.790   7.957   8.094 -0.2211  0.2824  0.2004
    3POPC   C3B  588   1.678   8.034   7.770  0.0441 -0.0184  0.1237
    3POPC   C4B  589   1.536   8.264   7.387 -0.0873 -0.2144  0.1703
    4POPC   NC3  590   1.779   4.777   9.760  0.0967  0.0433  0.0202
    4POPC   PO4  591   1.286   4.692   9.963  0.0716  0.0757  0.1245
    4POPC   GL1  592   1.264   4.963   9.649  0.2952  0.1214  0.0164
    4POPC   GL2  593   1.575   5.250   9.666 -0.2134 -0.0030  0.3440
    4POPC   C1A  594   1.276   4.949   9.223 -0.1104  0.4637 -0.3086
    4POPC   D2A  595   1.333   5.198   8.909  0.0223  0.3567 -0.0856
    4POPC   C3A  596   1.403   5.210   8.514  0.0007  0.1388  0.4783
    4POPC   C4A  597   1.649   5.059   8.208 -0.1825  0.1482 -0.3382
    4POPC   C1B  598   1.806   5.210   9.241 -0.0313 -0.0951 -0.0755
    4POPC   C2B  599   1.809   5.117   8.781  0.2403  0.0720 -0.0101
    4POPC   C3B  600   1.939   4.746   8.443  0.2328  0.1482 -0.1406
    4POPC   C4B  601   1.766   4.673   7.993 -0.2668 -0.0381 -0.1120
    5POPC   NC3  602   4.558   3.298   8.487  0.1802 -0.0264  0.1164
    5POPC   PO4  603   4.873   2.938   8.631 -0.1148  0.1429 -0.1914
    5POPC   GL1  604   5.103   3.166   8.352 -0.0952  0.1025  0.0964
    5POPC   GL2  605   5.034   3.521   8.272 -0.0137  0.0605  0.0202
    5POPC   C1A  606   5.011   3.161   7.879 -0.1028 -0.0750  0.1138
    5POPC   D2A  607   5.001   2.847   7.485 -0.0843  0.1946  0.1312
    5POPC   C3A  608   4.916   2.962   7.079  0.1577  0.0526  0.1409
    5POPC   C4A  609   4.751   2.705   6.829  0.1073 -0.0534 -0.0244
    5POPC   C1B  610   5.099   3.922   8.058 -0.1610 -0.2752  0.2275
    5POPC   C2B  611   5.309   4.252   7.786  0.0761  0.1174 -0.2310
    5POPC   C3B  612   5.333   4.357   7.328  0.0595 -0.2044  0.0278
    5POPC   C4B  613   5.298   4.275   6.973  0.4195  0.1731  0.1314
    6POPC   NC3  614   0.617   2.174   9.144 -0.1393  0.2971 -0.4996
    6POPC   PO4  615   0.601   1.810   9.368 -0.0660 -0.0641 -0.2844
    6POPC   GL1  616   0.512   1.677   8.942 -0.0390  0.2762  0.1874
    6POPC   GL2  617   0.606   1.310   8.890 -0.0567  0.1318 -0.2535
    6POPC   C1A  618   0.741   1.913   8.597 -0.1978  0.2570  0.1522
    6POPC   D2A  619   0.570   2.036   8.188 -0.2965  0.1117  0.1157
    6POPC   C3A  620   0.655   1.991   7.724  0.2212  0.1123 -0.0256
    6POPC   C4A  621   0.444   1.992   7.367 -0.0388 -0.2982 -0.3804
    6POPC   C1B  622   0.539   1.421   8.493 -0.0447 -0.3608  0.0615
    6POPC   C2B  623   0.508   1.612   8.040 -0.3469  0.1615  0.2709
    6POPC   C3B  624   0.480   1.535   7.525 -0.0620  0.3145 -0.1301
    6POPC   C4B  625   0.674   1.576   7.197 -0.0823  0.1631 -0.0454
    7POPC   NC3  626   5.157   3.409   8.801 -0.1844  0.1207  0.0512
    7POPC   PO4  627   5.219   3.812   8.681 -0.3949 -0.0298 -0.0908
    7POPC   GL1  628   5.538   3.995   8.383  0.1475 -0.5012  0.1496
    7POPC   GL2  629   5.775   4.035   8.494  0.0668 -0.1454 -0.1903
    7POPC   C1A  630   5.634   3.881   7.964 -0.0921  0.0795 -0.0762
    7POPC   D2A  631   5.903   3.508   7.704 -0.1609 -0.1166 -0.2860
    7POPC   C3A  632   5.897   3.593   7.267  0.0913  0.2583 -0.3812
    7POPC   C4A  633   6.067   4.048   7.240 -0.1445 -0.1758 -0.0477
    7POPC   C1B  634   6.014   4.159   8.143  0.1042 -0.1444 -0.0390
    7POPC   C2B  635   6.152   3.978   7.767 -0.1050  0.1806  0.1481
    7POPC   C3B  636   6.562   3.939   7.611 -0.0573 -0.0064 -0.1125
    7POPC   C4B  637   6.580   3.912   7.206  0.3694  0.1796  0.1347
    8POPC   NC3  638   9.302   6.717  10.145 -0.2187  0.2390 -0.2748
    8POPC   PO4  639   9.198   7.099   9.930  0.1767 -0.1601 -0.0264
    8POPC   GL1  640   9.490   6.946   9.617 -0.0730 -0.1220  0.2061
    8POPC   GL2  641   9.512   6.687   9.698  0.0888  0.1002 -0.2775
    8POPC   C1A  642   9.661   6.649   9.201 -0.0047 -0.2236 -0.2127
    8POPC   D2A  643   9.962   6.349   8.986 -0.4018 -0.0784  0.0733
    8POPC   C3A  644  10.217   6.575   8.669  0.0041 -0.0973 -0.0563
    8POPC   C4A  645  10.150   7.024   8.642  0.1468  0.2901  0.3776
    8POPC   C1B  646   9.306   6.406   9.486  0.1317  0.1726  0.0512
    8POPC   C2B  647   9.405   6.183   9.179  0.1814 -0.1561 -0.3559
    8POPC   C3B  648   9.555   6.248   8.770  0.1010  0.2305  0.3334
    8POPC   C4B  649   9.741   6.665   8.608 -0.2637 -0.0975  0.0471
    9POPC   NC3  650   5.333   9.393   8.885 -0.0530  0.2558 -0.1494
    9POPC   PO4  651   4.944   9.221   8.750 -0.1689  0.0555  0.2727
    9POPC   GL1  652   4.971   9.621   8.509 -0.1580  0.2058  0.1549
    9POPC   GL2  653   5.112   9.863   8.628  0.0926  0.0980  0.0966
    9POPC   C1A  654   4.885   9.693   8.065 -0.0174  0.0307  0.3421
    9POPC   D2A  655   4.847   9.896   7.675 -0.2614  0.3985 -0.1425
    9POPC   C3A  656   4.952   9.797   7.274  0.0786  0.0169  0.0638
    9POPC   C4A  657   4.676   9.682   6.910 -0.1362  0.0491 -0.2331
    9POPC   C1B  658   5.073  10.093   8.201 -0.2483 -0.0690  0.2773
    9POPC   C2B  659   5.241  10.210   7.760 -0.2122  0.1119  0.3346
    9POPC   C3B  660   5.503  10.526   7.706 -0.2598 -0.0664  0.0848
    9POPC   C4B  661   5.524  10.782   7.384  0.1546  0.1984 -0.0804
   10POPC   NC3  662   6.515   3.103   9.945  0.1191  0.1737  0.1862
   10POPC   PO4  663   6.774   3.194   9.621 -0.1704 -0.2193 -0.2399
   10POPC   GL1  664   6.970   3.342   9.272 -0.0383  0.3497  0.0067
   10POPC   GL2  665   7.215   3.600   9.222 -0.1252 -0.1745  0.1066
   10POPC   C1A  666   7.205   3.106   8.952  0.1819 -0.0276 -0.0679
   10POPC   D2A  667   7.433   3.001   8.666  0.1336 -0.0495  0.1913
   10POPC   C3A  668   7.249   2.713   8.424  0.0335 -0.2007 -0.3849
   10POPC   C4A  669   7.097   2.985   8.079  0.1389  0.1638  0.1391
   10POPC   C1B  670   7.288   3.568   8.741 -0.3684  0.1733  0.1457
   10POPC   C2B  671   7.459   3.389   8.383  0.0754 -0.4751  0.2213
   10POPC   C3B  672   7.471   3.404   7.912 -0.0530  0.1639 -0.0413
   10POPC   C4B  673   7.320   3.488   7.454  0.1206 -0.2135 -0.1757
   11POPC   NC3  674   3.791   3.347   8.821 -0.3043  0.3172 -0.2625
   11POPC   PO4  675   3.932   3.646   8.460  0.0391  0.0320 -0.1187
   11POPC   GL1  676   4.011   3.611   8.025 -0.2507 -0.1680 -0.1162
   11POPC   GL2  677   4.030   3.920   7.961 -0.2581 -0.0620  0.0115
   11POPC   C1A  678   4.131   3.327   7.819 -0.3084 -0.1340 -0.1925
   11POPC   D2A  679   4.422   3.262   7.444 -0.1150  0.1337  0.1584
   11POPC   C3A  680   4.587   3.701   7.164  0.1861 -0.2086 -0.1757
   11POPC   C4A  681   4.361   4.064   7.052 -0.1797 -0.1260 -0.1066
   11POPC   C1B  682   4.233   4.209   7.746 -0.1442  0.1368 -0.2888
   11POPC   C2B  683   4.478   4.245   7.492  0.0369 -0.1379 -0.2046
   11POPC   C3B  684   4.792   4.342   7.169  0.2999  0.1044 -0.2768
   11POPC   C4B  685   4.820   4.357   6.787 -0.0082 -0.0597 -0.5778
   12POPC   NC3  686   4.907   8.371   8.350  0.0850  0.2809  0.0052
   12POPC   PO4  687   4.523   8.202   8.613 -0.0452  0.0022 -0.0171
   12POPC   GL1  688   4.381   8.255   8.193  0.0853  0.1104  0.0898
   12POPC   GL2  689   4.548   8.457   7.987  0.2149 -0.1075  0.0211
   12POPC   C1A  690   4.017   8.253   7.979  0.0047 -0.0091  0.1305
   12POPC   D2A  691   3.655   8.409   7.736 -0.1452  0.0032  0.1922
   12POPC   C3A  692   3.412   8.589   8.092 -0.2464  0.0178 -0.0274
   12POPC   C4A  693   3.181   8.314   8.307 -0.0435  0.1876  0.3443
   12POPC   C1B  694   4.911   8.739   7.878  0.0261 -0.0329 -0.4256
   12POPC   C2B  695   5.203   9.038   7.599  0.0459  0.0612 -0.2028
   12POPC   C3B  696   5.301   9.294   7.323  0.0098  0.0674 -0.1095
   12POPC   C4B  697   5.436   9.164   6.963 -0.0247 -0.0520 -0.0069
   13POPC   NC3  698   8.403   4.783  10.803  0.3763 -0.2814 -0.2526
   13POPC   PO4  699   8.284   5.116  10.559  0.1187 -0.1498  0.0090
   13POPC   GL1  700   8.584   4.982  10.305 -0.2359 -0.0151  0.3256
   13POPC   GL2  701   8.504   4.666  10.064 -0.0363 -0.1275 -0.0390
   13POPC   C1A  702   8.807   5.017   9.919 -0.2632 -0.0409  0.4113
   13POPC   D2A  703   9.020   5.351   9.736 -0.1902  0.1596  0.0271
   13POPC   C3A  704   8.995   5.342   9.278  0.1582 -0.0892  0.0956
   13POPC   C4A  705   9.221   5.710   9.103  0.3225 -0.1698  0.3736
   13POPC   C1B  706   8.766   4.566   9.717  0.1421  0.1658  0.0427
   13POPC   C2B  707   9.019   4.864   9.521 -0.2476  0.0025 -0.0623
   13POPC   C3B  708   9.320   4.963   9.234  0.1977  0.0247 -0.4818
   13POPC   C4B  709   9.684   4.799   8.974  0.0277 -0.2186 -0.2752
   14POPC   NC3  710   5.146   0.823   8.716  0.2634  0.3184 -0.1126
   14POPC   PO4  711   5.439   0.603   8.919 -0.0106  0.0465 -0.3712
   14POPC   GL1  712   5.714   0.451   8.533  0.1232  0.0809  0.0541
   14POPC   GL2  713   5.987   0.158   8.528 -0.1963 -0.2922 -0.0112
   14POPC   C1A  714   5.863   0.564   8.113  0.1821 -0.0856  0.3303
   14POPC   D2A  715   6.052   0.411   7.671  0.1376 -0.1499  0.0049
   14POPC   C3A  716   6.224   0.041   7.548 -0.0357 -0.3902  0.2167
   14POPC   C4A  717   6.539  -0.299   7.549 -0.0110  0.1151  0.1493
   14POPC   C1B  718   6.233   0.216   8.101 -0.0699 -0.0386 -0.1519
   14POPC   C2B  719   6.301   0.729   7.995  0.1332 -0.2542  0.4085
   14POPC   C3B  720   5.923   0.920   7.743 -0.1287 -0.0496  0.1949
   14POPC   C4B  721   5.771   1.239   7.413 -0.0050  0.0965  0.1685
   15POPC   NC3  722   3.037   6.369   9.152  0.2364 -0.0315  0.0106
   15POPC   PO4  723   2.622   6.579   9.248 -0.0502 -0.1789 -0.1047
   15POPC   GL1  724   2.483   6.343   8.853  0.2762  0.1060 -0.0977
   15POPC   GL2  725   2.751   6.460   8.761 -0.0678  0.0514  0.2960
   15POPC   C1A  726   2.192   6.079   8.559 -0.1419  0.1533  0.0007
   15POPC   D2A  727   1.857   6.002   8.446  0.2548  0.0838  0.0911
   15POPC   C3A  728   1.647   5.772   8.146  0.3232  0.1322 -0.4455
   15POPC   C4A  729   1.420   5.900   7.729 -0.1575  0.0145  0.1290
   15POPC   C1B  730   2.475   6.449   8.352 -0.1525  0.2056  0.0501
   15POPC   C2B  731   2.244   6.510   7.901  0.0310  0.1447  0.1429
   15POPC   C3B  732   2.169   6.861   7.687  0.1627 -0.0970  0.0457
   15POPC   C4B  733   1.795   7.006   7.477 -0.1205 -0.1405  0.0847
   16POPC   NC3  734   0.061   0.519   9.635  0.1046 -0.2262  0.1683
   16POPC   PO4  735  -0.065   0.728   9.303  0.2783  0.1347  0.2453
   16POPC   GL1  736   0.185   0.651   8.891  0.0777  0.2493 -0.5106
   16POPC   GL2  737   0.010   0.423   8.715 -0.0890 -0.1337 -0.0019
   16POPC   C1A  738   0.332   0.871   8.477  0.4151  0.0481 -0.4170
   16POPC   D2A  739   0.206   0.776   8.028  0.1112 -0.0098 -0.1858
   16POPC   C3A  740  -0.293   0.563   7.881  0.3013 -0.0541 -0.0759
   16POPC   C4A  741  -0.508   0.125   7.833  0.1685 -0.3072 -0.4503
   16POPC   C1B  742   0.119   0.234   8.362 -0.2116 -0.1609  0.0177
   16POPC   C2B  743   0.064   0.222   7.984  0.0295  0.2095 -0.0403
   16POPC   C3B  744   0.228   0.337   7.660 -0.1912 -0.2211  0.2016
   16POPC   C4B  745   0.496   0.635   7.302 -0.0450 -0.1274  0.1401
   17POPC   NC3  746   1.451   9.865   9.705  0.0154 -0.1432 -0.2658
   17POPC   PO4  747   1.688   9.720   9.423 -0.6001  0.1156 -0.2245
   17POPC   GL1  748   1.581   9.875   9.066  0.1192 -0.2986 -0.0141
   17POPC   GL2  749   1.445   9.567   8.865  0.3246 -0.2285 -0.1752
   17POPC   C1A  750   1.444  10.173   8.718 -0.0607  0.0621  0.0356
   17POPC   D2A  751   1.526  10.482   8.488 -0.0569  0.0829  0.1150
   17POPC   C3A  752   1.978  10.614   8.417 -0.0864 -0.0573 -0.0727
   17POPC   C4A  753   2.199  10.660   8.080  0.0222  0.0805  0.0010
   17POPC   C1B  754   1.636   9.465   8.467  0.0064 -0.2819 -0.0412
   17POPC   C2B  755   1.980   9.618   8.174 -0.0884 -0.1993 -0.1620
   17POPC   C3B  756   2.162   9.773   7.894 -0.0406  0.0386  0.1610
   17POPC   C4B  757   2.081  10.052   7.507 -0.0264 -0.5134  0.0082
   18POPC   NC3  758   3.466   5.165   8.947  0.2120  0.3072 -0.0284
   18POPC   PO4  759   3.640   4.744   8.872 -0.2262  0.1656  0.1958
   18POPC   GL1  760   3.263   4.676   8.656  0.1493 -0.2757 -0.0383
   18POPC   GL2  761   3.220   4.390   8.469  0.0162  0.0965 -0.0095
   18POPC   C1A  762   3.008   4.713   8.162 -0.1349 -0.1725 -0.0371
   18POPC   D2A  763   3.044   4.672   7.680  0.0961 -0.0799  0.0313
   18POPC   C3A  764   2.770   4.512   7.369 -0.3746 -0.1409 -0.2643
   18POPC   C4A  765   2.601   4.101   7.215 -0.2431  0.1204  0.0613
   18POPC   C1B  766   3.252   4.283   8.051 -0.1378 -0.2577  0.1114
   18POPC   C2B  767   3.483   3.953   7.814 -0.0980  0.0830 -0.1188
   18POPC   C3B  768   3.501   3.488   7.939 -0.0243 -0.0965 -0.1858
   18POPC   C4B  769   3.248   3.039   7.909 -0.3716 -0.0201 -0.0134
   19POPC   NC3  770   6.943   3.901  10.027  0.1739  0.0464 -0.1193
   19POPC   PO4  771   6.695   3.728   9.669 -0.0864  0.2540  0.2157
   19POPC   GL1  772   6.563   3.872   9.163  0.3501 -0.2854  0.3617
   19POPC   GL2  773   6.575   4.295   9.068 -0.0226 -0.0466  0.0384
   19POPC   C1A  774   6.752   3.752   8.831  0.0635  0.2694 -0.0866
   19POPC   D2A  775   6.959   3.872   8.555 -0.2298  0.4298 -0.0813
   19POPC   C3A  776   7.108   4.272   8.450 -0.1201 -0.1562  0.0111
   19POPC   C4A  777   7.502   4.570   8.511  0.0004  0.1269  0.1146
   19POPC   C1B  778   6.922   4.214   8.877  0.4026  0.0660  0.2236
   19POPC   C2B  779   7.423   4.252   8.922 -0.2319  0.2647  0.0850
   19POPC   C3B  780   7.704   3.853   8.841 -0.0662 -0.0437 -0.0513
   19POPC   C4B  781   7.700   3.352   8.954  0.0418 -0.1343 -0.2977
   20POPC   NC3  782   3.132   4.007   8.737 -0.1993  0.1257  0.1049
   20POPC   PO4  783   3.361   3.660   8.676 -0.0317  0.1712  0.0794
   20POPC   GL1  784   3.109   3.635   8.414 -0.1511 -0.0375  0.1977
   20POPC   GL2  785   2.905   3.462   8.267 -0.1286  0.1859 -0.3984
   20POPC   C1A  786   3.023   3.854   7.963  0.5479 -0.1041  0.0246
   20POPC   D2A  787   2.989   4.050   7.607  0.0615  0.2427 -0.2619
   20POPC   C3A  788   3.258   3.883   7.317 -0.1204 -0.0113  0.1329
   20POPC   C4A  789   3.225   3.485   7.080 -0.0092 -0.1416  0.4209
   20POPC   C1B  790   2.577   3.750   8.407 -0.3187  0.0480  0.0966
   20POPC   C2B  791   2.245   4.018   8.335  0.2464 -0.4420 -0.0178
   20POPC   C3B  792   2.003   4.162   8.064 -0.3410 -0.2636 -0.1970
   20POPC   C4B  793   1.718   4.244   7.762 -0.2577  0.1468  0.0217
   21POPC   NC3  794  10.067   0.209   9.256 -0.1476  0.0064 -0.1398
   21POPC   PO4  795  10.334  -0.045   8.979  0.0384  0.0350 -0.1271
   21POPC   GL1  796   9.992  -0.098   8.663  0.1877  0.0050  0.2277
   21POPC   GL2  797   9.776   0.096   8.814 -0.0611  0.1505 -0.1745
   21POPC   C1A  798   9.832  -0.289   8.282  0.0894 -0.0739 -0.1459
   21POPC   D2A  799   9.876  -0.668   7.942  0.0018 -0.0011 -0.0089
   21POPC   C3A  800   9.613  -0.889   7.738 -0.2743 -0.1838  0.0428
   21POPC   C4A  801   9.247  -1.128   7.624  0.1863 -0.1217  0.2841
   21POPC   C1B  802   9.531   0.117   8.414  0.0538  0.2262 -0.1408
   21POPC   C2B  803   9.300  -0.118   8.139  0.0573 -0.1393  0.0262
   21POPC   C3B  804   9.096  -0.045   7.749 -0.1624 -0.4246  0.0271
   21POPC   C4B  805   8.958   0.005   7.305  0.2874 -0.1730  0.2113
   22POPC   NC3  806   4.292   0.866   8.900  0.2375  0.0914 -0.1512
   22POPC   PO4  807   4.649   0.904   8.900 -0.3079  0.1253 -0.2180
   22POPC   GL1  808   4.587   0.741   8.510 -0.1889 -0.1332  0.3056
   22POPC   GL2  809   4.231   0.803   8.439  0.3085  0.2898  0.4409
   22POPC   C1A  810   4.856   0.716   8.081  0.0201 -0.3438 -0.0371
   22POPC   D2A  811   5.016   0.574   7.726  0.1242 -0.0657  0.1236
   22POPC   C3A  812   4.997   0.715   7.372  0.0198 -0.1778  0.1475
   22POPC   C4A  813   4.988   0.812   7.023  0.2480  0.0611  0.1300
   22POPC   C1B  814   4.451   0.965   8.081 -0.1485  0.3141  0.2069
   22POPC   C2B  815   4.495   1.218   7.789  0.0554  0.3006  0.1744
   22POPC   C3B  816   4.713   1.146   7.371 -0.3284 -0.1327  0.0823
   22POPC   C4B  817   4.941   1.489   7.192  0.3329  0.0195  0.0642
   23POPC   NC3  818   5.872   3.233   8.675 -0.0717  0.0045  0.1173
   23POPC   PO4  819   5.519   3.441   8.427 -0.0023 -0.1352 -0.1596
   23POPC   GL1  820   5.560   3.369   8.040  0.0761 -0.2009  0.1006
   23POPC   GL2  821   5.605   3.090   8.121 -0.0759  0.1162  0.2488
   23POPC   C1A  822   5.379   3.502   7.731  0.3676  0.0310  0.1461
   23POPC   D2A  823   5.012   3.333   7.426  0.1005 -0.0143  0.1841
   23POPC   C3A  824   5.171   3.422   6.978 -0.0347 -0.5082  0.3548
   23POPC   C4A  825   5.518   3.434   6.836 -0.0191  0.2652  0.1283
   23POPC   C1B  826   5.364   2.777   8.167  0.1787  0.0175  0.0856
   23POPC   C2B  827   5.090   2.529   7.926  0.0588 -0.0468  0.1938
   23POPC   C3B  828   4.635   2.456   7.825 -0.1222 -0.2450 -0.3840
   23POPC   C4B  829   4.356   2.132   8.012  0.1463 -0.1511  0.2138
   24POPC   NC3  830   6.739   0.084   9.065  0.2552  0.0354  0.1039
   24POPC   PO4  831   6.453  -0.160   8.857 -0.1025 -0.1591  0.0671
   24POPC   GL1  832   6.569  -0.479   8.570  0.3008 -0.0470 -0.2521
   24POPC   GL2  833   6.746  -0.744   8.643 -0.2184 -0.2429  0.0052
   24POPC   C1A  834   6.634  -0.653   8.106  0.3270 -0.2732 -0.0848
   24POPC   D2A  835   6.929  -0.445   7.827 -0.2680 -0.0110 -0.1367
   24POPC   C3A  836   7.019  -0.696   7.541  0.0456 -0.1092 -0.2159
   24POPC   C4A  837   7.335  -0.742   7.261 -0.0029  0.0085  0.0318
   24POPC   C1B  838   7.059  -0.425   8.382  0.0567  0.3747  0.0272
   24POPC   C2B  839   7.084  -0.064   8.132 -0.0733 -0.0515  0.2586
   24POPC   C3B  840   7.092   0.105   7.695  0.2656 -0.0314 -0.1083
   24POPC   C4B  841   6.861   0.397   7.309  0.0529  0.5145  0.0987
   25POPC   NC3  842   5.562   6.424   8.888  0.0087  0.2365 -0.0568
   25POPC   PO4  843   5.515   6.057   8.916  0.1624  0.0540  0.3253
   25POPC   GL1  844   5.515   5.936   8.492 -0.1711  0.0120  0.1626
   25POPC   GL2  845   5.258   5.718   8.469 -0.0532 -0.1719  0.2245
   25POPC   C1A  846   5.801   6.002   8.069 -0.0516  0.2467  0.0754
   25POPC   D2A  847   5.923   6.115   7.744 -0.3715 -0.2780 -0.2321
   25POPC   C3A  848   6.300   6.207   7.591  0.2076  0.1134 -0.0885
   25POPC   C4A  849   6.514   6.125   7.215  0.1682  0.0088 -0.0675
   25POPC   C1B  850   5.288   5.719   8.043 -0.0530  0.0693 -0.0490
   25POPC   C2B  851   5.531   5.868   7.611  0.3367 -0.0903 -0.1869
   25POPC   C3B  852   5.794   5.846   7.297  0.0114  0.0688  0.2284
   25POPC   C4B  853   6.117   5.834   7.015  0.2402  0.1289 -0.1921
   26POPC   NC3  854   8.326   1.754   9.749 -0.2263 -0.3864  0.1319
   26POPC   PO4  855   8.223   2.154   9.654 -0.1909 -0.0341  0.3417
   26POPC   GL1  856   8.441   2.295   9.335 -0.0309 -0.1035 -0.2472
   26POPC   GL2  857   8.201   2.229   9.120  0.2792 -0.0550 -0.0429
   26POPC   C1A  858   8.765   2.478   9.000  0.1465  0.0052 -0.0961
   26POPC   D2A  859   8.750   2.518   8.530 -0.0809 -0.1468 -0.0133
   26POPC   C3A  860   8.847   2.404   8.021 -0.2979  0.1218 -0.0364
   26POPC   C4A  861   8.680   2.316   7.514  0.1668  0.1872  0.1040
   26POPC   C1B  862   8.165   2.406   8.687  0.3043 -0.0778 -0.0891
   26POPC   C2B  863   8.274   2.420   8.320 -0.2042 -0.0538 -0.0988
   26POPC   C3B  864   8.338   2.307   7.929  0.0799 -0.2859 -0.3119
   26POPC   C4B  865   7.954   2.264   7.559 -0.3250  0.0153 -0.1042
   27POPC   NC3  866   4.692   1.291   9.264  0.4671  0.5516  0.0473
   27POPC   PO4  867   4.766   1.729   9.058 -0.2872  0.0292  0.1716
   27POPC   GL1  868   4.732   1.750   8.580 -0.2488 -0.0730  0.0375
   27POPC   GL2  869   4.700   2.080   8.394  0.1355 -0.1180  0.2128
   27POPC   C1A  870   4.603   1.675   8.076  0.1188 -0.1643  0.1899
   27POPC   D2A  871   4.672   1.714   7.609  0.0102  0.2090 -0.2939
   27POPC   C3A  872   4.457   2.018   7.515  0.3595  0.1733  0.0117
   27POPC   C4A  873   4.300   2.334   7.520  0.0839  0.3715 -0.0761
   27POPC   C1B  874   4.824   2.064   7.906 -0.0693 -0.0547 -0.3764
   27POPC   C2B  875   5.062   2.068   7.404  0.0993  0.1632 -0.1099
   27POPC   C3B  876   5.383   2.151   7.172 -0.0406  0.1535 -0.1743
   27POPC   C4B  877   5.712   2.109   7.044 -0.0688 -0.1736  0.0458
   28POPC   NC3  878   1.005   1.492   9.345  0.0444 -0.0081 -0.1086
   28POPC   PO4  879   1.410   1.264   9.401  0.0152  0.3240  0.3759
   28POPC   GL1  880   1.461   1.316   8.907 -0.0748 -0.0638  0.1135
   28POPC   GL2  881   1.121   1.500   8.701  0.1383  0.1285 -0.0439
   28POPC   C1A  882   1.378   1.102   8.528  0.2676 -0.0364  0.2228
   28POPC   D2A  883   1.206   1.076   8.163  0.3175  0.0958  0.0959
   28POPC   C3A  884   0.951   0.745   7.916 -0.0798  0.2042 -0.0329
   28POPC   C4A  885   0.642   0.584   8.194  0.0696 -0.2021 -0.2111
   28POPC   C1B  886   0.982   1.524   8.266 -0.1508  0.1577  0.2095
   28POPC   C2B  887   1.037   1.385   7.830 -0.1040 -0.0081 -0.2598
   28POPC   C3B  888   1.329   1.055   7.679  0.1633 -0.0711  0.1598
   28POPC   C4B  889   1.435   0.784   7.393  0.2473 -0.0244 -0.0400
   29POPC   NC3  890   8.115   6.875  10.329 -0.1335 -0.0634 -0.3160
   29POPC   PO4  891   8.343   6.740  10.033  0.1031 -0.2284  0.0376
   29POPC   GL1  892   8.447   6.669   9.657  0.1435  0.1063 -0.1103
   29POPC   GL2  893   8.197   6.551   9.359 -0.0263 -0.3792 -0.1512
   29POPC   C1A  894   8.793   6.408   9.497 -0.1659 -0.1083  0.0586
   29POPC   D2A  895   8.900   6.131   9.133  0.0902  0.1337 -0.0366
   29POPC   C3A  896   9.112   6.057   8.728 -0.3347  0.1110  0.1381
   29POPC   C4A  897   9.197   5.901   8.304  0.1158 -0.1982  0.1519
   29POPC   C1B  898   8.465   6.626   9.069 -0.0445 -0.2066 -0.0307
   29POPC   C2B  899   8.798   6.442   8.707  0.0354 -0.3401  0.0398
   29POPC   C3B  900   9.197   6.575   8.489  0.1773  0.2969  0.0075
   29POPC   C4B  901   9.411   6.546   8.119 -0.3095  0.0083  0.1098
   30POPC   NC3  902   5.963   2.253   9.093 -0.3759 -0.0604  0.0362
   30POPC   PO4  903   5.675   2.076   9.055 -0.3142 -0.0447  0.1071
   30POPC   GL1  904   5.629   2.257   8.707  0.4403 -0.1401  0.0581
   30POPC   GL2  905   5.801   2.439   8.656 -0.0981  0.2834 -0.0627
   30POPC   C1A  906   5.417   2.286   8.267 -0.0414 -0.2543 -0.1023
   30POPC   D2A  907   5.488   2.193   7.838 -0.0875  0.0108 -0.0077
   30POPC   C3A  908   5.381   2.540   7.449 -0.0466  0.2502 -0.1716
   30POPC   C4A  909   5.201   2.559   7.070  0.0935 -0.1143  0.0133
   30POPC   C1B  910   5.840   2.545   8.246  0.1640  0.0637 -0.1857
   30POPC   C2B  911   5.766   2.684   7.823 -0.1531 -0.1201 -0.0053
   30POPC   C3B  912   5.466   3.022   7.629  0.2444 -0.0313 -0.1027
   30POPC   C4B  913   5.585   3.245   7.295  0.2017  0.1379  0.1410
   31POPC   NC3  914   6.734   1.588   8.950 -0.1627  0.1360  0.1240
   31POPC   PO4  915   6.451   1.388   8.980 -0.1239 -0.1009  0.0558
   31POPC   GL1  916   6.313   1.627   8.702 -0.0116 -0.1734 -0.0840
   31POPC   GL2  917   6.071   1.933   8.694 -0.0955 -0.1762 -0.1691
   31POPC   C1A  918   6.344   1.805   8.253 -0.0546  0.0117  0.0002
   31POPC   D2A  919   6.590   2.142   7.958 -0.1982 -0.0300  0.3726
   31POPC   C3A  920   6.941   2.071   7.696 -0.0985  0.0747  0.0053
   31POPC   C4A  921   7.470   2.141   7.654  0.0650 -0.0291 -0.1423
   31POPC   C1B  922   6.269   2.283   8.472  0.0690  0.0690 -0.2050
   31POPC   C2B  923   6.307   2.542   8.077 -0.0371 -0.1646 -0.1297
   31POPC   C3B  924   6.318   2.691   7.650 -0.3194 -0.1119 -0.0215
   31POPC   C4B  925   6.337   2.716   7.209  0.0270  0.5934  0.1632
   32POPC   NC3  926   5.745   0.243   9.120 -0.2837  0.1112  0.2686
   32POPC   PO4  927   6.250   0.319   8.981 -0.1885 -0.0840 -0.1452
   32POPC   GL1  928   6.478   0.289   8.537  0.2511 -0.0570  0.1518
   32POPC   GL2  929   6.735  -0.016   8.479 -0.1038 -0.1716 -0.0790
   32POPC   C1A  930   6.718   0.325   8.119 -0.2484  0.2444  0.2692
   32POPC   D2A  931   6.555   0.397   7.683  0.0948 -0.1448  0.2398
   32POPC   C3A  932   6.377   0.766   7.471 -0.0472  0.1852  0.3200
   32POPC   C4A  933   6.005   0.738   7.247 -0.2759 -0.0097 -0.0315
   32POPC   C1B  934   6.564  -0.176   8.087 -0.2606  0.0837 -0.1474
   32POPC   C2B  935   6.246  -0.283   7.975  0.3013 -0.0811  0.0036
   32POPC   C3B  936   5.915  -0.506   7.683 -0.0346 -0.0563  0.2730
   32POPC   C4B  937   5.865  -0.738   7.307  0.0764  0.3219  0.2353
   33POPC   NC3  938   2.436   2.913   9.467  0.0715 -0.3863 -0.0257
   33POPC   PO4  939   2.442   2.902   9.085 -0.2302  0.1742  0.0228
   33POPC   GL1  940   2.393   2.948   8.605 -0.0220  0.0116 -0.0855
   33POPC   GL2  941   2.310   3.277   8.625  0.2778  0.0045 -0.0313
   33POPC   C1A  942   2.203   2.979   8.202 -0.0835 -0.0852  0.0861
   33POPC   D2A  943   2.203   2.845   7.751 -0.3201  0.3516 -0.0802
   33POPC   C3A  944   1.970   3.165   7.531 -0.0400 -0.0877  0.1513
   33POPC   C4A  945   2.166   3.498   7.404  0.0316  0.2597 -0.0975
   33POPC   C1B  946   2.099   3.493   8.294 -0.1170  0.4116 -0.2312
   33POPC   C2B  947   1.811   3.714   8.025 -0.2043 -0.1662 -0.2883
   33POPC   C3B  948   1.396   3.915   7.975 -0.1781 -0.0668 -0.4058
   33POPC   C4B  949   1.100   4.277   8.067 -0.2165  0.2491 -0.0221
   34POPC   NC3  950   4.552   7.199   8.750  0.1191  0.0056 -0.1227
   34POPC   PO4  951   4.185   7.017   8.791  0.2640 -0.0244 -0.1032
   34POPC   GL1  952   4.247   7.059   8.330  0.4110  0.4083  0.1704
   34POPC   GL2  953   4.515   6.940   8.339  0.0784 -0.0358  0.2233
   34POPC   C1A  954   4.174   6.677   8.064  0.0329  0.5748 -0.2307
   34POPC   D2A  955   4.470   6.411   8.000 -0.4442 -0.1316 -0.0160
   34POPC   C3A  956   4.854   6.290   7.777  0.3460  0.1023 -0.0281
   34POPC   C4A  957   4.997   6.183   7.419 -0.0901  0.5839  0.1802
   34POPC   C1B  958   4.559   6.909   7.895 -0.1064 -0.2925  0.2672
   34POPC   C2B  959   4.285   6.966   7.549 -0.0664 -0.2827 -0.2716
   34POPC   C3B  960   4.125   7.099   7.142 -0.1350  0.0427  0.4115
   34POPC   C4B  961   4.199   7.317   6.817 -0.1050  0.0927 -0.3280
   35POPC   NC3  962   9.468   9.113   8.952 -0.0814 -0.0265  0.1680
   35POPC   PO4  963   9.091   9.226   8.892 -0.0409  0.0521  0.0006
   35POPC   GL1  964   9.180   9.109   8.520 -0.2397  0.0809 -0.0323
   35POPC   GL2  965   9.356   8.788   8.527  0.0163 -0.4867  0.0639
   35POPC   C1A  966   9.262   9.237   8.096  0.0227  0.1001 -0.0437
   35POPC   D2A  967   9.187   9.601   7.931 -0.0979  0.1155 -0.3197
   35POPC   C3A  968   9.551   9.769   7.662 -0.0345  0.0508 -0.0557
   35POPC   C4A  969   9.970   9.590   7.450  0.0948 -0.0942  0.0403
   35POPC   C1B  970   8.941   8.787   8.201 -0.1349 -0.2174 -0.1058
   35POPC   C2B  971   8.891   8.562   7.863 -0.2068  0.0027  0.1313
   35POPC   C3B  972   9.039   8.260   7.633 -0.2263  0.2127 -0.1749
   35POPC   C4B  973   9.397   7.894   7.587 -0.1441  0.0590  0.1724
   36POPC   NC3  974   7.796   2.080   9.406  0.2784  0.0069 -0.0821
   36POPC   PO4  975   8.086   1.772   9.277  0.1448  0.0392  0.3422
   36POPC   GL1  976   8.042   1.772   8.888  0.2468  0.4882  0.0810
   36POPC   GL2  977   7.782   1.596   8.716  0.1292  0.1274 -0.2058
   36POPC   C1A  978   8.110   1.911   8.313 -0.2103 -0.0192  0.1431
   36POPC   D2A  979   8.106   1.864   7.851  0.0865  0.2806  0.0825
   36POPC   C3A  980   8.276   1.893   7.409  0.0969  0.5628 -0.1487
   36POPC   C4A  981   8.005   1.978   7.040  0.1042  0.1428  0.1101
   36POPC   C1B  982   8.041   1.376   8.300  0.1454  0.0120  0.3451
   36POPC   C2B  983   7.956   1.364   7.812 -0.1649 -0.4538 -0.3394
   36POPC   C3B  984   7.541   1.250   7.546  0.0111  0.0193 -0.2794
   36POPC   C4B  985   7.278   1.550   7.226 -0.2028  0.2626  0.0406
   37POPC   NC3  986   3.205   8.326   9.247 -0.0842 -0.1172 -0.0922
   37POPC   PO4  987   3.080   7.865   9.108 -0.0262 -0.1290  0.1142
   37POPC   GL1  988   3.085   7.801   8.627  0.0599  0.0516  0.1381
   37POPC   GL2  989   2.845   7.910   8.591  0.4476  0.2168 -0.2351
   37POPC   C1A  990   2.877   7.537   8.323  0.0206  0.3765  0.2569
   37POPC   D2A  991   2.671   7.564   7.966  0.3691  0.3327  0.1430
   37POPC   C3A  992   2.823   7.343   7.593  0.0015  0.2078 -0.0268
   37POPC   C4A  993   3.063   7.061   7.480 -0.0445  0.1685  0.0988
   37POPC   C1B  994   2.835   8.026   8.166  0.3164  0.1867  0.1159
   37POPC   C2B  995   2.743   8.452   7.961 -0.1155  0.1974 -0.1853
   37POPC   C3B  996   2.594   8.637   7.586 -0.1461 -0.1442 -0.0717
   37POPC   C4B  997   2.402   8.922   7.452  0.1948 -0.0350  0.1514
   38POPC   NC3  998   9.669   9.708   9.724  0.1289  0.1744  0.3834
   38POPC   PO4  999   9.510   9.505   9.270 -0.0471 -0.1178  0.0379
   38POPC   GL1 1000   9.365   9.685   8.957  0.0225 -0.0215 -0.2468
   38POPC   GL2 1001   9.711   9.679   8.764 -0.0725 -0.1166 -0.0973
   38POPC   C1A 1002   9.163   9.716   8.494 -0.0110  0.3403 -0.1638
   38POPC   D2A 1003   8.854   9.826   8.263 -0.0104  0.2107 -0.0587
   38POPC   C3A 1004   8.510   9.661   8.012 -0.2526 -0.0162 -0.1663
   38POPC   C4A 1005   8.356   9.303   7.637  0.0067 -0.4394  0.0357
   38POPC   C1B 1006   9.612   9.407   8.409 -0.1563  0.1279  0.1158
   38POPC   C2B 1007   9.741   9.062   8.167  0.3222  0.0679 -0.4582
   38POPC   C3B 1008   9.534   8.733   8.003  0.1936 -0.0147  0.2011
   38POPC   C4B 1009   9.508   8.347   7.793 -0.0782 -0.0120 -0.0132
   39POPC   NC3 1010   2.621   7.717   8.962 -0.1870  0.1825 -0.3151
   39POPC   PO4 1011   2.251   7.989   9.155  0.0362 -0.0904 -0.0484
   39POPC   GL1 1012   2.312   8.047   8.732 -0.2528 -0.2438  0.0400
   39POPC   GL2 1013   2.193   7.790   8.549 -0.1810  0.1720  0.1767
   39POPC   C1A 1014   2.540   8.274   8.481  0.2238 -0.2704  0.0237
   39POPC   D2A 1015   2.415   8.683   8.215 -0.5362 -0.0006 -0.1965
   39POPC   C3A 1016   2.179   8.605   7.814  0.3201 -0.2424 -0.5438
   39POPC   C4A 1017   2.141   8.327   7.519  0.3762 -0.0084  0.0925
   39POPC   C1B 1018   2.173   7.667   8.108  0.0581 -0.1948 -0.1857
   39POPC   C2B 1019   2.219   7.358   7.816 -0.3338 -0.1562 -0.1007
   39POPC   C3B 1020   2.204   7.339   7.382 -0.0838 -0.1698  0.0707
   39POPC   C4B 1021   2.003   7.264   7.073  0.1159  0.1217  0.0226
   40POPC   NC3 1022   3.533   9.188   8.841 -0.1258 -0.0287  0.0195
   40POPC   PO4 1023   3.795   8.857   8.873  0.1503 -0.0296  0.1081
   40POPC   GL1 1024   3.828   8.981   8.476 -0.1746 -0.1064 -0.0135
   40POPC   GL2 1025   4.040   9.306   8.656  0.0153 -0.0180  0.0622
   40POPC   C1A 1026   4.024   8.855   8.092  0.2087  0.1264 -0.2621
   40POPC   D2A 1027   4.077   8.725   7.685  0.4716  0.2022  0.1041
   40POPC   C3A 1028   3.965   8.746   7.237  0.5122 -0.3145  0.1999
   40POPC   C4A 1029   4.132   8.825   6.776 -0.0297 -0.1906  0.2095
   40POPC   C1B 1030   3.977   9.425   8.103 -0.0091  0.1234 -0.2623
   40POPC   C2B 1031   4.076   9.280   7.700 -0.2908  0.1248  0.0834
   40POPC   C3B 1032   3.856   9.294   7.341 -0.2285  0.4428 -0.2396
   40POPC   C4B 1033   3.974   9.359   6.958 -0.1320 -0.1451 -0.1262
   41POPC   NC3 1034   6.463   3.395   9.234  0.1022  0.0428 -0.2825
   41POPC   PO4 1035   6.049   3.289   9.156  0.1167  0.2230  0.2934
   41POPC   GL1 1036   6.239   3.578   8.808 -0.2625 -0.0280  0.2237
   41POPC   GL2 1037   6.343   3.401   8.492  0.1578 -0.0415  0.1336
   41POPC   C1A 1038   6.323   3.886   8.450  0.3312 -0.0470  0.4356
   41POPC   D2A 1039   6.666   3.960   8.105 -0.0332  0.3493 -0.1270
   41POPC   C3A 1040   6.914   4.280   7.974  0.1526 -0.1520 -0.0348
   41POPC   C4A 1041   6.875   4.694   7.673  0.1993  0.0818  0.0050
   41POPC   C1B 1042   6.347   3.530   8.084 -0.2265  0.1250 -0.1580
   41POPC   C2B 1043   6.347   3.504   7.578  0.1130  0.2019 -0.1039
   41POPC   C3B 1044   6.342   3.528   7.079 -0.2798 -0.2973  0.0775
   41POPC   C4B 1045   6.404   3.350   6.640 -0.1510  0.2105 -0.1912
   42POPC   NC3 1046   5.656   4.746   9.382 -0.2532  0.0318  0.2125
   42POPC   PO4 1047   5.855   4.530   8.949  0.0622  0.0445  0.1720
   42POPC   GL1 1048   6.032   4.517   8.489  0.4328  0.0944  0.0038
   42POPC   GL2 1049   6.369   4.441   8.343  0.0992 -0.2000 -0.1776
   42POPC   C1A 1050   6.024   4.804   8.215 -0.1378  0.0556 -0.1893
   42POPC   D2A 1051   6.249   5.007   7.879 -0.3839  0.1276 -0.0726
   42POPC   C3A 1052   6.423   4.842   7.564  0.1644 -0.2393 -0.2177
   42POPC   C4A 1053   6.427   4.449   7.360  0.1205 -0.1368  0.4393
   42POPC   C1B 1054   6.412   4.422   7.956  0.1969  0.0811 -0.1068
   42POPC   C2B 1055   5.996   4.539   7.714  0.1356  0.0179  0.0466
   42POPC   C3B 1056   5.792   4.352   7.453  0.1249  0.2521 -0.1647
   42POPC   C4B 1057   5.564   3.920   7.476  0.0020 -0.1797  0.1195
   43POPC   NC3 1058   1.519   7.285  10.242  0.0058 -0.2327 -0.3620
   43POPC   PO4 1059   1.356   6.882  10.117  0.1599  0.1371 -0.1765
   43POPC   GL1 1060   1.308   6.720   9.714  0.0280 -0.0471 -0.0706
   43POPC   GL2 1061   0.966   6.602   9.718 -0.0113  0.0914  0.1486
   43POPC   C1A 1062   1.129   6.587   9.239  0.2032  0.4133  0.3180
   43POPC   D2A 1063   1.300   6.586   8.801  0.5720  0.1395  0.1044
   43POPC   C3A 1064   1.137   6.616   8.388  0.2757 -0.0507 -0.0045
   43POPC   C4A 1065   1.118   6.780   7.970 -0.0181 -0.2138 -0.0944
   43POPC   C1B 1066   0.781   6.326   9.458  0.5201  0.1073  0.0323
   43POPC   C2B 1067   0.618   6.164   8.967  0.2837 -0.2217  0.0201
   43POPC   C3B 1068   0.620   6.349   8.582  0.1263 -0.1488 -0.0743
   43POPC   C4B 1069   0.773   6.226   8.235  0.4998 -0.3578  0.0553
   44POPC   NC3 1070   1.489   0.806   9.709 -0.3225 -0.2679  0.2100
   44POPC   PO4 1071   1.360   0.596   9.340  0.1401  0.0811 -0.0581
   44POPC   GL1 1072   1.177   0.761   8.898 -0.1836  0.2715 -0.2110
   44POPC   GL2 1073   1.044   1.063   8.948 -0.0574 -0.2269 -0.1079
   44POPC   C1A 1074   1.103   0.656   8.489  0.0227  0.1921 -0.0841
   44POPC   D2A 1075   1.009   0.327   8.162 -0.1685 -0.6163 -0.2780
   44POPC   C3A 1076   1.467   0.133   8.018  0.3224  0.3188  0.0654
   44POPC   C4A 1077   1.865   0.092   7.974  0.3391  0.0632 -0.1416
   44POPC   C1B 1078   0.871   1.093   8.574 -0.0629  0.0321 -0.0951
   44POPC   C2B 1079   0.636   1.100   8.105  0.6627  0.2994 -0.1576
   44POPC   C3B 1080   0.672   1.062   7.608 -0.1337 -0.1697  0.1727
   44POPC   C4B 1081   0.972   0.848   7.382 -0.1875 -0.0914  0.2431
   45POPC   NC3 1082   7.779   8.597   8.935  0.1078 -0.1640  0.1825
   45POPC   PO4 1083   8.283   8.614   9.062  0.2511  0.0862  0.1253
   45POPC   GL1 1084   8.268   8.597   8.637  0.1445  0.0991  0.0517
   45POPC   GL2 1085   8.033   8.324   8.664  0.2209 -0.0779  0.0603
   45POPC   C1A 1086   7.951   8.670   8.248  0.2840  0.0842  0.2310
   45POPC   D2A 1087   7.914   8.672   7.815 -0.1950  0.1966 -0.2174
   45POPC   C3A 1088   8.077   8.320   7.549  0.0178 -0.1405 -0.2164
   45POPC   C4A 1089   8.493   8.402   7.223 -0.0006 -0.0094  0.0514
   45POPC   C1B 1090   8.174   8.230   8.224  0.1136  0.1016 -0.0094
   45POPC   C2B 1091   8.173   7.918   7.888 -0.1263  0.3697  0.2014
   45POPC   C3B 1092   8.505   7.755   7.573 -0.0528  0.1932 -0.0280
   45POPC   C4B 1093   8.447   7.657   7.152  0.1852 -0.0487 -0.2244
   46POPC   NC3 1094   7.432   2.491   9.938 -0.0703 -0.3881 -0.0626
   46POPC   PO4 1095   7.800   2.885   9.932  0.3204  0.0400 -0.0876
   46POPC   GL1 1096   8.003   3.196   9.715 -0.0938  0.3040  0.0482
   46POPC   GL2 1097   8.371   3.237   9.695  0.3210  0.0187 -0.0266
   46POPC   C1A 1098   8.126   3.135   9.229 -0.0298  0.0087 -0.2905
   46POPC   D2A 1099   8.281   2.820   8.941  0.2672  0.0225 -0.0606
   46POPC   C3A 1100   8.418   2.938   8.578 -0.2287  0.1650  0.2287
   46POPC   C4A 1101   8.325   3.210   8.276 -0.1018  0.1675 -0.0178
   46POPC   C1B 1102   8.676   3.277   9.371  0.1991  0.0301  0.1227
   46POPC   C2B 1103   8.693   3.133   8.941 -0.2171 -0.1075  0.0693
   46POPC   C3B 1104   8.755   3.461   8.620  0.0139  0.3969  0.3577
   46POPC   C4B 1105   9.163   3.695   8.529 -0.0734 -0.0572 -0.2365
   47POPC   NC3 1106   3.810   0.122   9.122  0.3140 -0.0215  0.2054
   47POPC   PO4 1107   3.367   0.380   9.199 -0.1899 -0.2458 -0.3532
   47POPC   GL1 1108   3.506   0.256   8.744  0.1409  0.0305 -0.0415
   47POPC   GL2 1109   3.649   0.137   8.485 -0.2243 -0.3379 -0.1764
   47POPC   C1A 1110   3.170   0.254   8.405 -0.0633  0.3201 -0.0799
   47POPC   D2A 1111   3.029   0.334   8.053  0.2374 -0.2472  0.1346
   47POPC   C3A 1112   3.341   0.488   7.717 -0.1868  0.1992  0.3793
   47POPC   C4A 1113   3.292   0.527   7.326  0.0239 -0.2316  0.0090
   47POPC   C1B 1114   3.746   0.436   8.083  0.1383  0.2539  0.0317
   47POPC   C2B 1115   3.881   0.509   7.714 -0.1622 -0.1118 -0.0185
   47POPC   C3B 1116   3.757   0.311   7.294 -0.1605  0.0950  0.2667
   47POPC   C4B 1117   3.679   0.137   6.958  0.0356 -0.0615 -0.0420
   48POPC   NC3 1118   6.240   7.065   8.562  0.0716  0.2719  0.1521
   48POPC   PO4 1119   6.117   7.588   8.656  0.1721  0.2289  0.0180
   48POPC   GL1 1120   6.464   7.484   8.393  0.2024 -0.4573  0.1978
   48POPC   GL2 1121   6.310   7.267   8.128 -0.0034 -0.0046 -0.1111
   48POPC   C1A 1122   6.800   7.263   8.155  0.1786  0.1055  0.5917
   48POPC   D2A 1123   6.787   7.120   7.697  0.0912 -0.3414 -0.0788
   48POPC   C3A 1124   6.940   7.080   7.312 -0.3755  0.3883 -0.4373
   48POPC   C4A 1125   7.270   7.235   7.077 -0.1106  0.0912 -0.1247
   48POPC   C1B 1126   6.405   7.415   7.845  0.0823  0.2420  0.2921
   48POPC   C2B 1127   6.169   7.636   7.479  0.1163 -0.2170 -0.2169
   48POPC   C3B 1128   5.799   8.006   7.367  0.1327 -0.2292 -0.0644
   48POPC   C4B 1129   5.497   8.292   7.235  0.0373 -0.0558  0.0899
   49POPC   NC3 1130   0.989   7.520   9.976  0.1389  0.0755 -0.2393
   49POPC   PO4 1131   0.779   7.034  10.001 -0.0124 -0.3212  0.0268
   49POPC   GL1 1132   0.971   7.110   9.600 -0.4253  0.2242 -0.0372
   49POPC   GL2 1133   0.581   7.144   9.574 -0.1289  0.2121  0.0144
   49POPC   C1A 1134   0.821   7.062   9.139  0.0129 -0.2626 -0.3670
   49POPC   D2A 1135   0.982   7.087   8.697  0.0117  0.3905  0.0839
   49POPC   C3A 1136   0.745   6.882   8.316 -0.0991  0.2867  0.0798
   49POPC   C4A 1137   0.415   6.654   8.230 -0.2016  0.0166 -0.3803
   49POPC   C1B 1138   0.416   6.746   9.415  0.1073  0.1563  0.0051
   49POPC   C2B 1139   0.400   6.593   9.116 -0.1057 -0.3180  0.2121
   49POPC   C3B 1140   0.511   6.846   8.834 -0.0433  0.1446 -0.1794
   49POPC   C4B 1141   0.409   7.240   8.603  0.0673  0.2872  0.3528
   50POPC   NC3 1142   3.616   7.145   9.141 -0.2225  0.3869  0.2018
   50POPC   PO4 1143   3.461   6.699   9.036 -0.1004 -0.1089 -0.0979
   50POPC   GL1 1144   3.236   6.498   8.673 -0.0164  0.1585 -0.0821
   50POPC   GL2 1145   3.514   6.352   8.365  0.0803  0.1162  0.0497
   50POPC   C1A 1146   3.050   6.628   8.275 -0.0520  0.0740  0.1373
   50POPC   D2A 1147   2.843   6.546   7.868  0.0200 -0.4171  0.1910
   50POPC   C3A 1148   2.638   6.776   7.494  0.1258  0.0138  0.0165
   50POPC   C4A 1149   2.157   6.698   7.198 -0.0681  0.0921 -0.0274
   50POPC   C1B 1150   3.366   6.110   8.014 -0.1993 -0.1263  0.0675
   50POPC   C2B 1151   2.992   6.082   7.959  0.0495  0.2336 -0.0089
   50POPC   C3B 1152   2.587   6.115   7.767  0.0605  0.0454  0.1763
   50POPC   C4B 1153   2.284   5.999   7.380 -0.0911  0.0731 -0.1424
   51POPC   NC3 1154   0.167   4.564  10.709  0.3428 -0.1682  0.0600
   51POPC   PO4 1155   0.441   4.287  10.771  0.2141  0.1964 -0.0571
   51POPC   GL1 1156   0.585   4.539  10.357  0.2347  0.1561 -0.1254
   51POPC   GL2 1157   0.501   4.861  10.422 -0.0414  0.0652  0.1134
   51POPC   C1A 1158   0.550   4.408   9.907  0.0351  0.0999  0.0221
   51POPC   D2A 1159   0.449   4.309   9.484 -0.0649 -0.2714 -0.0641
   51POPC   C3A 1160   0.029   4.162   9.366 -0.2781 -0.0433 -0.1900
   51POPC   C4A 1161  -0.187   3.805   9.277 -0.0178  0.2825  0.0632
   51POPC   C1B 1162   0.349   4.889   9.989 -0.3628 -0.0060  0.3613
   51POPC   C2B 1163   0.116   4.612   9.621 -0.1318  0.0094  0.1466
   51POPC   C3B 1164  -0.274   4.559   9.397  0.1266  0.0542 -0.3082
   51POPC   C4B 1165  -0.605   4.531   9.772 -0.1301 -0.2531 -0.0099
   52POPC   NC3 1166   7.188   4.010   9.545 -0.0532 -0.0394 -0.2147
   52POPC   PO4 1167   7.493   3.854   9.900  0.0016  0.1059 -0.1474
   52POPC   GL1 1168   7.684   4.077   9.658  0.0794  0.3429  0.0973
   52POPC   GL2 1169   7.700   4.295   9.626  0.0246 -0.1937 -0.0327
   52POPC   C1A 1170   8.009   4.004   9.312 -0.1901  0.0153 -0.1079
   52POPC   D2A 1171   8.245   4.069   8.890 -0.0163  0.0529  0.2418
   52POPC   C3A 1172   8.214   3.816   8.512  0.0200  0.1527  0.1266
   52POPC   C4A 1173   7.909   3.612   8.376  0.1497 -0.2901  0.0185
   52POPC   C1B 1174   7.913   4.498   9.183 -0.0314 -0.1820 -0.1951
   52POPC   C2B 1175   7.920   4.444   8.722 -0.0197  0.2631 -0.1420
   52POPC   C3B 1176   7.839   4.189   8.309 -0.1775 -0.3206 -0.2896
   52POPC   C4B 1177   7.496   3.907   8.376  0.0333 -0.2430 -0.2971
   53POPC   NC3 1178   2.156   9.825   9.386 -0.1844  0.0284  0.2827
   53POPC   PO4 1179   2.179   9.408   9.290  0.1389  0.0280 -0.2566
   53POPC   GL1 1180   2.086   9.145   8.834 -0.3545 -0.1499 -0.1959
   53POPC   GL2 1181   1.765   9.080   8.747 -0.3057 -0.2468  0.1184
   53POPC   C1A 1182   2.210   9.169   8.401 -0.2156 -0.4106 -0.2502
   53POPC   D2A 1183   2.189   9.125   7.920 -0.1774  0.0130  0.1212
   53POPC   C3A 1184   1.843   9.070   7.851  0.1299  0.0747 -0.2188
   53POPC   C4A 1185   1.484   9.289   7.959  0.2471 -0.0899  0.0802
   53POPC   C1B 1186   1.791   8.824   8.299 -0.1535  0.1101  0.0163
   53POPC   C2B 1187   1.661   8.623   7.886  0.1338 -0.0399  0.2563
   53POPC   C3B 1188   1.268   8.634   7.461  0.1659  0.0606  0.0134
   53POPC   C4B 1189   1.437   8.852   7.077 -0.2132 -0.2718 -0.1431
   54POPC   NC3 1190   8.733   8.361   9.110  0.0591 -0.1463 -0.5349
   54POPC   PO4 1191   9.118   8.729   9.006  0.1318  0.4966  0.1055
   54POPC   GL1 1192   8.960   8.496   8.664  0.2103 -0.1767 -0.3378
   54POPC   GL2 1193   9.223   8.314   8.718 -0.2373 -0.1795 -0.2225
   54POPC   C1A 1194   8.640   8.447   8.337 -0.1426  0.0481  0.4938
   54POPC   D2A 1195   8.427   8.678   8.003 -0.3765 -0.3167  0.2075
   54POPC   C3A 1196   8.451   8.805   7.632 -0.0621 -0.2397 -0.0223
   54POPC   C4A 1197   8.294   8.831   7.344  0.1397 -0.0450 -0.0568
   54POPC   C1B 1198   9.137   8.263   8.249  0.1844 -0.0763  0.1032
   54POPC   C2B 1199   9.239   7.855   8.086  0.1404  0.0699 -0.0214
   54POPC   C3B 1200   8.963   7.659   7.744 -0.1396  0.0290 -0.1459
   54POPC   C4B 1201   8.931   7.517   7.324  0.1607  0.2121 -0.1145
   55POPC   NC3 1202   2.966   0.596   9.012 -0.0477  0.1274 -0.2272
   55POPC   PO4 1203   2.461   0.336   8.906  0.1680 -0.3460 -0.1847
   55POPC   GL1 1204   2.390   0.056   8.627 -0.0372  0.0248  0.3219
   55POPC   GL2 1205   2.076  -0.064   8.447 -0.0163 -0.2939  0.1192
   55POPC   C1A 1206   2.425   0.008   8.101 -0.3861  0.0197 -0.1691
   55POPC   D2A 1207   2.512   0.069   7.698 -0.0165 -0.0460 -0.1654
   55POPC   C3A 1208   2.555  -0.340   7.528  0.1159  0.0540 -0.1510
   55POPC   C4A 1209   2.273  -0.707   7.521  0.1846 -0.2708  0.1114
   55POPC   C1B 1210   1.716  -0.232   8.410  0.1993  0.3590  0.1673
   55POPC   C2B 1211   1.432  -0.337   8.109 -0.0685  0.0645 -0.3788
   55POPC   C3B 1212   1.632  -0.377   7.757 -0.1096  0.2165 -0.2339
   55POPC   C4B 1213   1.555  -0.041   7.570  0.0477 -0.2225  0.1340
   56POPC   NC3 1214   7.499   4.710   9.951 -0.2541  0.0435  0.1091
   56POPC   PO4 1215   7.189   5.141   9.810 -0.3693 -0.1631 -0.0003
   56POPC   GL1 1216   7.239   5.190   9.412  0.4524 -0.1454 -0.0725
   56POPC   GL2 1217   6.943   5.031   9.228 -0.3723 -0.0283 -0.2748
   56POPC   C1A 1218   7.168   5.578   9.242 -0.1714 -0.1436  0.1711
   56POPC   D2A 1219   7.165   5.916   8.979  0.1939  0.2160 -0.0282
   56POPC   C3A 1220   7.427   5.969   8.676  0.0015  0.1301 -0.2763
   56POPC   C4A 1221   7.556   6.164   8.314 -0.0838  0.0207  0.0124
   56POPC   C1B 1222   6.833   5.229   8.806  0.1222 -0.2252 -0.3016
   56POPC   C2B 1223   7.018   5.557   8.569  0.1440  0.1549  0.0018
   56POPC   C3B 1224   7.417   5.651   8.351 -0.2047  0.3321  0.1935
   56POPC   C4B 1225   7.742   5.751   8.047 -0.0686 -0.2217 -0.4253
   57POPC   NC3 1226   2.823   0.706   9.664  0.2163  0.2504 -0.1264
   57POPC   PO4 1227   2.599   0.702   9.283  0.0210 -0.0933  0.0788
   57POPC   GL1 1228   2.468   0.885   8.876 -0.0789 -0.3864  0.0435
   57POPC   GL2 1229   2.462   1.174   8.719  0.3142  0.2256  0.0664
   57POPC   C1A 1230   2.250   0.870   8.430  0.4255 -0.2223 -0.1536
   57POPC   D2A 1231   2.051   0.984   8.060 -0.2140 -0.0668 -0.1681
   57POPC   C3A 1232   2.298   0.794   7.606 -0.2576 -0.0447  0.2851
   57POPC   C4A 1233   2.402   0.792   7.114  0.1768 -0.1157 -0.0053
   57POPC   C1B 1234   2.450   1.293   8.280 -0.3177  0.1126  0.0957
   57POPC   C2B 1235   2.460   1.249   7.785  0.0580  0.1024 -0.0209
   57POPC   C3B 1236   2.721   1.027   7.500  0.2232 -0.0235  0.1508
   57POPC   C4B 1237   3.047   0.939   7.116  0.0733  0.2400  0.0210
   58POPC   NC3 1238   7.879   0.704   9.760 -0.0041  0.1653  0.2258
   58POPC   PO4 1239   8.129   0.966   9.406 -0.0098 -0.0582  0.2636
   58POPC   GL1 1240   8.245   1.196   9.057  0.0991  0.2715 -0.1505
   58POPC   GL2 1241   8.486   1.359   8.981 -0.0116  0.1773  0.3465
   58POPC   C1A 1242   8.079   1.120   8.699 -0.1617 -0.0317 -0.0959
   58POPC   D2A 1243   8.089   0.850   8.344  0.0099  0.3847  0.3639
   58POPC   C3A 1244   7.794   0.537   8.196  0.2813  0.5032  0.0679
   58POPC   C4A 1245   7.536   0.223   8.048  0.3225  0.0617  0.0604
   58POPC   C1B 1246   8.435   1.454   8.603 -0.0818 -0.2349 -0.1052
   58POPC   C2B 1247   8.479   1.515   8.149  0.0186 -0.0699 -0.2253
   58POPC   C3B 1248   8.535   1.492   7.667  0.3512 -0.2025  0.1706
   58POPC   C4B 1249   8.304   1.126   7.480  0.1858  0.0065 -0.0081
   59POPC   NC3 1250   7.390   5.989   9.900  0.3102  0.2136  0.1086
   59POPC   PO4 1251   7.819   6.110   9.903  0.0402  0.0080  0.1150
   59POPC   GL1 1252   8.046   5.917   9.459 -0.2076 -0.1857  0.3631
   59POPC   GL2 1253   8.039   5.702   9.245 -0.1085 -0.0520  0.2065
   59POPC   C1A 1254   8.420   6.083   9.202 -0.0913 -0.3530 -0.0443
   59POPC   D2A 1255   8.486   6.108   8.767 -0.0203 -0.0947  0.1985
   59POPC   C3A 1256   8.298   6.215   8.370 -0.1642 -0.0949  0.1368
   59POPC   C4A 1257   8.128   6.157   8.061  0.2220  0.0332  0.0532
   59POPC   C1B 1258   8.337   5.362   9.262 -0.2539 -0.1675  0.1736
   59POPC   C2B 1259   8.606   5.011   9.297  0.0555 -0.0239  0.0769
   59POPC   C3B 1260   8.887   4.802   9.038  0.0126  0.0706  0.1485
   59POPC   C4B 1261   9.224   4.560   8.809  0.1401 -0.4081  0.0782
   60POPC   NC3 1262   6.046   5.877   9.042  0.0777  0.3361  0.2277
   60POPC   PO4 1263   6.159   5.505   8.873  0.0320 -0.1749 -0.3514
   60POPC   GL1 1264   5.958   5.614   8.531  0.1023 -0.2261  0.0968
   60POPC   GL2 1265   6.214   5.423   8.347  0.1151  0.3274 -0.0111
   60POPC   C1A 1266   5.696   5.476   8.151 -0.2987 -0.0107  0.0904
   60POPC   D2A 1267   5.791   5.342   7.708 -0.0801  0.2895  0.2025
   60POPC   C3A 1268   5.414   5.494   7.362 -0.0832 -0.0710  0.0612
   60POPC   C4A 1269   5.091   5.712   7.395 -0.0156 -0.0363 -0.0517
   60POPC   C1B 1270   6.181   5.642   7.951 -0.0379 -0.0005 -0.3185
   60POPC   C2B 1271   6.532   5.725   7.580 -0.1885  0.3835 -0.0407
   60POPC   C3B 1272   6.905   5.771   7.356 -0.0162  0.2206  0.1246
   60POPC   C4B 1273   6.952   5.783   6.943  0.1529 -0.1160 -0.0161
   61POPC   NC3 1274   4.390   7.854   9.034 -0.0402  0.2419  0.1477
   61POPC   PO4 1275   4.742   7.581   9.003  0.1136  0.2091 -0.1894
   61POPC   GL1 1276   4.711   7.727   8.620  0.0746 -0.3171  0.0964
   61POPC   GL2 1277   4.989   7.771   8.497  0.0847 -0.3152  0.0946
   61POPC   C1A 1278   4.403   7.669   8.308  0.0464 -0.0314  0.1268
   61POPC   D2A 1279   3.922   7.497   8.200  0.1442 -0.2430 -0.1296
   61POPC   C3A 1280   3.837   7.638   7.787  0.0241 -0.1240 -0.0146
   61POPC   C4A 1281   3.648   7.924   7.429 -0.0161 -0.1457  0.1486
   61POPC   C1B 1282   4.771   7.798   8.008 -0.1711 -0.2199 -0.1044
   61POPC   C2B 1283   4.417   7.987   7.720  0.0213 -0.1825 -0.1328
   61POPC   C3B 1284   4.110   8.182   7.451 -0.2171 -0.2177 -0.0610
   61POPC   C4B 1285   3.885   8.317   7.060  0.1393  0.1889  0.1812
   62POPC   NC3 1286   9.637   7.464   9.819 -0.2913  0.1707  0.1053
   62POPC   PO4 1287   9.959   7.681   9.702 -0.0195  0.2133 -0.0365
   62POPC   GL1 1288   9.849   7.488   9.294 -0.0758  0.0902  0.1152
   62POPC   GL2 1289   9.549   7.320   9.320 -0.1706 -0.0834 -0.0279
   62POPC   C1A 1290   9.860   7.352   8.968  0.0094  0.1294 -0.0834
   62POPC   D2A 1291   9.618   7.149   8.777  0.3396 -0.2170 -0.2574
   62POPC   C3A 1292   9.353   6.961   8.972  0.1140  0.0061  0.1247
   62POPC   C4A 1293   9.081   6.625   9.034  0.0123 -0.0254 -0.3361
   62POPC   C1B 1294   9.326   7.650   9.089 -0.0121  0.0783  0.0320
   62POPC   C2B 1295   9.553   7.797   8.792 -0.0818 -0.0439 -0.0874
   62POPC   C3B 1296   9.548   7.631   8.378 -0.0757 -0.0151  0.0229
   62POPC   C4B 1297   9.443   7.407   7.991  0.3036  0.2571 -0.1259
   63POPC   NC3 1298   4.525   5.205   8.754  0.0931  0.2028 -0.1337
   63POPC   PO4 1299   5.011   5.159   8.651  0.0591 -0.0529 -0.0127
   63POPC   GL1 1300   5.252   5.260   8.296  0.3281 -0.0301  0.1317
   63POPC   GL2 1301   5.478   4.972   8.294  0.3747 -0.2179 -0.1083
   63POPC   C1A 1302   5.289   5.216   7.777  0.1283  0.2517 -0.1631
   63POPC   D2A 1303   5.016   5.151   7.412 -0.0163 -0.0278 -0.3172
   63POPC   C3A 1304   5.062   5.258   7.003  0.0936 -0.1435 -0.1677
   63POPC   C4A 1305   4.951   5.553   6.645  0.1709 -0.0812 -0.1481
   63POPC   C1B 1306   5.144   4.748   7.990  0.0802  0.2055 -0.1946
   63POPC   C2B 1307   4.996   4.678   7.519  0.2591  0.0950  0.0027
   63POPC   C3B 1308   5.121   4.752   7.059  0.2628 -0.0678 -0.2190
   63POPC   C4B 1309   5.232   4.590   6.641 -0.2812 -0.0706  0.1329
   64POPC   NC3 1310   3.421   4.245   9.113 -0.1551  0.1513 -0.0726
   64POPC   PO4 1311   3.597   4.225   8.710  0.0209 -0.3500 -0.0958
   64POPC   GL1 1312   3.714   4.400   8.442 -0.2110  0.1541 -0.1007
   64POPC   GL2 1313   4.001   4.456   8.308  0.0350  0.1298 -0.0722
   64POPC   C1A 1314   3.580   4.746   8.166 -0.0193 -0.0116 -0.0075
   64POPC   D2A 1315   3.619   5.009   7.750 -0.0119 -0.1327 -0.2564
   64POPC   C3A 1316   3.642   4.795   7.374  0.0952  0.0178 -0.2873
   64POPC   C4A 1317   3.646   4.654   7.018 -0.0559  0.1529  0.0101
   64POPC   C1B 1318   3.804   4.367   7.931  0.1244  0.3563  0.1126
   64POPC   C2B 1319   3.830   4.161   7.420  0.0256  0.0656  0.3555
   64POPC   C3B 1320   3.706   3.993   7.031 -0.2081  0.0339  0.1463
   64POPC   C4B 1321   3.786   3.659   6.724 -0.0020  0.1429 -0.0360
   65POPC   NC3 1322   0.993   6.567  10.353 -0.2407 -0.1941  0.2504
   65POPC   PO4 1323   0.869   6.187  10.206 -0.1147 -0.1931  0.3136
   65POPC   GL1 1324   1.043   6.036   9.793  0.1505 -0.1908  0.0678
   65POPC   GL2 1325   1.319   6.222   9.827 -0.1768  0.0822 -0.1682
   65POPC   C1A 1326   0.842   5.853   9.441 -0.1450  0.0903 -0.2459
   65POPC   D2A 1327   0.538   5.657   9.283 -0.1777 -0.3909 -0.2505
   65POPC   C3A 1328   0.568   5.649   8.913  0.2601  0.0361  0.2641
   65POPC   C4A 1329   0.701   5.743   8.554 -0.2102  0.0155  0.0472
   65POPC   C1B 1330   1.339   6.143   9.353 -0.1087 -0.1004 -0.4453
   65POPC   C2B 1331   1.101   6.119   9.031  0.0757  0.0577  0.0714
   65POPC   C3B 1332   1.048   6.088   8.636 -0.0608 -0.2020 -0.1470
   65POPC   C4B 1333   1.328   6.176   8.255  0.3180 -0.0124 -0.2305
   66POPC   NC3 1334   7.958   5.388  10.339 -0.0559 -0.1487  0.0773
   66POPC   PO4 1335   7.684   5.537  10.119  0.2797  0.1657 -0.1971
   66POPC   GL1 1336   7.645   5.323   9.779 -0.0521 -0.1579 -0.0248
   66POPC   GL2 1337   7.857   5.192   9.631  0.2275  0.1676 -0.0281
   66POPC   C1A 1338   7.671   5.380   9.243 -0.1527  0.1351  0.1636
   66POPC   D2A 1339   7.459   5.508   8.877 -0.1473 -0.0402 -0.0914
   66POPC   C3A 1340   7.640   5.280   8.545  0.1923 -0.5352 -0.0823
   66POPC   C4A 1341   7.625   5.038   8.167 -0.0824  0.1137 -0.0422
   66POPC   C1B 1342   8.032   5.022   9.277  0.0501  0.1949 -0.2249
   66POPC   C2B 1343   8.000   5.336   8.905 -0.1602 -0.0199  0.0665
   66POPC   C3B 1344   8.109   5.391   8.447  0.0566 -0.0766  0.1105
   66POPC   C4B 1345   8.236   5.644   8.066 -0.0395 -0.2044  0.1135
   67POPC   NC3 1346   8.687   7.146   9.859  0.1578 -0.2322  0.1309
   67POPC   PO4 1347   8.526   7.157   9.528  0.0872 -0.1519 -0.1545
   67POPC   GL1 1348   8.629   7.242   9.155 -0.4222 -0.0919 -0.0321
   67POPC   GL2 1349   9.022   7.278   9.225 -0.3843 -0.2381  0.1560
   67POPC   C1A 1350   8.752   6.983   8.857 -0.0856  0.1921 -0.1569
   67POPC   D2A 1351   8.819   6.915   8.492 -0.0996 -0.0241 -0.1326
   67POPC   C3A 1352   8.504   6.979   8.267 -0.1299  0.0975  0.0797
   67POPC   C4A 1353   8.298   6.667   8.063 -0.0264  0.1445  0.0263
   67POPC   C1B 1354   9.073   7.297   8.757  0.2536 -0.1444  0.0986
   67POPC   C2B 1355   9.316   7.107   8.382  0.3273  0.0933 -0.1418
   67POPC   C3B 1356   9.739   7.107   8.326  0.0864  0.0928 -0.1967
   67POPC   C4B 1357  10.118   6.823   8.160 -0.2690  0.4739 -0.2306
   68POPC   NC3 1358   3.044   1.760   9.070  0.5657 -0.0638 -0.2470
   68POPC   PO4 1359   3.380   1.774   8.860 -0.0420  0.2406 -0.2197
   68POPC   GL1 1360   3.252   1.714   8.505  0.1638 -0.1368  0.0421
   68POPC   GL2 1361   3.408   1.380   8.559 -0.1392 -0.0587  0.2680
   68POPC   C1A 1362   3.318   1.503   8.070 -0.0549 -0.1699  0.0591
   68POPC   D2A 1363   3.728   1.558   7.851  0.2122  0.3173 -0.1073
   68POPC   C3A 1364   3.663   1.735   7.490  0.1018  0.0909  0.2624
   68POPC   C4A 1365   3.425   1.972   7.242  0.0958 -0.0685  0.0212
   68POPC   C1B 1366   3.603   1.116   8.332 -0.3414  0.0741  0.0760
   68POPC   C2B 1367   3.894   0.897   8.075 -0.1173 -0.1495  0.2388
   68POPC   C3B 1368   4.050   1.049   7.739 -0.2931 -0.1123  0.2847
   68POPC   C4B 1369   3.910   1.263   7.523  0.1670 -0.0159  0.1138
   69POPC   NC3 1370   5.736   2.818   9.426  0.1752 -0.2562 -0.3332
   69POPC   PO4 1371   5.916   2.838   8.995  0.0023  0.3306 -0.0544
   69POPC   GL1 1372   6.178   2.767   8.554  0.1024  0.0586  0.2505
   69POPC   GL2 1373   6.111   2.951   8.350  0.3135  0.2521  0.0906
   69POPC   C1A 1374   6.563   2.996   8.297  0.0755 -0.1616 -0.2382
   69POPC   D2A 1375   6.605   3.044   7.801 -0.1985  0.0244 -0.5713
   69POPC   C3A 1376   6.994   3.040   7.526 -0.0678  0.5504  0.1274
   69POPC   C4A 1377   7.230   2.992   7.179  0.1442  0.1329  0.0532
   69POPC   C1B 1378   6.133   3.125   7.930 -0.0768  0.1067 -0.0521
   69POPC   C2B 1379   6.016   3.057   7.485 -0.1809 -0.0920 -0.1426
   69POPC   C3B 1380   5.975   3.171   7.005  0.1904 -0.3382 -0.1603
   69POPC   C4B 1381   5.842   3.136   6.499 -0.4593 -0.1044 -0.1494
   70POPC   NC3 1382   8.631   0.222   9.254 -0.0609  0.0572 -0.0142
   70POPC   PO4 1383   8.305   0.121   9.141 -0.2223  0.3523  0.1987
   70POPC   GL1 1384   8.221   0.002   8.729 -0.1312  0.2207 -0.2075
   70POPC   GL2 1385   8.523  -0.153   8.755  0.0318 -0.2316 -0.1033
   70POPC   C1A 1386   7.999   0.060   8.333 -0.2320 -0.2345  0.2132
   70POPC   D2A 1387   7.959  -0.008   7.964  0.1268 -0.3701  0.2292
   70POPC   C3A 1388   8.016   0.334   7.756  0.2491  0.3206  0.0905
   70POPC   C4A 1389   7.636   0.607   7.714 -0.1804  0.3532  0.0757
   70POPC   C1B 1390   8.467  -0.111   8.327  0.0491  0.0005  0.0537
   70POPC   C2B 1391   8.483   0.048   7.793 -0.1750  0.0861 -0.6216
   70POPC   C3B 1392   8.448   0.194   7.485  0.2538  0.0663 -0.0826
   70POPC   C4B 1393   8.301   0.623   7.414 -0.1933  0.1236  0.0350
   71POPC   NC3 1394   6.764   6.961   9.215 -0.0780 -0.0685  0.4487
   71POPC   PO4 1395   6.755   7.366   9.370 -0.0011  0.2949  0.1707
   71POPC   GL1 1396   7.076   7.371   9.022 -0.1392  0.1276 -0.0616
   71POPC   GL2 1397   7.470   7.355   9.048  0.2216 -0.2370 -0.1887
   71POPC   C1A 1398   7.148   7.460   8.653 -0.4198 -0.1957 -0.0878
   71POPC   D2A 1399   7.282   7.512   8.347 -0.1272  0.0401  0.1218
   71POPC   C3A 1400   7.347   7.807   8.023 -0.0013  0.0438  0.1787
   71POPC   C4A 1401   7.671   8.045   7.780 -0.0215  0.3244 -0.3001
   71POPC   C1B 1402   7.559   7.154   8.631  0.0925 -0.1962 -0.0503
   71POPC   C2B 1403   7.894   6.965   8.434 -0.1650 -0.1171  0.2476
   71POPC   C3B 1404   7.937   7.032   8.035  0.1530  0.1405  0.2874
   71POPC   C4B 1405   8.061   7.025   7.598 -0.0445 -0.0422  0.2883
   72POPC   NC3 1406   5.011   0.107   9.482  0.3401 -0.1479  0.0676
   72POPC   PO4 1407   5.231   0.132   9.072 -0.1981  0.2286  0.1303
   72POPC   GL1 1408   5.288   0.222   8.646  0.1195  0.2644 -0.0494
   72POPC   GL2 1409   4.981   0.352   8.546  0.0775  0.1142 -0.1656
   72POPC   C1A 1410   5.318   0.444   8.185 -0.0743  0.0211 -0.2317
   72POPC   D2A 1411   5.426   0.767   7.946  0.3549 -0.2831  0.1731
   72POPC   C3A 1412   5.584   1.200   7.951  0.0957  0.0608  0.2423
   72POPC   C4A 1413   5.627   1.742   7.883 -0.0236  0.0984 -0.0177
   72POPC   C1B 1414   4.758   0.241   8.252 -0.0595  0.0409  0.0825
   72POPC   C2B 1415   4.756   0.146   7.874 -0.0548 -0.0868  0.0210
   72POPC   C3B 1416   4.652   0.299   7.532 -0.1823 -0.0335 -0.0852
   72POPC   C4B 1417   4.288   0.251   7.406 -0.0208  0.0559  0.0022
   73POPC   NC3 1418   5.537   8.763   8.973  0.2124  0.0079  0.1473
   73POPC   PO4 1419   5.185   8.761   8.670 -0.1779 -0.0439  0.3091
   73POPC   GL1 1420   5.276   8.697   8.234 -0.1130 -0.3558 -0.0563
   73POPC   GL2 1421   5.403   8.410   8.060  0.4333 -0.1211  0.3732
   73POPC   C1A 1422   5.444   8.934   8.004  0.0380  0.3023 -0.0327
   73POPC   D2A 1423   5.695   9.102   7.677 -0.0296  0.0076 -0.1997
   73POPC   C3A 1424   5.650   8.858   7.382 -0.0159 -0.4675  0.0979
   73POPC   C4A 1425   5.704   8.689   6.998 -0.0601  0.0674  0.0943
   73POPC   C1B 1426   5.329   8.503   7.661  0.0782  0.3189 -0.0408
   73POPC   C2B 1427   5.188   8.686   7.283 -0.1320 -0.0561  0.0706
   73POPC   C3B 1428   5.101   8.682   6.820 -0.1748  0.0785  0.0712
   73POPC   C4B 1429   5.048   8.759   6.371  0.1499 -0.2887 -0.1753
   74POPC   NC3 1430   9.877   8.131   9.896 -0.0838  0.0559 -0.0613
   74POPC   PO4 1431   9.915   8.146   9.361 -0.0951  0.1147 -0.1087
   74POPC   GL1 1432   9.981   7.996   9.002  0.1388  0.0133 -0.2903
   74POPC   GL2 1433   9.753   8.308   8.806  0.1641  0.0970  0.0083
   74POPC   C1A 1434  10.058   7.777   8.616 -0.0902 -0.2916 -0.0469
   74POPC   D2A 1435  10.092   7.465   8.340 -0.0479  0.0360  0.0398
   74POPC   C3A 1436   9.982   7.300   7.936 -0.1589  0.2750 -0.2521
   74POPC   C4A 1437   9.746   7.430   7.591 -0.0367  0.1299  0.0543
   74POPC   C1B 1438  10.120   8.269   8.593  0.1519  0.0686 -0.0104
   74POPC   C2B 1439  10.325   7.966   8.240 -0.1390  0.2883 -0.0161
   74POPC   C3B 1440  10.606   7.604   8.126 -0.0904 -0.2149  0.1922
   74POPC   C4B 1441  10.526   7.135   8.075  0.1933  0.1604 -0.1967
   75POPC   NC3 1442   3.524   8.066   8.968  0.0037 -0.0509  0.1667
   75POPC   PO4 1443   3.869   7.785   9.040  0.1277  0.0495 -0.0534
   75POPC   GL1 1444   3.689   7.770   8.576  0.3101  0.3088  0.1147
   75POPC   GL2 1445   3.376   7.550   8.386  0.1189  0.0667 -0.0371
   75POPC   C1A 1446   3.636   7.990   8.119  0.1496 -0.0787  0.0934
   75POPC   D2A 1447   3.245   8.197   7.835 -0.2363  0.0042  0.0519
   75POPC   C3A 1448   2.851   7.928   7.697 -0.0515  0.1052 -0.2231
   75POPC   C4A 1449   2.798   7.761   7.420 -0.2693 -0.1688 -0.1502
   75POPC   C1B 1450   3.241   7.683   7.977 -0.0331 -0.0294  0.1572
   75POPC   C2B 1451   3.222   7.594   7.570 -0.0607 -0.0924  0.2502
   75POPC   C3B 1452   3.502   7.369   7.370  0.2506 -0.3144 -0.0283
   75POPC   C4B 1453   3.870   7.488   7.296  0.0569  0.4105  0.1592
   76POPC   NC3 1454   1.804   7.720   9.221 -0.0089  0.0202 -0.1297
   76POPC   PO4 1455   1.619   7.794   9.539 -0.1722  0.3146 -0.0263
   76POPC   GL1 1456   1.284   7.677   9.179 -0.1624  0.0727 -0.1087
   76POPC   GL2 1457   1.552   7.572   8.825  0.0376  0.2723  0.0038
   76POPC   C1A 1458   0.860   7.518   8.935  0.1804  0.0537  0.0087
   76POPC   D2A 1459   0.733   7.631   8.630  0.1734 -0.3693  0.0211
   76POPC   C3A 1460   0.444   7.986   8.649  0.0423  0.0845  0.0670
   76POPC   C4A 1461   0.498   8.394   8.459 -0.0889 -0.0317  0.0301
   76POPC   C1B 1462   1.234   7.614   8.530 -0.1119  0.2232 -0.1865
   76POPC   C2B 1463   0.946   7.419   8.185  0.0000  0.0628 -0.1153
   76POPC   C3B 1464   0.695   7.312   7.713 -0.3615 -0.2337  0.2999
   76POPC   C4B 1465   0.787   7.619   7.277  0.0374  0.2697  0.2038
   77POPC   NC3 1466   0.858   2.948   9.697 -0.0776  0.2367  0.1529
   77POPC   PO4 1467   0.503   2.831   9.864 -0.0518 -0.4288  0.2023
   77POPC   GL1 1468   0.174   3.051   9.686 -0.0747 -0.1912 -0.1731
   77POPC   GL2 1469   0.039   2.769   9.669 -0.0085  0.2159  0.3763
   77POPC   C1A 1470   0.072   3.381   9.391  0.1966 -0.0944 -0.0169
   77POPC   D2A 1471  -0.075   3.484   8.961  0.1038  0.2128  0.2157
   77POPC   C3A 1472  -0.322   3.139   8.748  0.1355 -0.1392  0.1433
   77POPC   C4A 1473  -0.457   2.833   8.459 -0.0474 -0.0411 -0.1061
   77POPC   C1B 1474  -0.057   2.882   9.254  0.0739 -0.2194  0.0258
   77POPC   C2B 1475   0.139   3.013   8.910  0.1452 -0.0423  0.3310
   77POPC   C3B 1476   0.171   3.285   8.553  0.3602  0.1698  0.0540
   77POPC   C4B 1477   0.107   2.932   8.340  0.0284  0.3491 -0.1819
   78POPC   NC3 1478  10.068   6.168  10.466  0.0471  0.2462 -0.0853
   78POPC   PO4 1479   9.718   6.340  10.194  0.0152 -0.2695  0.0022
   78POPC   GL1 1480   9.883   6.472   9.953 -0.3952  0.1565  0.3378
   78POPC   GL2 1481   9.721   6.268   9.684  0.2659 -0.0669  0.4229
   78POPC   C1A 1482  10.059   6.635   9.508 -0.1364 -0.0163  0.1270
   78POPC   D2A 1483  10.170   6.836   9.108  0.1598  0.1568  0.0197
   78POPC   C3A 1484  10.285   7.166   9.080  0.0668  0.1825 -0.0761
   78POPC   C4A 1485  10.503   7.570   8.970  0.0896 -0.0869  0.5252
   78POPC   C1B 1486   9.840   6.012   9.371  0.0781 -0.0159 -0.0876
   78POPC   C2B 1487   9.869   5.806   8.952  0.1697 -0.1134  0.0554
   78POPC   C3B 1488   9.968   6.094   8.563  0.0543 -0.0479 -0.0254
   78POPC   C4B 1489   9.946   6.344   8.242  0.2851  0.0673 -0.2257
   79POPC   NC3 1490   2.501   9.071   9.068  0.1009 -0.1511  0.0003
   79POPC   PO4 1491   2.710   9.458   9.233 -0.4075  0.0421  0.1538
   79POPC   GL1 1492   2.504   9.500   8.800 -0.2498 -0.0753  0.2281
   79POPC   GL2 1493   2.636   9.262   8.571 -0.0436 -0.4207  0.1057
   79POPC   C1A 1494   2.494   9.727   8.469 -0.0588 -0.1193 -0.0672
   79POPC   D2A 1495   2.642   9.699   8.030  0.0950  0.0651 -0.2892
   79POPC   C3A 1496   3.015   9.626   7.958 -0.1911  0.1546  0.1984
   79POPC   C4A 1497   3.108   9.558   7.576 -0.2557  0.1725 -0.0117
   79POPC   C1B 1498   2.621   9.207   8.154 -0.0067  0.1604  0.0191
   79POPC   C2B 1499   2.765   9.228   7.759 -0.1165  0.2224 -0.0082
   79POPC   C3B 1500   2.700   9.279   7.301 -0.2445 -0.0494  0.3593
   79POPC   C4B 1501   2.790   9.591   7.038 -0.1344  0.0499 -0.2729
   80POPC   NC3 1502   4.596   4.057   9.241  0.0353 -0.0481 -0.2423
   80POPC   PO4 1503   4.434   4.230   8.888 -0.1868 -0.0815  0.2944
   80POPC   GL1 1504   4.474   4.292   8.398  0.4041 -0.0392  0.2903
   80POPC   GL2 1505   4.437   3.968   8.303 -0.0943 -0.1418  0.0870
   80POPC   C1A 1506   4.471   4.632   8.007 -0.0692  0.0546 -0.3488
   80POPC   D2A 1507   4.578   4.886   7.713  0.1756  0.0552  0.0913
   80POPC   C3A 1508   4.611   4.798   7.176 -0.1103 -0.2065 -0.3692
   80POPC   C4A 1509   4.724   4.942   6.782  0.4272  0.4202  0.1258
   80POPC   C1B 1510   4.613   3.793   7.980  0.3516  0.3215 -0.0234
   80POPC   C2B 1511   4.417   3.777   7.644 -0.2242 -0.1126  0.0289
   80POPC   C3B 1512   4.079   3.735   7.409  0.5618 -0.0782 -0.1240
   80POPC   C4B 1513   3.671   3.479   7.384  0.0695  0.1947 -0.0687
   81POPC   NC3 1514   8.444   3.427  10.598  0.0804  0.0813  0.0426
   81POPC   PO4 1515   8.550   3.732  10.199  0.0376  0.0265  0.1278
   81POPC   GL1 1516   8.796   4.017  10.150 -0.0624  0.3470 -0.0037
   81POPC   GL2 1517   9.106   4.037  10.417 -0.2285  0.0574 -0.0836
   81POPC   C1A 1518   9.095   4.167   9.854  0.2288  0.0253  0.3496
   81POPC   D2A 1519   9.176   4.361   9.455 -0.0994 -0.1285  0.0344
   81POPC   C3A 1520   9.157   3.965   9.087 -0.3154 -0.2781  0.2850
   81POPC   C4A 1521   9.596   3.715   8.825 -0.0617  0.2298 -0.1645
   81POPC   C1B 1522   9.029   4.574  10.168  0.0414  0.2104 -0.4236
   81POPC   C2B 1523   9.372   4.931  10.080 -0.0781  0.0696 -0.2092
   81POPC   C3B 1524   9.611   5.247   9.783  0.2589 -0.0879 -0.2513
   81POPC   C4B 1525   9.817   5.159   9.403  0.0736 -0.1961  0.2031
   82POPC   NC3 1526   2.983   5.402   9.689 -0.0331  0.1870 -0.1039
   82POPC   PO4 1527   3.030   5.666   9.303  0.0812  0.1431  0.0467
   82POPC   GL1 1528   2.777   5.498   8.844  0.1050 -0.2606  0.0227
   82POPC   GL2 1529   3.031   5.296   8.658  0.0115  0.0446 -0.0758
   82POPC   C1A 1530   2.561   5.702   8.559 -0.1219  0.0351  0.1118
   82POPC   D2A 1531   2.618   5.956   8.297 -0.2110  0.4850  0.0017
   82POPC   C3A 1532   2.167   6.015   8.029  0.1336  0.1959  0.1130
   82POPC   C4A 1533   2.016   5.789   7.769 -0.4960  0.4522 -0.0245
   82POPC   C1B 1534   2.958   5.566   8.211 -0.2774  0.0415 -0.0806
   82POPC   C2B 1535   2.995   5.524   7.758 -0.0212 -0.0065  0.4210
   82POPC   C3B 1536   3.025   5.642   7.336  0.2516 -0.0279  0.3735
   82POPC   C4B 1537   3.137   5.929   6.969 -0.1470 -0.0677 -0.0141
   83POPC   NC3 1538   6.260   8.482   9.432 -0.3704 -0.2778  0.0027
   83POPC   PO4 1539   6.542   8.212   9.208  0.0244 -0.1250 -0.2056
   83POPC   GL1 1540   6.708   8.233   8.793  0.1752 -0.2048 -0.2038
   83POPC   GL2 1541   6.517   8.030   8.636  0.0329  0.0646  0.2009
   83POPC   C1A 1542   6.910   8.474   8.459  0.0911  0.0767  0.3660
   83POPC   D2A 1543   6.885   8.649   8.104 -0.1402 -0.0182 -0.2510
   83POPC   C3A 1544   6.960   8.674   7.660 -0.0487 -0.0379  0.2939
   83POPC   C4A 1545   7.012   8.561   7.255  0.1137 -0.1540  0.0207
   83POPC   C1B 1546   6.563   8.130   8.177 -0.2386 -0.0214 -0.2064
   83POPC   C2B 1547   6.411   7.855   8.065 -0.1922 -0.1522 -0.2743
   83POPC   C3B 1548   5.974   7.737   7.949 -0.0474 -0.2278  0.0470
   83POPC   C4B 1549   5.682   8.085   7.826 -0.1680 -0.0642  0.2052
   84POPC   NC3 1550   6.468   0.744   8.899  0.3673 -0.0330 -0.0950
   84POPC   PO4 1551   6.714   0.564   9.158  0.3326  0.1831  0.1723
   84POPC   GL1 1552   6.938   0.615   8.681  0.0660 -0.2118 -0.4333
   84POPC   GL2 1553   7.056   0.356   8.607  0.0789  0.0239 -0.1237
   84POPC   C1A 1554   6.705   0.763   8.275  0.0464 -0.2002 -0.0895
   84POPC   D2A 1555   6.791   1.014   7.899  0.0635 -0.1083 -0.0044
   84POPC   C3A 1556   7.040   1.079   7.493 -0.0528 -0.1502 -0.1243
   84POPC   C4A 1557   6.945   1.087   7.069  0.2162 -0.0976 -0.3278
   84POPC   C1B 1558   7.195   0.615   8.261 -0.2861  0.3422  0.0409
   84POPC   C2B 1559   7.137   1.023   8.389  0.0885 -0.1986 -0.3213
   84POPC   C3B 1560   7.018   1.386   8.141 -0.0365 -0.1488 -0.3466
   84POPC   C4B 1561   6.678   1.511   7.810 -0.1705 -0.2296 -0.3095
   85POPC   NC3 1562   0.522   6.654  10.273 -0.1481  0.0141 -0.2573
   85POPC   PO4 1563   0.151   6.476  10.147 -0.1504 -0.2364 -0.1217
   85POPC   GL1 1564   0.436   6.316   9.813  0.2046  0.3761  0.0488
   85POPC   GL2 1565   0.477   5.979   9.752  0.0490 -0.4520 -0.2309
   85POPC   C1A 1566   0.282   6.187   9.381  0.0838  0.1492  0.0337
   85POPC   D2A 1567   0.140   5.914   9.138 -0.0772  0.0568  0.1402
   85POPC   C3A 1568   0.242   5.984   8.700 -0.2148  0.0708  0.1532
   85POPC   C4A 1569   0.261   6.132   8.333  0.1771  0.0581 -0.1234
   85POPC   C1B 1570   0.375   5.584   9.890 -0.2724 -0.0611  0.1456
   85POPC   C2B 1571   0.370   5.196   9.645  0.1089  0.2643  0.2579
   85POPC   C3B 1572   0.220   4.990   9.310  0.1069 -0.0810  0.2400
   85POPC   C4B 1573   0.117   4.582   9.089 -0.1825  0.2218  0.2318
   86POPC   NC3 1574   6.707   2.889   9.246 -0.0662 -0.1445  0.0630
   86POPC   PO4 1575   6.828   2.529   9.180 -0.3020  0.2368 -0.2856
   86POPC   GL1 1576   6.818   2.753   8.788  0.1806 -0.4464  0.2394
   86POPC   GL2 1577   6.691   2.508   8.592 -0.2011 -0.0885  0.0185
   86POPC   C1A 1578   6.922   3.214   8.617  0.1140  0.1432 -0.0573
   86POPC   D2A 1579   6.984   3.428   8.317  0.3587 -0.0526  0.1878
   86POPC   C3A 1580   6.904   3.427   7.902  0.0093  0.2861 -0.0605
   86POPC   C4A 1581   6.820   3.550   7.402  0.2106 -0.1644 -0.0092
   86POPC   C1B 1582   6.830   2.530   8.218  0.1632 -0.2254  0.0926
   86POPC   C2B 1583   6.854   2.595   7.799  0.0695  0.0734  0.0694
   86POPC   C3B 1584   6.771   2.576   7.425 -0.0161 -0.2001 -0.3060
   86POPC   C4B 1585   6.841   2.190   7.191 -0.1554 -0.0643 -0.0050
   87POPC   NC3 1586   1.745   6.987   9.836  0.1762  0.1236 -0.1136
   87POPC   PO4 1587   1.396   7.383   9.725  0.1310 -0.1924 -0.1150
   87POPC   GL1 1588   1.438   7.179   9.444  0.1119 -0.0031 -0.1448
   87POPC   GL2 1589   1.753   7.154   9.301 -0.3223  0.0981 -0.0072
   87POPC   C1A 1590   1.346   7.052   9.075  0.2107  0.1503  0.0320
   87POPC   D2A 1591   1.450   7.022   8.690 -0.2517  0.1995  0.1306
   87POPC   C3A 1592   1.339   7.115   8.262  0.0707 -0.0391  0.0521
   87POPC   C4A 1593   1.280   7.222   7.787  0.0439  0.0788  0.2493
   87POPC   C1B 1594   1.896   6.930   8.947 -0.3815 -0.2315  0.1580
   87POPC   C2B 1595   2.066   6.867   8.546  0.2316  0.3258  0.1883
   87POPC   C3B 1596   2.252   6.945   8.186  0.1212 -0.3223  0.3120
   87POPC   C4B 1597   2.598   7.030   7.924  0.0379  0.2503 -0.0838
   88POPC   NC3 1598   8.484   1.237   9.502  0.0292 -0.1712 -0.0228
   88POPC   PO4 1599   8.776   1.541   9.531 -0.0409 -0.0881  0.1038
   88POPC   GL1 1600   8.561   1.816   9.214  0.0119 -0.0528 -0.1959
   88POPC   GL2 1601   8.809   1.957   9.117  0.2423  0.0269  0.1419
   88POPC   C1A 1602   8.504   1.992   8.730 -0.2451 -0.2670  0.2874
   88POPC   D2A 1603   8.610   2.056   8.291 -0.0163  0.1450  0.1439
   88POPC   C3A 1604   8.688   1.931   7.845 -0.3419  0.0702 -0.2177
   88POPC   C4A 1605   8.857   1.781   7.479 -0.1787 -0.3296 -0.1411
   88POPC   C1B 1606   8.875   1.632   8.802 -0.1957 -0.2065  0.4459
   88POPC   C2B 1607   8.917   1.503   8.343  0.0859  0.1746  0.0065
   88POPC   C3B 1608   8.942   1.511   7.931  0.1904 -0.2303  0.1348
   88POPC   C4B 1609   9.130   1.476   7.732 -0.1441 -0.0409 -0.0320
   89POPC   NC3 1610   3.649   5.903   8.607 -0.2719 -0.1314  0.4197
   89POPC   PO4 1611   3.353   5.596   8.843  0.0405  0.2556  0.0796
   89POPC   GL1 1612   3.492   5.464   8.460  0.1735 -0.1625 -0.0177
   89POPC   GL2 1613   3.432   5.105   8.452  0.0321  0.0904  0.0244
   89POPC   C1A 1614   3.488   5.583   7.984 -0.0415  0.0593  0.0269
   89POPC   D2A 1615   3.418   5.607   7.592 -0.1248  0.3450 -0.0761
   89POPC   C3A 1616   3.264   6.036   7.431 -0.1308  0.3668 -0.0112
   89POPC   C4A 1617   2.789   6.300   7.373 -0.4122  0.0851  0.1349
   89POPC   C1B 1618   3.214   5.138   8.052  0.0799 -0.0111  0.3764
   89POPC   C2B 1619   3.208   5.104   7.477 -0.0592 -0.1811 -0.0683
   89POPC   C3B 1620   3.170   4.766   7.197  0.0879 -0.0772 -0.0660
   89POPC   C4B 1621   3.366   4.411   7.431  0.1002 -0.1726  0.1194
   90POPC   NC3 1622   0.597   8.366   9.183 -0.0768  0.3174 -0.1790
   90POPC   PO4 1623   0.924   8.151   9.224  0.1886  0.3791 -0.0788
   90POPC   GL1 1624   1.066   8.368   8.969 -0.2094 -0.0196  0.1435
   90POPC   GL2 1625   1.287   8.158   8.744  0.0907 -0.0392  0.1725
   90POPC   C1A 1626   1.081   8.615   8.627 -0.0332  0.1478  0.0498
   90POPC   D2A 1627   1.283   8.802   8.229 -0.0028  0.3009  0.0827
   90POPC   C3A 1628   1.109   8.888   7.859 -0.1571  0.3708 -0.1230
   90POPC   C4A 1629   1.272   9.152   7.545 -0.3264 -0.0140  0.0388
   90POPC   C1B 1630   0.927   8.089   8.469  0.4365 -0.1456 -0.1149
   90POPC   C2B 1631   0.778   8.014   8.134  0.3415 -0.3494 -0.1282
   90POPC   C3B 1632   0.923   7.767   7.678 -0.1953 -0.2052 -0.1764
   90POPC   C4B 1633   1.315   7.716   7.563 -0.1681  0.0972 -0.2064
   91POPC   NC3 1634   9.687   2.387  10.689  0.1143 -0.0026 -0.2806
   91POPC   PO4 1635   9.633   2.805  10.420  0.4196  0.1103  0.2054
   91POPC   GL1 1636   9.688   3.052  10.024 -0.0198  0.1487 -0.0860
   91POPC   GL2 1637   9.904   3.303   9.937 -0.0143 -0.0916  0.0226
   91POPC   C1A 1638   9.714   2.913   9.567 -0.1605  0.4585  0.1023
   91POPC   D2A 1639   9.736   3.256   9.280  0.1758 -0.1824  0.2306
   91POPC   C3A 1640   9.412   3.525   9.368  0.0211  0.0388 -0.0392
   91POPC   C4A 1641   9.070   3.703   9.454  0.0876 -0.1672 -0.3255
   91POPC   C1B 1642   9.997   3.703   9.967 -0.4353 -0.1408  0.1641
   91POPC   C2B 1643   9.827   4.075   9.790 -0.0194 -0.4345  0.2686
   91POPC   C3B 1644   9.600   4.158   9.419 -0.0618 -0.0908  0.1644
   91POPC   C4B 1645   9.754   4.288   8.941 -0.0853  0.1916  0.1079
   92POPC   NC3 1646   2.358   2.474   8.787 -0.3365  0.1541 -0.0718
   92POPC   PO4 1647   2.785   2.637   8.677 -0.3810  0.0014 -0.1503
   92POPC   GL1 1648   2.872   2.879   8.237 -0.0751  0.1532  0.0071
   92POPC   GL2 1649   2.951   2.615   8.116 -0.0068  0.0497 -0.1312
   92POPC   C1A 1650   2.740   3.213   7.885 -0.2520  0.3830  0.1193
   92POPC   D2A 1651   3.010   3.480   7.566  0.2124  0.2321  0.0577
   92POPC   C3A 1652   2.765   3.654   7.185  0.1608 -0.0750 -0.1527
   92POPC   C4A 1653   2.355   3.447   6.968 -0.2047 -0.3055 -0.0549
   92POPC   C1B 1654   2.802   2.526   7.651  0.0867  0.2664  0.0729
   92POPC   C2B 1655   2.558   2.174   7.426 -0.1807  0.2554 -0.1719
   92POPC   C3B 1656   2.285   1.920   7.303  0.1548 -0.0526 -0.0313
   92POPC   C4B 1657   2.023   1.570   7.089  0.0800 -0.0272  0.1217
   93POPC   NC3 1658   1.658   2.314   9.030  0.4854 -0.0396 -0.0694
   93POPC   PO4 1659   1.202   2.327   9.103  0.0133 -0.2513 -0.1158
   93POPC   GL1 1660   0.999   2.337   8.750  0.0904  0.0474  0.0919
   93POPC   GL2 1661   0.729   2.588   8.799 -0.1366 -0.0874  0.2488
   93POPC   C1A 1662   0.979   2.363   8.370 -0.0471 -0.1276 -0.0091
   93POPC   D2A 1663   0.896   2.474   7.945  0.2584  0.0820  0.0840
   93POPC   C3A 1664   0.799   2.880   7.908 -0.0617 -0.1743  0.3939
   93POPC   C4A 1665   0.792   3.347   7.742 -0.0873  0.1469 -0.1570
   93POPC   C1B 1666   0.557   2.601   8.435 -0.1104 -0.3819  0.3528
   93POPC   C2B 1667   0.433   2.517   8.112 -0.0750 -0.0950 -0.4437
   93POPC   C3B 1668   0.237   2.105   7.856  0.1043 -0.2604  0.2407
   93POPC   C4B 1669  -0.038   1.924   7.564 -0.1255  0.1643 -0.1312
   94POPC   NC3 1670   4.475   9.108   8.845 -0.0135  0.0776 -0.0275
   94POPC   PO4 1671   4.290   9.380   9.067 -0.1446 -0.0695  0.1008
   94POPC   GL1 1672   4.463   9.640   8.678 -0.0592  0.1419  0.2319
   94POPC   GL2 1673   4.494   9.432   8.397 -0.2092  0.1646  0.0863
   94POPC   C1A 1674   4.492   9.958   8.316 -0.0068  0.0055 -0.1324
   94POPC   D2A 1675   4.294  10.081   7.911 -0.2173 -0.0876 -0.2539
   94POPC   C3A 1676   3.971   9.845   7.703 -0.0915 -0.0619  0.0241
   94POPC   C4A 1677   3.611   9.602   7.610 -0.1008  0.0788 -0.2524
   94POPC   C1B 1678   4.454   9.516   7.970 -0.1003  0.2665 -0.1280
   94POPC   C2B 1679   4.430   9.741   7.507  0.0654  0.0050 -0.0726
   94POPC   C3B 1680   4.478  10.039   7.117  0.0116  0.1992 -0.0560
   94POPC   C4B 1681   4.710  10.440   7.011 -0.1027  0.0400 -0.2082
   95POPC   NC3 1682   8.769   9.761   9.742 -0.1913 -0.0931 -0.0219
   95POPC   PO4 1683   8.855  10.092   9.555  0.0943  0.0016 -0.1068
   95POPC   GL1 1684   9.061  10.134   9.099  0.1824  0.1715 -0.0224
   95POPC   GL2 1685   9.255  10.291   9.008  0.1359  0.3128 -0.3152
   95POPC   C1A 1686   8.987  10.201   8.594  0.2241 -0.2508 -0.0087
   95POPC   D2A 1687   8.826  10.392   8.180  0.0850  0.3020  0.1398
   95POPC   C3A 1688   9.032  10.591   7.913 -0.4598  0.1879  0.1940
   95POPC   C4A 1689   9.297  10.506   7.462 -0.3126 -0.1161  0.0894
   95POPC   C1B 1690   9.262  10.631   8.659 -0.1782 -0.0091 -0.3472
   95POPC   C2B 1691   9.000  10.913   8.375  0.3657  0.0221 -0.3007
   95POPC   C3B 1692   8.917  11.044   7.972  0.1800  0.2568  0.1795
   95POPC   C4B 1693   8.801  11.257   7.618  0.1009 -0.1550  0.1929
   96POPC   NC3 1694   9.126   0.494   9.299  0.1170 -0.1013 -0.1301
   96POPC   PO4 1695   8.690   0.778   9.469 -0.2007 -0.2674 -0.0962
   96POPC   GL1 1696   8.780   0.718   8.990 -0.2489  0.2319  0.0819
   96POPC   GL2 1697   8.833   0.418   8.894 -0.6142  0.0865  0.2502
   96POPC   C1A 1698   8.533   0.847   8.661  0.0477  0.1481 -0.0259
   96POPC   D2A 1699   8.604   1.076   8.331  0.5756 -0.0132  0.0442
   96POPC   C3A 1700   8.323   1.060   7.941  0.2886 -0.0187 -0.0737
   96POPC   C4A 1701   8.017   0.877   7.813  0.3065  0.0822  0.0288
   96POPC   C1B 1702   8.535   0.332   8.533  0.1233 -0.0961 -0.2486
   96POPC   C2B 1703   8.272   0.425   8.192 -0.0123  0.1545 -0.0206
   96POPC   C3B 1704   8.526   0.558   7.854  0.0062  0.0276  0.3199
   96POPC   C4B 1705   8.771   0.569   7.516  0.2737  0.0679 -0.1899
   97POPC   NC3 1706   7.308   7.764   9.286 -0.0059  0.0093 -0.0699
   97POPC   PO4 1707   7.740   7.712   9.331 -0.0380 -0.1370  0.0402
   97POPC   GL1 1708   7.894   7.712   8.874  0.1019 -0.1901 -0.0777
   97POPC   GL2 1709   8.022   7.372   8.846 -0.0775 -0.1281  0.1761
   97POPC   C1A 1710   8.277   7.820   8.596  0.4537 -0.1693 -0.0233
   97POPC   D2A 1711   8.621   7.790   8.205  0.1451  0.0765  0.0105
   97POPC   C3A 1712   8.701   8.076   8.008 -0.1304  0.3028 -0.1214
   97POPC   C4A 1713   8.521   8.267   7.745  0.4241 -0.0272  0.0821
   97POPC   C1B 1714   8.285   7.057   8.762 -0.0724  0.3697  0.1603
   97POPC   C2B 1715   8.272   6.664   8.595 -0.2128 -0.1698  0.1781
   97POPC   C3B 1716   8.023   6.316   8.801 -0.3107  0.0829 -0.0353
   97POPC   C4B 1717   7.932   5.844   8.561 -0.1618  0.1591 -0.1991
   98POPC   NC3 1718   5.294   7.764   8.959  0.2378 -0.0843  0.0028
   98POPC   PO4 1719   5.133   7.401   8.759  0.1054 -0.1235 -0.2073
   98POPC   GL1 1720   5.314   7.431   8.302 -0.1984 -0.3714  0.0130
   98POPC   GL2 1721   5.525   7.670   8.173  0.1786  0.3226 -0.1106
   98POPC   C1A 1722   5.193   7.397   7.953 -0.0655 -0.0858 -0.0169
   98POPC   D2A 1723   4.828   7.385   7.733  0.0266 -0.1090  0.0697
   98POPC   C3A 1724   5.079   7.494   7.399  0.2506 -0.2638 -0.0755
   98POPC   C4A 1725   5.365   7.788   7.153 -0.2789  0.0203 -0.2930
   98POPC   C1B 1726   5.282   7.911   8.046 -0.0295 -0.0353 -0.2022
   98POPC   C2B 1727   5.173   7.869   7.712  0.0609  0.1899  0.0459
   98POPC   C3B 1728   4.899   8.168   7.422 -0.1203 -0.0483  0.0985
   98POPC   C4B 1729   4.564   8.461   7.429 -0.0329  0.1946 -0.2353
   99POPC   NC3 1730   1.689   3.609   9.678  0.1273 -0.0279 -0.2595
   99POPC   PO4 1731   1.440   3.830  10.048  0.1318 -0.1428 -0.0913
   99POPC   GL1 1732   1.316   3.934   9.631  0.1558  0.2114 -0.1800
   99POPC   GL2 1733   1.288   4.408   9.574  0.2307  0.2218 -0.1253
   99POPC   C1A 1734   1.003   4.001   9.367 -0.2263  0.0914 -0.1383
   99POPC   D2A 1735   0.775   4.126   9.060  0.0788  0.3976  0.1420
   99POPC   C3A 1736   0.451   4.193   8.995  0.4707  0.0774  0.3420
   99POPC   C4A 1737   0.069   4.131   8.838 -0.0514 -0.0025 -0.0537
   99POPC   C1B 1738   1.140   4.479   9.121 -0.2045  0.0520  0.2004
   99POPC   C2B 1739   1.025   4.820   8.815  0.1127 -0.5799 -0.0042
   99POPC   C3B 1740   0.885   4.861   8.479 -0.2601 -0.0871 -0.1939
   99POPC   C4B 1741   0.703   4.566   8.210 -0.3551  0.0043  0.2299
  100POPC   NC3 1742   2.610   5.247   9.301 -0.0379 -0.0207 -0.1244
  100POPC   PO4 1743   2.628   4.754   9.249  0.1917  0.1810  0.0051
  100POPC   GL1 1744   2.674   4.993   8.857 -0.2400 -0.1210 -0.0342
  100POPC   GL2 1745   2.723   4.734   8.659 -0.1448  0.1649 -0.1935
  100POPC   C1A 1746   2.356   5.275   8.708 -0.0293 -0.0734  0.1084
  100POPC   D2A 1747   2.138   5.564   8.375 -0.1503  0.1458  0.0450
  100POPC   C3A 1748   2.444   5.554   8.039  0.1877  0.2521  0.1320
  100POPC   C4A 1749   2.513   5.650   7.680 -0.0635  0.0959  0.0217
  100POPC   C1B 1750   2.690   5.064   8.293 -0.3594  0.1443  0.1947
  100POPC   C2B 1751   2.768   5.078   7.908  0.0088 -0.0745 -0.0743
  100POPC   C3B 1752   2.724   5.175   7.505  0.0853 -0.2269  0.2912
  100POPC   C4B 1753   2.510   4.890   7.099  0.4452 -0.0123 -0.1392
  101POPC   NC3 1754   7.390   9.153   8.975 -0.0174 -0.0166 -0.0689
  101POPC   PO4 1755   6.936   9.165   9.027 -0.0816 -0.5022  0.3967
  101POPC   GL1 1756   7.084   9.078   8.626  0.0268  0.3476 -0.1524
  101POPC   GL2 1757   7.406   8.944   8.510 -0.2022  0.3266  0.0702
  101POPC   C1A 1758   6.989   9.105   8.180 -0.1434 -0.0580  0.2897
  101POPC   D2A 1759   6.706   9.067   7.816  0.0291 -0.1091 -0.0209
  101POPC   C3A 1760   6.693   9.040   7.365  0.0223 -0.0929  0.2908
  101POPC   C4A 1761   6.483   9.062   6.969  0.0261  0.1032 -0.2759
  101POPC   C1B 1762   7.474   8.444   8.379  0.2476  0.2747  0.2550
  101POPC   C2B 1763   7.302   8.350   8.062  0.1108 -0.1945 -0.1213
  101POPC   C3B 1764   7.040   8.172   7.951 -0.2957 -0.0775  0.1054
  101POPC   C4B 1765   6.758   8.170   7.722  0.1743  0.0387 -0.0414
  102POPC   NC3 1766   3.768   0.652   9.178 -0.2405  0.1282  0.0626
  102POPC   PO4 1767   4.124   0.467   9.160  0.4481 -0.1843  0.1827
  102POPC   GL1 1768   4.025   0.459   8.749 -0.0919 -0.1804  0.2313
  102POPC   GL2 1769   3.797   0.651   8.618  0.3200  0.0597 -0.0300
  102POPC   C1A 1770   4.182   0.309   8.292 -0.0164 -0.0352 -0.1047
  102POPC   D2A 1771   4.333   0.486   7.954 -0.1996 -0.0415 -0.0379
  102POPC   C3A 1772   4.398   0.729   7.513 -0.0979 -0.1559  0.0189
  102POPC   C4A 1773   4.483   0.673   7.084  0.2346  0.0769 -0.3304
  102POPC   C1B 1774   3.434   0.673   8.464 -0.2095  0.0230  0.0896
  102POPC   C2B 1775   3.221   0.846   8.126  0.2190  0.2399  0.1769
  102POPC   C3B 1776   2.899   0.747   7.862 -0.2153 -0.2408  0.0062
  102POPC   C4B 1777   2.756   0.528   7.569 -0.1378  0.0533  0.0189
  103POPC   NC3 1778   4.342   9.626   9.463  0.2045 -0.1055 -0.0656
  103POPC   PO4 1779   3.883   9.727   9.199  0.0209  0.2054 -0.0492
  103POPC   GL1 1780   3.835   9.810   8.766  0.2431  0.0721  0.4683
  103POPC   GL2 1781   3.607   9.624   8.584 -0.0691  0.1955 -0.2624
  103POPC   C1A 1782   3.993   9.886   8.345  0.0009 -0.0544  0.5047
  103POPC   D2A 1783   3.839  10.129   8.065 -0.1030 -0.1138 -0.0642
  103POPC   C3A 1784   3.594  10.107   7.598  0.3965  0.0835 -0.1211
  103POPC   C4A 1785   3.425   9.999   7.248 -0.0268 -0.0450 -0.1167
  103POPC   C1B 1786   3.456   9.729   8.182  0.2644 -0.0396 -0.2698
  103POPC   C2B 1787   3.322  10.060   8.037  0.1552 -0.1836  0.1585
  103POPC   C3B 1788   2.956  10.077   7.818 -0.0645 -0.2449  0.0460
  103POPC   C4B 1789   2.933  10.159   7.332  0.5901  0.3107  0.1201
  104POPC   NC3 1790   6.098   8.106   8.888  0.1843  0.0360  0.4387
  104POPC   PO4 1791   6.346   8.591   8.937  0.1142 -0.0329  0.0152
  104POPC   GL1 1792   6.454   8.559   8.466  0.3924  0.2127  0.2221
  104POPC   GL2 1793   6.214   8.383   8.481 -0.1390 -0.1644 -0.2800
  104POPC   C1A 1794   6.362   8.569   7.973  0.2104  0.2190 -0.0318
  104POPC   D2A 1795   6.261   8.869   7.691 -0.3528  0.2149  0.0421
  104POPC   C3A 1796   6.103   8.995   7.382 -0.2549  0.0634  0.0377
  104POPC   C4A 1797   5.893   9.126   6.887 -0.3054 -0.0921  0.1493
  104POPC   C1B 1798   6.091   8.216   8.078  0.3497  0.1407 -0.1449
  104POPC   C2B 1799   6.204   8.094   7.631 -0.2279  0.1920 -0.1835
  104POPC   C3B 1800   6.350   8.039   7.244 -0.0355  0.0339  0.2481
  104POPC   C4B 1801   6.584   8.167   6.871 -0.1446 -0.0314 -0.2230
  105POPC   NC3 1802   7.250   0.870   9.027  0.1285 -0.0877  0.4905
  105POPC   PO4 1803   7.077   1.380   9.281  0.1810  0.0631  0.1765
  105POPC   GL1 1804   7.332   1.416   8.838  0.1845  0.1921  0.1730
  105POPC   GL2 1805   7.176   1.687   8.610 -0.0582  0.1401  0.0778
  105POPC   C1A 1806   7.511   1.468   8.308 -0.0990  0.1287 -0.2638
  105POPC   D2A 1807   7.673   1.708   7.925 -0.0010 -0.0601  0.2244
  105POPC   C3A 1808   7.717   1.754   7.463 -0.0562 -0.1456  0.1721
  105POPC   C4A 1809   7.975   1.541   7.230 -0.3109  0.0752  0.1312
  105POPC   C1B 1810   7.618   1.977   8.337 -0.1152  0.3527 -0.2437
  105POPC   C2B 1811   7.739   2.322   8.053  0.3070  0.0745 -0.2360
  105POPC   C3B 1812   7.977   2.658   7.902 -0.0401  0.0013  0.0474
  105POPC   C4B 1813   8.073   2.809   7.350  0.3559 -0.1308  0.1020
  106POPC   NC3 1814   1.143   3.127  10.114  0.0295 -0.0254  0.5129
  106POPC   PO4 1815   1.391   2.990   9.822 -0.0545  0.2733 -0.2261
  106POPC   GL1 1816   1.505   3.200   9.395  0.2196 -0.0823 -0.1054
  106POPC   GL2 1817   1.421   3.560   9.308  0.1779 -0.0431  0.0447
  106POPC   C1A 1818   1.418   3.158   8.964 -0.2181  0.3728 -0.0436
  106POPC   D2A 1819   1.132   3.164   8.735 -0.3439 -0.0731 -0.1580
  106POPC   C3A 1820   1.035   2.860   8.414  0.2171  0.1005  0.1605
  106POPC   C4A 1821   1.240   2.867   8.003  0.3485 -0.0855 -0.0126
  106POPC   C1B 1822   1.393   3.685   8.831  0.0283 -0.0110 -0.4015
  106POPC   C2B 1823   1.110   3.857   8.440  0.1334 -0.0828  0.2619
  106POPC   C3B 1824   0.575   3.722   8.226 -0.1465 -0.2913 -0.2062
  106POPC   C4B 1825   0.412   3.692   7.773  0.1595 -0.0144 -0.0009
  107POPC   NC3 1826   6.657   2.012   9.368 -0.0866  0.1767  0.0488
  107POPC   PO4 1827   6.470   2.025   9.002 -0.3066 -0.2480  0.1130
  107POPC   GL1 1828   6.722   1.977   8.642  0.0343  0.1415  0.1133
  107POPC   GL2 1829   7.032   2.126   8.851 -0.1027 -0.2508 -0.2011
  107POPC   C1A 1830   6.841   1.842   8.250 -0.2275  0.2179  0.1029
  107POPC   D2A 1831   7.235   1.830   8.058 -0.2755 -0.2534  0.0860
  107POPC   C3A 1832   7.185   1.553   7.703  0.1332  0.2848 -0.2541
  107POPC   C4A 1833   6.771   1.545   7.321 -0.0596  0.0422  0.2149
  107POPC   C1B 1834   7.158   2.185   8.467 -0.1081  0.0563  0.1550
  107POPC   C2B 1835   7.227   2.329   8.080 -0.2164 -0.0636  0.2264
  107POPC   C3B 1836   7.490   2.707   7.892 -0.2250  0.2916  0.2191
  107POPC   C4B 1837   7.580   3.043   7.525 -0.0615  0.0811 -0.0462
  108POPC   NC3 1838   5.069   6.050   8.728 -0.1491  0.1506  0.1580
  108POPC   PO4 1839   4.720   5.721   8.657 -0.2167 -0.0190 -0.2990
  108POPC   GL1 1840   4.801   5.561   8.242 -0.1874 -0.3835  0.1337
  108POPC   GL2 1841   4.641   5.254   8.227 -0.1949 -0.2252  0.0065
  108POPC   C1A 1842   4.894   5.527   7.838  0.3600 -0.3332 -0.0154
  108POPC   D2A 1843   4.591   5.482   7.516 -0.0934  0.2409  0.0172
  108POPC   C3A 1844   4.377   5.191   7.345  0.2748  0.0867 -0.0551
  108POPC   C4A 1845   4.126   5.007   7.090 -0.0368  0.3505  0.0402
  108POPC   C1B 1846   4.328   5.331   7.896  0.1360 -0.0747  0.1336
  108POPC   C2B 1847   3.921   5.387   7.648 -0.2276  0.0496  0.0788
  108POPC   C3B 1848   3.643   5.300   7.311  0.1766  0.0180  0.1093
  108POPC   C4B 1849   3.272   5.348   6.989 -0.2061 -0.1566 -0.2231
  109POPC   NC3 1850   7.789   7.242   9.517  0.0446  0.2650 -0.4565
  109POPC   PO4 1851   7.598   6.851   9.310 -0.0162  0.2742  0.2059
  109POPC   GL1 1852   7.647   6.617   9.005  0.0255 -0.0517  0.2662
  109POPC   GL2 1853   7.416   6.386   9.010  0.3708 -0.0693  0.0214
  109POPC   C1A 1854   7.663   6.591   8.635 -0.0555  0.0156 -0.1110
  109POPC   D2A 1855   7.613   6.651   8.200  0.2428  0.0833 -0.0473
  109POPC   C3A 1856   7.822   6.571   7.920  0.0950  0.0965  0.0563
  109POPC   C4A 1857   8.133   6.432   7.655  0.1009  0.1096 -0.0349
  109POPC   C1B 1858   7.143   6.464   8.640  0.2030  0.2295  0.2626
  109POPC   C2B 1859   7.129   6.437   8.203 -0.4563 -0.3825  0.2699
  109POPC   C3B 1860   7.326   6.439   7.784 -0.0425  0.0243 -0.4362
  109POPC   C4B 1861   7.103   6.690   7.535  0.1743 -0.0607  0.1560
  110POPC   NC3 1862   4.242   8.735   9.124  0.1763 -0.3446  0.2465
  110POPC   PO4 1863   4.273   8.670   8.688 -0.0433 -0.1107 -0.0969
  110POPC   GL1 1864   4.494   8.736   8.410  0.0812 -0.2597  0.2292
  110POPC   GL2 1865   4.801   8.934   8.405 -0.2628  0.2435 -0.2845
  110POPC   C1A 1866   4.529   9.025   8.071  0.1750 -0.1493 -0.0455
  110POPC   D2A 1867   4.491   8.978   7.617  0.0188  0.1318 -0.2027
  110POPC   C3A 1868   4.282   9.107   7.224 -0.1572  0.0598 -0.0637
  110POPC   C4A 1869   4.450   9.209   6.821  0.0306 -0.0884 -0.5022
  110POPC   C1B 1870   4.995   9.240   7.996  0.5003  0.1205  0.0914
  110POPC   C2B 1871   4.833   9.380   7.608 -0.3296 -0.0743  0.0146
  110POPC   C3B 1872   4.768   9.276   7.183  0.2882 -0.0964  0.1027
  110POPC   C4B 1873   5.003   9.124   6.768 -0.0616 -0.1065  0.2375
  111POPC   NC3 1874   6.027   1.170   9.150  0.2098  0.0014  0.3249
  111POPC   PO4 1875   6.098   1.147   8.713 -0.2568  0.0747  0.3687
  111POPC   GL1 1876   6.052   1.205   8.334  0.2179  0.1621  0.2582
  111POPC   GL2 1877   5.948   1.497   8.186  0.2275  0.3503 -0.0513
  111POPC   C1A 1878   6.352   1.223   7.986  0.4027  0.1600 -0.0722
  111POPC   D2A 1879   6.296   1.247   7.526 -0.1571  0.0928 -0.1557
  111POPC   C3A 1880   6.202   1.451   7.175  0.1889 -0.2262  0.0526
  111POPC   C4A 1881   5.767   1.508   6.932 -0.3257  0.3226  0.0258
  111POPC   C1B 1882   6.188   1.660   7.795 -0.2585 -0.0472  0.1891
  111POPC   C2B 1883   6.397   1.873   7.479  0.0995 -0.1039  0.1688
  111POPC   C3B 1884   6.305   2.186   7.217  0.2502 -0.1305  0.1060
  111POPC   C4B 1885   6.146   2.398   6.792 -0.1244  0.1876  0.2365
  112POPC   NC3 1886   4.494   2.507   8.584  0.1537  0.0290 -0.1177
  112POPC   PO4 1887   4.063   2.448   8.522 -0.0064  0.0820 -0.4409
  112POPC   GL1 1888   3.844   2.133   8.177  0.0351  0.0543 -0.0947
  112POPC   GL2 1889   3.466   2.157   8.126  0.3199 -0.2031  0.1127
  112POPC   C1A 1890   3.851   2.052   7.757 -0.0730 -0.1353 -0.1746
  112POPC   D2A 1891   4.007   2.031   7.237 -0.1526 -0.0894  0.0914
  112POPC   C3A 1892   4.536   2.010   7.051  0.0760 -0.0694  0.1618
  112POPC   C4A 1893   4.738   1.734   6.708  0.1038  0.0454 -0.1525
  112POPC   C1B 1894   3.451   2.305   7.731 -0.1137 -0.4886  0.0353
  112POPC   C2B 1895   3.496   2.660   7.585  0.1478 -0.5636 -0.1189
  112POPC   C3B 1896   3.388   2.964   7.297 -0.1416  0.1116 -0.0255
  112POPC   C4B 1897   3.633   3.233   6.976  0.1979 -0.1715  0.0145
  113POPC   NC3 1898   2.180   1.065   9.190 -0.3379  0.1692 -0.0649
  113POPC   PO4 1899   1.816   1.412   9.173 -0.0440  0.0349  0.0613
  113POPC   GL1 1900   1.924   1.197   8.802 -0.0972  0.1489 -0.0608
  113POPC   GL2 1901   1.824   1.363   8.505 -0.0801  0.0318 -0.0730
  113POPC   C1A 1902   1.754   0.831   8.631  0.1330 -0.1695 -0.3330
  113POPC   D2A 1903   1.517   0.647   8.137  0.1764 -0.1897 -0.1317
  113POPC   C3A 1904   1.790   0.502   7.749 -0.2340 -0.3800 -0.0196
  113POPC   C4A 1905   1.875   0.633   7.313  0.1744 -0.2543  0.0151
  113POPC   C1B 1906   1.673   1.270   8.046 -0.0275  0.0213 -0.3589
  113POPC   C2B 1907   1.812   1.196   7.626 -0.3032  0.0627 -0.1556
  113POPC   C3B 1908   2.047   1.121   7.270 -0.1645 -0.3198  0.2553
  113POPC   C4B 1909   2.444   1.247   7.120 -0.1985 -0.1466  0.1540
  114POPC   NC3 1910   1.662   5.710  10.516  0.1549  0.1297 -0.1780
  114POPC   PO4 1911   1.893   6.068  10.135  0.0332 -0.3630  0.0927
  114POPC   GL1 1912   1.761   5.994   9.633  0.3460 -0.2348 -0.0479
  114POPC   GL2 1913   1.591   5.698   9.527  0.0438 -0.1260  0.1725
  114POPC   C1A 1914   1.820   6.007   9.179 -0.1136  0.2258  0.1829
  114POPC   D2A 1915   1.628   6.125   8.859  0.0164  0.1420 -0.3269
  114POPC   C3A 1916   1.813   6.410   8.686  0.2171  0.0236 -0.3831
  114POPC   C4A 1917   1.615   6.669   8.299  0.1102 -0.2096  0.1043
  114POPC   C1B 1918   1.482   5.632   9.113 -0.4481 -0.1091 -0.1183
  114POPC   C2B 1919   1.095   5.653   8.909 -0.0286 -0.1027 -0.0212
  114POPC   C3B 1920   0.951   5.320   8.607 -0.2669  0.1635 -0.0531
  114POPC   C4B 1921   0.730   5.296   8.201 -0.1562 -0.1058 -0.0097
  115POPC   NC3 1922   0.044   8.945   9.681 -0.2649 -0.1727  0.2975
  115POPC   PO4 1923  -0.243   9.183   9.243  0.3925  0.0201 -0.1196
  115POPC   GL1 1924  -0.211   9.172   8.799  0.2223  0.0191  0.0222
  115POPC   GL2 1925  -0.239   8.878   8.730 -0.0953  0.0335  0.2242
  115POPC   C1A 1926  -0.044   9.386   8.483 -0.0062 -0.1022 -0.2528
  115POPC   D2A 1927   0.045   9.099   8.032 -0.2839 -0.1435 -0.0604
  115POPC   C3A 1928  -0.139   8.782   7.851  0.0922 -0.2417 -0.2680
  115POPC   C4A 1929  -0.084   8.360   8.036 -0.0133 -0.0510  0.1946
  115POPC   C1B 1930  -0.317   8.640   8.396 -0.1097  0.0723  0.2740
  115POPC   C2B 1931  -0.483   8.224   8.301  0.1391 -0.1272  0.2948
  115POPC   C3B 1932  -0.396   7.906   8.064 -0.3100  0.0694  0.4357
  115POPC   C4B 1933  -0.163   7.830   7.753 -0.0562  0.2404  0.0401
  116POPC   NC3 1934   7.182   8.367   9.650  0.1205  0.0130 -0.3540
  116POPC   PO4 1935   7.594   8.257   9.383 -0.2117 -0.0493 -0.2920
  116POPC   GL1 1936   7.647   8.109   8.965  0.3397 -0.1812  0.3153
  116POPC   GL2 1937   7.408   7.893   8.834  0.0733 -0.1250  0.2630
  116POPC   C1A 1938   7.692   7.966   8.455  0.1657  0.4485 -0.1831
  116POPC   D2A 1939   7.762   7.638   8.206 -0.3668 -0.1629  0.3432
  116POPC   C3A 1940   7.521   7.352   7.959 -0.2292  0.0534 -0.0115
  116POPC   C4A 1941   7.255   7.324   7.642 -0.0460 -0.1574 -0.0974
  116POPC   C1B 1942   7.062   8.005   8.516 -0.3143  0.0150 -0.1122
  116POPC   C2B 1943   6.883   7.756   8.255 -0.0077  0.1339  0.2919
  116POPC   C3B 1944   6.907   7.599   7.845  0.4053  0.2121 -0.3909
  116POPC   C4B 1945   6.708   7.661   7.411  0.0634 -0.0782 -0.2060
  117POPC   NC3 1946   5.428   5.038   8.823 -0.2434  0.1119  0.3937
  117POPC   PO4 1947   5.374   4.706   9.029  0.3323 -0.0667 -0.0387
  117POPC   GL1 1948   5.162   4.673   8.658 -0.2401  0.0330  0.0247
  117POPC   GL2 1949   5.548   4.566   8.517  0.1039  0.0049 -0.3481
  117POPC   C1A 1950   4.967   4.373   8.295  0.0645  0.0412 -0.0405
  117POPC   D2A 1951   4.800   4.335   7.839 -0.0221  0.3522  0.1971
  117POPC   C3A 1952   4.950   3.960   7.549  0.0322 -0.1337  0.1622
  117POPC   C4A 1953   5.121   3.856   7.235 -0.2608  0.1456  0.3111
  117POPC   C1B 1954   5.662   4.478   8.120  0.1921  0.1539  0.2717
  117POPC   C2B 1955   5.541   4.785   7.755 -0.2087 -0.0461  0.0991
  117POPC   C3B 1956   5.523   4.886   7.328  0.4558 -0.1307  0.0005
  117POPC   C4B 1957   5.598   4.676   7.068 -0.2112 -0.1292  0.3904
  118POPC   NC3 1958   9.011   7.538   9.736 -0.0906 -0.0158 -0.1798
  118POPC   PO4 1959   8.726   7.620   9.472  0.1080  0.2900  0.1479
  118POPC   GL1 1960   8.657   7.726   9.067 -0.0839 -0.4677 -0.2381
  118POPC   GL2 1961   8.894   7.850   9.010  0.1145 -0.1460 -0.0303
  118POPC   C1A 1962   8.618   7.417   8.627 -0.0100 -0.0718 -0.0412
  118POPC   D2A 1963   8.264   7.382   8.250  0.3343  0.3640 -0.2244
  118POPC   C3A 1964   8.467   7.373   7.856 -0.1160  0.0991  0.2032
  118POPC   C4A 1965   8.630   7.224   7.510 -0.2373 -0.2406  0.4994
  118POPC   C1B 1966   8.982   7.817   8.580  0.2231  0.1281 -0.0855
  118POPC   C2B 1967   8.997   7.477   8.262  0.0689  0.0967 -0.0666
  118POPC   C3B 1968   8.984   7.198   7.911  0.0258  0.0091  0.0375
  118POPC   C4B 1969   9.297   7.166   7.561  0.1917  0.2944 -0.1517
  119POPC   NC3 1970   9.661   0.824   9.379 -0.1128  0.2105 -0.0189
  119POPC   PO4 1971   9.606   0.392   9.297  0.1636  0.1574  0.1118
  119POPC   GL1 1972   9.816   0.626   8.935  0.1412  0.0646  0.1670
  119POPC   GL2 1973   9.872   0.893   8.795 -0.2260  0.0577  0.1746
  119POPC   C1A 1974   9.762   0.547   8.451  0.0002 -0.1582 -0.1259
  119POPC   D2A 1975   9.440   0.524   8.171 -0.1762 -0.0617 -0.4615
  119POPC   C3A 1976   9.382   0.809   7.849 -0.0791 -0.0675 -0.0992
  119POPC   C4A 1977   9.218   0.861   7.454 -0.1471  0.1026  0.0544
  119POPC   C1B 1978   9.421   0.972   8.565  0.0930 -0.1727 -0.0195
  119POPC   C2B 1979   9.330   1.240   8.188  0.1400  0.3070 -0.0372
  119POPC   C3B 1980   9.685   1.456   7.904 -0.0343  0.0076  0.1969
  119POPC   C4B 1981  10.026   1.477   7.515  0.0926  0.1985  0.1055
  120POPC   NC3 1982   2.635   4.249   9.537 -0.4326 -0.2877 -0.1895
  120POPC   PO4 1983   2.884   4.213   9.126 -0.0881  0.0954 -0.1042
  120POPC   GL1 1984   2.699   4.231   8.749  0.1209  0.0728  0.2301
  120POPC   GL2 1985   2.377   4.291   8.799 -0.3462 -0.1197  0.2075
  120POPC   C1A 1986   2.699   4.247   8.284 -0.2073 -0.0812  0.1574
  120POPC   D2A 1987   2.654   4.348   7.852 -0.0013 -0.3279  0.0880
  120POPC   C3A 1988   2.397   4.010   7.728  0.0347 -0.2686 -0.1336
  120POPC   C4A 1989   2.313   3.586   7.848 -0.1353 -0.1683 -0.3103
  120POPC   C1B 1990   1.905   4.335   8.678  0.3678  0.0926  0.0515
  120POPC   C2B 1991   1.626   4.003   8.436 -0.0094 -0.2583 -0.0582
  120POPC   C3B 1992   1.471   3.501   8.369  0.2525  0.1963 -0.1030
  120POPC   C4B 1993   1.506   2.946   8.390 -0.2062  0.4117  0.1710
  121POPC   NC3 1994   3.764   1.570   9.082 -0.0970  0.2824 -0.2835
  121POPC   PO4 1995   3.859   1.101   8.909  0.2134  0.0396 -0.1271
  121POPC   GL1 1996   4.060   1.201   8.552  0.2640  0.1753  0.1158
  121POPC   GL2 1997   4.464   1.246   8.603  0.1152  0.0043  0.1770
  121POPC   C1A 1998   4.144   1.331   8.152 -0.1301  0.0807  0.1679
  121POPC   D2A 1999   4.201   1.635   7.831 -0.1923  0.0905 -0.1360
  121POPC   C3A 2000   4.304   1.522   7.359  0.1270  0.0469  0.2442
  121POPC   C4A 2001   4.258   1.170   7.147 -0.2289 -0.1236  0.1614
  121POPC   C1B 2002   4.825   1.274   8.346  0.2005  0.1285  0.0129
  121POPC   C2B 2003   5.002   1.148   7.866  0.1621  0.3327  0.0064
  121POPC   C3B 2004   5.290   1.135   7.520  0.1285  0.5547  0.1068
  121POPC   C4B 2005   5.336   1.208   7.072  0.0822  0.2298  0.0731
  122POPC   NC3 2006   8.060   9.428   9.466 -0.3008  0.1005  0.0686
  122POPC   PO4 2007   7.780   9.466   9.160  0.0238  0.0727 -0.0116
  122POPC   GL1 2008   7.825   9.359   8.729  0.1012  0.0270  0.0316
  122POPC   GL2 2009   7.860   9.018   8.720  0.0229 -0.2103  0.0265
  122POPC   C1A 2010   7.625   9.425   8.299 -0.0089 -0.1186 -0.1000
  122POPC   D2A 2011   7.363   9.343   7.910 -0.1279  0.0509  0.1555
  122POPC   C3A 2012   7.407   8.803   7.927  0.0339 -0.2534  0.0066
  122POPC   C4A 2013   7.480   8.422   7.561  0.1097  0.2312 -0.0085
  122POPC   C1B 2014   8.164   9.080   8.445 -0.1140  0.2201 -0.2337
  122POPC   C2B 2015   8.086   9.145   8.043  0.0642  0.1957  0.0511
  122POPC   C3B 2016   7.791   9.160   7.685  0.5013 -0.1264 -0.1215
  122POPC   C4B 2017   7.506   8.894   7.449 -0.0211 -0.1490  0.0252
  123POPC   NC3 2018   0.044   1.640   9.421  0.0831  0.1860  0.1928
  123POPC   PO4 2019   0.136   1.993   9.138 -0.0615 -0.0384 -0.0598
  123POPC   GL1 2020   0.078   1.851   8.851 -0.3468  0.2041 -0.3281
  123POPC   GL2 2021   0.276   2.132   8.683  0.1645  0.1440  0.1133
  123POPC   C1A 2022   0.086   1.799   8.415  0.0759 -0.2029  0.1123
  123POPC   D2A 2023  -0.099   1.722   8.114 -0.2783  0.0120  0.1809
  123POPC   C3A 2024  -0.404   2.094   7.895  0.1422 -0.0941 -0.0528
  123POPC   C4A 2025  -0.557   2.418   7.684  0.1192 -0.1874  0.0742
  123POPC   C1B 2026   0.035   2.276   8.344 -0.3679 -0.3833  0.0726
  123POPC   C2B 2027  -0.248   2.460   8.204  0.3348  0.1596  0.2998
  123POPC   C3B 2028  -0.698   2.444   8.188  0.1386  0.1904  0.1114
  123POPC   C4B 2029  -0.910   2.786   8.041 -0.0479  0.1098  0.1272
  124POPC   NC3 2030   4.462   6.332   9.136  0.0396  0.0294  0.1884
  124POPC   PO4 2031   4.618   6.202   8.816  0.0176  0.1916  0.0219
  124POPC   GL1 2032   4.464   6.132   8.401 -0.1602  0.0424  0.2927
  124POPC   GL2 2033   4.101   6.091   8.470 -0.1543 -0.1907  0.2314
  124POPC   C1A 2034   4.552   5.917   7.992  0.1738  0.0830 -0.2971
  124POPC   D2A 2035   4.494   5.985   7.545  0.0849  0.0974 -0.0770
  124POPC   C3A 2036   4.169   6.409   7.552  0.1640  0.0811  0.1750
  124POPC   C4A 2037   4.015   6.569   7.275  0.0595  0.2386  0.0122
  124POPC   C1B 2038   3.903   6.269   7.977  0.0607 -0.2000 -0.1446
  124POPC   C2B 2039   3.651   6.311   7.636  0.0025  0.0933  0.0208
  124POPC   C3B 2040   3.592   6.332   7.181 -0.0242  0.0087  0.2861
  124POPC   C4B 2041   3.573   6.232   6.778 -0.2318  0.1741 -0.0624
  125POPC   NC3 2042   6.268   4.820   8.982  0.1278  0.0388 -0.1851
  125POPC   PO4 2043   6.524   4.788   9.226 -0.0503  0.2307  0.1815
  125POPC   GL1 2044   6.716   4.676   8.761  0.0625 -0.1110  0.2377
  125POPC   GL2 2045   6.534   4.883   8.573 -0.0297 -0.1333  0.0988
  125POPC   C1A 2046   6.858   4.685   8.308 -0.1354  0.1282 -0.1673
  125POPC   D2A 2047   7.214   4.656   8.076  0.4467  0.3390  0.1971
  125POPC   C3A 2048   7.449   4.217   7.998  0.1003  0.3546 -0.0740
  125POPC   C4A 2049   7.225   3.839   7.933  0.1227 -0.1860 -0.2203
  125POPC   C1B 2050   6.631   5.112   8.239  0.2721  0.1735  0.4759
  125POPC   C2B 2051   6.704   5.124   7.832  0.2185  0.2812  0.1136
  125POPC   C3B 2052   6.789   5.278   7.396 -0.0073 -0.0177 -0.2980
  125POPC   C4B 2053   6.578   5.550   7.088  0.1388 -0.0022  0.3636
  126POPC   NC3 2054   0.426   5.349  10.397  0.2150  0.3148 -0.2116
  126POPC   PO4 2055   0.055   5.677  10.452  0.3144  0.1454 -0.0530
  126POPC   GL1 2056  -0.055   5.745  10.100  0.1957  0.0755  0.2591
  126POPC   GL2 2057  -0.022   6.003   9.910  0.1386 -0.0769 -0.0675
  126POPC   C1A 2058  -0.105   5.327   9.846 -0.1799  0.4033 -0.3142
  126POPC   D2A 2059  -0.267   4.865  10.026  0.1260  0.3208 -0.0967
  126POPC   C3A 2060  -0.099   4.448  10.037  0.4721 -0.0818 -0.0829
  126POPC   C4A 2061   0.149   4.075   9.962 -0.2297 -0.1634  0.0744
  126POPC   C1B 2062   0.069   5.678   9.578  0.0065  0.3115  0.2964
  126POPC   C2B 2063   0.026   5.451   9.238 -0.0539 -0.1284  0.5093
  126POPC   C3B 2064   0.101   5.518   8.863 -0.1441  0.0658 -0.1765
  126POPC   C4B 2065   0.236   5.476   8.503 -0.3013 -0.2582  0.3308
  127POPC   NC3 2066   8.545   6.077  10.332  0.0575 -0.1210  0.0492
  127POPC   PO4 2067   8.909   5.907  10.522  0.0429 -0.1549  0.4043
  127POPC   GL1 2068   9.118   6.017  10.095 -0.0946 -0.3924 -0.1190
  127POPC   GL2 2069   9.230   6.270   9.938 -0.0797  0.1807  0.2232
  127POPC   C1A 2070   8.992   5.975   9.632  0.0187  0.0274  0.1620
  127POPC   D2A 2071   8.685   5.774   9.453 -0.0301 -0.2393  0.2101
  127POPC   C3A 2072   8.654   5.644   9.054 -0.1673 -0.2541 -0.2415
  127POPC   C4A 2073   8.398   5.636   8.766  0.2461  0.1699  0.3875
  127POPC   C1B 2074   9.453   5.890   9.797 -0.2134 -0.1066  0.1398
  127POPC   C2B 2075   9.507   5.540   9.441 -0.2487 -0.1211 -0.2119
  127POPC   C3B 2076   9.613   5.360   8.994  0.1975  0.0188 -0.3610
  127POPC   C4B 2077   9.459   5.639   8.666  0.0655 -0.1114  0.2847
  128POPC   NC3 2078   2.362   3.442   9.110  0.0927  0.2277  0.1356
  128POPC   PO4 2079   1.925   3.607   9.223  0.2272 -0.2059  0.0901
  128POPC   GL1 2080   1.827   4.119   9.177  0.0948  0.0442 -0.0581
  128POPC   GL2 2081   2.026   4.362   9.171  0.1145  0.0625 -0.0016
  128POPC   C1A 2082   1.499   4.181   8.886  0.2000  0.0392  0.0219
  128POPC   D2A 2083   1.210   4.292   8.541  0.1030 -0.3427 -0.2534
  128POPC   C3A 2084   0.758   4.335   8.611 -0.1864  0.3289 -0.2899
  128POPC   C4A 2085   0.408   4.152   8.449 -0.0816 -0.1169  0.0558
  128POPC   C1B 2086   1.677   4.625   9.147  0.2281  0.1431  0.3621
  128POPC   C2B 2087   1.502   4.706   8.775 -0.4383 -0.0491 -0.1540
  128POPC   C3B 2088   1.386   4.710   8.432  0.0869 -0.2062  0.0452
  128POPC   C4B 2089   1.199   4.798   8.066 -0.1686  0.0340  0.0938
  129POPC   NC3 2090   0.344   9.314   9.252 -0.0927 -0.0167 -0.4050
  129POPC   PO4 2091   0.514   9.699   9.339  0.3289  0.0035  0.1425
  129POPC   GL1 2092   0.586   9.715   8.770  0.0612 -0.1364 -0.2585
  129POPC   GL2 2093   0.353   9.752   8.588 -0.1624 -0.0376 -0.1241
  129POPC   C1A 2094   0.871   9.627   8.453  0.0677  0.2658 -0.3416
  129POPC   D2A 2095   0.648   9.679   8.045  0.0102  0.1635  0.2451
  129POPC   C3A 2096   0.279   9.476   7.835  0.1224 -0.1787  0.2987
  129POPC   C4A 2097   0.114   9.195   7.537  0.0200  0.2508  0.2509
  129POPC   C1B 2098   0.163   9.770   8.218  0.0317 -0.3232 -0.0800
  129POPC   C2B 2099   0.022   9.888   7.894 -0.2022 -0.1144  0.2586
  129POPC   C3B 2100  -0.169  10.067   7.580  0.1958  0.0371  0.3750
  129POPC   C4B 2101  -0.223  10.498   7.434  0.4215 -0.3643  0.1637
  130POPC   NC3 2102   3.487   2.566   8.942  0.2877  0.0745  0.1621
  130POPC   PO4 2103   3.718   2.767   8.629  0.0169  0.2326 -0.0605
  130POPC   GL1 2104   3.696   2.726   8.230 -0.0468 -0.2899  0.0633
  130POPC   GL2 2105   3.780   3.082   8.035  0.1229 -0.0212 -0.2461
  130POPC   C1A 2106   3.949   2.577   7.869 -0.1306  0.2610 -0.0202
  130POPC   D2A 2107   4.389   2.857   7.668  0.3129  0.3233  0.2087
  130POPC   C3A 2108   4.542   2.729   7.327 -0.3966 -0.0319  0.0675
  130POPC   C4A 2109   4.762   2.459   7.331  0.2167 -0.1634  0.0714
  130POPC   C1B 2110   3.852   3.038   7.575 -0.3216  0.1558  0.0112
  130POPC   C2B 2111   3.995   2.882   7.059  0.1527  0.0569 -0.0539
  130POPC   C3B 2112   4.351   3.013   6.889  0.0198 -0.0717  0.1684
  130POPC   C4B 2113   4.706   3.277   6.786  0.1020 -0.0584 -0.2014
  131POPC   NC3 2114   1.165   4.810  10.419 -0.0639  0.0149 -0.3269
  131POPC   PO4 2115   0.894   5.188  10.578  0.1171 -0.0007  0.0690
  131POPC   GL1 2116   0.868   5.185  10.159 -0.0065  0.1195  0.3254
  131POPC   GL2 2117   0.817   4.876   9.990 -0.2698 -0.3348  0.0004
  131POPC   C1A 2118   0.905   5.249   9.710  0.1300 -0.4999  0.0688
  131POPC   D2A 2119   1.105   5.444   9.340 -0.1851  0.3415 -0.3369
  131POPC   C3A 2120   0.786   5.230   9.063  0.1128 -0.0128 -0.2583
  131POPC   C4A 2121   0.372   5.118   8.846 -0.0799  0.2319  0.1092
  131POPC   C1B 2122   0.705   4.737   9.536 -0.1408  0.0188  0.1347
  131POPC   C2B 2123   0.581   4.699   9.122 -0.2037 -0.0015  0.0512
  131POPC   C3B 2124   0.405   4.617   8.700 -0.0865 -0.5875  0.2576
  131POPC   C4B 2125   0.280   4.919   8.404 -0.0466  0.0334  0.0751
  132POPC   NC3 2126   8.953   3.504  10.374 -0.0073  0.2910 -0.0526
  132POPC   PO4 2127   8.697   3.289  10.170 -0.0082 -0.1038  0.0761
  132POPC   GL1 2128   8.945   3.395   9.843  0.1473 -0.1673 -0.0292
  132POPC   GL2 2129   8.744   3.633   9.769  0.0529 -0.0018  0.0847
  132POPC   C1A 2130   9.200   3.127   9.616 -0.2299 -0.1628  0.1648
  132POPC   D2A 2131   9.172   2.915   9.217 -0.2675  0.2425 -0.1300
  132POPC   C3A 2132   9.655   2.803   9.026 -0.1468 -0.4216 -0.0839
  132POPC   C4A 2133   9.989   2.564   8.750  0.1683  0.0848 -0.1782
  132POPC   C1B 2134   8.420   3.693   9.473  0.1286  0.0132 -0.2918
  132POPC   C2B 2135   8.250   3.611   9.134  0.0906 -0.0240  0.0310
  132POPC   C3B 2136   8.271   3.346   8.754  0.0013  0.2922  0.2733
  132POPC   C4B 2137   7.981   3.062   8.720  0.3084 -0.2418 -0.0972
  133POPC   NC3 2138   6.744   4.822   9.747 -0.1257 -0.0228 -0.0300
  133POPC   PO4 2139   7.045   4.389   9.866  0.0744  0.0442 -0.0156
  133POPC   GL1 2140   7.198   4.477   9.481 -0.1228 -0.0107 -0.1653
  133POPC   GL2 2141   6.924   4.533   9.321  0.1129  0.0007 -0.3407
  133POPC   C1A 2142   7.456   4.764   9.304 -0.2296 -0.0510 -0.2366
  133POPC   D2A 2143   7.690   4.967   8.967 -0.0854  0.1570  0.2129
  133POPC   C3A 2144   7.973   4.900   8.638 -0.1890  0.0950  0.1566
  133POPC   C4A 2145   8.029   4.658   8.126  0.3025 -0.1776  0.0756
  133POPC   C1B 2146   7.201   4.721   8.892  0.1047  0.0484 -0.1407
  133POPC   C2B 2147   7.232   5.000   8.466 -0.0293  0.0479  0.1012
  133POPC   C3B 2148   7.123   5.224   8.086 -0.0606  0.5010 -0.1706
  133POPC   C4B 2149   6.820   5.535   8.142 -0.0424 -0.1515  0.1757
  134POPC   NC3 2150   3.385   7.055   8.641  0.0388 -0.0811 -0.2398
  134POPC   PO4 2151   3.748   7.283   8.651  0.2866 -0.1744 -0.2323
  134POPC   GL1 2152   3.686   7.075   8.265 -0.0229 -0.0884  0.1222
  134POPC   GL2 2153   3.517   6.787   8.186 -0.3408  0.1222 -0.1359
  134POPC   C1A 2154   4.016   7.171   7.907 -0.2408  0.2360 -0.1044
  134POPC   D2A 2155   4.347   7.495   7.829 -0.0979  0.1511 -0.0193
  134POPC   C3A 2156   4.410   7.580   7.395  0.1900  0.1677 -0.1195
  134POPC   C4A 2157   4.614   7.802   7.126  0.0188 -0.0990  0.1644
  134POPC   C1B 2158   3.296   6.650   7.825  0.1553  0.1886 -0.0083
  134POPC   C2B 2159   3.200   6.549   7.405  0.0469 -0.0686  0.1029
  134POPC   C3B 2160   3.139   6.483   6.969  0.0972  0.0300 -0.1187
  134POPC   C4B 2161   2.980   6.281   6.665  0.0438 -0.3891  0.1665
  135POPC   NC3 2162   8.673   9.417   8.997  0.0893 -0.1278  0.2931
  135POPC   PO4 2163   8.261   9.650   9.054  0.2643  0.0815  0.2636
  135POPC   GL1 2164   8.266   9.596   8.670 -0.0657 -0.1267 -0.0706
  135POPC   GL2 2165   8.531   9.454   8.546  0.0966  0.0496  0.1327
  135POPC   C1A 2166   8.035   9.752   8.431 -0.1416  0.0804  0.0477
  135POPC   D2A 2167   8.021   9.666   7.977 -0.2121  0.2234  0.1254
  135POPC   C3A 2168   8.206   9.820   7.679 -0.1148  0.1715  0.1624
  135POPC   C4A 2169   8.004  10.105   7.292  0.1304 -0.0231  0.0710
  135POPC   C1B 2170   8.792   9.300   8.210 -0.1523 -0.0527  0.0542
  135POPC   C2B 2171   8.799   9.184   7.775  0.2482  0.0502  0.1010
  135POPC   C3B 2172   8.783   9.184   7.356 -0.2215 -0.0758  0.1790
  135POPC   C4B 2173   8.494   9.375   7.166  0.3005  0.3546 -0.0690
  136POPC   NC3 2174   6.387   7.721   9.071  0.2037  0.2970  0.0117
  136POPC   PO4 2175   6.458   7.304   8.955 -0.0732  0.0860 -0.2925
  136POPC   GL1 2176   6.738   7.097   8.730  0.3489 -0.1331  0.0398
  136POPC   GL2 2177   6.686   6.796   8.662  0.0108  0.1152  0.0949
  136POPC   C1A 2178   7.137   6.997   8.449  0.0800 -0.1564  0.4523
  136POPC   D2A 2179   7.160   6.925   8.062 -0.1094  0.0950  0.0978
  136POPC   C3A 2180   7.510   6.890   7.696 -0.1673  0.1263 -0.1748
  136POPC   C4A 2181   7.681   7.025   7.303  0.0129 -0.1938  0.0371
  136POPC   C1B 2182   6.746   6.719   8.299 -0.1311 -0.1616  0.0553
  136POPC   C2B 2183   6.749   6.616   7.886  0.0821  0.0376  0.0732
  136POPC   C3B 2184   6.561   6.660   7.406 -0.0117 -0.2688 -0.0128
  136POPC   C4B 2185   6.603   6.769   7.015  0.4953 -0.1291 -0.1758
  137POPC   NC3 2186   1.716   9.303   9.180 -0.1243 -0.0323 -0.0163
  137POPC   PO4 2187   1.346   9.049   9.411  0.2108 -0.1985  0.2457
  137POPC   GL1 2188   1.200   9.076   8.958  0.1477 -0.0061 -0.4891
  137POPC   GL2 2189   0.805   9.178   8.936 -0.1813  0.0085  0.5728
  137POPC   C1A 2190   1.208   9.191   8.617  0.2007 -0.2413  0.0825
  137POPC   D2A 2191   1.049   9.274   8.145 -0.1583  0.1855  0.0333
  137POPC   C3A 2192   1.118   9.581   7.810 -0.1608 -0.0422 -0.0171
  137POPC   C4A 2193   1.340   9.753   7.333 -0.0981  0.0778  0.1878
  137POPC   C1B 2194   0.715   9.035   8.621 -0.0330  0.0758  0.1469
  137POPC   C2B 2195   0.745   8.851   8.253 -0.2492  0.0522  0.0838
  137POPC   C3B 2196   0.781   8.560   7.992 -0.0235 -0.1365 -0.3072
  137POPC   C4B 2197   0.840   8.511   7.563  0.2022  0.0656 -0.0506
  138POPC   NC3 2198   0.879   0.429   9.309 -0.0624  0.1224  0.0032
  138POPC   PO4 2199   0.351   0.369   9.265 -0.2428  0.0267  0.0633
  138POPC   GL1 2200   0.547   0.244   8.811  0.0907  0.2483 -0.0737
  138POPC   GL2 2201   0.604   0.547   8.669 -0.1034  0.0738 -0.3050
  138POPC   C1A 2202   0.549   0.019   8.445 -0.0740 -0.0466 -0.1498
  138POPC   D2A 2203   0.488   0.039   8.005 -0.0744  0.0964  0.0539
  138POPC   C3A 2204   0.739   0.334   7.737 -0.2586  0.1267 -0.0828
  138POPC   C4A 2205   1.099   0.421   7.561  0.3224  0.1606  0.0582
  138POPC   C1B 2206   0.976   0.180   8.652  0.0493  0.2349 -0.0973
  138POPC   C2B 2207   1.046  -0.081   8.390 -0.5836  0.2916  0.0099
  138POPC   C3B 2208   1.004  -0.108   7.945 -0.0116 -0.0911 -0.1027
  138POPC   C4B 2209   1.030  -0.127   7.513  0.0547 -0.0430 -0.2304
  139POPC   NC3 2210   5.019   6.955   8.629  0.2585  0.0719 -0.1935
  139POPC   PO4 2211   5.119   6.556   8.835 -0.1808 -0.1404  0.3190
  139POPC   GL1 2212   5.303   6.412   8.436  0.1284 -0.1996 -0.1401
  139POPC   GL2 2213   5.623   6.454   8.329  0.0568  0.0345  0.0975
  139POPC   C1A 2214   5.336   6.223   7.939  0.0985 -0.0199  0.0497
  139POPC   D2A 2215   5.461   6.444   7.465  0.2219  0.4244  0.5393
  139POPC   C3A 2216   5.223   6.698   7.265  0.1893  0.2248  0.0988
  139POPC   C4A 2217   4.971   6.830   7.011  0.0966 -0.0859  0.1318
  139POPC   C1B 2218   5.811   6.605   7.946 -0.1491  0.0303  0.1342
  139POPC   C2B 2219   5.971   6.609   7.515  0.2668 -0.2767 -0.0418
  139POPC   C3B 2220   5.961   6.288   7.256  0.1127  0.0811  0.0621
  139POPC   C4B 2221   6.191   6.339   6.910 -0.2687 -0.0231 -0.0522
  140POPC   NC3 2222   2.199   1.470   9.462 -0.1653 -0.1465 -0.0682
  140POPC   PO4 2223   2.233   1.535   8.928  0.0153 -0.1377 -0.3500
  140POPC   GL1 2224   2.237   1.686   8.465  0.1680 -0.0997 -0.3132
  140POPC   GL2 2225   2.495   1.849   8.323 -0.2322  0.1084  0.0092
  140POPC   C1A 2226   2.094   1.492   7.999 -0.0280  0.0526 -0.1001
  140POPC   D2A 2227   2.104   1.577   7.565 -0.1173  0.3656  0.3219
  140POPC   C3A 2228   1.836   1.908   7.471  0.0087  0.1939 -0.0801
  140POPC   C4A 2229   1.809   2.099   7.031  0.1763 -0.1732 -0.0954
  140POPC   C1B 2230   2.795   1.675   8.197 -0.1167 -0.1628 -0.2052
  140POPC   C2B 2231   2.905   1.428   7.828 -0.1030 -0.1437  0.2293
  140POPC   C3B 2232   3.208   1.147   7.622  0.0565 -0.2182  0.1382
  140POPC   C4B 2233   3.554   0.958   7.675  0.1582  0.0507 -0.1963
  141POPC   NC3 2234   7.936   4.987  10.033  0.0782  0.0386 -0.5657
  141POPC   PO4 2235   8.050   4.660   9.908  0.0089 -0.0487  0.2300
  141POPC   GL1 2236   8.217   4.346   9.660  0.1380  0.2130  0.1331
  141POPC   GL2 2237   8.430   4.109   9.807  0.1825  0.0563  0.2159
  141POPC   C1A 2238   8.388   4.359   9.266  0.2214  0.0486  0.1243
  141POPC   D2A 2239   8.273   4.774   8.994 -0.1723 -0.0353 -0.1237
  141POPC   C3A 2240   8.502   5.132   8.809 -0.0285 -0.0824 -0.0129
  141POPC   C4A 2241   8.576   5.249   8.407 -0.0757 -0.1727 -0.2646
  141POPC   C1B 2242   8.745   4.049   9.436  0.0381 -0.1459  0.0728
  141POPC   C2B 2243   8.853   4.316   9.067 -0.0148  0.2056 -0.0983
  141POPC   C3B 2244   8.607   4.497   8.732  0.1344  0.0419 -0.0883
  141POPC   C4B 2245   8.415   4.343   8.471  0.3794 -0.1317 -0.1107
  142POPC   NC3 2246   3.183   9.632   9.156 -0.2059 -0.4142  0.0346
  142POPC   PO4 2247   3.418   9.988   9.016 -0.0567  0.3146  0.0613
  142POPC   GL1 2248   3.242   9.949   8.638  0.6096 -0.1267  0.0274
  142POPC   GL2 2249   2.953   9.756   8.749 -0.3131 -0.2072 -0.4189
  142POPC   C1A 2250   2.874  10.072   8.343 -0.0393  0.1538 -0.2767
  142POPC   D2A 2251   2.692  10.603   8.434  0.0775  0.2398 -0.0413
  142POPC   C3A 2252   2.822  10.975   8.416 -0.1847 -0.0067 -0.1090
  142POPC   C4A 2253   2.979  11.414   8.277  0.1980  0.0864  0.3296
  142POPC   C1B 2254   3.067   9.559   8.465 -0.0088 -0.1402  0.0347
  142POPC   C2B 2255   3.216   9.222   8.274 -0.3442  0.2952  0.0847
  142POPC   C3B 2256   3.560   9.078   8.018  0.0498 -0.3598 -0.2342
  142POPC   C4B 2257   3.599   8.969   7.575 -0.0225 -0.2058  0.1478
  143POPC   NC3 2258   9.274   2.128   9.808 -0.0282 -0.1096 -0.2387
  143POPC   PO4 2259   9.278   2.177   9.433  0.1744 -0.6736  0.0805
  143POPC   GL1 2260   9.273   2.445   9.066 -0.2276  0.2580 -0.0233
  143POPC   GL2 2261   9.163   2.145   8.844  0.0171 -0.1181  0.2293
  143POPC   C1A 2262   9.595   2.315   8.761 -0.3225  0.3708  0.0468
  143POPC   D2A 2263   9.804   2.038   8.400  0.0171  0.1785 -0.1781
  143POPC   C3A 2264   9.457   1.710   8.286  0.2797 -0.3157  0.1010
  143POPC   C4A 2265   9.313   1.451   8.624 -0.0793  0.4168  0.1285
  143POPC   C1B 2266   9.081   2.022   8.396  0.2687 -0.1060  0.1459
  143POPC   C2B 2267   9.232   2.047   7.919  0.1955  0.0394 -0.0510
  143POPC   C3B 2268   9.441   1.814   7.589 -0.1751 -0.2970 -0.0311
  143POPC   C4B 2269   9.546   1.408   7.375  0.4318  0.1686  0.1265
  144POPC   NC3 2270   1.501   2.278   8.558 -0.6084 -0.1734 -0.1879
  144POPC   PO4 2271   1.367   1.957   8.738 -0.1378  0.0757  0.1272
  144POPC   GL1 2272   1.519   1.802   8.344 -0.1368  0.1616  0.1306
  144POPC   GL2 2273   1.771   1.829   8.303 -0.2455 -0.2387 -0.0174
  144POPC   C1A 2274   1.499   1.667   7.828  0.1080  0.2202  0.0317
  144POPC   D2A 2275   1.495   1.519   7.510  0.2777 -0.1159  0.0527
  144POPC   C3A 2276   1.131   1.324   7.334 -0.1917 -0.3025  0.4312
  144POPC   C4A 2277   1.113   1.447   6.946  0.3050 -0.1190  0.0282
  144POPC   C1B 2278   2.151   1.975   8.013  0.0779 -0.2114  0.1224
  144POPC   C2B 2279   2.500   1.822   7.792  0.0865 -0.3231 -0.5447
  144POPC   C3B 2280   2.641   1.572   7.445 -0.2022 -0.2068  0.0530
  144POPC   C4B 2281   2.982   1.491   7.338 -0.2448  0.1289 -0.0085
  145POPC   NC3 2282   2.784   8.571   9.569  0.1156 -0.1435 -0.1532
  145POPC   PO4 2283   2.848   8.706   9.137  0.2080  0.0883  0.0330
  145POPC   GL1 2284   2.707   8.776   8.750 -0.1207  0.1862 -0.2047
  145POPC   GL2 2285   2.410   8.775   8.698 -0.3466  0.2995 -0.0332
  145POPC   C1A 2286   2.901   8.774   8.310  0.0575  0.1723  0.1363
  145POPC   D2A 2287   3.006   8.843   7.970  0.1140  0.0362  0.1240
  145POPC   C3A 2288   3.177   8.653   7.603 -0.3523  0.4338  0.3195
  145POPC   C4A 2289   3.486   8.614   7.302  0.0453  0.1246  0.4070
  145POPC   C1B 2290   2.101   8.579   8.555  0.0111  0.2527 -0.0964
  145POPC   C2B 2291   2.023   8.359   8.279 -0.1339 -0.1657  0.0922
  145POPC   C3B 2292   2.296   8.191   8.025  0.3671  0.0296  0.1709
  145POPC   C4B 2293   2.362   7.828   7.686 -0.1174 -0.1522 -0.0931
  146POPC   NC3 2294   7.799   0.119   8.982  0.0847  0.0723  0.1978
  146POPC   PO4 2295   7.296   0.395   9.079 -0.1882  0.2053 -0.0670
  146POPC   GL1 2296   7.542   0.557   8.791  0.0620 -0.2376  0.1189
  146POPC   GL2 2297   7.527   0.287   8.565  0.0779  0.0958 -0.3902
  146POPC   C1A 2298   7.594   0.924   8.476 -0.0041  0.0373  0.0907
  146POPC   D2A 2299   7.599   1.029   8.048  0.2461 -0.2502 -0.3758
  146POPC   C3A 2300   7.300   0.953   7.858 -0.1032 -0.0873 -0.0580
  146POPC   C4A 2301   7.003   0.624   7.767 -0.0189 -0.2302  0.0008
  146POPC   C1B 2302   7.547  -0.124   8.419  0.2950  0.0917  0.0548
  146POPC   C2B 2303   7.468  -0.343   8.030  0.0121  0.0266  0.3393
  146POPC   C3B 2304   7.632  -0.531   7.592  0.3484  0.1226  0.0537
  146POPC   C4B 2305   8.028  -0.596   7.293 -0.0556 -0.0085  0.0554
  147POPC   NC3 2306   1.801   1.717   8.804 -0.0366 -0.2152 -0.0437
  147POPC   PO4 2307   1.981   2.119   8.636  0.0005  0.0617  0.0861
  147POPC   GL1 2308   2.144   2.358   8.334 -0.0131  0.1010  0.1068
  147POPC   GL2 2309   1.817   2.575   8.202 -0.3106 -0.1211 -0.1948
  147POPC   C1A 2310   2.589   2.268   8.061 -0.1904  0.2942 -0.3564
  147POPC   D2A 2311   2.955   2.028   7.898  0.1138 -0.1172 -0.0692
  147POPC   C3A 2312   3.000   1.933   7.545 -0.0459 -0.0904  0.1700
  147POPC   C4A 2313   2.842   1.929   7.150  0.3036 -0.1328 -0.3544
  147POPC   C1B 2314   1.659   2.271   7.888 -0.0209  0.1003 -0.1952
  147POPC   C2B 2315   1.430   2.163   7.568 -0.1118  0.1057  0.2604
  147POPC   C3B 2316   1.285   2.398   7.143 -0.0521 -0.0027  0.3336
  147POPC   C4B 2317   1.189   2.641   6.817 -0.0172  0.0658  0.1401
  148POPC   NC3 2318   4.097   4.591   8.777 -0.3184  0.2732  0.0204
  148POPC   PO4 2319   4.093   5.007   8.940 -0.0024  0.5649  0.3839
  148POPC   GL1 2320   3.998   5.022   8.503  0.1197 -0.1682  0.1271
  148POPC   GL2 2321   4.249   4.919   8.398  0.1168  0.2046 -0.2009
  148POPC   C1A 2322   3.886   5.358   8.216 -0.1338 -0.0321 -0.0990
  148POPC   D2A 2323   4.036   5.730   7.968 -0.2995 -0.2210 -0.0828
  148POPC   C3A 2324   3.969   5.869   7.606  0.0009 -0.2443 -0.3523
  148POPC   C4A 2325   4.097   5.585   7.246 -0.2089 -0.4857 -0.1082
  148POPC   C1B 2326   4.021   4.923   8.001 -0.0471 -0.2252 -0.2932
  148POPC   C2B 2327   4.108   4.739   7.598 -0.1020  0.1431 -0.0206
  148POPC   C3B 2328   4.174   4.486   7.187  0.0294 -0.0807 -0.0303
  148POPC   C4B 2329   4.328   4.571   6.784 -0.0254 -0.0102  0.0820
  149POPC   NC3 2330   6.084   8.848   8.610 -0.1265 -0.0889 -0.3923
  149POPC   PO4 2331   5.678   8.480   8.571 -0.1187 -0.1731 -0.1007
  149POPC   GL1 2332   5.859   8.669   8.184 -0.0833  0.1843 -0.2832
  149POPC   GL2 2333   5.916   9.007   8.140 -0.1082 -0.1116  0.0393
  149POPC   C1A 2334   5.821   8.601   7.745 -0.3516  0.0203 -0.1168
  149POPC   D2A 2335   5.978   8.460   7.378  0.1027 -0.2830 -0.0962
  149POPC   C3A 2336   5.966   8.247   6.938 -0.1421  0.1919 -0.4449
  149POPC   C4A 2337   5.756   8.102   6.632 -0.0877 -0.0329  0.1609
  149POPC   C1B 2338   6.184   9.288   7.923 -0.0314 -0.2935  0.1239
  149POPC   C2B 2339   6.347   9.415   7.563  0.0005  0.1381  0.4583
  149POPC   C3B 2340   6.636   9.535   7.202  0.1229  0.1845  0.4106
  149POPC   C4B 2341   6.832   9.440   6.773  0.1954 -0.2634  0.2120
  150POPC   NC3 2342   2.185   7.746   9.594 -0.1225 -0.3056 -0.0669
  150POPC   PO4 2343   2.220   7.460   9.279 -0.0438 -0.0200  0.1011
  150POPC   GL1 2344   2.155   7.359   8.863  0.1094 -0.0598  0.3393
  150POPC   GL2 2345   2.403   7.328   8.588  0.1606  0.0922  0.2616
  150POPC   C1A 2346   1.823   7.338   8.468 -0.3069 -0.1355  0.0064
  150POPC   D2A 2347   1.806   7.100   8.009  0.2419 -0.2541  0.2003
  150POPC   C3A 2348   1.706   6.659   7.805 -0.0913  0.0190  0.2235
  150POPC   C4A 2349   1.719   6.251   7.968 -0.0187 -0.1383  0.1129
  150POPC   C1B 2350   2.714   7.033   8.404 -0.0068 -0.0755 -0.0162
  150POPC   C2B 2351   3.085   7.112   8.058  0.3128  0.2529  0.1137
  150POPC   C3B 2352   3.462   7.140   7.790 -0.1985 -0.1863  0.0162
  150POPC   C4B 2353   3.767   6.740   7.698  0.3503  0.0342  0.0252
  151POPC   NC3 2354   5.345   1.727   8.889 -0.0290  0.1105 -0.2302
  151POPC   PO4 2355   5.466   1.421   8.537 -0.1371 -0.1277  0.0201
  151POPC   GL1 2356   5.546   1.754   8.411 -0.3340  0.1529 -0.0478
  151POPC   GL2 2357   5.209   1.869   8.367  0.0723  0.0121 -0.3261
  151POPC   C1A 2358   5.825   2.040   8.205  0.0565 -0.3404 -0.1129
  151POPC   D2A 2359   6.028   2.119   7.829  0.1838 -0.2104  0.0147
  151POPC   C3A 2360   5.876   2.270   7.532  0.5026 -0.4126  0.0106
  151POPC   C4A 2361   5.847   2.685   7.172 -0.1206 -0.0392 -0.2033
  151POPC   C1B 2362   5.085   1.637   8.015 -0.3923 -0.0003 -0.0559
  151POPC   C2B 2363   5.127   1.596   7.637  0.1515  0.2496  0.1969
  151POPC   C3B 2364   5.430   1.709   7.390 -0.1541  0.0906  0.0301
  151POPC   C4B 2365   5.884   1.789   7.393 -0.0568  0.0223 -0.0587
  152POPC   NC3 2366  10.060   8.697   9.240  0.0786  0.0394  0.4215
  152POPC   PO4 2367  10.531   8.780   9.221  0.3024  0.2037  0.1275
  152POPC   GL1 2368  10.402   8.934   8.846 -0.0408  0.1817  0.0331
  152POPC   GL2 2369  10.495   9.244   8.747  0.1331 -0.4938 -0.2135
  152POPC   C1A 2370  10.413   8.854   8.385  0.1861  0.4254 -0.0190
  152POPC   D2A 2371  10.495   8.660   8.015 -0.0631  0.1176 -0.1742
  152POPC   C3A 2372  10.585   8.235   7.814 -0.0205 -0.0537 -0.2364
  152POPC   C4A 2373  10.593   7.839   7.644  0.3636 -0.0305 -0.0330
  152POPC   C1B 2374  10.626   9.338   8.318  0.1290 -0.2778  0.1345
  152POPC   C2B 2375  10.734   9.093   7.844 -0.1678 -0.1876  0.4381
  152POPC   C3B 2376  10.839   9.024   7.340 -0.2253  0.2296  0.0138
  152POPC   C4B 2377  10.618   8.940   7.004 -0.1548 -0.0100  0.3388
  153POPC   NC3 2378   5.657   7.311   8.629  0.3173  0.2804  0.0636
  153POPC   PO4 2379   5.488   6.929   8.725 -0.1392 -0.1620  0.0594
  153POPC   GL1 2380   5.345   6.921   8.275  0.1593  0.0378  0.0018
  153POPC   GL2 2381   5.069   6.859   8.139 -0.1069  0.1013  0.0934
  153POPC   C1A 2382   5.484   6.989   7.725 -0.0897  0.0644 -0.1872
  153POPC   D2A 2383   5.780   7.007   7.339  0.1998  0.0635 -0.1044
  153POPC   C3A 2384   5.814   7.376   7.166 -0.1164 -0.2994  0.3107
  153POPC   C4A 2385   6.015   7.636   6.981 -0.2963 -0.2002 -0.0740
  153POPC   C1B 2386   5.055   6.713   7.767  0.0698 -0.0532  0.0443
  153POPC   C2B 2387   4.711   6.600   7.385  0.2482  0.0471 -0.0302
  153POPC   C3B 2388   4.550   6.200   7.126 -0.0402 -0.4238  0.1309
  153POPC   C4B 2389   4.123   6.058   7.136 -0.2245 -0.2440 -0.1971
  154POPC   NC3 2390   0.255   3.713  10.876  0.0564 -0.0524 -0.1880
  154POPC   PO4 2391   0.335   3.502  10.474  0.0836  0.2486 -0.0434
  154POPC   GL1 2392   0.360   3.641  10.067  0.0173  0.0516 -0.2389
  154POPC   GL2 2393   0.547   3.336   9.907  0.0566 -0.0614 -0.4158
  154POPC   C1A 2394   0.282   3.739   9.645 -0.0264 -0.2807  0.1949
  154POPC   D2A 2395   0.308   3.762   9.212 -0.0028  0.3381 -0.0755
  154POPC   C3A 2396   0.495   3.382   9.055  0.0148  0.2282  0.1251
  154POPC   C4A 2397   0.661   3.173   8.742  0.1145 -0.1073 -0.1331
  154POPC   C1B 2398   0.695   3.474   9.484 -0.0516 -0.0185 -0.1265
  154POPC   C2B 2399   0.962   3.367   9.198 -0.0211  0.1037 -0.2083
  154POPC   C3B 2400   0.898   3.674   8.837 -0.1068  0.3075  0.1331
  154POPC   C4B 2401   0.509   3.753   8.711 -0.1740  0.0308  0.0522
  155POPC   NC3 2402   6.345   5.974   8.559 -0.0402 -0.3828  0.1776
  155POPC   PO4 2403   6.374   6.404   8.759  0.1273  0.0422  0.0741
  155POPC   GL1 2404   6.331   6.431   8.345  0.0477  0.3969 -0.5374
  155POPC   GL2 2405   6.212   6.236   8.147 -0.3248  0.2040 -0.2238
  155POPC   C1A 2406   6.306   6.716   7.960 -0.0731  0.2417  0.1868
  155POPC   D2A 2407   6.247   7.042   7.626 -0.1724  0.0838  0.0642
  155POPC   C3A 2408   5.932   7.289   7.757 -0.1867 -0.1495  0.0166
  155POPC   C4A 2409   5.583   7.616   7.570  0.4452  0.2478  0.0135
  155POPC   C1B 2410   6.614   6.107   7.960 -0.0682  0.2935  0.1765
  155POPC   C2B 2411   6.899   6.196   7.699 -0.1079 -0.2063  0.1574
  155POPC   C3B 2412   7.269   6.024   7.518  0.3348 -0.0307 -0.2834
  155POPC   C4B 2413   7.396   6.019   7.223 -0.2848  0.0208 -0.0710
  156POPC   NC3 2414   9.335   1.258   9.476  0.1098  0.0691 -0.0622
  156POPC   PO4 2415   9.665   1.284   9.132  0.0425  0.1198  0.2183
  156POPC   GL1 2416   9.935   1.391   8.836  0.0425  0.1036  0.0199
  156POPC   GL2 2417  10.228   1.348   8.688 -0.0159  0.1173 -0.0309
  156POPC   C1A 2418   9.811   1.321   8.383  0.0812 -0.3143  0.0320
  156POPC   D2A 2419   9.881   1.021   8.137  0.1740  0.0693  0.0998
  156POPC   C3A 2420   9.863   1.048   7.686  0.2729 -0.1537  0.1789
  156POPC   C4A 2421  10.161   0.801   7.523 -0.0324 -0.1773 -0.0715
  156POPC   C1B 2422  10.298   1.264   8.233  0.1012  0.2436 -0.1005
  156POPC   C2B 2423  10.305   1.223   7.765  0.0078 -0.2876 -0.0789
  156POPC   C3B 2424  10.356   1.222   7.203 -0.0297 -0.2372  0.1099
  156POPC   C4B 2425  10.363   1.001   6.832 -0.1712 -0.1343 -0.0500
  157POPC   NC3 2426   0.436   8.208   5.660  0.2045  0.1308  0.0369
  157POPC   PO4 2427   0.103   8.493   5.631  0.4574 -0.2698 -0.1770
  157POPC   GL1 2428   0.008   8.494   6.113 -0.0067  0.2752  0.0411
  157POPC   GL2 2429  -0.131   8.251   6.322 -0.2717 -0.0330  0.2833
  157POPC   C1A 2430   0.223   8.607   6.493 -0.1608 -0.3921  0.4025
  157POPC   D2A 2431   0.198   8.546   6.950 -0.0921 -0.2470 -0.1518
  157POPC   C3A 2432  -0.148   8.257   7.009 -0.2185  0.1147 -0.1101
  157POPC   C4A 2433  -0.462   8.281   7.292 -0.1883  0.0868 -0.0232
  157POPC   C1B 2434  -0.256   8.642   6.622 -0.0818  0.2427  0.1250
  157POPC   C2B 2435  -0.283   8.740   6.974 -0.0537  0.1003 -0.1098
  157POPC   C3B 2436  -0.004   8.761   7.336 -0.1798  0.2692 -0.1833
  157POPC   C4B 2437   0.324   8.661   7.460  0.0045 -0.1542 -0.2451
  158POPC   NC3 2438   0.780   0.333   4.555 -0.3567  0.1751  0.0163
  158POPC   PO4 2439   0.700   0.576   4.946 -0.2340  0.2080 -0.0525
  158POPC   GL1 2440   0.511   0.611   5.348  0.1613  0.1215 -0.2364
  158POPC   GL2 2441   0.260   0.687   5.420 -0.1774  0.3574 -0.0108
  158POPC   C1A 2442   0.780   0.507   5.673 -0.1238  0.1735 -0.2393
  158POPC   D2A 2443   0.885   0.125   5.824  0.1986  0.3099  0.5398
  158POPC   C3A 2444   0.841   0.082   6.218 -0.1096  0.1338  0.1505
  158POPC   C4A 2445   0.722   0.143   6.604  0.0935 -0.1434  0.4466
  158POPC   C1B 2446   0.421   0.766   5.887  0.2165 -0.4642 -0.0833
  158POPC   C2B 2447   0.744   0.589   6.145 -0.3580  0.3356  0.2654
  158POPC   C3B 2448   0.990   0.625   6.525 -0.0149  0.0461 -0.2572
  158POPC   C4B 2449   1.243   0.911   6.824  0.0132  0.0326 -0.0510
  159POPC   NC3 2450   5.099   7.942   4.892  0.2570  0.0151 -0.1983
  159POPC   PO4 2451   4.675   7.818   5.048 -0.0726  0.2065  0.3196
  159POPC   GL1 2452   4.670   7.731   5.529  0.2658 -0.0359 -0.0590
  159POPC   GL2 2453   4.975   7.765   5.609 -0.1593 -0.1416  0.0670
  159POPC   C1A 2454   4.651   7.760   6.035  0.1407  0.0919  0.3257
  159POPC   D2A 2455   4.605   7.821   6.424 -0.0189  0.0808 -0.2341
  159POPC   C3A 2456   4.310   7.845   6.723 -0.1384 -0.0901 -0.3330
  159POPC   C4A 2457   4.072   7.846   7.062 -0.1214  0.1419 -0.3328
  159POPC   C1B 2458   5.098   8.008   5.929 -0.1922  0.3818 -0.0446
  159POPC   C2B 2459   4.944   8.208   6.281  0.1566  0.1199 -0.0081
  159POPC   C3B 2460   4.638   8.321   6.611 -0.0160  0.1554  0.3904
  159POPC   C4B 2461   4.407   8.281   7.011  0.0827 -0.2187  0.1495
  160POPC   NC3 2462   1.885   4.605   3.926 -0.1872  0.3322 -0.0520
  160POPC   PO4 2463   1.494   4.426   3.891 -0.1459  0.0815  0.1483
  160POPC   GL1 2464   1.551   4.525   4.319 -0.1994  0.2009 -0.1291
  160POPC   GL2 2465   1.392   4.310   4.472  0.0144  0.0044 -0.4117
  160POPC   C1A 2466   1.471   4.706   4.786 -0.0960 -0.4006 -0.2672
  160POPC   D2A 2467   1.466   4.700   5.246  0.4692 -0.0498  0.0486
  160POPC   C3A 2468   1.575   4.344   5.429  0.2944 -0.1280  0.2320
  160POPC   C4A 2469   1.423   3.911   5.600 -0.3073  0.0867  0.0916
  160POPC   C1B 2470   1.232   4.262   4.937  0.1022 -0.0033 -0.3511
  160POPC   C2B 2471   1.055   4.412   5.402 -0.0518  0.4118  0.1021
  160POPC   C3B 2472   1.119   4.740   5.630  0.0532  0.2584  0.2754
  160POPC   C4B 2473   1.242   5.163   5.561  0.1915 -0.1426 -0.1597
  161POPC   NC3 2474   9.177   6.088   3.896 -0.1276 -0.0295 -0.1503
  161POPC   PO4 2475   9.218   5.776   4.122  0.0056  0.1360 -0.0468
  161POPC   GL1 2476   8.969   5.729   4.500  0.0240  0.1907 -0.2479
  161POPC   GL2 2477   8.695   5.760   4.473  0.1524 -0.2461 -0.2226
  161POPC   C1A 2478   8.960   5.531   4.970 -0.0764 -0.2882  0.0557
  161POPC   D2A 2479   8.930   5.092   5.108 -0.1384  0.0681 -0.0266
  161POPC   C3A 2480   8.990   4.914   5.550  0.1325 -0.1052 -0.0358
  161POPC   C4A 2481   8.605   4.797   5.934 -0.0810 -0.0966  0.1808
  161POPC   C1B 2482   8.242   5.608   4.589  0.2515 -0.1355  0.0592
  161POPC   C2B 2483   8.145   5.165   4.707 -0.3162 -0.2218  0.0705
  161POPC   C3B 2484   7.942   4.956   4.886  0.0450 -0.0530 -0.0141
  161POPC   C4B 2485   7.621   4.646   4.830  0.1633 -0.3786  0.0168
  162POPC   NC3 2486   6.481   8.113   5.033  0.0799  0.2400 -0.0308
  162POPC   PO4 2487   6.472   7.730   5.268 -0.0688 -0.0079  0.1810
  162POPC   GL1 2488   6.135   7.808   5.551 -0.2142 -0.1584  0.0025
  162POPC   GL2 2489   5.953   7.566   5.688  0.1641 -0.0315 -0.0882
  162POPC   C1A 2490   6.103   7.909   6.022 -0.1573 -0.2061  0.3084
  162POPC   D2A 2491   6.207   7.951   6.525 -0.2744 -0.3146 -0.2095
  162POPC   C3A 2492   6.478   7.696   6.745  0.4694 -0.0884 -0.0283
  162POPC   C4A 2493   6.757   7.345   6.972 -0.1928  0.0078 -0.1564
  162POPC   C1B 2494   5.892   7.451   6.093  0.2932 -0.2615 -0.1774
  162POPC   C2B 2495   5.899   7.541   6.485 -0.0853  0.2293  0.1384
  162POPC   C3B 2496   5.576   7.492   6.755  0.1829  0.1445 -0.2033
  162POPC   C4B 2497   5.366   7.175   7.115 -0.1321 -0.1104 -0.0806
  163POPC   NC3 2498   8.306   5.977   3.658 -0.3447  0.0860 -0.0690
  163POPC   PO4 2499   8.254   6.345   4.039  0.1946 -0.0856  0.0910
  163POPC   GL1 2500   8.271   6.055   4.406 -0.2788 -0.0901  0.3284
  163POPC   GL2 2501   8.173   5.813   4.148 -0.4411  0.2210 -0.3052
  163POPC   C1A 2502   8.488   6.017   4.850 -0.0048  0.2088 -0.0536
  163POPC   D2A 2503   8.126   5.801   5.116 -0.1161 -0.0759 -0.0931
  163POPC   C3A 2504   8.218   5.643   5.511 -0.0729  0.4161 -0.0324
  163POPC   C4A 2505   8.150   5.267   5.735 -0.1210 -0.1088  0.3840
  163POPC   C1B 2506   7.821   5.657   4.413 -0.0785  0.1478  0.0261
  163POPC   C2B 2507   7.689   5.413   4.687 -0.1899  0.0945 -0.0413
  163POPC   C3B 2508   7.513   5.136   5.026 -0.1062  0.0241 -0.1207
  163POPC   C4B 2509   7.274   4.838   5.315  0.2772  0.1486  0.0400
  164POPC   NC3 2510   8.886   5.123   3.603  0.1046 -0.2448  0.0762
  164POPC   PO4 2511   8.711   4.676   3.516 -0.2710  0.0678  0.0240
  164POPC   GL1 2512   8.869   4.701   3.888 -0.0766 -0.0413  0.1652
  164POPC   GL2 2513   9.201   4.614   3.923  0.1569  0.2393  0.0126
  164POPC   C1A 2514   8.924   4.602   4.314  0.0425 -0.2294 -0.0212
  164POPC   D2A 2515   8.949   4.632   4.745  0.2832  0.0568 -0.1401
  164POPC   C3A 2516   8.687   4.383   5.025 -0.0824 -0.0784  0.3816
  164POPC   C4A 2517   8.527   3.962   4.906 -0.0363  0.0523  0.0112
  164POPC   C1B 2518   9.399   4.492   4.314 -0.2942  0.1819 -0.3259
  164POPC   C2B 2519   9.615   4.331   4.803  0.1172  0.0500 -0.5326
  164POPC   C3B 2520  10.002   4.059   4.985 -0.1051 -0.1423 -0.1342
  164POPC   C4B 2521  10.094   3.854   5.344 -0.0131  0.0428  0.2403
  165POPC   NC3 2522   9.893   6.222   4.342  0.0986 -0.2055  0.1404
  165POPC   PO4 2523  10.082   6.393   4.657 -0.0269 -0.1004  0.0738
  165POPC   GL1 2524  10.282   6.056   4.701 -0.1394 -0.0973  0.0590
  165POPC   GL2 2525  10.565   6.195   4.821  0.1904 -0.0475 -0.0291
  165POPC   C1A 2526  10.528   5.664   4.783 -0.0631  0.2448 -0.1602
  165POPC   D2A 2527  10.849   5.384   4.604 -0.1350 -0.1697  0.0622
  165POPC   C3A 2528  11.025   5.317   4.983  0.1527 -0.0055  0.2424
  165POPC   C4A 2529  11.230   5.595   5.374  0.3234 -0.2270  0.1056
  165POPC   C1B 2530  10.453   5.994   5.175  0.1811 -0.1491  0.1848
  165POPC   C2B 2531  10.111   6.131   5.479  0.0681  0.0029 -0.0048
  165POPC   C3B 2532   9.869   6.493   5.489 -0.2631 -0.3633 -0.0402
  165POPC   C4B 2533   9.838   6.741   5.807 -0.2697  0.1036 -0.1670
  166POPC   NC3 2534   1.342   5.812   4.116 -0.0883 -0.0933  0.1972
  166POPC   PO4 2535   1.141   5.765   4.414  0.0888  0.1493  0.0412
  166POPC   GL1 2536   1.134   5.749   4.750  0.0330 -0.3446 -0.0296
  166POPC   GL2 2537   1.393   5.880   5.034 -0.1986 -0.2520 -0.0877
  166POPC   C1A 2538   0.759   5.836   5.055 -0.0228  0.2778 -0.0918
  166POPC   D2A 2539   0.496   5.555   5.357 -0.2002 -0.0584 -0.0824
  166POPC   C3A 2540   0.723   5.155   5.454 -0.2257 -0.0111 -0.1924
  166POPC   C4A 2541   0.791   5.079   5.844  0.2734  0.0575  0.0508
  166POPC   C1B 2542   1.105   6.057   5.296 -0.2131 -0.0063  0.0135
  166POPC   C2B 2543   0.966   6.035   5.698 -0.0700 -0.2692  0.1260
  166POPC   C3B 2544   0.902   6.027   6.109  0.0585  0.3153 -0.0131
  166POPC   C4B 2545   0.589   6.231   6.490 -0.3319 -0.0663 -0.0082
  167POPC   NC3 2546   9.594   4.294   3.726  0.0947 -0.1693 -0.3848
  167POPC   PO4 2547   9.645   3.905   4.043  0.0839  0.0444  0.2697
  167POPC   GL1 2548   9.466   4.013   4.425  0.0622 -0.4090 -0.0670
  167POPC   GL2 2549   9.745   3.919   4.560 -0.0195 -0.1851  0.3417
  167POPC   C1A 2550   9.145   4.058   4.765 -0.0778 -0.1453  0.0476
  167POPC   D2A 2551   9.159   4.002   5.149  0.2103 -0.2893 -0.1881
  167POPC   C3A 2552   9.010   4.250   5.492 -0.1347 -0.0194 -0.1615
  167POPC   C4A 2553   9.036   4.482   5.889 -0.0671 -0.1298 -0.0667
  167POPC   C1B 2554   9.572   3.848   4.995 -0.1181 -0.3972  0.0111
  167POPC   C2B 2555   9.587   4.058   5.398  0.1138  0.1206  0.1555
  167POPC   C3B 2556   9.441   4.487   5.650  0.0379  0.0233 -0.0378
  167POPC   C4B 2557   9.503   4.960   5.763  0.1201 -0.1726 -0.1284
  168POPC   NC3 2558   3.848   3.890   4.845 -0.1245 -0.2467  0.1496
  168POPC   PO4 2559   3.880   4.221   5.090  0.2880  0.0528  0.1105
  168POPC   GL1 2560   3.822   4.206   5.538 -0.0707  0.2350  0.3928
  168POPC   GL2 2561   3.576   4.210   5.637 -0.0266 -0.1766 -0.0825
  168POPC   C1A 2562   3.849   4.465   5.992 -0.0206 -0.4000 -0.1748
  168POPC   D2A 2563   3.970   4.604   6.459 -0.0200  0.0934  0.1575
  168POPC   C3A 2564   3.976   4.988   6.599 -0.0078  0.2193  0.1302
  168POPC   C4A 2565   4.358   5.303   6.809  0.1737 -0.0312 -0.3737
  168POPC   C1B 2566   3.968   3.992   5.925  0.0123 -0.2341  0.1860
  168POPC   C2B 2567   4.309   4.090   6.105  0.0687  0.1099 -0.3024
  168POPC   C3B 2568   4.601   3.988   6.369  0.1460  0.1014 -0.4351
  168POPC   C4B 2569   4.811   3.790   6.751  0.0014 -0.2723  0.0286
  169POPC   NC3 2570   3.412   3.969   5.183 -0.2155 -0.1408 -0.4413
  169POPC   PO4 2571   3.497   3.486   5.120  0.1476  0.0500 -0.1183
  169POPC   GL1 2572   3.466   3.590   5.557  0.2361 -0.3524  0.4608
  169POPC   GL2 2573   3.373   3.344   5.735 -0.0694  0.1157  0.3944
  169POPC   C1A 2574   3.430   3.891   5.922  0.0611  0.3741  0.0361
  169POPC   D2A 2575   3.508   4.199   6.232  0.0575  0.0089 -0.1146
  169POPC   C3A 2576   3.840   4.093   6.429  0.0478 -0.3830 -0.0198
  169POPC   C4A 2577   4.132   4.169   6.618  0.0727  0.1412  0.1898
  169POPC   C1B 2578   3.765   3.519   5.984 -0.2435  0.2006 -0.0045
  169POPC   C2B 2579   4.001   3.655   6.318 -0.1359  0.2698  0.0910
  169POPC   C3B 2580   4.294   3.645   6.665 -0.0781 -0.0291  0.1741
  169POPC   C4B 2581   4.124   3.453   7.034 -0.0860  0.0999  0.1338
  170POPC   NC3 2582   2.176   6.830   4.647  0.0847  0.0138 -0.2017
  170POPC   PO4 2583   2.069   7.131   5.034 -0.0700 -0.0398 -0.1351
  170POPC   GL1 2584   1.919   6.768   5.371  0.3764 -0.2300  0.0645
  170POPC   GL2 2585   1.659   6.856   5.552  0.1130 -0.2225  0.0821
  170POPC   C1A 2586   2.081   6.443   5.581  0.1820  0.2554 -0.1033
  170POPC   D2A 2587   2.057   6.383   5.966  0.3736 -0.0124 -0.1338
  170POPC   C3A 2588   2.282   6.110   6.012  0.1214 -0.2651  0.3039
  170POPC   C4A 2589   2.465   5.773   6.291 -0.0545  0.0518 -0.1704
  170POPC   C1B 2590   1.544   7.041   5.959  0.0483  0.0508  0.1378
  170POPC   C2B 2591   1.476   7.285   6.256 -0.0283  0.1999  0.1468
  170POPC   C3B 2592   1.310   7.334   6.679  0.1949  0.2203  0.0627
  170POPC   C4B 2593   1.248   7.724   7.052  0.0999  0.0062 -0.0039
  171POPC   NC3 2594   1.433   8.578   5.558 -0.1915 -0.3867  0.0832
  171POPC   PO4 2595   0.994   8.509   5.715 -0.3520  0.3695 -0.1456
  171POPC   GL1 2596   1.121   8.757   6.062 -0.0597  0.0528  0.0639
  171POPC   GL2 2597   1.467   8.704   6.065 -0.1293  0.0702 -0.1510
  171POPC   C1A 2598   1.116   8.763   6.436  0.0341  0.0246 -0.2539
  171POPC   D2A 2599   1.046   8.959   6.830 -0.0809 -0.2180  0.1036
  171POPC   C3A 2600   0.964   8.632   7.088  0.1141 -0.2254  0.2528
  171POPC   C4A 2601   0.614   8.463   7.154  0.0920 -0.0759 -0.1670
  171POPC   C1B 2602   1.644   8.750   6.449  0.0964  0.0858  0.1478
  171POPC   C2B 2603   1.500   9.130   6.649 -0.1831  0.3574  0.0766
  171POPC   C3B 2604   1.513   9.319   7.136  0.2347  0.0002 -0.1938
  171POPC   C4B 2605   1.739   9.200   7.375 -0.0343 -0.0137  0.3941
  172POPC   NC3 2606   0.401   7.954   5.229  0.0045 -0.1423 -0.0625
  172POPC   PO4 2607   0.002   7.942   5.503  0.2401  0.2916  0.2401
  172POPC   GL1 2608   0.096   7.853   5.955  0.1264  0.0356  0.4663
  172POPC   GL2 2609   0.103   7.453   5.989  0.2129 -0.0400  0.1935
  172POPC   C1A 2610   0.277   7.933   6.355  0.2263  0.0511 -0.0298
  172POPC   D2A 2611   0.361   8.094   6.715 -0.1465  0.3344 -0.0157
  172POPC   C3A 2612   0.253   8.066   7.172 -0.0874  0.1476 -0.0550
  172POPC   C4A 2613   0.014   8.276   7.537  0.0516 -0.0585 -0.2160
  172POPC   C1B 2614   0.400   7.430   6.284 -0.0829 -0.1610 -0.3305
  172POPC   C2B 2615   0.326   7.558   6.682  0.2341 -0.1647 -0.0375
  172POPC   C3B 2616   0.322   7.589   7.125 -0.0343 -0.0787 -0.1395
  172POPC   C4B 2617   0.133   7.428   7.554 -0.0574 -0.3676  0.2210
  173POPC   NC3 2618   1.131   9.653   5.470 -0.0177 -0.1689 -0.1505
  173POPC   PO4 2619   1.454   9.820   5.218  0.2055 -0.2530 -0.1970
  173POPC   GL1 2620   1.599  10.092   5.662  0.2470  0.1098  0.2685
  173POPC   GL2 2621   1.349  10.183   5.566 -0.1065 -0.4684 -0.0175
  173POPC   C1A 2622   1.508  10.401   6.031 -0.1832  0.1726  0.1420
  173POPC   D2A 2623   1.341  10.460   6.392  0.1211  0.0633 -0.1274
  173POPC   C3A 2624   1.516  10.481   6.766 -0.0389 -0.0850 -0.4805
  173POPC   C4A 2625   1.434  10.470   7.225  0.3723  0.3302 -0.2777
  173POPC   C1B 2626   1.227   9.987   5.992  0.0088  0.1181  0.1444
  173POPC   C2B 2627   1.195   9.959   6.437 -0.2274  0.0265  0.0097
  173POPC   C3B 2628   1.154  10.030   6.932  0.1756  0.0620  0.3786
  173POPC   C4B 2629   0.996  10.451   7.010 -0.6532 -0.0111 -0.2683
  174POPC   NC3 2630   2.908   4.046   4.495  0.0163 -0.1194 -0.0801
  174POPC   PO4 2631   2.803   4.020   4.963  0.0388 -0.2262  0.1771
  174POPC   GL1 2632   2.742   3.923   5.318 -0.0863  0.3508 -0.2952
  174POPC   GL2 2633   2.935   4.115   5.485  0.0622  0.0441  0.1292
  174POPC   C1A 2634   2.437   3.925   5.703 -0.1229  0.3404 -0.2531
  174POPC   D2A 2635   2.182   4.066   5.939 -0.1466  0.1771  0.1949
  174POPC   C3A 2636   1.815   4.355   5.886 -0.3885  0.1559  0.0913
  174POPC   C4A 2637   1.296   4.332   5.887  0.2892  0.0184 -0.0591
  174POPC   C1B 2638   3.001   4.214   5.871 -0.0825  0.2116 -0.1080
  174POPC   C2B 2639   3.022   4.406   6.223  0.0039  0.3169  0.0690
  174POPC   C3B 2640   2.805   4.549   6.572  0.2078 -0.1701  0.0153
  174POPC   C4B 2641   2.565   4.478   6.842  0.2065 -0.1986 -0.0739
  175POPC   NC3 2642   8.927   6.963   4.605 -0.1176  0.1503  0.2582
  175POPC   PO4 2643   9.103   6.614   4.597  0.1709  0.0419 -0.1841
  175POPC   GL1 2644   9.207   6.250   4.878  0.0866 -0.0019 -0.0954
  175POPC   GL2 2645   8.949   6.170   4.751 -0.0034  0.1369  0.2695
  175POPC   C1A 2646   9.125   5.984   5.247 -0.2814 -0.4658 -0.0451
  175POPC   D2A 2647   9.097   5.583   5.553 -0.1914 -0.0382  0.0022
  175POPC   C3A 2648   9.189   5.306   5.830 -0.1129 -0.3908  0.0661
  175POPC   C4A 2649   9.503   5.240   6.148  0.0130 -0.0583 -0.2159
  175POPC   C1B 2650   8.839   6.399   5.276 -0.1442  0.0835 -0.0766
  175POPC   C2B 2651   8.945   6.176   5.674  0.0882 -0.0068  0.0616
  175POPC   C3B 2652   9.017   6.209   6.104 -0.1131 -0.4174 -0.1811
  175POPC   C4B 2653   8.822   6.125   6.558  0.2116 -0.1148  0.1934
  176POPC   NC3 2654   6.844   3.450   4.352  0.2218 -0.0363 -0.1695
  176POPC   PO4 2655   6.683   3.108   4.665  0.0308  0.2197  0.0560
  176POPC   GL1 2656   6.496   3.079   5.220 -0.1042  0.1603  0.3088
  176POPC   GL2 2657   6.263   2.944   5.311  0.1007 -0.0420  0.0820
  176POPC   C1A 2658   6.600   3.288   5.592  0.1679  0.0007 -0.2943
  176POPC   D2A 2659   6.737   3.474   5.972  0.2683 -0.0333 -0.0623
  176POPC   C3A 2660   6.864   3.414   6.398 -0.0064  0.2016  0.1350
  176POPC   C4A 2661   7.125   3.165   6.487 -0.1761  0.0859  0.0435
  176POPC   C1B 2662   6.314   2.912   5.812  0.1142 -0.1200  0.5644
  176POPC   C2B 2663   6.167   2.669   6.112 -0.0927  0.1281 -0.0560
  176POPC   C3B 2664   6.062   2.696   6.415 -0.2297  0.0240 -0.0823
  176POPC   C4B 2665   6.319   2.829   6.744 -0.1106 -0.0674 -0.2163
  177POPC   NC3 2666   4.905   3.675   4.513 -0.1345 -0.0299 -0.0291
  177POPC   PO4 2667   4.566   3.370   4.650 -0.2942  0.1417  0.2439
  177POPC   GL1 2668   4.448   3.545   5.035 -0.2789  0.1167 -0.0074
  177POPC   GL2 2669   4.359   3.852   5.066 -0.0282 -0.0633  0.1199
  177POPC   C1A 2670   4.725   3.548   5.405  0.0774 -0.0333 -0.3363
  177POPC   D2A 2671   5.215   3.360   5.436  0.2403  0.1878  0.0840
  177POPC   C3A 2672   5.376   3.485   5.937 -0.2596  0.0212 -0.6064
  177POPC   C4A 2673   5.431   3.387   6.367 -0.1951 -0.0496 -0.0503
  177POPC   C1B 2674   4.293   3.867   5.598 -0.1891 -0.0329  0.3205
  177POPC   C2B 2675   4.468   3.660   5.988  0.1776  0.0261 -0.0929
  177POPC   C3B 2676   4.535   3.411   6.303 -0.3451  0.1447  0.0908
  177POPC   C4B 2677   4.574   2.881   6.433 -0.1564 -0.0118  0.1985
  178POPC   NC3 2678   4.292   4.495   4.350 -0.1066  0.2384 -0.1072
  178POPC   PO4 2679   4.741   4.581   4.524 -0.0739  0.0620 -0.0855
  178POPC   GL1 2680   4.761   4.548   5.038  0.2152 -0.0310 -0.1405
  178POPC   GL2 2681   4.664   4.698   5.342  0.2562 -0.0475  0.1238
  178POPC   C1A 2682   4.659   4.179   5.290  0.0406 -0.1113  0.0836
  178POPC   D2A 2683   4.986   4.019   5.511 -0.0325  0.3384 -0.0505
  178POPC   C3A 2684   4.916   3.773   5.808  0.2377 -0.1929 -0.0235
  178POPC   C4A 2685   4.993   3.691   6.232 -0.0946  0.1745 -0.1862
  178POPC   C1B 2686   4.726   4.808   5.768  0.0103 -0.0867 -0.1369
  178POPC   C2B 2687   4.922   4.912   6.194  0.1731 -0.0960 -0.4043
  178POPC   C3B 2688   5.106   5.132   6.524  0.5131  0.1181  0.2889
  178POPC   C4B 2689   5.489   5.086   6.762  0.3428  0.1977  0.0842
  179POPC   NC3 2690   4.614   8.307   5.123  0.2324 -0.0222  0.1594
  179POPC   PO4 2691   4.123   8.318   5.045 -0.1314 -0.0312  0.0051
  179POPC   GL1 2692   4.339   8.328   5.498  0.2796  0.0415  0.0901
  179POPC   GL2 2693   4.220   8.096   5.797  0.0368  0.1305  0.2299
  179POPC   C1A 2694   4.411   8.726   5.706 -0.2170  0.0610  0.1407
  179POPC   D2A 2695   4.722   8.932   5.842  0.0809  0.2420 -0.0614
  179POPC   C3A 2696   4.851   8.590   5.964  0.0664  0.1133  0.2115
  179POPC   C4A 2697   4.538   8.289   6.068 -0.1757  0.0618 -0.0414
  179POPC   C1B 2698   4.096   8.449   6.016  0.0049  0.2502 -0.2047
  179POPC   C2B 2699   4.288   8.729   6.230 -0.4118 -0.1233 -0.0564
  179POPC   C3B 2700   4.600   8.830   6.565 -0.0956  0.2923 -0.4169
  179POPC   C4B 2701   4.664   8.758   7.031  0.2166  0.2324 -0.0296
  180POPC   NC3 2702   2.327   3.348   4.864 -0.1666  0.0077 -0.0621
  180POPC   PO4 2703   2.660   2.979   4.964 -0.1316  0.0836 -0.1455
  180POPC   GL1 2704   2.459   2.961   5.315  0.1262 -0.0927  0.0021
  180POPC   GL2 2705   2.231   3.238   5.358 -0.0698 -0.2852  0.4626
  180POPC   C1A 2706   2.527   2.961   5.791  0.2798 -0.0601  0.1539
  180POPC   D2A 2707   2.653   2.872   6.206  0.0107 -0.0174  0.0019
  180POPC   C3A 2708   2.874   3.101   6.479 -0.0205  0.3309  0.2855
  180POPC   C4A 2709   2.820   3.477   6.572 -0.0643 -0.0612  0.0132
  180POPC   C1B 2710   2.578   3.473   5.573 -0.2239 -0.1695  0.0819
  180POPC   C2B 2711   2.721   3.358   6.017  0.4845  0.0060  0.1669
  180POPC   C3B 2712   3.176   3.407   6.166  0.0072 -0.1113  0.0699
  180POPC   C4B 2713   3.483   3.733   6.373  0.0378 -0.0237 -0.2309
  181POPC   NC3 2714   8.894   5.429   3.226 -0.0643 -0.0700  0.2501
  181POPC   PO4 2715   8.615   5.591   3.519  0.0986 -0.2191 -0.0756
  181POPC   GL1 2716   8.480   5.430   3.914 -0.0036  0.1584  0.3009
  181POPC   GL2 2717   8.336   5.064   3.752 -0.1009 -0.1111  0.0322
  181POPC   C1A 2718   8.080   5.286   4.142  0.1370 -0.1646 -0.1535
  181POPC   D2A 2719   7.831   5.004   4.307 -0.2092  0.1360 -0.1228
  181POPC   C3A 2720   7.909   4.656   4.362  0.0952  0.0952  0.0800
  181POPC   C4A 2721   8.394   4.595   4.171 -0.1072 -0.1596 -0.2959
  181POPC   C1B 2722   8.470   5.039   4.221 -0.0315  0.1303 -0.1277
  181POPC   C2B 2723   8.487   4.819   4.593 -0.4151 -0.1147  0.0015
  181POPC   C3B 2724   8.428   4.882   5.040  0.0235 -0.0970 -0.1148
  181POPC   C4B 2725   8.597   4.659   5.409  0.4427  0.2178 -0.0986
  182POPC   NC3 2726   0.419   5.969   3.907  0.2368  0.0395 -0.0055
  182POPC   PO4 2727   0.020   5.863   4.188  0.1064  0.0100 -0.1807
  182POPC   GL1 2728   0.029   5.513   4.485 -0.4706  0.0129 -0.0779
  182POPC   GL2 2729   0.013   5.168   4.278 -0.0848  0.0639 -0.3503
  182POPC   C1A 2730  -0.242   5.314   4.747  0.2403 -0.2785  0.1902
  182POPC   D2A 2731  -0.335   5.088   5.054  0.1129  0.0804 -0.2464
  182POPC   C3A 2732  -0.516   4.684   5.109 -0.2574 -0.0950  0.1876
  182POPC   C4A 2733  -0.862   4.562   5.133 -0.1649 -0.3166  0.1326
  182POPC   C1B 2734  -0.203   4.902   4.484  0.0838 -0.1082  0.0965
  182POPC   C2B 2735  -0.574   4.809   4.585  0.0215 -0.2677  0.2422
  182POPC   C3B 2736  -0.792   5.021   4.848  0.2798  0.0142  0.2654
  182POPC   C4B 2737  -0.779   5.139   5.303 -0.1663 -0.1149  0.1850
  183POPC   NC3 2738   5.782   7.491   4.795 -0.0478 -0.1250  0.1836
  183POPC   PO4 2739   5.500   7.754   5.113  0.2296  0.0221  0.1688
  183POPC   GL1 2740   5.523   7.797   5.503 -0.2967 -0.0935  0.2057
  183POPC   GL2 2741   5.384   8.111   5.512 -0.2086  0.1439  0.1208
  183POPC   C1A 2742   5.404   7.525   5.790 -0.1711 -0.0612 -0.1242
  183POPC   D2A 2743   5.083   7.521   6.089  0.1092 -0.2930  0.3968
  183POPC   C3A 2744   5.122   7.298   6.405  0.0308  0.0940  0.2508
  183POPC   C4A 2745   5.271   6.907   6.572 -0.0196  0.0862 -0.1619
  183POPC   C1B 2746   5.597   7.999   5.887 -0.0193 -0.1474 -0.3080
  183POPC   C2B 2747   5.497   7.821   6.267  0.0685 -0.2737 -0.1455
  183POPC   C3B 2748   5.212   7.811   6.546  0.1379 -0.1361 -0.2007
  183POPC   C4B 2749   4.963   7.619   6.730 -0.1515  0.1253  0.0941
  184POPC   NC3 2750   8.127   6.864   4.124 -0.0620 -0.1370 -0.3960
  184POPC   PO4 2751   8.464   7.022   4.473 -0.1857 -0.1599 -0.1032
  184POPC   GL1 2752   8.386   6.987   4.899 -0.3585  0.2262  0.2316
  184POPC   GL2 2753   8.383   7.174   5.217 -0.0390  0.2679 -0.0507
  184POPC   C1A 2754   8.445   6.703   5.141  0.0235  0.4354 -0.0047
  184POPC   D2A 2755   8.399   6.484   5.523  0.3066  0.1200 -0.0138
  184POPC   C3A 2756   8.378   6.125   5.444  0.0283  0.1374 -0.1059
  184POPC   C4A 2757   8.676   5.826   5.302  0.0183  0.0196  0.0818
  184POPC   C1B 2758   8.367   6.975   5.607 -0.0240  0.2553 -0.1279
  184POPC   C2B 2759   8.478   6.780   5.938 -0.2111  0.1897  0.0827
  184POPC   C3B 2760   8.742   6.653   6.299  0.2297 -0.1733 -0.2536
  184POPC   C4B 2761   8.738   6.818   6.674  0.0126  0.0123  0.0782
  185POPC   NC3 2762   5.150   2.194   4.869 -0.1860  0.1671  0.0185
  185POPC   PO4 2763   5.371   2.510   4.743 -0.2389 -0.2727  0.4172
  185POPC   GL1 2764   5.547   2.606   5.155 -0.0791  0.2457  0.0515
  185POPC   GL2 2765   5.511   2.302   5.285  0.1647  0.0133 -0.2086
  185POPC   C1A 2766   5.578   2.901   5.362  0.2267  0.0730  0.2417
  185POPC   D2A 2767   5.801   3.231   5.623 -0.0435 -0.2429 -0.2234
  185POPC   C3A 2768   5.832   3.079   5.983  0.0234 -0.0252 -0.3256
  185POPC   C4A 2769   5.582   2.805   6.240  0.1407  0.0190 -0.0255
  185POPC   C1B 2770   5.721   2.165   5.635  0.5040 -0.1031 -0.1590
  185POPC   C2B 2771   5.849   1.848   5.981  0.1433  0.0724 -0.0704
  185POPC   C3B 2772   6.049   1.856   6.339 -0.1429  0.0857 -0.1440
  185POPC   C4B 2773   6.066   1.905   6.749  0.2663  0.2359 -0.0842
  186POPC   NC3 2774   9.591   5.453   4.028  0.0891 -0.0909 -0.2622
  186POPC   PO4 2775   9.329   5.101   3.844  0.2370  0.1955  0.2771
  186POPC   GL1 2776   9.258   5.014   4.226  0.0368 -0.0216  0.0499
  186POPC   GL2 2777   9.342   5.338   4.404  0.2231 -0.1378  0.4724
  186POPC   C1A 2778   8.973   5.138   4.576 -0.0257  0.0237  0.1939
  186POPC   D2A 2779   8.640   5.288   4.694 -0.2211  0.0754  0.4292
  186POPC   C3A 2780   8.454   5.453   5.100 -0.2830 -0.2396  0.2856
  186POPC   C4A 2781   8.611   5.292   5.525 -0.0240 -0.1616  0.2628
  186POPC   C1B 2782   9.447   5.571   4.836 -0.3303  0.0238 -0.1973
  186POPC   C2B 2783   9.538   5.591   5.243  0.2262  0.1331 -0.3617
  186POPC   C3B 2784   9.745   5.518   5.687 -0.1806 -0.2691  0.0078
  186POPC   C4B 2785   9.933   5.248   5.935  0.1188 -0.3122  0.1762
  187POPC   NC3 2786   3.191   9.523   5.217  0.1296 -0.1881 -0.3852
  187POPC   PO4 2787   3.149   9.041   5.245 -0.1926 -0.1999 -0.2287
  187POPC   GL1 2788   3.415   9.207   5.524 -0.2907  0.0268 -0.2606
  187POPC   GL2 2789   3.143   9.096   5.758 -0.0106  0.0358  0.1841
  187POPC   C1A 2790   3.515   9.339   5.943  0.1427 -0.1897  0.2034
  187POPC   D2A 2791   3.430   9.521   6.209 -0.3198 -0.3870  0.0437
  187POPC   C3A 2792   3.601   9.379   6.576  0.0723  0.1101  0.1468
  187POPC   C4A 2793   3.614   9.015   6.896  0.0025  0.1983  0.1684
  187POPC   C1B 2794   3.289   8.954   6.125 -0.3232 -0.2572 -0.0436
  187POPC   C2B 2795   3.233   9.017   6.490 -0.2202  0.2537  0.0739
  187POPC   C3B 2796   3.052   9.020   6.885  0.1210 -0.1996  0.0611
  187POPC   C4B 2797   2.909   8.753   7.187 -0.3025 -0.0510 -0.0257
  188POPC   NC3 2798   0.925   2.042   4.779 -0.1645  0.0292  0.0491
  188POPC   PO4 2799   1.329   2.027   4.543  0.1239  0.0513 -0.0628
  188POPC   GL1 2800   1.284   2.215   4.987  0.1839  0.2104 -0.2465
  188POPC   GL2 2801   1.090   2.457   5.113  0.1386 -0.2576  0.1929
  188POPC   C1A 2802   1.453   2.139   5.513  0.0086  0.4989  0.1015
  188POPC   D2A 2803   1.470   1.960   5.819  0.0628  0.3526 -0.1641
  188POPC   C3A 2804   1.551   2.133   6.204 -0.4007 -0.1691  0.0728
  188POPC   C4A 2805   1.715   2.433   6.673  0.2637  0.1781 -0.1485
  188POPC   C1B 2806   1.064   2.850   5.355  0.2427 -0.2965 -0.0700
  188POPC   C2B 2807   1.100   3.013   5.775  0.1273  0.2761 -0.0483
  188POPC   C3B 2808   1.274   3.115   6.187  0.1810  0.3038 -0.2543
  188POPC   C4B 2809   1.123   3.311   6.624  0.1154  0.0927 -0.2763
  189POPC   NC3 2810   7.864   3.727   3.716 -0.1236 -0.1433  0.1266
  189POPC   PO4 2811   8.088   3.378   3.863  0.0798  0.1095 -0.4514
  189POPC   GL1 2812   8.102   3.444   4.300 -0.4540 -0.2185 -0.0787
  189POPC   GL2 2813   8.353   3.731   4.371  0.3731  0.0075  0.1890
  189POPC   C1A 2814   8.264   3.503   4.788 -0.3439 -0.1663  0.1544
  189POPC   D2A 2815   8.349   3.668   5.230 -0.1795  0.2701 -0.2911
  189POPC   C3A 2816   8.450   4.095   5.407 -0.3554  0.1989  0.2415
  189POPC   C4A 2817   8.602   4.299   5.774  0.0474 -0.3725  0.1210
  189POPC   C1B 2818   8.708   3.464   4.619 -0.3471 -0.2552 -0.0886
  189POPC   C2B 2819   8.890   3.596   5.096  0.0310  0.1268 -0.2935
  189POPC   C3B 2820   8.817   3.727   5.480  0.1583 -0.0743 -0.1252
  189POPC   C4B 2821   8.535   3.759   5.772  0.3162 -0.0044 -0.0484
  190POPC   NC3 2822   5.536   5.063   5.327  0.1225  0.1441 -0.1516
  190POPC   PO4 2823   5.212   5.087   5.121 -0.1751  0.0129 -0.3357
  190POPC   GL1 2824   5.104   5.066   5.612 -0.2172  0.1256  0.1077
  190POPC   GL2 2825   5.381   5.183   5.898  0.0698  0.0999 -0.1530
  190POPC   C1A 2826   5.216   4.667   5.898 -0.0997 -0.0142 -0.0642
  190POPC   D2A 2827   5.534   4.473   6.114  0.1321  0.0071 -0.0617
  190POPC   C3A 2828   5.882   4.222   5.855  0.4639 -0.1968 -0.3562
  190POPC   C4A 2829   6.035   4.033   6.184 -0.0110  0.0551 -0.0741
  190POPC   C1B 2830   5.451   4.908   6.238  0.1654  0.0152 -0.1257
  190POPC   C2B 2831   5.749   4.633   6.509  0.1511  0.2279 -0.1276
  190POPC   C3B 2832   5.526   4.196   6.505  0.1516 -0.2204  0.0528
  190POPC   C4B 2833   5.331   3.856   6.605 -0.2396  0.0173 -0.3570
  191POPC   NC3 2834   7.882   7.944   5.157  0.1809  0.0690 -0.1176
  191POPC   PO4 2835   8.253   8.254   5.361  0.3716  0.0339 -0.0962
  191POPC   GL1 2836   8.398   8.039   5.804 -0.1294 -0.0415  0.2449
  191POPC   GL2 2837   8.690   8.246   6.051 -0.0076 -0.1038 -0.1594
  191POPC   C1A 2838   8.482   7.838   6.131  0.4002  0.0581  0.1679
  191POPC   D2A 2839   8.599   7.748   6.577 -0.0100  0.2955  0.1750
  191POPC   C3A 2840   8.982   7.540   6.794  0.0086 -0.0153 -0.1185
  191POPC   C4A 2841   9.398   7.426   7.140  0.3602  0.0373 -0.1786
  191POPC   C1B 2842   8.904   8.024   6.334 -0.1786  0.1353 -0.1391
  191POPC   C2B 2843   9.138   8.123   6.712  0.1178  0.0765 -0.1459
  191POPC   C3B 2844   9.100   8.448   7.031 -0.1412 -0.0124  0.0826
  191POPC   C4B 2845   8.886   8.676   7.345 -0.1925  0.2501  0.1294
  192POPC   NC3 2846   8.230   2.183   4.120 -0.2804  0.2168 -0.0431
  192POPC   PO4 2847   8.434   2.495   4.348  0.0031  0.3268  0.0506
  192POPC   GL1 2848   8.550   2.463   4.815 -0.0912  0.1045  0.0195
  192POPC   GL2 2849   8.875   2.267   4.692  0.2556  0.0229 -0.1513
  192POPC   C1A 2850   8.701   2.656   5.181 -0.1265  0.2592  0.3152
  192POPC   D2A 2851   8.660   2.851   5.541  0.1308  0.1156  0.3114
  192POPC   C3A 2852   8.385   2.647   5.826  0.2740  0.2870  0.3437
  192POPC   C4A 2853   8.439   2.446   6.188 -0.1109  0.2333 -0.0189
  192POPC   C1B 2854   9.115   2.445   4.925  0.0744  0.0980  0.1428
  192POPC   C2B 2855   9.273   2.670   5.301  0.0135 -0.1267 -0.1416
  192POPC   C3B 2856   9.117   2.852   5.771 -0.3762  0.0517  0.2945
  192POPC   C4B 2857   9.370   2.837   6.173  0.2367  0.0781 -0.0266
  193POPC   NC3 2858   4.894   6.467   4.968  0.1772  0.1746 -0.1020
  193POPC   PO4 2859   5.260   6.687   4.940  0.1388  0.1397 -0.3445
  193POPC   GL1 2860   5.104   6.691   5.394 -0.2266  0.2140 -0.0077
  193POPC   GL2 2861   5.181   6.405   5.544  0.0091 -0.2366  0.1208
  193POPC   C1A 2862   5.063   6.903   5.903 -0.0195 -0.0695 -0.2674
  193POPC   D2A 2863   4.780   6.825   6.260  0.0571 -0.1696 -0.0638
  193POPC   C3A 2864   4.685   6.600   6.635 -0.0186  0.2160  0.0865
  193POPC   C4A 2865   4.397   6.742   6.872 -0.3285 -0.1373  0.1550
  193POPC   C1B 2866   5.429   6.528   5.929  0.1721 -0.2147 -0.0762
  193POPC   C2B 2867   5.777   6.650   6.195 -0.3177  0.0302  0.0440
  193POPC   C3B 2868   5.825   6.553   6.643 -0.0198  0.1900 -0.2142
  193POPC   C4B 2869   5.636   6.686   7.008  0.1186 -0.1875 -0.3239
  194POPC   NC3 2870   3.251   6.361   5.223 -0.0398 -0.2845  0.0019
  194POPC   PO4 2871   3.672   6.301   5.194 -0.0684 -0.0482  0.0925
  194POPC   GL1 2872   3.621   6.348   5.572  0.0128  0.2255  0.0123
  194POPC   GL2 2873   3.291   6.158   5.681  0.2469  0.1901 -0.5053
  194POPC   C1A 2874   3.743   6.022   5.908  0.0009 -0.0344  0.1296
  194POPC   D2A 2875   3.788   6.009   6.313 -0.4461 -0.0477  0.2847
  194POPC   C3A 2876   3.882   5.849   6.793 -0.1240 -0.2516 -0.0635
  194POPC   C4A 2877   3.645   5.768   7.095  0.0843 -0.0343 -0.0321
  194POPC   C1B 2878   2.967   6.470   5.849 -0.2785  0.1148  0.4001
  194POPC   C2B 2879   2.750   6.421   6.221  0.2132 -0.1084  0.1104
  194POPC   C3B 2880   2.519   6.213   6.504  0.0369 -0.1068 -0.0669
  194POPC   C4B 2881   2.396   6.354   6.859 -0.0717  0.0132 -0.2350
  195POPC   NC3 2882   1.628   7.309   5.311  0.1275  0.6275 -0.0922
  195POPC   PO4 2883   1.741   7.762   5.502  0.4912  0.0854  0.2257
  195POPC   GL1 2884   2.073   7.367   5.513  0.1377  0.1557 -0.3012
  195POPC   GL2 2885   2.403   7.448   5.518 -0.2949 -0.3245  0.2475
  195POPC   C1A 2886   2.220   6.931   5.735 -0.0894 -0.0775  0.3483
  195POPC   D2A 2887   2.534   6.828   5.959  0.0743  0.2023  0.0555
  195POPC   C3A 2888   2.313   6.706   6.380 -0.0640 -0.2706  0.0937
  195POPC   C4A 2889   2.149   7.016   6.691  0.2777  0.3555  0.1695
  195POPC   C1B 2890   2.515   7.324   5.965  0.0567  0.2581  0.0626
  195POPC   C2B 2891   2.449   7.270   6.359  0.2556 -0.2393 -0.0142
  195POPC   C3B 2892   2.586   7.283   6.738 -0.0138  0.1384 -0.0270
  195POPC   C4B 2893   2.605   7.196   7.147  0.1265 -0.0063 -0.0034
  196POPC   NC3 2894   8.889   6.189   4.265  0.1410  0.0932 -0.0875
  196POPC   PO4 2895   9.345   6.187   4.386 -0.0751 -0.1418 -0.3832
  196POPC   GL1 2896   9.677   6.130   4.824 -0.0988  0.0761 -0.0538
  196POPC   GL2 2897   9.735   6.329   5.044 -0.0116 -0.2653  0.5180
  196POPC   C1A 2898   9.927   5.786   4.928  0.1372 -0.2099  0.2079
  196POPC   D2A 2899  10.040   5.502   5.323 -0.1203  0.0463 -0.1046
  196POPC   C3A 2900  10.286   5.646   5.672  0.3337 -0.1319 -0.0605
  196POPC   C4A 2901  10.128   5.865   5.964  0.2986  0.0562 -0.1524
  196POPC   C1B 2902   9.609   6.041   5.469  0.2291  0.1555 -0.1350
  196POPC   C2B 2903   9.359   5.908   5.776  0.2896 -0.1041 -0.0304
  196POPC   C3B 2904   9.004   5.735   6.030 -0.1191  0.0950 -0.0752
  196POPC   C4B 2905   8.665   5.704   5.842  0.2059  0.0511  0.1308
  197POPC   NC3 2906   7.781   3.103   4.156  0.0390 -0.2414 -0.2863
  197POPC   PO4 2907   7.416   3.246   4.305 -0.0131 -0.0648  0.0841
  197POPC   GL1 2908   7.296   2.956   4.731  0.2391 -0.1287  0.1718
  197POPC   GL2 2909   7.076   2.629   4.743  0.2049  0.0007 -0.1713
  197POPC   C1A 2910   7.519   3.030   5.114  0.3823 -0.3364  0.1764
  197POPC   D2A 2911   7.881   3.297   5.132  0.0412  0.1273  0.1772
  197POPC   C3A 2912   8.000   3.458   5.547  0.1199 -0.1641 -0.1969
  197POPC   C4A 2913   7.674   3.654   5.817  0.2282 -0.0601 -0.0482
  197POPC   C1B 2914   7.108   2.672   5.201 -0.1588 -0.0581  0.1406
  197POPC   C2B 2915   6.840   2.815   5.577  0.0066  0.1543  0.0435
  197POPC   C3B 2916   7.065   3.143   5.782 -0.0107 -0.0180 -0.0788
  197POPC   C4B 2917   7.396   3.228   6.036 -0.2621 -0.0224 -0.0687
  198POPC   NC3 2918   2.998   6.022   4.890 -0.0518  0.2748  0.1252
  198POPC   PO4 2919   3.109   5.846   5.319 -0.3653  0.1423 -0.0352
  198POPC   GL1 2920   3.068   5.666   5.689 -0.2730 -0.2352  0.2369
  198POPC   GL2 2921   3.323   5.418   5.753 -0.2575  0.1270  0.0294
  198POPC   C1A 2922   2.874   5.931   5.935  0.1061 -0.0353  0.0348
  198POPC   D2A 2923   2.951   5.936   6.358  0.0290  0.1918 -0.1085
  198POPC   C3A 2924   2.733   5.814   6.655 -0.0451  0.3519 -0.0746
  198POPC   C4A 2925   2.653   5.930   7.016 -0.0050  0.0298 -0.2695
  198POPC   C1B 2926   3.279   5.103   6.005 -0.2271 -0.0434 -0.3233
  198POPC   C2B 2927   2.958   4.978   6.352 -0.0128  0.0741  0.1326
  198POPC   C3B 2928   2.872   5.061   6.802  0.1945  0.0672  0.1148
  198POPC   C4B 2929   2.733   5.386   6.897  0.0027  0.3868  0.0305
  199POPC   NC3 2930   0.344   6.666   4.649 -0.0615  0.0901 -0.2028
  199POPC   PO4 2931   0.800   6.656   4.559 -0.0043 -0.0845  0.1692
  199POPC   GL1 2932   0.642   6.585   5.038 -0.0563 -0.0365  0.2315
  199POPC   GL2 2933   0.773   6.818   5.198 -0.0026 -0.0594 -0.0105
  199POPC   C1A 2934   0.647   6.263   5.301 -0.0049  0.0417 -0.1943
  199POPC   D2A 2935   0.410   6.070   5.718  0.2135 -0.0070  0.2360
  199POPC   C3A 2936   0.427   5.830   6.199  0.0425  0.0075 -0.1132
  199POPC   C4A 2937   0.622   5.318   6.251  0.3237 -0.2071 -0.0663
  199POPC   C1B 2938   0.728   6.665   5.683  0.2902  0.0083  0.5338
  199POPC   C2B 2939   0.727   6.488   6.069  0.1680 -0.0966 -0.3229
  199POPC   C3B 2940   1.015   6.451   6.417 -0.0573 -0.0463  0.0056
  199POPC   C4B 2941   0.896   6.329   6.878  0.2261 -0.2325 -0.2545
  200POPC   NC3 2942   7.398   9.131   5.244 -0.3610 -0.0429  0.2589
  200POPC   PO4 2943   7.614   8.929   5.622  0.1775 -0.3668  0.3329
  200POPC   GL1 2944   7.259   9.152   5.689  0.1293 -0.0952 -0.1125
  200POPC   GL2 2945   7.048   8.885   5.847  0.0870  0.0582 -0.3702
  200POPC   C1A 2946   7.222   9.276   6.151  0.1495 -0.0350  0.1024
  200POPC   D2A 2947   7.230   9.356   6.535  0.3042  0.2228  0.0556
  200POPC   C3A 2948   7.451   9.198   6.743 -0.0319  0.0060 -0.1593
  200POPC   C4A 2949   7.876   9.090   7.073  0.1280  0.0530 -0.0660
  200POPC   C1B 2950   7.070   8.789   6.320  0.0295 -0.1946 -0.0754
  200POPC   C2B 2951   7.377   8.758   6.509 -0.4271  0.2036 -0.1554
  200POPC   C3B 2952   7.550   8.624   6.963  0.2553 -0.0049  0.0661
  200POPC   C4B 2953   7.808   8.633   7.203 -0.0822 -0.0362 -0.0657
  201POPC   NC3 2954  10.025   9.103   5.061 -0.0352  0.0880  0.0137
  201POPC   PO4 2955  10.065   9.369   5.324 -0.1441 -0.0737  0.0391
  201POPC   GL1 2956  10.031   9.482   5.833  0.0996 -0.1728  0.2569
  201POPC   GL2 2957  10.235   9.702   5.830  0.3092  0.2147  0.2979
  201POPC   C1A 2958  10.035   9.674   6.273  0.1100  0.2064  0.1616
  201POPC   D2A 2959   9.984  10.041   6.511  0.0783 -0.1902  0.0027
  201POPC   C3A 2960   9.904  10.043   6.997 -0.4748 -0.0452  0.0144
  201POPC   C4A 2961   9.596  10.152   7.290 -0.0632  0.3385 -0.2430
  201POPC   C1B 2962  10.150  10.120   5.983 -0.2029 -0.0122 -0.0234
  201POPC   C2B 2963  10.025  10.513   6.220  0.0086  0.2897  0.0375
  201POPC   C3B 2964   9.632  10.529   6.522 -0.1195 -0.1914  0.2475
  201POPC   C4B 2965   9.644  10.629   6.978 -0.2328 -0.3514  0.0304
  202POPC   NC3 2966   3.878   4.918   4.899  0.1587  0.3386  0.0523
  202POPC   PO4 2967   3.327   4.977   4.966  0.0672 -0.0363 -0.2789
  202POPC   GL1 2968   3.246   4.885   5.394  0.2170  0.2791  0.1317
  202POPC   GL2 2969   3.027   5.095   5.506  0.1431 -0.1607  0.4465
  202POPC   C1A 2970   2.940   4.732   5.796  0.2155 -0.2246 -0.3750
  202POPC   D2A 2971   2.637   4.830   5.952  0.3057  0.2942  0.0655
  202POPC   C3A 2972   2.445   4.860   6.278  0.0026 -0.0047 -0.0161
  202POPC   C4A 2973   2.157   4.899   6.642 -0.1177 -0.0742 -0.0543
  202POPC   C1B 2974   2.838   5.277   5.805  0.1348 -0.2056 -0.0918
  202POPC   C2B 2975   2.883   5.486   6.158  0.0218 -0.3362 -0.4246
  202POPC   C3B 2976   3.075   5.436   6.548  0.1278 -0.0544 -0.4120
  202POPC   C4B 2977   3.398   5.636   6.625 -0.1302 -0.1630 -0.2172
  203POPC   NC3 2978   0.349   9.330   5.549 -0.0565 -0.0703  0.0661
  203POPC   PO4 2979   0.810   9.221   5.333  0.1105  0.2048  0.0736
  203POPC   GL1 2980   0.854   9.383   5.796  0.0802 -0.0053  0.4307
  203POPC   GL2 2981   0.758   9.128   5.910 -0.3006 -0.1575 -0.2921
  203POPC   C1A 2982   0.845   9.647   6.253 -0.0611  0.0356  0.0639
  203POPC   D2A 2983   0.818   9.751   6.671 -0.0072 -0.2131  0.0901
  203POPC   C3A 2984   0.734   9.884   7.078 -0.0613  0.1762  0.2057
  203POPC   C4A 2985   0.566  10.127   7.453 -0.0014  0.2990  0.1565
  203POPC   C1B 2986   0.646   8.996   6.310 -0.0455  0.0144  0.2790
  203POPC   C2B 2987   0.680   9.263   6.688 -0.1274  0.0662 -0.1387
  203POPC   C3B 2988   0.408   9.425   7.093 -0.0022  0.0125  0.3099
  203POPC   C4B 2989   0.252   9.746   7.248  0.1060 -0.1008  0.3846
  204POPC   NC3 2990   0.188   1.673   4.681  0.3531 -0.0000 -0.4302
  204POPC   PO4 2991   0.503   1.837   4.795  0.3970 -0.0875 -0.0924
  204POPC   GL1 2992   0.346   1.681   5.257  0.0290 -0.0503 -0.0646
  204POPC   GL2 2993   0.330   1.329   5.350  0.0740  0.3056 -0.0728
  204POPC   C1A 2994   0.173   1.696   5.739  0.3824  0.2042 -0.1971
  204POPC   D2A 2995  -0.037   1.704   6.072  0.0231  0.1270  0.1603
  204POPC   C3A 2996   0.411   1.764   6.213  0.2306 -0.4586 -0.1940
  204POPC   C4A 2997   0.678   2.043   6.477  0.4540 -0.0590  0.1646
  204POPC   C1B 2998   0.680   1.066   5.556  0.0262 -0.1336  0.1387
  204POPC   C2B 2999   0.870   1.097   6.004  0.2133 -0.0169  0.1774
  204POPC   C3B 3000   0.707   0.994   6.442  0.1331 -0.2966 -0.2487
  204POPC   C4B 3001   0.730   1.055   6.928  0.0431  0.2824 -0.0274
  205POPC   NC3 3002   9.412  10.033   5.211 -0.1025  0.1998 -0.1056
  205POPC   PO4 3003   9.260   9.855   5.602  0.1622 -0.4724 -0.2375
  205POPC   GL1 3004   9.067  10.104   5.789 -0.1197  0.0677 -0.1367
  205POPC   GL2 3005   8.741  10.075   5.785 -0.0667 -0.1313 -0.0786
  205POPC   C1A 3006   9.144  10.197   6.158  0.1608  0.0184  0.0171
  205POPC   D2A 3007   8.981  10.001   6.453 -0.1105  0.0420 -0.1624
  205POPC   C3A 3008   8.806  10.126   6.856 -0.0351 -0.3425  0.0093
  205POPC   C4A 3009   8.556  10.391   7.012  0.0780  0.0329 -0.1231
  205POPC   C1B 3010   8.609  10.326   6.229 -0.3517  0.1906  0.1297
  205POPC   C2B 3011   8.563  10.467   6.537  0.3031  0.1118  0.1896
  205POPC   C3B 3012   8.543  10.826   6.700 -0.1432 -0.1746 -0.2228
  205POPC   C4B 3013   8.693  11.078   7.131 -0.0784 -0.2127 -0.3306
  206POPC   NC3 3014   2.134   3.764   4.004 -0.4818  0.1330 -0.3257
  206POPC   PO4 3015   1.941   3.662   4.292  0.1377  0.4858 -0.3913
  206POPC   GL1 3016   1.919   3.997   4.687 -0.0877 -0.1293  0.0891
  206POPC   GL2 3017   1.759   4.275   4.810  0.2420  0.0661 -0.0602
  206POPC   C1A 3018   2.099   3.897   5.096  0.0051  0.0355  0.4501
  206POPC   D2A 3019   1.996   4.040   5.474  0.0521  0.2421 -0.0640
  206POPC   C3A 3020   1.848   3.631   5.738 -0.0121  0.2334  0.2926
  206POPC   C4A 3021   1.598   3.420   6.071 -0.0906  0.0911 -0.1973
  206POPC   C1B 3022   1.583   3.948   5.135  0.2219  0.0449  0.2413
  206POPC   C2B 3023   1.732   3.552   5.224 -0.1880 -0.5008 -0.0099
  206POPC   C3B 3024   1.707   3.146   5.457  0.0248  0.1564  0.2491
  206POPC   C4B 3025   1.617   2.939   5.861 -0.0401  0.0711  0.0979
  207POPC   NC3 3026   2.393   4.352   4.776  0.2367 -0.0968  0.1769
  207POPC   PO4 3027   2.818   4.525   4.793  0.0463 -0.0372 -0.2423
  207POPC   GL1 3028   2.857   4.550   5.184  0.3885 -0.4234 -0.2471
  207POPC   GL2 3029   2.553   4.376   5.266  0.0555  0.0292 -0.2284
  207POPC   C1A 3030   2.631   4.832   5.475 -0.2683 -0.6262  0.2588
  207POPC   D2A 3031   2.280   5.084   5.589 -0.0874  0.0229  0.0723
  207POPC   C3A 3032   2.232   5.532   5.580  0.1746 -0.2301  0.1307
  207POPC   C4A 3033   2.395   5.970   5.434  0.0817 -0.1414  0.0167
  207POPC   C1B 3034   2.564   4.375   5.676  0.0344  0.0213  0.1105
  207POPC   C2B 3035   2.571   4.391   6.143  0.1756  0.1629  0.0590
  207POPC   C3B 3036   2.579   4.125   6.417 -0.0175 -0.2493  0.3355
  207POPC   C4B 3037   2.694   3.902   6.741 -0.1642 -0.0404 -0.3348
  208POPC   NC3 3038   8.105   9.123   5.536 -0.0133 -0.0212  0.0742
  208POPC   PO4 3039   8.149   9.604   5.720 -0.1042  0.0659  0.1628
  208POPC   GL1 3040   8.357   9.642   6.072 -0.1250 -0.0609 -0.0729
  208POPC   GL2 3041   8.094   9.536   6.242 -0.0720 -0.0973  0.1615
  208POPC   C1A 3042   8.391   9.861   6.432  0.4566 -0.0550 -0.1042
  208POPC   D2A 3043   8.230  10.043   6.785  0.2356  0.2440 -0.2828
  208POPC   C3A 3044   8.475   9.921   7.202  0.1370  0.0338 -0.2815
  208POPC   C4A 3045   8.718   9.777   7.590 -0.4353 -0.2493 -0.2530
  208POPC   C1B 3046   7.667   9.742   6.450 -0.1589  0.2737  0.0811
  208POPC   C2B 3047   7.357   9.797   6.682  0.3364 -0.0998  0.0709
  208POPC   C3B 3048   7.121   9.793   6.962  0.1333  0.2319 -0.0761
  208POPC   C4B 3049   6.996   9.921   7.331 -0.0638 -0.0814  0.0733
  209POPC   NC3 3050   9.692   7.678   4.859 -0.1851 -0.2349 -0.3029
  209POPC   PO4 3051   9.290   7.795   5.156  0.5289  0.0754  0.0060
  209POPC   GL1 3052   8.960   7.636   5.319 -0.0344 -0.0937 -0.1613
  209POPC   GL2 3053   8.815   7.798   5.497 -0.1313  0.1139  0.1430
  209POPC   C1A 3054   8.918   7.278   5.548  0.0545 -0.1918 -0.2000
  209POPC   D2A 3055   8.811   7.097   5.925 -0.4706  0.1093 -0.0794
  209POPC   C3A 3056   9.129   7.014   6.254  0.1010  0.1110 -0.0219
  209POPC   C4A 3057   9.360   7.028   6.571  0.1336  0.0533  0.2428
  209POPC   C1B 3058   8.851   7.805   5.843 -0.0107  0.3045  0.0621
  209POPC   C2B 3059   8.895   7.538   6.214  0.0945  0.2332  0.2232
  209POPC   C3B 3060   8.702   7.245   6.500  0.0148 -0.4832 -0.0069
  209POPC   C4B 3061   8.516   7.192   6.882  0.1513 -0.1625 -0.0836
  210POPC   NC3 3062   1.522   2.921   4.569  0.2518 -0.0978 -0.1811
  210POPC   PO4 3063   1.684   2.586   4.704 -0.0364  0.0326 -0.0399
  210POPC   GL1 3064   1.506   2.718   5.010 -0.1194  0.2374 -0.3408
  210POPC   GL2 3065   1.402   2.993   5.038 -0.0588  0.1185 -0.0273
  210POPC   C1A 3066   1.431   2.583   5.383 -0.2947 -0.4874  0.1923
  210POPC   D2A 3067   1.300   2.521   5.865 -0.2167  0.0504 -0.1712
  210POPC   C3A 3068   1.504   2.645   6.225  0.0672  0.3120 -0.1627
  210POPC   C4A 3069   1.527   2.955   6.629  0.0884  0.4831 -0.1108
  210POPC   C1B 3070   1.173   3.372   5.318  0.1508  0.1220  0.0885
  210POPC   C2B 3071   1.179   3.535   5.787  0.0574  0.1249 -0.3319
  210POPC   C3B 3072   0.961   3.471   6.147  0.1325  0.1647 -0.1846
  210POPC   C4B 3073   0.718   3.461   6.450 -0.0739  0.1661  0.1888
  211POPC   NC3 3074   9.510   8.627   5.477  0.2623 -0.2788  0.0208
  211POPC   PO4 3075   9.116   8.637   5.769  0.3569  0.2100 -0.0605
  211POPC   GL1 3076   9.324   8.282   5.987  0.0286  0.0561  0.4202
  211POPC   GL2 3077   9.364   8.006   5.804  0.0624 -0.0070 -0.0511
  211POPC   C1A 3078   9.497   8.237   6.403 -0.0014  0.1966  0.0013
  211POPC   D2A 3079   9.713   8.037   6.645  0.2129  0.0654  0.2233
  211POPC   C3A 3080   9.546   7.905   6.965 -0.0329  0.0318 -0.2513
  211POPC   C4A 3081   9.801   7.785   7.286 -0.0215  0.0090 -0.1380
  211POPC   C1B 3082   9.353   7.799   6.192  0.0891  0.0195 -0.0676
  211POPC   C2B 3083   9.369   7.625   6.507  0.0197 -0.0378  0.1483
  211POPC   C3B 3084   9.695   7.445   6.708 -0.0200 -0.0293 -0.3153
  211POPC   C4B 3085   9.939   7.321   7.072  0.0467 -0.1734  0.1476
  212POPC   NC3 3086   5.765   7.378   5.272 -0.0797  0.2018  0.2574
  212POPC   PO4 3087   6.103   7.418   5.173  0.2635 -0.0351  0.2559
  212POPC   GL1 3088   6.273   7.293   5.505  0.4523 -0.0642 -0.3223
  212POPC   GL2 3089   6.489   7.174   5.609  0.0444  0.0671 -0.0140
  212POPC   C1A 3090   6.457   7.473   5.975 -0.0287 -0.1462  0.0179
  212POPC   D2A 3091   6.640   7.345   6.395 -0.2100  0.1107  0.0646
  212POPC   C3A 3092   6.723   6.827   6.478  0.1022 -0.1258 -0.3420
  212POPC   C4A 3093   6.676   6.453   6.657  0.0222 -0.2412 -0.4217
  212POPC   C1B 3094   6.833   7.110   5.900  0.4648 -0.2802 -0.1321
  212POPC   C2B 3095   7.325   7.118   5.985 -0.1566  0.0225  0.1293
  212POPC   C3B 3096   7.598   6.810   5.816 -0.2384 -0.3609  0.0091
  212POPC   C4B 3097   8.008   6.627   5.859  0.0601  0.4938  0.3959
  213POPC   NC3 3098   4.144   6.905   5.231  0.1264  0.0212 -0.1067
  213POPC   PO4 3099   4.019   7.381   5.258 -0.0851 -0.1166 -0.0843
  213POPC   GL1 3100   4.211   7.282   5.652  0.0658 -0.0575 -0.0053
  213POPC   GL2 3101   4.256   7.539   5.845 -0.0123 -0.1505  0.0225
  213POPC   C1A 3102   4.088   7.069   6.081 -0.0941  0.0516 -0.1573
  213POPC   D2A 3103   4.317   6.868   6.318 -0.2269  0.2456 -0.1186
  213POPC   C3A 3104   4.285   6.443   6.178  0.1540 -0.0934 -0.2732
  213POPC   C4A 3105   4.213   6.173   5.893  0.1400  0.1809  0.0023
  213POPC   C1B 3106   4.152   7.745   6.272  0.1231 -0.3336  0.0184
  213POPC   C2B 3107   4.115   8.187   6.431  0.1018  0.0563  0.2393
  213POPC   C3B 3108   3.797   8.500   6.416  0.0466  0.1623 -0.0470
  213POPC   C4B 3109   3.720   8.889   6.368  0.3302 -0.3387  0.1671
  214POPC   NC3 3110   5.710   3.130   4.617  0.0826 -0.1652 -0.0356
  214POPC   PO4 3111   5.670   3.458   4.991 -0.1222 -0.1256  0.2874
  214POPC   GL1 3112   5.927   3.624   5.367  0.1177 -0.0872  0.0248
  214POPC   GL2 3113   6.181   3.470   5.495  0.0125 -0.2471 -0.1214
  214POPC   C1A 3114   5.852   3.705   5.768  0.0685  0.4871 -0.0119
  214POPC   D2A 3115   5.916   3.570   6.222 -0.1572  0.2115  0.0879
  214POPC   C3A 3116   5.876   3.714   6.640  0.0733 -0.1349 -0.0005
  214POPC   C4A 3117   5.637   3.944   7.026  0.0120 -0.3044 -0.0226
  214POPC   C1B 3118   6.251   3.424   5.951  0.1827  0.0582  0.2446
  214POPC   C2B 3119   6.534   3.100   6.219  0.0264 -0.0410 -0.0355
  214POPC   C3B 3120   6.754   2.915   6.565  0.2327 -0.1726 -0.0204
  214POPC   C4B 3121   6.825   2.725   6.982 -0.0312 -0.0338  0.1620
  215POPC   NC3 3122   3.085  10.038   4.504  0.0954  0.1095 -0.1497
  215POPC   PO4 3123   3.064   9.936   4.956  0.2829  0.0855  0.0535
  215POPC   GL1 3124   3.341  10.059   5.361 -0.3136 -0.0000 -0.1420
  215POPC   GL2 3125   3.051  10.087   5.643 -0.1174 -0.0169  0.0212
  215POPC   C1A 3126   3.527  10.371   5.560  0.2846 -0.0559  0.0552
  215POPC   D2A 3127   3.454  10.824   5.749  0.0661 -0.0416  0.0835
  215POPC   C3A 3128   3.394  10.885   6.096 -0.1239 -0.1771 -0.0605
  215POPC   C4A 3129   3.298  11.013   6.441 -0.3056 -0.2463  0.1616
  215POPC   C1B 3130   3.054  10.441   5.876  0.1227 -0.4482 -0.0329
  215POPC   C2B 3131   2.850  10.627   6.226 -0.2763  0.3003 -0.1760
  215POPC   C3B 3132   2.921  10.793   6.634  0.0249  0.0424  0.2619
  215POPC   C4B 3133   2.900  10.523   6.978  0.2817  0.1670 -0.0265
  216POPC   NC3 3134   5.846   8.145   5.272  0.0143 -0.2902  0.3434
  216POPC   PO4 3135   6.156   8.479   5.222 -0.0287 -0.2071 -0.3169
  216POPC   GL1 3136   5.941   8.409   5.659  0.1830  0.2824  0.0371
  216POPC   GL2 3137   5.746   8.678   5.664  0.1608 -0.1357  0.1071
  216POPC   C1A 3138   6.001   8.455   6.179  0.0836 -0.2303  0.3555
  216POPC   D2A 3139   5.947   8.691   6.496 -0.0989  0.2493 -0.0662
  216POPC   C3A 3140   6.277   8.585   6.794 -0.2862  0.2231 -0.1274
  216POPC   C4A 3141   6.495   8.610   7.237  0.0850  0.1152 -0.0433
  216POPC   C1B 3142   5.663   8.836   6.108 -0.1129  0.2791  0.1091
  216POPC   C2B 3143   5.557   9.003   6.484  0.1404 -0.1527  0.0506
  216POPC   C3B 3144   5.396   9.380   6.461  0.1482 -0.1048 -0.0919
  216POPC   C4B 3145   5.442   9.880   6.369 -0.1331 -0.0000  0.2605
  217POPC   NC3 3146   8.942   2.405   4.270 -0.1412 -0.0294 -0.1187
  217POPC   PO4 3147   9.280   2.241   4.116  0.2977 -0.2045 -0.0224
  217POPC   GL1 3148   9.379   2.126   4.482 -0.1611  0.3349 -0.0582
  217POPC   GL2 3149   9.645   2.258   4.526 -0.1942  0.0949 -0.0004
  217POPC   C1A 3150   9.247   1.923   4.905  0.1386 -0.0423 -0.1779
  217POPC   D2A 3151   9.062   2.097   5.299  0.1136 -0.1745 -0.2850
  217POPC   C3A 3152   8.999   2.433   5.591  0.2338 -0.0287 -0.0252
  217POPC   C4A 3153   8.901   2.516   6.104 -0.0252  0.0167  0.1746
  217POPC   C1B 3154   9.590   2.341   4.980  0.0673  0.0773 -0.3495
  217POPC   C2B 3155   9.473   2.253   5.462 -0.3053  0.1186  0.0753
  217POPC   C3B 3156   9.468   2.381   5.854  0.1615 -0.4226 -0.2008
  217POPC   C4B 3157   9.321   2.329   6.297 -0.2953  0.1353  0.0558
  218POPC   NC3 3158   0.539   9.817   4.804  0.6500 -0.1284  0.2217
  218POPC   PO4 3159   0.575  10.268   4.939 -0.0377 -0.1171 -0.0071
  218POPC   GL1 3160   0.456  10.328   5.493 -0.0954  0.0615 -0.2860
  218POPC   GL2 3161   0.435  10.113   5.628  0.3738  0.0351  0.3265
  218POPC   C1A 3162   0.342  10.463   5.990  0.0181  0.2668 -0.0240
  218POPC   D2A 3163   0.305  10.374   6.424  0.4069  0.2502 -0.4078
  218POPC   C3A 3164  -0.050  10.462   6.753 -0.2589 -0.1034 -0.3318
  218POPC   C4A 3165  -0.110  10.870   7.028  0.1387  0.1970  0.2426
  218POPC   C1B 3166   0.497   9.887   5.956 -0.4512  0.2149 -0.1228
  218POPC   C2B 3167   0.395   9.893   6.321 -0.1867 -0.2006  0.2954
  218POPC   C3B 3168   0.305   9.987   6.796  0.1939 -0.3337  0.4065
  218POPC   C4B 3169   0.168  10.329   7.156 -0.1037 -0.0058 -0.2051
  219POPC   NC3 3170   3.646   8.884   5.036 -0.1246 -0.1614 -0.0806
  219POPC   PO4 3171   3.615   9.346   4.983 -0.1622 -0.2436 -0.0003
  219POPC   GL1 3172   3.735   9.740   5.272 -0.2194  0.2397 -0.1530
  219POPC   GL2 3173   3.798  10.008   5.230  0.1768 -0.0844 -0.1361
  219POPC   C1A 3174   3.559   9.789   5.703  0.0660 -0.2245  0.0370
  219POPC   D2A 3175   3.542  10.067   6.050  0.1534 -0.3775 -0.1448
  219POPC   C3A 3176   3.483   9.969   6.421  0.0086  0.1602 -0.0330
  219POPC   C4A 3177   3.626   9.808   6.789 -0.1435  0.1991 -0.4182
  219POPC   C1B 3178   3.966  10.157   5.509 -0.3186 -0.0518  0.1845
  219POPC   C2B 3179   4.040  10.083   5.921 -0.1238  0.0478  0.0393
  219POPC   C3B 3180   4.405  10.141   6.253  0.1655 -0.0800 -0.0984
  219POPC   C4B 3181   4.513  10.167   6.635 -0.1113 -0.1235  0.0089
  220POPC   NC3 3182   3.706   7.888   5.129  0.0799 -0.2126  0.0950
  220POPC   PO4 3183   3.826   8.200   5.434 -0.0099 -0.3733 -0.0461
  220POPC   GL1 3184   3.563   8.235   5.780 -0.0791 -0.0911  0.4403
  220POPC   GL2 3185   3.411   7.912   5.864  0.2069 -0.0549 -0.1003
  220POPC   C1A 3186   3.626   8.052   6.285 -0.1804  0.0695  0.0990
  220POPC   D2A 3187   3.676   7.913   6.719 -0.0181 -0.0268 -0.2152
  220POPC   C3A 3188   3.447   7.610   6.943  0.1084 -0.0419 -0.1331
  220POPC   C4A 3189   3.085   7.453   7.089  0.0968  0.0043 -0.3558
  220POPC   C1B 3190   3.343   7.663   6.385  0.0144  0.0655 -0.1216
  220POPC   C2B 3191   2.923   7.688   6.649  0.0150 -0.0965 -0.1074
  220POPC   C3B 3192   2.670   7.774   6.939 -0.0441  0.4386 -0.0453
  220POPC   C4B 3193   2.204   7.883   7.061 -0.1295 -0.0136 -0.0652
  221POPC   NC3 3194   4.766   5.006   4.919 -0.0304 -0.2263 -0.1495
  221POPC   PO4 3195   4.331   4.745   4.872  0.0496 -0.2576 -0.0149
  221POPC   GL1 3196   4.147   4.623   5.263  0.0460  0.1056 -0.3828
  221POPC   GL2 3197   4.245   4.386   5.326 -0.0398 -0.0421 -0.0585
  221POPC   C1A 3198   4.198   4.802   5.591  0.5948  0.2519  0.1544
  221POPC   D2A 3199   4.330   5.138   5.816  0.0883  0.2387  0.1924
  221POPC   C3A 3200   4.762   5.275   5.903  0.0781 -0.0170  0.1878
  221POPC   C4A 3201   5.045   5.461   6.090  0.1900  0.2036  0.0315
  221POPC   C1B 3202   4.347   4.318   5.694  0.0184 -0.3590  0.0319
  221POPC   C2B 3203   4.343   4.585   6.030  0.3536  0.1380  0.1331
  221POPC   C3B 3204   4.348   4.868   6.247 -0.2671 -0.2168 -0.0222
  221POPC   C4B 3205   4.616   5.289   6.364  0.1080  0.2001 -0.0014
  222POPC   NC3 3206   3.083   1.788   5.175 -0.3408 -0.0313  0.2092
  222POPC   PO4 3207   3.089   1.312   5.234  0.3042 -0.2245 -0.1437
  222POPC   GL1 3208   3.128   1.436   5.658  0.0743  0.0209  0.2690
  222POPC   GL2 3209   3.308   1.626   5.626  0.0707 -0.0825 -0.3177
  222POPC   C1A 3210   3.232   1.509   6.098 -0.2112  0.0621  0.0207
  222POPC   D2A 3211   3.256   1.432   6.451  0.1748 -0.1525 -0.0752
  222POPC   C3A 3212   3.436   1.189   6.791  0.2033  0.0783  0.3988
  222POPC   C4A 3213   3.420   1.287   7.183  0.2953  0.1311  0.0540
  222POPC   C1B 3214   3.533   1.881   5.935 -0.1222 -0.2648  0.0927
  222POPC   C2B 3215   3.567   1.841   6.417 -0.1175  0.0275 -0.1038
  222POPC   C3B 3216   3.567   1.847   6.794 -0.2581 -0.1812  0.1212
  222POPC   C4B 3217   3.173   1.711   6.920  0.0347 -0.0025 -0.1533
  223POPC   NC3 3218   0.225   4.112   3.834 -0.2144 -0.4590  0.0615
  223POPC   PO4 3219   0.180   4.571   3.832 -0.1019  0.1033  0.2556
  223POPC   GL1 3220   0.508   4.580   4.221  0.1358  0.0477 -0.0080
  223POPC   GL2 3221   0.595   4.912   4.146  0.1362 -0.3042 -0.0866
  223POPC   C1A 3222   0.439   4.472   4.713  0.2388 -0.0543  0.1161
  223POPC   D2A 3223   0.470   4.804   5.016  0.1526  0.0221  0.0254
  223POPC   C3A 3224   0.655   4.627   5.470 -0.2142  0.0723  0.0221
  223POPC   C4A 3225   0.759   4.365   5.793 -0.1368  0.1808  0.1888
  223POPC   C1B 3226   0.351   5.046   4.603  0.4136 -0.3488 -0.2050
  223POPC   C2B 3227   0.135   5.223   4.957 -0.0181  0.1828  0.0298
  223POPC   C3B 3228   0.223   5.153   5.354 -0.1025  0.2365  0.1724
  223POPC   C4B 3229   0.338   5.258   5.848  0.2769  0.0640 -0.2106
  224POPC   NC3 3230   0.596   2.220   4.470  0.0452  0.0179 -0.0209
  224POPC   PO4 3231   0.256   2.279   4.563  0.0833  0.0196 -0.0333
  224POPC   GL1 3232  -0.047   2.088   4.804  0.1324 -0.0063  0.0101
  224POPC   GL2 3233   0.048   2.152   5.113 -0.0285  0.2665 -0.0852
  224POPC   C1A 3234  -0.388   1.839   5.020  0.3480 -0.2623  0.0519
  224POPC   D2A 3235  -0.742   1.749   5.319 -0.1354  0.0629 -0.1380
  224POPC   C3A 3236  -0.667   1.760   5.732 -0.1372  0.2045 -0.0751
  224POPC   C4A 3237  -0.583   1.882   6.185  0.0825  0.0560 -0.1929
  224POPC   C1B 3238   0.222   2.138   5.529  0.1760  0.1570  0.0373
  224POPC   C2B 3239   0.583   2.036   5.844  0.0472  0.2281  0.1483
  224POPC   C3B 3240   0.954   2.133   6.035  0.2819 -0.0013  0.2135
  224POPC   C4B 3241   1.033   2.369   6.414 -0.2471  0.0608  0.5129
  225POPC   NC3 3242   7.706   1.840   4.705 -0.0191 -0.0132  0.1687
  225POPC   PO4 3243   7.858   1.417   4.994 -0.1939  0.0306  0.0206
  225POPC   GL1 3244   7.878   1.717   5.288  0.0421 -0.0735 -0.1910
  225POPC   GL2 3245   8.048   2.000   5.388 -0.0741 -0.1777 -0.1968
  225POPC   C1A 3246   7.610   1.833   5.603  0.3066  0.1446 -0.3589
  225POPC   D2A 3247   7.706   2.075   5.843  0.1915 -0.1225 -0.0157
  225POPC   C3A 3248   8.209   2.124   5.851  0.0716  0.0917 -0.0649
  225POPC   C4A 3249   8.608   2.159   5.800 -0.2667  0.0309  0.1017
  225POPC   C1B 3250   7.985   2.457   5.507  0.2615 -0.0693  0.2389
  225POPC   C2B 3251   7.860   2.551   5.855 -0.5875 -0.2781 -0.1969
  225POPC   C3B 3252   7.995   2.379   6.290 -0.0960 -0.0616 -0.0746
  225POPC   C4B 3253   7.876   2.045   6.454 -0.1865 -0.0526  0.2978
  226POPC   NC3 3254   7.936  10.145   5.576  0.0174 -0.1270  0.1801
  226POPC   PO4 3255   7.968   9.791   5.271  0.0904  0.1092 -0.0826
  226POPC   GL1 3256   7.732   9.463   5.530 -0.5905  0.0040  0.0918
  226POPC   GL2 3257   7.724   9.349   5.910 -0.1039 -0.1806 -0.1146
  226POPC   C1A 3258   7.283   9.616   5.779  0.1697 -0.0222 -0.1800
  226POPC   D2A 3259   7.296   9.796   6.145  0.0395 -0.1296 -0.1088
  226POPC   C3A 3260   7.514  10.136   6.266  0.2728 -0.2512 -0.0608
  226POPC   C4A 3261   7.597  10.524   6.158 -0.1149  0.4647  0.2112
  226POPC   C1B 3262   7.846   9.225   6.451 -0.2451  0.0452  0.2181
  226POPC   C2B 3263   7.913   8.719   6.629  0.0803 -0.0101  0.0611
  226POPC   C3B 3264   8.198   8.569   6.914 -0.0466 -0.0197  0.1263
  226POPC   C4B 3265   8.602   8.853   6.978  0.0565  0.0704 -0.0756
  227POPC   NC3 3266   0.431   2.757   4.682  0.0570 -0.0094 -0.0429
  227POPC   PO4 3267   0.625   2.474   4.852 -0.3219  0.2059 -0.3028
  227POPC   GL1 3268   0.284   2.556   5.171 -0.1122 -0.2707 -0.0039
  227POPC   GL2 3269   0.104   2.724   5.081  0.1258 -0.0508 -0.1148
  227POPC   C1A 3270   0.198   2.617   5.623  0.2570 -0.1655 -0.2844
  227POPC   D2A 3271   0.138   2.797   5.984  0.0847  0.0765  0.1259
  227POPC   C3A 3272   0.014   2.594   6.454 -0.1886  0.1299 -0.0403
  227POPC   C4A 3273  -0.381   2.680   6.637  0.0898 -0.1819 -0.1516
  227POPC   C1B 3274  -0.237   2.714   5.440  0.2052 -0.3554 -0.0838
  227POPC   C2B 3275  -0.274   2.619   5.847 -0.2306  0.1558  0.4145
  227POPC   C3B 3276  -0.348   3.003   6.062 -0.0278 -0.0364 -0.4756
  227POPC   C4B 3277  -0.199   3.412   6.136 -0.1152 -0.0307 -0.0281
  228POPC   NC3 3278   6.255   1.125   4.660  0.1192  0.0033  0.0636
  228POPC   PO4 3279   6.514   0.903   4.926  0.2231  0.1115  0.4170
  228POPC   GL1 3280   6.369   0.756   5.311  0.2908 -0.1033  0.0065
  228POPC   GL2 3281   6.584   0.593   5.454 -0.1899  0.2648 -0.0496
  228POPC   C1A 3282   6.339   1.088   5.632  0.2247 -0.1881  0.0039
  228POPC   D2A 3283   6.762   1.264   5.778 -0.0944  0.0516 -0.4295
  228POPC   C3A 3284   6.891   1.380   6.224  0.2889 -0.1719 -0.3033
  228POPC   C4A 3285   6.775   1.432   6.703  0.0080  0.0278 -0.0517
  228POPC   C1B 3286   6.646   0.372   5.881 -0.0860 -0.1989 -0.0109
  228POPC   C2B 3287   6.594   0.315   6.307 -0.0246 -0.0113  0.0359
  228POPC   C3B 3288   6.529   0.197   6.714 -0.0150  0.0471 -0.3074
  228POPC   C4B 3289   6.449   0.119   7.133 -0.1966 -0.2408 -0.0701
  229POPC   NC3 3290   2.429   9.729   5.121 -0.1152  0.0708 -0.0596
  229POPC   PO4 3291   2.757   9.800   5.335 -0.0394 -0.2712  0.1968
  229POPC   GL1 3292   2.878   9.654   5.772 -0.1537  0.2751  0.1529
  229POPC   GL2 3293   2.687   9.451   5.890  0.0304  0.4339 -0.2295
  229POPC   C1A 3294   3.065   9.800   6.084 -0.1839  0.0673  0.0233
  229POPC   D2A 3295   2.970  10.115   6.340  0.1578  0.0338 -0.0233
  229POPC   C3A 3296   3.257  10.418   6.547  0.2002  0.1040  0.0535
  229POPC   C4A 3297   3.375  10.715   6.871  0.0446  0.1477  0.0359
  229POPC   C1B 3298   2.949   9.353   6.204  0.1707  0.0429  0.3177
  229POPC   C2B 3299   3.103   9.536   6.622 -0.1232 -0.1913  0.2822
  229POPC   C3B 3300   3.300   9.527   6.975 -0.0546 -0.0914  0.0086
  229POPC   C4B 3301   3.241   9.215   7.280  0.0512 -0.2772 -0.0045
  230POPC   NC3 3302   5.848   4.829   5.000 -0.2850 -0.1123  0.2174
  230POPC   PO4 3303   6.097   5.063   5.030  0.0227  0.0821  0.0690
  230POPC   GL1 3304   6.318   4.871   5.359  0.2028  0.2543  0.1438
  230POPC   GL2 3305   6.545   4.612   5.239  0.4349 -0.2050  0.0465
  230POPC   C1A 3306   6.308   4.939   5.749 -0.1994 -0.1381  0.1243
  230POPC   D2A 3307   6.087   4.666   6.161 -0.0938 -0.1760 -0.1843
  230POPC   C3A 3308   6.248   4.684   6.445  0.0063  0.1749 -0.1811
  230POPC   C4A 3309   6.519   4.813   6.723  0.1308  0.1619  0.0087
  230POPC   C1B 3310   6.789   4.667   5.651 -0.0309 -0.1359  0.0200
  230POPC   C2B 3311   7.242   4.550   5.738 -0.2973  0.2822 -0.0798
  230POPC   C3B 3312   7.647   4.784   5.882  0.2802  0.1956  0.0077
  230POPC   C4B 3313   8.151   4.762   5.794 -0.2722  0.0430 -0.1153
  231POPC   NC3 3314   5.931   3.827   4.874 -0.2645  0.2196 -0.0861
  231POPC   PO4 3315   6.321   3.864   4.905 -0.1996  0.0966 -0.1224
  231POPC   GL1 3316   6.311   3.951   5.339 -0.2617 -0.0470 -0.1864
  231POPC   GL2 3317   6.577   4.121   5.301 -0.1685  0.1897 -0.2567
  231POPC   C1A 3318   6.292   3.940   5.796  0.0963 -0.0435  0.0942
  231POPC   D2A 3319   6.423   3.725   6.245 -0.0313 -0.1130 -0.0186
  231POPC   C3A 3320   6.330   3.890   6.641 -0.0058 -0.2288  0.1872
  231POPC   C4A 3321   5.972   4.182   6.694  0.1351  0.0269  0.0078
  231POPC   C1B 3322   6.773   4.128   5.675 -0.1985 -0.0794  0.0835
  231POPC   C2B 3323   6.951   4.189   6.032  0.1751  0.1518 -0.2379
  231POPC   C3B 3324   6.937   3.907   6.391 -0.0844 -0.3320 -0.3701
  231POPC   C4B 3325   6.774   3.719   6.778  0.2863  0.4367  0.2456
  232POPC   NC3 3326   0.110   0.331   5.121  0.3379 -0.3782  0.1966
  232POPC   PO4 3327  -0.048   0.088   5.379  0.1736 -0.1969  0.0718
  232POPC   GL1 3328  -0.331   0.286   5.546  0.0359 -0.3385 -0.1974
  232POPC   GL2 3329  -0.543   0.022   5.700  0.2787 -0.0758 -0.0048
  232POPC   C1A 3330  -0.098   0.666   5.824 -0.0868 -0.1436 -0.2020
  232POPC   D2A 3331  -0.201   0.823   6.213 -0.2128 -0.3029  0.2748
  232POPC   C3A 3332   0.116   0.648   6.502  0.1172 -0.2567 -0.0436
  232POPC   C4A 3333   0.470   0.579   6.759 -0.0691 -0.5273  0.0735
  232POPC   C1B 3334  -0.500  -0.053   6.113  0.0783 -0.0763 -0.0169
  232POPC   C2B 3335  -0.647  -0.280   6.524  0.1006  0.1780 -0.1765
  232POPC   C3B 3336  -0.870  -0.622   6.635 -0.1508 -0.2289  0.0689
  232POPC   C4B 3337  -1.136  -0.986   6.643 -0.0579  0.0761  0.0510
  233POPC   NC3 3338   0.343   1.274   4.518  0.1195 -0.0257  0.0171
  233POPC   PO4 3339   0.684   1.327   4.879 -0.2782 -0.1628 -0.0953
  233POPC   GL1 3340   0.825   1.612   5.234  0.0103 -0.2570 -0.1667
  233POPC   GL2 3341   1.082   1.839   5.238  0.1652 -0.2725 -0.2663
  233POPC   C1A 3342   0.913   1.566   5.634 -0.3895 -0.1733  0.0612
  233POPC   D2A 3343   0.845   1.622   6.062 -0.0916  0.4669  0.1273
  233POPC   C3A 3344   1.146   1.854   6.393  0.2952  0.1351 -0.0063
  233POPC   C4A 3345   1.313   2.130   6.720 -0.1604 -0.3511 -0.2116
  233POPC   C1B 3346   0.972   2.225   5.502  0.1644  0.1519  0.0303
  233POPC   C2B 3347   0.802   2.533   5.727 -0.0037  0.1028 -0.2201
  233POPC   C3B 3348   0.579   2.517   6.075  0.0390  0.3024  0.0017
  233POPC   C4B 3349   0.198   2.232   6.174 -0.2969  0.0119  0.2872
  234POPC   NC3 3350   8.884   0.673   4.965 -0.0910 -0.1521 -0.0127
  234POPC   PO4 3351   8.695   0.970   4.710 -0.2144 -0.0594 -0.2803
  234POPC   GL1 3352   8.715   1.111   5.121  0.0142  0.2336 -0.3514
  234POPC   GL2 3353   8.886   1.421   5.241 -0.0396 -0.1048  0.1980
  234POPC   C1A 3354   8.807   1.080   5.569  0.1463  0.1144  0.4110
  234POPC   D2A 3355   9.114   0.968   5.962  0.2222 -0.1208 -0.1018
  234POPC   C3A 3356   9.047   0.993   6.452  0.0060 -0.2728 -0.1629
  234POPC   C4A 3357   8.728   1.202   6.716 -0.4565 -0.2177 -0.1867
  234POPC   C1B 3358   9.269   1.323   5.520 -0.0380 -0.1863 -0.0104
  234POPC   C2B 3359   9.325   1.385   6.016 -0.1437 -0.0930  0.1763
  234POPC   C3B 3360   9.472   1.299   6.380 -0.2205 -0.0240  0.0366
  234POPC   C4B 3361   9.408   1.396   6.756 -0.1525  0.0465 -0.0567
  235POPC   NC3 3362   6.561   0.359   4.953 -0.1037  0.1943  0.0481
  235POPC   PO4 3363   6.385  -0.128   4.943  0.1806  0.0127 -0.4470
  235POPC   GL1 3364   6.117  -0.294   5.208  0.0901 -0.1026  0.0678
  235POPC   GL2 3365   5.850  -0.138   5.277  0.2013  0.1838 -0.2567
  235POPC   C1A 3366   5.924  -0.548   5.573 -0.2312 -0.0790  0.0835
  235POPC   D2A 3367   5.904  -1.014   5.754  0.2203  0.0937 -0.0051
  235POPC   C3A 3368   6.176  -1.235   6.077  0.1550  0.0071  0.1623
  235POPC   C4A 3369   6.516  -1.555   5.971  0.1460  0.0013  0.1341
  235POPC   C1B 3370   5.804  -0.061   5.693  0.0474 -0.3452 -0.0130
  235POPC   C2B 3371   5.975  -0.223   6.072 -0.0370  0.1529 -0.0146
  235POPC   C3B 3372   5.934  -0.419   6.403 -0.2033 -0.0517  0.0264
  235POPC   C4B 3373   5.786  -0.523   6.770  0.4058  0.3599  0.1093
  236POPC   NC3 3374   1.788   1.241   4.894 -0.1384  0.1009 -0.2388
  236POPC   PO4 3375   2.172   1.261   4.824  0.0471  0.0923 -0.0227
  236POPC   GL1 3376   2.154   1.280   5.316  0.0027 -0.0580  0.0593
  236POPC   GL2 3377   1.888   1.333   5.450  0.2051  0.4028  0.2067
  236POPC   C1A 3378   2.331   1.510   5.615 -0.2018  0.0350 -0.4342
  236POPC   D2A 3379   2.680   1.523   5.899 -0.4955 -0.2483  0.4143
  236POPC   C3A 3380   2.601   1.485   6.329  0.1204 -0.3077  0.0285
  236POPC   C4A 3381   2.517   1.630   6.857  0.1157 -0.1234 -0.0116
  236POPC   C1B 3382   1.866   1.722   5.440  0.1436  0.1507 -0.1333
  236POPC   C2B 3383   1.939   1.873   5.905 -0.1535 -0.2117  0.0440
  236POPC   C3B 3384   2.179   1.753   6.206  0.0556 -0.2886 -0.2369
  236POPC   C4B 3385   2.082   1.517   6.562  0.4334  0.2826 -0.1266
  237POPC   NC3 3386   4.724   9.625   4.936  0.2232 -0.0155 -0.0662
  237POPC   PO4 3387   4.593   9.170   4.825 -0.0998 -0.1937  0.0132
  237POPC   GL1 3388   4.711   9.188   5.228  0.1810  0.1052 -0.2855
  237POPC   GL2 3389   5.003   9.419   5.254 -0.1976  0.1379 -0.2513
  237POPC   C1A 3390   4.443   9.258   5.561 -0.1422 -0.0989 -0.2710
  237POPC   D2A 3391   4.285   9.237   5.952 -0.0785  0.1637 -0.0306
  237POPC   C3A 3392   3.943   9.079   5.967 -0.0154  0.2031 -0.0856
  237POPC   C4A 3393   3.691   8.804   5.746 -0.1490  0.0581  0.3046
  237POPC   C1B 3394   4.942   9.487   5.717 -0.0563 -0.6423  0.1547
  237POPC   C2B 3395   4.970   9.663   6.089  0.1346 -0.2106 -0.1356
  237POPC   C3B 3396   4.943   9.573   6.456 -0.3378  0.1373  0.1489
  237POPC   C4B 3397   5.251   9.606   6.865 -0.2110 -0.0898 -0.0419
  238POPC   NC3 3398   4.039   6.060   4.982 -0.2867  0.1673  0.1028
  238POPC   PO4 3399   4.427   6.268   5.057  0.0437  0.5022 -0.2487
  238POPC   GL1 3400   4.782   6.090   5.460  0.3881  0.1058 -0.0329
  238POPC   GL2 3401   4.960   5.842   5.709 -0.2197 -0.1473 -0.3024
  238POPC   C1A 3402   4.871   6.363   5.925 -0.0433 -0.0189 -0.3382
  238POPC   D2A 3403   5.099   6.458   6.369  0.1464 -0.1181  0.0855
  238POPC   C3A 3404   5.210   6.451   6.845 -0.0595 -0.0834 -0.0712
  238POPC   C4A 3405   5.491   6.173   7.022 -0.0621  0.4051  0.0385
  238POPC   C1B 3406   4.958   5.945   6.199  0.3254 -0.0354 -0.1670
  238POPC   C2B 3407   4.737   6.036   6.536  0.0147  0.0236  0.0754
  238POPC   C3B 3408   4.455   5.775   6.773  0.2589 -0.1935  0.1851
  238POPC   C4B 3409   4.699   5.690   7.106  0.0229  0.1300 -0.1446
  239POPC   NC3 3410   3.592   7.327   5.046  0.4273 -0.0951 -0.0290
  239POPC   PO4 3411   3.301   7.626   5.155  0.4437 -0.0307 -0.0784
  239POPC   GL1 3412   3.098   7.662   5.599 -0.2306 -0.0373  0.0224
  239POPC   GL2 3413   2.900   7.423   5.459 -0.0797  0.0230  0.1201
  239POPC   C1A 3414   3.087   7.546   5.956  0.1647 -0.0899 -0.3362
  239POPC   D2A 3415   2.934   7.274   6.332  0.1461 -0.0589  0.0755
  239POPC   C3A 3416   3.198   7.251   6.649  0.1418  0.1182 -0.1573
  239POPC   C4A 3417   3.159   6.973   6.986  0.0698 -0.0347 -0.1986
  239POPC   C1B 3418   2.961   7.031   5.814  0.3604 -0.0709  0.1265
  239POPC   C2B 3419   3.097   6.803   6.174  0.0161 -0.0652  0.0486
  239POPC   C3B 3420   2.814   6.810   6.553  0.1173  0.1029  0.0871
  239POPC   C4B 3421   2.673   6.700   7.017 -0.1442 -0.2064  0.0644
  240POPC   NC3 3422   5.530   5.549   5.547 -0.0396 -0.0199  0.3016
  240POPC   PO4 3423   5.386   5.937   5.570  0.1172 -0.2909  0.0792
  240POPC   GL1 3424   5.439   5.793   5.995  0.0329  0.0649  0.0949
  240POPC   GL2 3425   5.734   5.595   6.063 -0.0778 -0.3855  0.0540
  240POPC   C1A 3426   5.424   5.548   6.436 -0.3479 -0.3566  0.0807
  240POPC   D2A 3427   5.523   5.583   6.821  0.1214  0.0836 -0.2045
  240POPC   C3A 3428   5.852   5.351   7.130  0.2913 -0.2176 -0.1635
  240POPC   C4A 3429   6.182   5.391   7.389  0.0281  0.1479 -0.1406
  240POPC   C1B 3430   5.925   5.555   6.491  0.0495  0.0228 -0.0031
  240POPC   C2B 3431   6.220   5.411   6.715  0.3802  0.1550 -0.1073
  240POPC   C3B 3432   6.382   5.082   7.108 -0.4240 -0.2728  0.0689
  240POPC   C4B 3433   6.005   4.900   7.375  0.1400  0.1691  0.2334
  241POPC   NC3 3434   4.390   2.950   4.890 -0.1212  0.2169  0.0553
  241POPC   PO4 3435   4.265   2.610   5.137 -0.4487 -0.4120 -0.3054
  241POPC   GL1 3436   4.297   2.603   5.510 -0.0019  0.0735  0.0225
  241POPC   GL2 3437   4.088   2.844   5.718  0.2657  0.0036  0.1634
  241POPC   C1A 3438   4.503   2.590   5.980  0.2099  0.1616  0.2567
  241POPC   D2A 3439   4.653   2.372   6.263 -0.2076 -0.4951 -0.0215
  241POPC   C3A 3440   4.403   2.116   6.511  0.1017  0.0540 -0.1687
  241POPC   C4A 3441   4.031   1.972   6.709 -0.0008 -0.2999 -0.2663
  241POPC   C1B 3442   3.977   2.447   5.923  0.1694  0.2472  0.1871
  241POPC   C2B 3443   3.825   2.257   6.341  0.0775  0.2024 -0.0686
  241POPC   C3B 3444   3.680   2.392   6.880 -0.2286  0.0006  0.1523
  241POPC   C4B 3445   3.798   2.448   7.244 -0.2060  0.0364 -0.0104
  242POPC   NC3 3446   8.350   0.751   4.453 -0.0385  0.1317 -0.0955
  242POPC   PO4 3447   8.353   0.504   4.857  0.0279  0.0472 -0.1811
  242POPC   GL1 3448   8.479   0.691   5.256 -0.2085 -0.5091  0.0107
  242POPC   GL2 3449   8.708   0.545   5.418  0.1980  0.2379  0.0663
  242POPC   C1A 3450   8.338   0.818   5.778 -0.0669  0.1208  0.2643
  242POPC   D2A 3451   8.210   1.184   5.967  0.0973  0.1333 -0.0862
  242POPC   C3A 3452   8.254   1.034   6.458 -0.3101  0.1145 -0.0018
  242POPC   C4A 3453   8.287   1.047   6.938  0.1423 -0.0088 -0.4481
  242POPC   C1B 3454   8.809   0.476   5.836  0.0723 -0.1048  0.2712
  242POPC   C2B 3455   9.089   0.525   6.191  0.0372  0.0626  0.0927
  242POPC   C3B 3456   9.096   0.328   6.643  0.0556  0.3457 -0.3287
  242POPC   C4B 3457   8.993   0.459   7.109  0.1763  0.1311  0.1256
  243POPC   NC3 3458   4.988   8.906   4.923 -0.2143 -0.3525  0.1043
  243POPC   PO4 3459   5.136   8.429   5.048  0.0795 -0.1597 -0.0724
  243POPC   GL1 3460   5.260   8.649   5.468  0.2933  0.2010  0.2690
  243POPC   GL2 3461   5.345   8.995   5.459  0.0812  0.3123  0.3255
  243POPC   C1A 3462   5.326   8.522   5.885  0.0998  0.4183 -0.0909
  243POPC   D2A 3463   5.461   8.346   6.255  0.0606 -0.0713  0.1358
  243POPC   C3A 3464   5.289   8.296   6.612 -0.1783  0.2546 -0.2270
  243POPC   C4A 3465   4.967   8.069   6.918 -0.1060  0.1153 -0.3896
  243POPC   C1B 3466   5.250   9.101   5.863  0.1382 -0.2336  0.1998
  243POPC   C2B 3467   5.154   9.113   6.106  0.2473 -0.1031  0.1211
  243POPC   C3B 3468   4.666   9.217   6.253 -0.1711 -0.1969 -0.2888
  243POPC   C4B 3469   4.102   9.230   6.438 -0.1870  0.4077  0.2931
  244POPC   NC3 3470   7.451   0.459   4.904 -0.1249  0.0282 -0.1813
  244POPC   PO4 3471   7.440   0.673   5.343  0.1989 -0.1144 -0.1151
  244POPC   GL1 3472   7.551   0.867   5.697  0.1348 -0.1273 -0.0105
  244POPC   GL2 3473   7.357   0.610   5.823 -0.0022 -0.1849  0.1862
  244POPC   C1A 3474   7.687   0.850   6.170  0.0842  0.2789  0.0541
  244POPC   D2A 3475   7.582   0.716   6.563 -0.3238  0.0560 -0.0982
  244POPC   C3A 3476   7.841   0.774   6.896  0.0019  0.0474  0.1961
  244POPC   C4A 3477   7.898   0.898   7.278  0.1118 -0.0410  0.0821
  244POPC   C1B 3478   7.171   0.752   6.191 -0.4009 -0.6265 -0.0430
  244POPC   C2B 3479   7.108   0.990   6.493  0.2456 -0.3498 -0.0014
  244POPC   C3B 3480   7.261   1.411   6.703 -0.1487 -0.1443 -0.0831
  244POPC   C4B 3481   7.625   1.709   6.838 -0.1316 -0.0534 -0.0357
  245POPC   NC3 3482   0.635   8.805   5.565  0.1988 -0.0944  0.0300
  245POPC   PO4 3483   0.243   8.905   5.794 -0.2267  0.3225  0.1820
  245POPC   GL1 3484   0.098   9.111   6.085 -0.1245 -0.0490  0.0312
  245POPC   GL2 3485   0.301   9.359   6.196  0.0381 -0.0889  0.2747
  245POPC   C1A 3486   0.078   9.030   6.522 -0.0816 -0.1993 -0.3344
  245POPC   D2A 3487   0.003   9.158   7.003  0.2580 -0.0499 -0.0161
  245POPC   C3A 3488  -0.450   9.164   7.227 -0.3060  0.0105  0.0617
  245POPC   C4A 3489  -0.523   8.754   7.430  0.0042 -0.0586 -0.1931
  245POPC   C1B 3490   0.212   9.478   6.539 -0.1902  0.3829 -0.0996
  245POPC   C2B 3491  -0.132   9.608   6.794 -0.1524  0.1378 -0.0681
  245POPC   C3B 3492  -0.539   9.603   6.971 -0.1228  0.0815  0.0620
  245POPC   C4B 3493  -0.886   9.987   6.961  0.1002  0.2643 -0.0556
  246POPC   NC3 3494   1.103   1.515   4.824  0.2442  0.0019  0.3564
  246POPC   PO4 3495   1.311   1.158   4.780 -0.0913 -0.0709  0.2190
  246POPC   GL1 3496   1.363   1.156   5.228  0.0118 -0.1646  0.3057
  246POPC   GL2 3497   1.345   1.392   5.299  0.1147  0.2867 -0.0422
  246POPC   C1A 3498   1.197   0.941   5.670 -0.2566  0.1933  0.2436
  246POPC   D2A 3499   1.277   0.676   5.896 -0.1476 -0.2421  0.0838
  246POPC   C3A 3500   1.325   0.867   6.244  0.0631 -0.0705  0.0630
  246POPC   C4A 3501   1.675   1.155   6.370 -0.1259  0.0709  0.1922
  246POPC   C1B 3502   1.452   1.524   5.613 -0.0140 -0.1849  0.2512
  246POPC   C2B 3503   1.271   1.337   6.001 -0.1198 -0.0956  0.1808
  246POPC   C3B 3504   1.155   1.366   6.431 -0.1353  0.0706 -0.5189
  246POPC   C4B 3505   0.794   1.566   6.552 -0.2328  0.3015 -0.0256
  247POPC   NC3 3506   2.156   2.713   4.633  0.0121 -0.1132  0.1760
  247POPC   PO4 3507   2.111   2.464   4.401 -0.0488 -0.3462 -0.0285
  247POPC   GL1 3508   2.135   2.334   4.935  0.0513  0.2112 -0.1665
  247POPC   GL2 3509   1.749   2.246   5.101 -0.2104  0.1681 -0.0769
  247POPC   C1A 3510   2.077   2.230   5.467 -0.2118 -0.3944 -0.0250
  247POPC   D2A 3511   1.844   2.383   5.850 -0.2385 -0.1515 -0.0736
  247POPC   C3A 3512   2.029   2.277   6.228  0.0304 -0.1657  0.1523
  247POPC   C4A 3513   2.165   2.003   6.675  0.2053  0.1212 -0.1288
  247POPC   C1B 3514   1.931   2.705   5.286  0.1887  0.2410 -0.0053
  247POPC   C2B 3515   2.082   2.869   5.638  0.0498 -0.0536 -0.1049
  247POPC   C3B 3516   2.131   3.321   5.983  0.0693 -0.1546 -0.1090
  247POPC   C4B 3517   2.392   3.644   6.296  0.1649 -0.0964  0.1184
  248POPC   NC3 3518   4.455   5.993   4.657  0.1969 -0.0017 -0.2107
  248POPC   PO4 3519   4.407   5.710   4.951  0.1051 -0.1574 -0.0379
  248POPC   GL1 3520   4.503   5.657   5.366  0.0044  0.3116 -0.0340
  248POPC   GL2 3521   4.336   5.839   5.401  0.0163 -0.2280 -0.1938
  248POPC   C1A 3522   4.432   5.693   5.842 -0.1192 -0.2580 -0.1042
  248POPC   D2A 3523   4.255   5.885   6.274 -0.2422 -0.1085 -0.1678
  248POPC   C3A 3524   4.119   5.498   6.444  0.0443 -0.1595 -0.0847
  248POPC   C4A 3525   3.871   5.381   6.850 -0.2453 -0.3060  0.2827
  248POPC   C1B 3526   4.022   5.714   5.608  0.2197  0.1591  0.1229
  248POPC   C2B 3527   3.737   5.560   5.985 -0.0514  0.1976 -0.2200
  248POPC   C3B 3528   3.354   5.782   6.114  0.1679 -0.1200  0.0670
  248POPC   C4B 3529   3.307   6.225   6.152  0.1798  0.5271 -0.1381
  249POPC   NC3 3530   2.034   5.095   4.247 -0.1835 -0.1108  0.1321
  249POPC   PO4 3531   2.102   5.181   4.705 -0.1070 -0.3488  0.3326
  249POPC   GL1 3532   1.896   5.018   4.965  0.0824 -0.0883  0.1255
  249POPC   GL2 3533   1.916   4.712   5.091  0.1167  0.0236 -0.0740
  249POPC   C1A 3534   1.776   4.989   5.417  0.1026  0.0646  0.1433
  249POPC   D2A 3535   1.626   4.764   5.751  0.0119 -0.0138 -0.3738
  249POPC   C3A 3536   1.381   4.859   6.016 -0.1772  0.0141  0.1299
  249POPC   C4A 3537   1.171   5.110   6.285 -0.0299  0.1501  0.0495
  249POPC   C1B 3538   2.092   4.561   5.473  0.0483 -0.2095 -0.1130
  249POPC   C2B 3539   2.147   4.697   5.905  0.1497  0.2963  0.0517
  249POPC   C3B 3540   1.903   4.861   6.230  0.1023 -0.2739  0.0867
  249POPC   C4B 3541   1.599   5.143   6.489 -0.3486  0.0923  0.1216
  250POPC   NC3 3542   5.489   4.765   4.498  0.3012 -0.0885  0.1611
  250POPC   PO4 3543   5.677   4.370   4.832  0.1925 -0.1044  0.0341
  250POPC   GL1 3544   5.767   4.210   5.320 -0.1821 -0.1211  0.1704
  250POPC   GL2 3545   6.051   4.416   5.403 -0.2910 -0.0506  0.1968
  250POPC   C1A 3546   5.454   4.020   5.718 -0.1656 -0.0051 -0.0304
  250POPC   D2A 3547   5.454   3.938   6.122 -0.2152 -0.3765  0.0813
  250POPC   C3A 3548   5.100   4.217   6.281 -0.1407 -0.3322 -0.1624
  250POPC   C4A 3549   4.786   4.441   6.282  0.1002  0.1060  0.1724
  250POPC   C1B 3550   6.345   4.413   5.669  0.1522 -0.3809  0.0740
  250POPC   C2B 3551   6.464   4.376   6.027  0.1227 -0.1767 -0.4303
  250POPC   C3B 3552   6.591   4.312   6.448 -0.1145 -0.3111 -0.0948
  250POPC   C4B 3553   6.506   4.332   6.865 -0.1810 -0.1281 -0.3735
  251POPC   NC3 3554   7.567   7.146   4.811 -0.1977  0.1063 -0.1619
  251POPC   PO4 3555   7.198   6.896   4.967 -0.0322  0.1208 -0.4206
  251POPC   GL1 3556   6.883   6.881   5.277  0.1072  0.0356 -0.1109
  251POPC   GL2 3557   7.075   6.751   5.594 -0.2049 -0.0138 -0.2555
  251POPC   C1A 3558   6.606   6.622   5.613 -0.0612 -0.1852 -0.2938
  251POPC   D2A 3559   6.412   6.598   6.013 -0.0897  0.1006  0.3137
  251POPC   C3A 3560   6.241   6.493   6.413 -0.1787 -0.2574 -0.0481
  251POPC   C4A 3561   6.079   6.104   6.512  0.0336 -0.3904 -0.0466
  251POPC   C1B 3562   7.098   6.622   5.949 -0.1049  0.0921 -0.2636
  251POPC   C2B 3563   7.205   6.495   6.373 -0.0630  0.0862 -0.1007
  251POPC   C3B 3564   7.100   6.240   6.787  0.2557  0.2757  0.1133
  251POPC   C4B 3565   6.937   6.341   7.213  0.0603  0.2350 -0.0689
  252POPC   NC3 3566   7.704   9.861   4.871 -0.2071  0.2047 -0.3087
  252POPC   PO4 3567   7.281   9.569   5.055 -0.2374  0.0305  0.1351
  252POPC   GL1 3568   6.989   9.559   5.392 -0.0947  0.1347 -0.0231
  252POPC   GL2 3569   6.641   9.562   5.292  0.1293  0.2392 -0.3364
  252POPC   C1A 3570   6.807   9.554   5.815 -0.1530  0.4647 -0.3798
  252POPC   D2A 3571   6.862   9.649   6.300  0.1789 -0.1466  0.0166
  252POPC   C3A 3572   6.924  10.050   6.512 -0.0854  0.0990  0.0615
  252POPC   C4A 3573   6.997  10.246   6.879  0.0295  0.3590 -0.0264
  252POPC   C1B 3574   6.415   9.798   5.611 -0.4332 -0.3914 -0.0087
  252POPC   C2B 3575   6.555  10.023   6.011 -0.1546  0.2468 -0.1248
  252POPC   C3B 3576   6.421   9.945   6.433 -0.1319  0.0920 -0.1187
  252POPC   C4B 3577   6.585   9.879   6.834 -0.2339  0.0117  0.1785
  253POPC   NC3 3578   1.868  10.161   5.221 -0.1361  0.0578  0.0306
  253POPC   PO4 3579   1.945   9.759   5.311  0.0310 -0.1436  0.3591
  253POPC   GL1 3580   2.214   9.605   5.624 -0.2196 -0.0633  0.0215
  253POPC   GL2 3581   2.004   9.608   5.923 -0.5777  0.2559  0.2067
  253POPC   C1A 3582   2.426   9.813   6.051 -0.0805  0.1567  0.0827
  253POPC   D2A 3583   2.643   9.728   6.392  0.0511 -0.0172  0.2049
  253POPC   C3A 3584   2.391   9.537   6.633 -0.1110 -0.1708  0.0406
  253POPC   C4A 3585   2.214   9.388   7.055 -0.0161  0.0081  0.2235
  253POPC   C1B 3586   1.663   9.887   6.130 -0.3215 -0.2102 -0.0028
  253POPC   C2B 3587   1.678   9.798   6.515  0.1069  0.1356 -0.0802
  253POPC   C3B 3588   1.799   9.602   6.900 -0.1765  0.1473 -0.1801
  253POPC   C4B 3589   1.868   9.683   7.296  0.0726  0.2954 -0.0303
  254POPC   NC3 3590   0.607   4.788   3.616 -0.0061  0.4528  0.0390
  254POPC   PO4 3591   0.687   4.295   3.702  0.3088 -0.2681 -0.1285
  254POPC   GL1 3592   0.881   4.501   3.981  0.1962 -0.0176 -0.3270
  254POPC   GL2 3593   1.065   4.230   4.109  0.0160 -0.2484 -0.0703
  254POPC   C1A 3594   1.037   4.768   4.332  0.1978 -0.0250 -0.0650
  254POPC   D2A 3595   0.806   4.843   4.653  0.2228  0.1957  0.5077
  254POPC   C3A 3596   1.000   4.792   4.963 -0.5168  0.2574 -0.0970
  254POPC   C4A 3597   1.388   5.143   5.008  0.1722 -0.3675  0.1355
  254POPC   C1B 3598   0.850   4.238   4.557  0.1209  0.0860 -0.0318
  254POPC   C2B 3599   0.719   4.128   4.982 -0.0305 -0.1258 -0.3649
  254POPC   C3B 3600   0.278   4.176   5.199 -0.1936  0.1438  0.1494
  254POPC   C4B 3601  -0.137   4.337   5.377 -0.0544 -0.0006  0.1271
  255POPC   NC3 3602   4.172   3.656   4.620 -0.2080 -0.0621 -0.2160
  255POPC   PO4 3603   3.967   3.430   4.991  0.0098 -0.1970 -0.0234
  255POPC   GL1 3604   4.255   3.199   5.289 -0.2375 -0.2176 -0.1120
  255POPC   GL2 3605   4.189   3.332   5.614 -0.0641  0.0333 -0.1920
  255POPC   C1A 3606   4.595   3.038   5.655  0.0782 -0.0085  0.1253
  255POPC   D2A 3607   4.918   3.288   5.970 -0.0338  0.0795 -0.0388
  255POPC   C3A 3608   5.027   3.115   6.374  0.1446 -0.0170 -0.1351
  255POPC   C4A 3609   5.290   2.964   6.716 -0.0326  0.2157 -0.3560
  255POPC   C1B 3610   4.118   3.178   6.056 -0.2521 -0.1193  0.2725
  255POPC   C2B 3611   4.075   2.790   6.276 -0.4006  0.1903  0.1017
  255POPC   C3B 3612   4.142   2.514   6.608 -0.1169 -0.1999 -0.2097
  255POPC   C4B 3613   4.283   2.483   6.992 -0.0398  0.1274  0.1486
  256POPC   NC3 3614   0.420   3.325   3.764 -0.0585  0.0915 -0.1645
  256POPC   PO4 3615   0.209   3.647   3.949  0.0075 -0.1221 -0.1804
  256POPC   GL1 3616  -0.003   3.883   4.203  0.2294  0.0007 -0.1092
  256POPC   GL2 3617  -0.082   3.607   4.406  0.0798  0.2902  0.3242
  256POPC   C1A 3618   0.047   4.161   4.545 -0.1454 -0.1569 -0.4266
  256POPC   D2A 3619  -0.072   4.536   4.749  0.0366  0.0313 -0.0830
  256POPC   C3A 3620  -0.026   4.759   5.157 -0.2410 -0.3933  0.1748
  256POPC   C4A 3621  -0.266   4.872   5.541 -0.1053  0.1535 -0.0470
  256POPC   C1B 3622   0.303   3.753   4.696  0.0748  0.1630  0.1927
  256POPC   C2B 3623   0.491   3.661   5.015  0.3691  0.0266  0.1815
  256POPC   C3B 3624   0.404   3.571   5.262 -0.0979 -0.0908 -0.0424
  256POPC   C4B 3625   0.687   3.441   5.688 -0.0351 -0.3131 -0.3144
  257POPC   NC3 3626   2.282   0.845   5.101  0.2714 -0.0430 -0.0088
  257POPC   PO4 3627   2.182   0.400   5.215 -0.1446 -0.2142 -0.5502
  257POPC   GL1 3628   2.123   0.533   5.689  0.2904  0.1716  0.0658
  257POPC   GL2 3629   2.215   0.851   5.673 -0.3663  0.0304  0.1085
  257POPC   C1A 3630   2.018   0.224   6.013  0.2960  0.1137  0.1951
  257POPC   D2A 3631   1.896   0.076   6.407  0.0237  0.0545 -0.1827
  257POPC   C3A 3632   2.116  -0.091   6.737 -0.2673 -0.0898 -0.0141
  257POPC   C4A 3633   2.339  -0.249   7.075 -0.1139 -0.0835 -0.0420
  257POPC   C1B 3634   2.356   1.157   6.031 -0.0462 -0.0490 -0.1974
  257POPC   C2B 3635   2.273   1.055   6.413  0.0623  0.2379 -0.0310
  257POPC   C3B 3636   1.963   1.097   6.809 -0.2936 -0.1883 -0.1378
  257POPC   C4B 3637   1.556   1.225   7.044  0.3595  0.0895 -0.0303
  258POPC   NC3 3638   4.688   2.253   4.989  0.3949 -0.0498 -0.5085
  258POPC   PO4 3639   4.960   2.650   5.067  0.3041  0.3017 -0.0568
  258POPC   GL1 3640   4.839   2.470   5.425 -0.0616 -0.3782 -0.1120
  258POPC   GL2 3641   5.068   2.677   5.605  0.3868  0.0839 -0.3321
  258POPC   C1A 3642   4.818   2.261   5.829 -0.3472  0.1212 -0.0608
  258POPC   D2A 3643   5.091   1.811   5.820  0.1552  0.0352  0.2602
  258POPC   C3A 3644   5.054   1.526   6.163  0.0264 -0.1646 -0.2521
  258POPC   C4A 3645   5.129   1.330   6.637  0.3348  0.1972  0.2462
  258POPC   C1B 3646   5.074   2.666   6.063  0.1160  0.2012  0.3205
  258POPC   C2B 3647   5.089   2.499   6.533 -0.0864  0.1012 -0.0373
  258POPC   C3B 3648   5.012   2.161   6.813 -0.2407 -0.2383  0.2482
  258POPC   C4B 3649   5.336   1.751   6.878  0.4629  0.3402  0.3698
  259POPC   NC3 3650  10.041   7.323   4.960  0.0062 -0.0532  0.0108
  259POPC   PO4 3651   9.911   6.907   4.732 -0.0246 -0.0997  0.1995
  259POPC   GL1 3652   9.826   6.932   5.242  0.0259 -0.4353  0.1946
  259POPC   GL2 3653  10.000   7.145   5.380 -0.1091  0.2289 -0.4489
  259POPC   C1A 3654   9.497   7.044   5.558  0.0408  0.0315  0.1803
  259POPC   D2A 3655   9.443   7.223   5.929  0.1998  0.0410 -0.2450
  259POPC   C3A 3656   9.757   7.249   6.206  0.2308  0.0539 -0.0828
  259POPC   C4A 3657  10.193   6.961   6.066 -0.2485  0.1699 -0.1262
  259POPC   C1B 3658   9.921   7.225   5.724 -0.0289 -0.0971  0.2096
  259POPC   C2B 3659   9.738   7.637   5.920 -0.0680  0.0911 -0.0008
  259POPC   C3B 3660   9.910   7.721   6.305  0.4445  0.1295 -0.2360
  259POPC   C4B 3661  10.095   7.804   6.756 -0.3466  0.0449 -0.0638
  260POPC   NC3 3662   6.432   8.998   5.134  0.2486  0.0374 -0.0372
  260POPC   PO4 3663   6.756   9.047   5.405  0.0668 -0.0764  0.2538
  260POPC   GL1 3664   6.598   9.151   5.696  0.0526 -0.1052  0.1363
  260POPC   GL2 3665   6.289   9.365   5.619 -0.0606  0.0683 -0.1347
  260POPC   C1A 3666   6.659   9.160   6.115  0.1663  0.2095 -0.0638
  260POPC   D2A 3667   6.470   8.906   6.484 -0.1334  0.0930  0.0266
  260POPC   C3A 3668   6.789   8.698   6.743 -0.0927  0.0301 -0.1389
  260POPC   C4A 3669   7.053   9.019   7.039  0.2066 -0.0286  0.1381
  260POPC   C1B 3670   6.271   9.469   6.022  0.0824  0.1486 -0.1086
  260POPC   C2B 3671   6.446   9.397   6.455 -0.1852 -0.0125 -0.0459
  260POPC   C3B 3672   6.226   9.484   6.792 -0.1160 -0.2764 -0.0659
  260POPC   C4B 3673   6.163   9.792   7.233 -0.2840  0.3850  0.1290
  261POPC   NC3 3674   8.766   0.157   4.878  0.0517 -0.1520 -0.0521
  261POPC   PO4 3675   9.203   0.241   4.855  0.0983 -0.3275  0.0597
  261POPC   GL1 3676   9.154   0.383   5.240  0.0513 -0.5406 -0.4188
  261POPC   GL2 3677   9.332   0.616   5.189  0.0711 -0.1383  0.0190
  261POPC   C1A 3678   9.262   0.370   5.690 -0.6082  0.0725  0.0272
  261POPC   D2A 3679   9.536   0.493   5.975 -0.1303  0.1622 -0.0116
  261POPC   C3A 3680   9.500   0.809   6.311 -0.1888  0.1014  0.2191
  261POPC   C4A 3681   9.765   0.987   6.726 -0.0668  0.1003  0.2829
  261POPC   C1B 3682   9.256   0.825   5.487 -0.0783 -0.3714 -0.1862
  261POPC   C2B 3683   9.608   0.971   5.808  0.3569  0.4826 -0.1991
  261POPC   C3B 3684   9.817   1.391   5.910 -0.1945 -0.2579 -0.0340
  261POPC   C4B 3685   9.992   1.381   6.410  0.0457 -0.0336 -0.1368
  262POPC   NC3 3686   8.375   1.498   5.015 -0.0564 -0.1175 -0.2827
  262POPC   PO4 3687   8.528   1.898   4.955  0.1676 -0.1491 -0.0330
  262POPC   GL1 3688   8.574   1.846   5.370 -0.1133 -0.1637 -0.3389
  262POPC   GL2 3689   8.332   1.620   5.511 -0.2567  0.1209 -0.0984
  262POPC   C1A 3690   8.861   1.629   5.708 -0.0743 -0.0494 -0.0935
  262POPC   D2A 3691   8.916   1.559   6.179 -0.1114 -0.2838  0.2691
  262POPC   C3A 3692   8.675   1.207   6.155 -0.2496  0.3744 -0.1857
  262POPC   C4A 3693   8.620   0.783   6.191  0.3658 -0.2715  0.1417
  262POPC   C1B 3694   8.425   1.704   5.919 -0.0348 -0.1056  0.3791
  262POPC   C2B 3695   8.492   1.560   6.420 -0.1907 -0.1546 -0.1856
  262POPC   C3B 3696   8.896   1.686   6.670 -0.2507  0.1196 -0.0780
  262POPC   C4B 3697   9.253   1.896   6.579 -0.2884  0.3536 -0.0196
  263POPC   NC3 3698   2.791   5.048   4.828  0.0220  0.0429 -0.1955
  263POPC   PO4 3699   2.561   5.553   4.843  0.0772 -0.0851  0.2130
  263POPC   GL1 3700   2.104   5.633   4.969  0.0695 -0.1054  0.1548
  263POPC   GL2 3701   1.912   5.899   4.919 -0.4075  0.1769 -0.0637
  263POPC   C1A 3702   1.731   5.534   5.276 -0.1672 -0.1632 -0.2156
  263POPC   D2A 3703   1.508   5.732   5.570  0.1157  0.0534 -0.0501
  263POPC   C3A 3704   1.177   5.575   5.855 -0.2347 -0.2862  0.0896
  263POPC   C4A 3705   0.721   5.634   5.792 -0.0249 -0.0333 -0.1425
  263POPC   C1B 3706   1.903   6.027   5.360  0.0837 -0.2530  0.0818
  263POPC   C2B 3707   1.894   5.960   5.791 -0.0899  0.2017  0.0957
  263POPC   C3B 3708   1.895   5.615   5.944  0.1938  0.0403  0.4437
  263POPC   C4B 3709   1.610   5.320   5.982 -0.0667 -0.1425  0.3285
  264POPC   NC3 3710   3.000   2.626   5.213 -0.0182  0.1419  0.0120
  264POPC   PO4 3711   2.605   2.434   5.117  0.1740 -0.0375 -0.0244
  264POPC   GL1 3712   2.503   2.530   5.482 -0.0437 -0.0948 -0.2707
  264POPC   GL2 3713   2.809   2.553   5.652 -0.0110  0.0503 -0.0042
  264POPC   C1A 3714   2.328   2.505   5.928 -0.0602 -0.0280 -0.3834
  264POPC   D2A 3715   2.015   2.818   6.133  0.2918  0.1756 -0.0702
  264POPC   C3A 3716   2.050   2.814   6.572  0.0905  0.0487 -0.0132
  264POPC   C4A 3717   2.140   2.480   6.945 -0.5729  0.1072  0.1211
  264POPC   C1B 3718   2.875   2.453   6.105  0.0529 -0.2355 -0.0443
  264POPC   C2B 3719   2.905   2.514   6.514 -0.1230 -0.0136 -0.1504
  264POPC   C3B 3720   3.019   2.711   6.909 -0.0172  0.2325  0.0996
  264POPC   C4B 3721   3.323   2.867   6.847  0.0778  0.0042 -0.2241
  265POPC   NC3 3722   9.670   2.591   4.147  0.0023 -0.2296  0.0019
  265POPC   PO4 3723  10.114   2.794   4.216 -0.0288 -0.1066  0.4583
  265POPC   GL1 3724  10.202   3.117   4.570  0.1158 -0.1570  0.2453
  265POPC   GL2 3725  10.368   3.189   4.852 -0.1544  0.2627  0.0618
  265POPC   C1A 3726   9.959   3.403   4.850  0.1323 -0.4339  0.0573
  265POPC   D2A 3727   9.837   3.417   5.248  0.4334  0.1797 -0.2639
  265POPC   C3A 3728   9.370   3.611   5.469  0.0960 -0.0323 -0.0255
  265POPC   C4A 3729   9.237   3.917   5.757  0.1805 -0.2687  0.1600
  265POPC   C1B 3730  10.307   3.183   5.238  0.0145 -0.0865 -0.2545
  265POPC   C2B 3731  10.379   3.316   5.654 -0.0732 -0.1158 -0.0497
  265POPC   C3B 3732  10.528   3.372   6.088 -0.0499  0.1633 -0.2470
  265POPC   C4B 3733  10.452   3.684   6.362 -0.2214 -0.2161 -0.0158
  266POPC   NC3 3734   1.436   9.031   5.252 -0.3218 -0.0752 -0.0792
  266POPC   PO4 3735   1.254   9.081   5.618 -0.0571 -0.2090  0.2926
  266POPC   GL1 3736   1.241   9.198   6.000 -0.0875 -0.0574  0.2664
  266POPC   GL2 3737   1.437   9.462   5.966  0.0768 -0.1038 -0.3372
  266POPC   C1A 3738   1.139   9.295   6.390  0.0453 -0.0128 -0.1001
  266POPC   D2A 3739   1.253   9.539   6.732 -0.1736  0.2889 -0.1604
  266POPC   C3A 3740   0.934   9.412   7.078 -0.1548 -0.1541  0.0436
  266POPC   C4A 3741   0.738   9.576   7.503  0.4230 -0.2316 -0.1575
  266POPC   C1B 3742   1.746   9.217   6.160  0.1901  0.0709 -0.2179
  266POPC   C2B 3743   2.013   9.141   6.601  0.0692  0.3168 -0.1128
  266POPC   C3B 3744   1.888   8.848   6.911  0.0732  0.2146 -0.3373
  266POPC   C4B 3745   1.852   8.714   7.431 -0.2321 -0.0733  0.0934
  267POPC   NC3 3746   5.531   0.686   5.109 -0.0683  0.0745  0.0558
  267POPC   PO4 3747   5.293   1.201   5.108  0.2838  0.0964 -0.2097
  267POPC   GL1 3748   5.546   1.181   5.433  0.1093 -0.3127 -0.1307
  267POPC   GL2 3749   5.499   1.027   5.741  0.0743  0.0963  0.2240
  267POPC   C1A 3750   5.977   1.491   5.551 -0.0113  0.2402 -0.0436
  267POPC   D2A 3751   6.064   1.383   6.007  0.1139 -0.2968 -0.1185
  267POPC   C3A 3752   6.344   1.249   6.323  0.1825 -0.0363  0.5874
  267POPC   C4A 3753   6.261   1.403   6.679  0.1934 -0.0488 -0.1129
  267POPC   C1B 3754   5.404   1.087   6.243 -0.0781 -0.2076  0.1616
  267POPC   C2B 3755   5.674   1.101   6.521  0.1579 -0.0286  0.1593
  267POPC   C3B 3756   6.032   0.988   6.812 -0.1537 -0.0150  0.3661
  267POPC   C4B 3757   6.468   1.027   6.964  0.2045 -0.3775  0.0584
  268POPC   NC3 3758   6.601   6.784   4.887 -0.0554  0.3919  0.0625
  268POPC   PO4 3759   6.249   6.902   5.131 -0.1945  0.1925  0.0345
  268POPC   GL1 3760   5.921   6.929   5.426 -0.1860  0.0719  0.3595
  268POPC   GL2 3761   6.061   6.767   5.584 -0.1070  0.0011 -0.1056
  268POPC   C1A 3762   5.659   7.082   5.850  0.4607  0.0883  0.2123
  268POPC   D2A 3763   5.603   7.135   6.314  0.2379 -0.1319  0.1037
  268POPC   C3A 3764   5.800   7.055   6.692 -0.1138  0.3043 -0.6015
  268POPC   C4A 3765   6.100   6.830   6.966  0.5603  0.0026 -0.1412
  268POPC   C1B 3766   6.117   7.000   5.957 -0.0415  0.3234 -0.0138
  268POPC   C2B 3767   6.244   6.995   6.360  0.0079  0.2645  0.0100
  268POPC   C3B 3768   6.332   7.175   6.736 -0.0927  0.0088 -0.2233
  268POPC   C4B 3769   6.321   7.314   7.163 -0.3165  0.2057  0.1892
  269POPC   NC3 3770   1.675   5.955   4.509 -0.2190  0.3787  0.1316
  269POPC   PO4 3771   1.621   6.283   4.731 -0.2250  0.1914 -0.0114
  269POPC   GL1 3772   1.504   6.379   5.269  0.2154 -0.0963  0.1736
  269POPC   GL2 3773   1.185   6.525   5.414 -0.3037  0.2229 -0.1206
  269POPC   C1A 3774   1.528   6.239   5.640  0.3322  0.0336  0.1398
  269POPC   D2A 3775   1.472   5.965   6.034 -0.1136  0.0270  0.0943
  269POPC   C3A 3776   1.235   5.684   6.409 -0.0497  0.0004 -0.0308
  269POPC   C4A 3777   0.950   5.861   6.647 -0.1183  0.1933  0.0243
  269POPC   C1B 3778   1.208   6.420   5.932  0.2970 -0.4548  0.0735
  269POPC   C2B 3779   1.605   6.383   6.225 -0.2744 -0.2509 -0.1993
  269POPC   C3B 3780   1.929   6.016   6.333  0.0898 -0.0035  0.0998
  269POPC   C4B 3781   2.194   5.834   6.728 -0.1216  0.2853  0.1607
  270POPC   NC3 3782   9.574   3.325   3.865  0.0498  0.2596 -0.0201
  270POPC   PO4 3783   9.286   2.941   4.141 -0.0115  0.1570 -0.2231
  270POPC   GL1 3784   9.018   3.075   4.372  0.1787  0.0789  0.1526
  270POPC   GL2 3785   8.742   2.885   4.336 -0.2650  0.2991 -0.0306
  270POPC   C1A 3786   8.969   3.004   4.814 -0.0289 -0.1963  0.0240
  270POPC   D2A 3787   9.106   3.128   5.285  0.0417  0.1042 -0.2449
  270POPC   C3A 3788   9.491   3.069   5.486 -0.0088  0.1040  0.0992
  270POPC   C4A 3789   9.717   3.400   5.729 -0.0985  0.1981  0.0666
  270POPC   C1B 3790   8.488   2.964   4.691  0.1569  0.2273  0.0747
  270POPC   C2B 3791   8.522   3.123   5.102 -0.3943 -0.0445  0.0268
  270POPC   C3B 3792   8.461   3.356   5.516 -0.1968 -0.1136 -0.0883
  270POPC   C4B 3793   8.560   3.229   5.942 -0.0383 -0.0056 -0.0954
  271POPC   NC3 3794   6.125   5.689   4.962  0.1037  0.0343  0.0284
  271POPC   PO4 3795   5.843   5.446   5.136 -0.1673 -0.1257 -0.2498
  271POPC   GL1 3796   6.183   5.324   5.475 -0.2083  0.0900 -0.0784
  271POPC   GL2 3797   5.916   5.213   5.693 -0.2839  0.0538  0.1853
  271POPC   C1A 3798   6.284   5.424   5.910  0.0506  0.3501 -0.0375
  271POPC   D2A 3799   6.387   5.123   6.271 -0.1457  0.1563  0.2061
  271POPC   C3A 3800   6.819   5.095   6.387  0.2737 -0.0808 -0.1298
  271POPC   C4A 3801   6.911   4.631   6.318 -0.1802 -0.0495  0.1684
  271POPC   C1B 3802   5.881   5.090   6.023 -0.3150  0.1185  0.0110
  271POPC   C2B 3803   5.908   5.120   6.415 -0.2183 -0.0906 -0.3007
  271POPC   C3B 3804   5.994   4.972   6.807 -0.0618 -0.0165  0.0623
  271POPC   C4B 3805   6.045   4.561   7.001  0.1677  0.0732 -0.0420
  272POPC   NC3 3806   8.100   7.951   4.590  0.0334  0.1704 -0.0055
  272POPC   PO4 3807   8.286   7.884   4.922  0.0448  0.2178  0.0277
  272POPC   GL1 3808   8.327   7.689   5.313 -0.2768  0.2372 -0.3002
  272POPC   GL2 3809   7.984   7.423   5.358 -0.1138  0.1439  0.0165
  272POPC   C1A 3810   8.369   7.497   5.693 -0.1964 -0.2476 -0.1968
  272POPC   D2A 3811   8.394   7.380   6.109 -0.3379  0.1874  0.2702
  272POPC   C3A 3812   8.131   7.451   6.407  0.3926 -0.1277 -0.2454
  272POPC   C4A 3813   8.108   7.671   6.752 -0.1096 -0.1559 -0.0126
  272POPC   C1B 3814   7.848   7.414   5.797 -0.2019  0.1872 -0.0385
  272POPC   C2B 3815   8.019   7.107   6.072 -0.1239 -0.0773  0.0226
  272POPC   C3B 3816   8.269   6.938   6.434  0.0771  0.0763  0.0895
  272POPC   C4B 3817   8.195   6.746   6.661  0.0680  0.0067  0.0161
  273POPC   NC3 3818   8.716   3.475   3.660 -0.0778 -0.2743  0.1754
  273POPC   PO4 3819   8.897   3.804   3.677 -0.0498 -0.1003  0.0633
  273POPC   GL1 3820   8.845   3.854   4.041 -0.4434 -0.1969 -0.1024
  273POPC   GL2 3821   9.029   4.105   4.095 -0.0989 -0.2237  0.2453
  273POPC   C1A 3822   9.003   3.684   4.324 -0.1806 -0.3044  0.0241
  273POPC   D2A 3823   9.164   3.592   4.752 -0.2362  0.1744  0.4651
  273POPC   C3A 3824   9.395   3.273   4.790 -0.1971  0.2370  0.1468
  273POPC   C4A 3825   9.686   2.954   5.004 -0.0013 -0.3015 -0.0675
  273POPC   C1B 3826   8.711   4.160   4.436  0.0997 -0.0029  0.2964
  273POPC   C2B 3827   8.344   4.324   4.593  0.0983  0.2115  0.1229
  273POPC   C3B 3828   8.101   4.482   4.898 -0.1528 -0.2007 -0.0063
  273POPC   C4B 3829   8.145   4.446   5.317 -0.1104  0.2164  0.1789
  274POPC   NC3 3830   0.181   7.168   4.567 -0.2150 -0.0672 -0.3182
  274POPC   PO4 3831   0.327   7.033   4.999  0.1253 -0.3659 -0.1250
  274POPC   GL1 3832   0.308   6.929   5.339 -0.0371 -0.2180 -0.2137
  274POPC   GL2 3833   0.386   7.129   5.636 -0.0399  0.0001 -0.1523
  274POPC   C1A 3834   0.248   6.517   5.571 -0.3611 -0.0396 -0.2699
  274POPC   D2A 3835   0.053   6.427   5.864  0.1587 -0.5442  0.1148
  274POPC   C3A 3836   0.266   6.463   6.201 -0.0173 -0.2729  0.1466
  274POPC   C4A 3837   0.178   6.683   6.500  0.0499  0.0503  0.1395
  274POPC   C1B 3838   0.615   7.004   6.021  0.0964  0.2168 -0.0538
  274POPC   C2B 3839   0.704   6.911   6.372  0.1065  0.0804 -0.1230
  274POPC   C3B 3840   0.442   7.051   6.626  0.1097 -0.0876 -0.1292
  274POPC   C4B 3841  -0.012   7.173   6.626 -0.0113 -0.3638  0.1766
  275POPC   NC3 3842   3.531   1.134   5.076 -0.0016  0.0905 -0.2317
  275POPC   PO4 3843   3.921   0.955   4.979 -0.0090 -0.0765 -0.0488
  275POPC   GL1 3844   3.972   0.955   5.412  0.1557  0.3209 -0.1266
  275POPC   GL2 3845   4.187   1.207   5.534 -0.2120 -0.0277  0.1813
  275POPC   C1A 3846   3.890   0.547   5.652 -0.1168 -0.0476 -0.0015
  275POPC   D2A 3847   4.115   0.475   6.029  0.0969 -0.1239 -0.0396
  275POPC   C3A 3848   4.288   0.442   6.455 -0.0740 -0.1447  0.2214
  275POPC   C4A 3849   4.167   0.259   6.862  0.1503  0.1753 -0.3501
  275POPC   C1B 3850   3.895   1.031   5.911 -0.0590 -0.2169 -0.2029
  275POPC   C2B 3851   3.842   0.915   6.267 -0.4375  0.3195 -0.0780
  275POPC   C3B 3852   3.846   0.722   6.638  0.0617 -0.1914  0.0942
  275POPC   C4B 3853   3.751   0.860   7.153  0.0059 -0.0021  0.0560
  276POPC   NC3 3854   6.053   6.443   5.162  0.3575 -0.1057 -0.0278
  276POPC   PO4 3855   6.372   6.069   5.181 -0.0633 -0.1024 -0.1556
  276POPC   GL1 3856   6.255   6.263   5.591  0.1049  0.1894  0.4088
  276POPC   GL2 3857   5.845   6.269   5.562  0.1402  0.2192 -0.1153
  276POPC   C1A 3858   6.372   6.032   6.009 -0.0040 -0.2457  0.1769
  276POPC   D2A 3859   6.364   5.728   6.334 -0.1207  0.1893  0.1204
  276POPC   C3A 3860   6.643   5.553   6.587  0.0757  0.2266 -0.0312
  276POPC   C4A 3861   6.947   5.288   6.838  0.1343 -0.1468  0.0058
  276POPC   C1B 3862   5.826   6.192   6.024  0.1136 -0.0347 -0.0410
  276POPC   C2B 3863   5.514   6.155   6.294 -0.2907 -0.1755 -0.0537
  276POPC   C3B 3864   5.275   6.036   6.572  0.1416  0.0178 -0.2132
  276POPC   C4B 3865   5.029   5.968   6.914 -0.4936  0.0293 -0.3023
  277POPC   NC3 3866   5.794   0.303   4.625 -0.2729 -0.2480 -0.0482
  277POPC   PO4 3867   5.998   0.314   4.978 -0.1991 -0.2547  0.2668
  277POPC   GL1 3868   5.922   0.357   5.491 -0.1777 -0.0753  0.0960
  277POPC   GL2 3869   5.849   0.695   5.492  0.1001 -0.1180  0.1173
  277POPC   C1A 3870   6.267   0.631   5.788 -0.1759 -0.1847  0.0071
  277POPC   D2A 3871   6.612   0.887   6.060 -0.1412  0.1448 -0.1310
  277POPC   C3A 3872   6.612   0.922   6.474 -0.3716  0.1399  0.1887
  277POPC   C4A 3873   6.758   0.711   6.824  0.1020 -0.0662  0.2403
  277POPC   C1B 3874   5.554   0.539   5.825  0.2356  0.1185  0.0680
  277POPC   C2B 3875   5.880   0.722   6.126 -0.1192  0.1589  0.1594
  277POPC   C3B 3876   6.174   0.637   6.404  0.2678  0.1427  0.0552
  277POPC   C4B 3877   6.135   0.462   6.834  0.2390  0.3155 -0.0041
  278POPC   NC3 3878   8.829   9.619   5.568  0.1449  0.1157 -0.0535
  278POPC   PO4 3879   9.174   9.509   5.271 -0.1039 -0.0613  0.1915
  278POPC   GL1 3880   9.194   9.222   5.636  0.1039  0.1439  0.1753
  278POPC   GL2 3881   9.456   9.335   5.695 -0.0977 -0.1838  0.1568
  278POPC   C1A 3882   9.181   9.208   6.190  0.2441 -0.3363 -0.1828
  278POPC   D2A 3883   9.264   8.791   6.390  0.2488  0.1775 -0.0763
  278POPC   C3A 3884   8.842   8.604   6.510 -0.0877  0.0957  0.2524
  278POPC   C4A 3885   8.383   8.643   6.430 -0.0625  0.0170 -0.0716
  278POPC   C1B 3886   9.733   9.111   6.016 -0.0023 -0.5039 -0.2497
  278POPC   C2B 3887   9.709   9.241   6.564  0.1493  0.0391 -0.0591
  278POPC   C3B 3888   9.471   8.967   6.892  0.2800 -0.0061  0.2011
  278POPC   C4B 3889   9.220   9.046   7.130 -0.1386 -0.0806  0.0205
  279POPC   NC3 3890   8.699   8.376   5.548 -0.1174  0.1004  0.2043
  279POPC   PO4 3891   8.336   8.642   5.695 -0.2064 -0.4471  0.0262
  279POPC   GL1 3892   8.194   8.366   6.051 -0.3478 -0.3417 -0.0256
  279POPC   GL2 3893   7.870   8.416   6.278  0.3539  0.3615  0.2858
  279POPC   C1A 3894   8.308   8.145   6.515  0.3164  0.0553 -0.1169
  279POPC   D2A 3895   8.595   8.243   6.722  0.0078  0.1719 -0.0622
  279POPC   C3A 3896   8.746   8.049   7.010  0.0216  0.3872  0.0854
  279POPC   C4A 3897   9.100   7.966   7.183  0.0075  0.0673  0.1806
  279POPC   C1B 3898   7.844   8.185   6.593  0.3516  0.1046  0.0712
  279POPC   C2B 3899   7.958   8.127   6.961 -0.3106  0.1721  0.1520
  279POPC   C3B 3900   7.948   7.822   7.415  0.0452 -0.0740 -0.1009
  279POPC   C4B 3901   7.987   7.502   7.713 -0.3368 -0.0084  0.3210
  280POPC   NC3 3902   9.510   1.108   4.251 -0.1070 -0.1097  0.0003
  280POPC   PO4 3903   9.710   1.174   4.673 -0.1158 -0.0185 -0.3281
  280POPC   GL1 3904   9.994   1.393   4.913  0.1207 -0.2182  0.0249
  280POPC   GL2 3905  10.178   1.269   5.000 -0.0954 -0.2561 -0.1052
  280POPC   C1A 3906   9.999   1.551   5.334  0.0910 -0.0857 -0.1003
  280POPC   D2A 3907   9.917   1.979   5.497  0.2744  0.2038 -0.1766
  280POPC   C3A 3908   9.820   2.079   5.845 -0.1214 -0.1781  0.0723
  280POPC   C4A 3909   9.797   2.266   6.282 -0.0790 -0.0545 -0.1189
  280POPC   C1B 3910  10.088   1.063   5.502 -0.0080  0.0803 -0.1231
  280POPC   C2B 3911  10.284   1.162   5.858  0.1695 -0.1995 -0.1690
  280POPC   C3B 3912  10.423   1.170   6.298 -0.0649  0.1518  0.1952
  280POPC   C4B 3913  10.451   1.451   6.654  0.2025 -0.0754 -0.0351
  281POPC   NC3 3914   0.860   7.865   5.099 -0.0230  0.0923  0.0324
  281POPC   PO4 3915   0.843   8.048   5.495 -0.0924 -0.0475 -0.0793
  281POPC   GL1 3916   0.953   7.896   5.866 -0.0333 -0.2516  0.0016
  281POPC   GL2 3917   0.729   8.014   6.074 -0.0914  0.0459 -0.0176
  281POPC   C1A 3918   1.329   7.733   5.989  0.0757  0.0803  0.1179
  281POPC   D2A 3919   1.679   7.495   5.903 -0.0002  0.0645 -0.0034
  281POPC   C3A 3920   1.982   7.242   6.139 -0.0821  0.2900  0.1243
  281POPC   C4A 3921   1.803   6.813   6.366  0.0449  0.1067  0.0765
  281POPC   C1B 3922   0.753   7.821   6.502 -0.0151 -0.1206 -0.0697
  281POPC   C2B 3923   0.800   8.008   6.932  0.1428 -0.1122 -0.0113
  281POPC   C3B 3924   1.033   8.083   7.289 -0.1372 -0.2338  0.2079
  281POPC   C4B 3925   1.173   8.200   7.725 -0.1615  0.0032 -0.2431
  282POPC   NC3 3926   7.338   1.281   4.835  0.0905 -0.0437  0.0112
  282POPC   PO4 3927   7.650   0.991   4.954  0.2007  0.2955 -0.0671
  282POPC   GL1 3928   7.632   1.130   5.280 -0.1059  0.1564 -0.1046
  282POPC   GL2 3929   7.326   1.186   5.320 -0.1049  0.0175  0.0174
  282POPC   C1A 3930   7.864   1.341   5.648 -0.1888  0.1349 -0.3238
  282POPC   D2A 3931   7.926   1.640   5.949 -0.1353  0.1883  0.1107
  282POPC   C3A 3932   7.979   1.553   6.330  0.1764  0.1568 -0.0611
  282POPC   C4A 3933   8.102   1.518   6.703 -0.0715 -0.0265 -0.0345
  282POPC   C1B 3934   7.347   1.353   5.750  0.4591 -0.0362 -0.3794
  282POPC   C2B 3935   7.400   1.328   6.154 -0.0448 -0.0449 -0.0772
  282POPC   C3B 3936   7.660   1.211   6.545 -0.0472  0.1075  0.0969
  282POPC   C4B 3937   7.680   1.259   6.989  0.0189  0.1076  0.1250
  283POPC   NC3 3938   8.651   7.551   4.897  0.1752  0.2209 -0.0473
  283POPC   PO4 3939   9.113   7.433   4.795  0.4195 -0.1882  0.2317
  283POPC   GL1 3940   9.070   7.028   5.110 -0.2558  0.0509 -0.1082
  283POPC   GL2 3941   9.333   6.803   5.104  0.2735  0.0491  0.2477
  283POPC   C1A 3942   9.000   6.799   5.517  0.1686  0.0978  0.2572
  283POPC   D2A 3943   8.924   6.629   5.853 -0.1035  0.0396  0.2710
  283POPC   C3A 3944   8.559   6.289   5.933 -0.1758  0.2599 -0.2139
  283POPC   C4A 3945   8.144   6.067   5.917  0.2655  0.0384  0.0578
  283POPC   C1B 3946   9.342   6.461   5.366 -0.0167 -0.1827  0.1528
  283POPC   C2B 3947   9.439   6.444   5.792  0.1326  0.0961 -0.0894
  283POPC   C3B 3948   9.380   6.527   6.214  0.4500  0.0535 -0.0282
  283POPC   C4B 3949   9.149   6.574   6.587 -0.0443 -0.4514 -0.0189
  284POPC   NC3 3950   5.091   1.747   5.043  0.0439  0.0705  0.0605
  284POPC   PO4 3951   4.649   1.706   5.097  0.4057 -0.0265  0.2784
  284POPC   GL1 3952   4.662   1.898   5.531 -0.0842  0.0708  0.1598
  284POPC   GL2 3953   4.613   1.673   5.774  0.0229 -0.1689  0.2672
  284POPC   C1A 3954   4.370   2.100   5.765 -0.1275  0.1040  0.0457
  284POPC   D2A 3955   4.162   1.988   6.127  0.3735  0.0612 -0.3401
  284POPC   C3A 3956   4.010   1.592   6.347  0.5009 -0.0174 -0.1481
  284POPC   C4A 3957   3.705   1.410   6.252  0.0675  0.4240  0.1827
  284POPC   C1B 3958   4.682   1.859   6.116 -0.0842  0.1006  0.3502
  284POPC   C2B 3959   4.969   2.038   6.318  0.0470 -0.1865  0.0885
  284POPC   C3B 3960   5.340   2.172   6.082  0.0063 -0.2347 -0.2127
  284POPC   C4B 3961   5.751   2.337   6.162 -0.0050 -0.3685 -0.0436
  285POPC   NC3 3962   7.353   8.608   5.333 -0.0034 -0.0369  0.0189
  285POPC   PO4 3963   7.456   8.137   5.352 -0.1216 -0.5061 -0.0008
  285POPC   GL1 3964   7.596   7.982   5.727 -0.0929 -0.2522  0.0673
  285POPC   GL2 3965   7.918   7.880   5.720  0.2374  0.0025  0.2108
  285POPC   C1A 3966   7.455   7.673   5.966  0.0532  0.1607 -0.2149
  285POPC   D2A 3967   6.963   7.654   6.018 -0.0077 -0.0709 -0.1069
  285POPC   C3A 3968   6.663   7.883   6.255  0.1426  0.0847 -0.7044
  285POPC   C4A 3969   6.550   8.340   6.442 -0.0532 -0.1813  0.1102
  285POPC   C1B 3970   7.979   7.867   6.098  0.0091  0.2290 -0.0508
  285POPC   C2B 3971   7.714   7.695   6.429  0.0570  0.3344 -0.0510
  285POPC   C3B 3972   7.563   7.672   6.874  0.1917  0.0131 -0.1826
  285POPC   C4B 3973   7.455   7.676   7.288  0.2409 -0.0172 -0.0393
  286POPC   NC3 3974   4.917   7.438   4.722  0.1411  0.1689  0.0188
  286POPC   PO4 3975   5.037   7.531   5.173  0.2929 -0.0588 -0.0405
  286POPC   GL1 3976   4.911   7.287   5.626  0.2276 -0.2091 -0.0777
  286POPC   GL2 3977   4.611   7.019   5.530  0.1974 -0.1001 -0.5406
  286POPC   C1A 3978   4.622   7.218   6.021  0.1679  0.3588  0.2870
  286POPC   D2A 3979   4.449   7.342   6.324  0.3251  0.2182  0.1310
  286POPC   C3A 3980   4.701   7.176   6.721 -0.1875 -0.1218 -0.0851
  286POPC   C4A 3981   4.601   7.180   7.130  0.0883  0.1014  0.0722
  286POPC   C1B 3982   4.421   6.779   5.794  0.0383  0.0473 -0.1210
  286POPC   C2B 3983   3.932   6.672   5.857 -0.1309  0.0652 -0.1724
  286POPC   C3B 3984   3.660   6.545   6.149  0.0521 -0.1371  0.0204
  286POPC   C4B 3985   3.355   6.585   6.502  0.2501 -0.0051 -0.3491
  287POPC   NC3 3986   4.112   1.598   5.181  0.0772 -0.0494  0.2334
  287POPC   PO4 3987   3.576   1.664   5.144  0.0856  0.0606  0.0342
  287POPC   GL1 3988   3.791   1.578   5.623  0.0684  0.2923  0.4026
  287POPC   GL2 3989   4.099   1.685   5.718 -0.0930  0.1782 -0.1771
  287POPC   C1A 3990   3.494   1.156   5.768  0.0204 -0.1008  0.2747
  287POPC   D2A 3991   3.030   0.927   5.816 -0.3639  0.1225  0.1005
  287POPC   C3A 3992   2.828   1.020   6.360 -0.3644  0.1929 -0.2556
  287POPC   C4A 3993   2.814   1.153   6.751  0.0651 -0.1481  0.2407
  287POPC   C1B 3994   4.308   1.330   6.011 -0.1020  0.2594  0.0515
  287POPC   C2B 3995   4.529   1.376   6.412 -0.1746 -0.1220 -0.0808
  287POPC   C3B 3996   4.260   1.535   6.762  0.1411  0.0355  0.1109
  287POPC   C4B 3997   3.909   1.593   7.075 -0.2499  0.0567 -0.0384
  288POPC   NC3 3998   2.250   9.095   5.625  0.1429 -0.3327 -0.0945
  288POPC   PO4 3999   2.562   8.970   5.836  0.4367  0.0057 -0.0315
  288POPC   GL1 4000   2.586   8.765   6.193 -0.0643  0.2202  0.1369
  288POPC   GL2 4001   2.745   8.574   6.161 -0.1731  0.1513 -0.1011
  288POPC   C1A 4002   2.406   8.679   6.546  0.2333 -0.0054 -0.0510
  288POPC   D2A 4003   2.316   8.397   6.891 -0.1252 -0.2559  0.0043
  288POPC   C3A 4004   1.905   8.347   6.983 -0.1635  0.0639  0.1088
  288POPC   C4A 4005   1.421   8.358   6.835 -0.4928  0.2827  0.0207
  288POPC   C1B 4006   2.332   8.304   6.136  0.3939  0.0559  0.0118
  288POPC   C2B 4007   2.002   8.288   6.436 -0.0460 -0.2265  0.0177
  288POPC   C3B 4008   1.718   8.000   6.595 -0.1179 -0.2035  0.3844
  288POPC   C4B 4009   1.357   7.791   6.525 -0.0468  0.0761 -0.0941
  289POPC   NC3 4010   3.173   3.087   5.020  0.0044 -0.3200 -0.0854
  289POPC   PO4 4011   2.875   3.451   4.945 -0.0488  0.0825  0.0341
  289POPC   GL1 4012   3.028   3.423   5.378  0.1003  0.1745  0.3496
  289POPC   GL2 4013   2.874   3.061   5.510 -0.3905 -0.0921 -0.0597
  289POPC   C1A 4014   2.971   3.716   5.732 -0.0762 -0.1238 -0.0354
  289POPC   D2A 4015   2.770   3.836   6.069  0.0181 -0.1859 -0.2488
  289POPC   C3A 4016   3.039   3.904   6.407  0.0783  0.0603  0.1425
  289POPC   C4A 4017   3.245   3.828   6.760  0.1465 -0.1467  0.2367
  289POPC   C1B 4018   3.027   2.973   5.965 -0.1443  0.1289 -0.2858
  289POPC   C2B 4019   3.291   2.819   6.331  0.2863 -0.0048  0.1081
  289POPC   C3B 4020   3.731   2.794   6.604 -0.2617 -0.2101  0.1353
  289POPC   C4B 4021   4.091   3.212   6.532  0.0974 -0.1515  0.0922
  290POPC   NC3 4022   6.230   2.388   4.483 -0.1892  0.3762 -0.1423
  290POPC   PO4 4023   6.336   2.080   4.770  0.2050 -0.2541 -0.0898
  290POPC   GL1 4024   6.434   2.281   5.141 -0.0738  0.0734  0.1635
  290POPC   GL2 4025   6.761   2.219   5.198  0.1921 -0.1926  0.0298
  290POPC   C1A 4026   6.492   2.489   5.614  0.0553 -0.3642  0.1386
  290POPC   D2A 4027   6.644   2.628   6.060 -0.2587 -0.1086  0.0274
  290POPC   C3A 4028   7.033   2.770   6.168 -0.1223 -0.0012 -0.1041
  290POPC   C4A 4029   7.401   2.762   5.828  0.0894 -0.1798 -0.1224
  290POPC   C1B 4030   6.721   2.079   5.602  0.1210  0.3157  0.0517
  290POPC   C2B 4031   6.795   2.110   6.030 -0.0223  0.0726 -0.4116
  290POPC   C3B 4032   6.975   1.942   6.441 -0.2822  0.0847  0.2765
  290POPC   C4B 4033   7.076   1.838   6.942 -0.0436 -0.0751  0.1387
  291POPC   NC3 4034   6.853   5.977   4.435  0.0664  0.2024 -0.1974
  291POPC   PO4 4035   6.550   5.855   4.700 -0.4193 -0.3249  0.1770
  291POPC   GL1 4036   6.848   5.991   5.044 -0.2189  0.1698 -0.0551
  291POPC   GL2 4037   6.823   6.384   5.105 -0.1056  0.0201  0.1448
  291POPC   C1A 4038   7.323   5.803   5.168 -0.0225 -0.2457  0.0642
  291POPC   D2A 4039   7.655   5.575   5.373 -0.0805 -0.2094 -0.1636
  291POPC   C3A 4040   7.619   5.289   5.686 -0.0920  0.1535 -0.0096
  291POPC   C4A 4041   7.599   5.340   6.089  0.0597 -0.0248  0.1242
  291POPC   C1B 4042   6.981   6.145   5.559 -0.0541  0.0022 -0.3030
  291POPC   C2B 4043   6.890   6.171   5.965 -0.0504  0.0200  0.0011
  291POPC   C3B 4044   6.732   6.035   6.393 -0.1487  0.1433  0.2198
  291POPC   C4B 4045   6.492   5.988   6.733 -0.1488 -0.3607  0.1768
  292POPC   NC3 4046   6.917   9.952   5.064 -0.0513  0.4225  0.1220
  292POPC   PO4 4047   7.041  10.393   5.120  0.4761  0.1532  0.2509
  292POPC   GL1 4048   6.723  10.243   5.430  0.2682  0.0210  0.3918
  292POPC   GL2 4049   6.958  10.064   5.627  0.1453 -0.0696 -0.0994
  292POPC   C1A 4050   6.324  10.269   5.678  0.0185 -0.3687  0.0200
  292POPC   D2A 4051   6.075  10.410   6.008 -0.2075  0.0049  0.3052
  292POPC   C3A 4052   6.042  10.279   6.429  0.2340  0.0259  0.0806
  292POPC   C4A 4053   6.108  10.030   6.816 -0.1034  0.0784  0.0156
  292POPC   C1B 4054   7.086  10.284   6.052 -0.2395 -0.0118 -0.3365
  292POPC   C2B 4055   7.153  10.545   6.484  0.1608  0.0318 -0.3322
  292POPC   C3B 4056   7.250  10.651   6.934 -0.3320 -0.2759  0.0327
  292POPC   C4B 4057   7.357  11.025   7.217  0.0595  0.1136 -0.1287
  293POPC   NC3 4058   6.921   5.832   3.946 -0.0390 -0.0024 -0.0859
  293POPC   PO4 4059   7.285   5.933   4.041 -0.0108 -0.0378 -0.0794
  293POPC   GL1 4060   7.423   6.027   4.366  0.0281  0.2644 -0.2094
  293POPC   GL2 4061   7.699   6.141   4.357 -0.1875  0.0774 -0.0971
  293POPC   C1A 4062   7.259   6.222   4.835  0.0717 -0.3897  0.0132
  293POPC   D2A 4063   7.263   6.302   5.220  0.1583  0.0984 -0.4894
  293POPC   C3A 4064   7.727   6.579   5.360  0.0485 -0.3270  0.5190
  293POPC   C4A 4065   7.946   6.926   5.467  0.0116  0.4399 -0.3331
  293POPC   C1B 4066   7.939   6.098   4.754  0.1737 -0.1234  0.1424
  293POPC   C2B 4067   8.024   6.289   5.121  0.0019 -0.0369 -0.3686
  293POPC   C3B 4068   7.876   6.053   5.437  0.2296 -0.0364 -0.1656
  293POPC   C4B 4069   7.689   5.906   5.707 -0.0189  0.0442  0.3384
  294POPC   NC3 4070   8.434   9.963   5.334 -0.0420 -0.0282 -0.3232
  294POPC   PO4 4071   8.437  10.325   5.277  0.2061 -0.0707 -0.1830
  294POPC   GL1 4072   8.382  10.437   5.690 -0.0674 -0.1834 -0.1391
  294POPC   GL2 4073   8.321  10.163   5.921  0.0688  0.1808  0.2000
  294POPC   C1A 4074   8.170  10.677   6.109  0.0454  0.3688 -0.0208
  294POPC   D2A 4075   8.047  10.719   6.472 -0.1021  0.0221  0.2383
  294POPC   C3A 4076   8.133  10.563   6.921 -0.0245  0.2133  0.1993
  294POPC   C4A 4077   7.817  10.607   7.194 -0.0986 -0.0672  0.0760
  294POPC   C1B 4078   8.008  10.170   6.305 -0.1881 -0.3102  0.0747
  294POPC   C2B 4079   7.719  10.268   6.688 -0.2244 -0.0773  0.0474
  294POPC   C3B 4080   7.423  10.206   7.093  0.0734  0.4430 -0.2334
  294POPC   C4B 4081   7.565  10.225   7.578  0.0411  0.3614  0.0671
  295POPC   NC3 4082   1.395   0.712   5.006  0.2889  0.2388 -0.2406
  295POPC   PO4 4083   1.810   0.825   5.265 -0.0316 -0.0505  0.1744
  295POPC   GL1 4084   1.696   0.920   5.769  0.0396  0.2042 -0.1335
  295POPC   GL2 4085   1.832   0.873   6.052 -0.1668  0.2738 -0.3656
  295POPC   C1A 4086   1.768   1.396   5.965 -0.2517  0.2822  0.2490
  295POPC   D2A 4087   1.582   1.662   6.233 -0.1144 -0.0250  0.0977
  295POPC   C3A 4088   1.524   1.634   6.674  0.2881 -0.1886 -0.0448
  295POPC   C4A 4089   1.423   1.843   7.097  0.2366 -0.2403 -0.3044
  295POPC   C1B 4090   1.829   0.681   6.418 -0.3820  0.0792 -0.0191
  295POPC   C2B 4091   1.965   0.603   6.850  0.0019  0.4732  0.0755
  295POPC   C3B 4092   1.902   0.197   7.125 -0.6326  0.2412 -0.1137
  295POPC   C4B 4093   1.629  -0.136   7.005  0.4620 -0.3752  0.1571
  296POPC   NC3 4094   3.763   3.176   5.439 -0.0774 -0.1429 -0.2016
  296POPC   PO4 4095   3.384   2.895   5.441 -0.0084  0.0202  0.0928
  296POPC   GL1 4096   3.440   2.638   5.784  0.0519 -0.0411 -0.0938
  296POPC   GL2 4097   3.652   2.799   5.948  0.0866 -0.2147  0.4605
  296POPC   C1A 4098   3.399   2.397   5.972 -0.1263  0.1592 -0.0862
  296POPC   D2A 4099   3.342   2.336   6.486  0.0312  0.0150 -0.1686
  296POPC   C3A 4100   3.175   2.235   6.850 -0.1069 -0.1437  0.0753
  296POPC   C4A 4101   3.123   2.371   7.308  0.1535 -0.0640  0.1414
  296POPC   C1B 4102   3.622   3.157   6.299 -0.0298 -0.1374 -0.2277
  296POPC   C2B 4103   3.311   3.302   6.629  0.1006  0.3813 -0.0423
  296POPC   C3B 4104   2.846   3.186   6.965 -0.1272  0.0093 -0.1461
  296POPC   C4B 4105   2.845   2.968   7.435 -0.4181  0.1396 -0.2615
  297POPC   NC3 4106   6.989   1.881   4.219 -0.0129 -0.1878  0.1097
  297POPC   PO4 4107   7.220   1.701   4.594  0.2506  0.0397 -0.0411
  297POPC   GL1 4108   6.952   1.755   4.968 -0.0828  0.1291  0.1512
  297POPC   GL2 4109   6.618   1.613   5.100 -0.0460  0.1395  0.2200
  297POPC   C1A 4110   7.055   1.696   5.411 -0.1243  0.0219  0.0120
  297POPC   D2A 4111   6.965   1.681   5.852 -0.0857 -0.3630 -0.0987
  297POPC   C3A 4112   7.280   1.849   6.074 -0.1345 -0.1157  0.0115
  297POPC   C4A 4113   7.466   1.739   6.387 -0.2309 -0.0431 -0.2485
  297POPC   C1B 4114   6.528   1.589   5.513  0.1138  0.0616 -0.0813
  297POPC   C2B 4115   6.445   1.725   6.033  0.3640  0.0031  0.0799
  297POPC   C3B 4116   6.557   1.668   6.371 -0.1263  0.0694  0.1114
  297POPC   C4B 4117   6.513   1.829   6.855  0.1963  0.5074  0.1139
  298POPC   NC3 4118   1.181   3.678   4.140  0.3187  0.0106 -0.0778
  298POPC   PO4 4119   1.121   3.173   4.390 -0.1201  0.3509 -0.0999
  298POPC   GL1 4120   1.116   3.371   4.803  0.0033  0.0951 -0.0983
  298POPC   GL2 4121   0.788   3.359   4.727 -0.0081  0.0669  0.1799
  298POPC   C1A 4122   1.052   3.761   5.086  0.0353  0.3206  0.1871
  298POPC   D2A 4123   0.932   3.823   5.415  0.0135 -0.3496 -0.0057
  298POPC   C3A 4124   0.554   3.958   5.539 -0.1228 -0.1368  0.2878
  298POPC   C4A 4125   0.262   4.299   5.712 -0.0523  0.1333 -0.0448
  298POPC   C1B 4126   0.693   3.185   5.123  0.1585  0.1552  0.1488
  298POPC   C2B 4127   0.586   2.899   5.462 -0.1261 -0.0701  0.1031
  298POPC   C3B 4128   0.608   2.964   5.886  0.0634  0.1717  0.1794
  298POPC   C4B 4129   0.787   2.947   6.292 -0.3781 -0.2636 -0.0904
  299POPC   NC3 4130   2.711   7.928   5.465  0.1713 -0.0429 -0.3379
  299POPC   PO4 4131   2.216   7.907   5.426 -0.2580  0.1941  0.2998
  299POPC   GL1 4132   2.373   7.843   5.853  0.1528 -0.2902  0.1901
  299POPC   GL2 4133   2.682   7.774   5.931  0.0119  0.1779 -0.0592
  299POPC   C1A 4134   2.039   7.772   6.278  0.1731  0.2621  0.3752
  299POPC   D2A 4135   1.873   7.538   6.599  0.2041  0.2729  0.1506
  299POPC   C3A 4136   1.717   7.687   6.964  0.1268  0.0601  0.0927
  299POPC   C4A 4137   1.883   7.672   7.415  0.4509  0.2458 -0.0882
  299POPC   C1B 4138   2.488   7.774   6.316  0.1587 -0.3140 -0.0087
  299POPC   C2B 4139   2.355   7.950   6.583 -0.0575 -0.0556  0.0963
  299POPC   C3B 4140   2.678   8.276   6.539  0.0790  0.0590 -0.0502
  299POPC   C4B 4141   2.889   8.665   6.589  0.2100 -0.2021 -0.2916
  300POPC   NC3 4142   4.089   9.220   4.952  0.0237  0.0464  0.2699
  300POPC   PO4 4143   4.221   9.585   4.905  0.0062  0.0254  0.1983
  300POPC   GL1 4144   4.242   9.626   5.330 -0.0729 -0.2173  0.2780
  300POPC   GL2 4145   4.526   9.754   5.385 -0.0499  0.1062  0.0366
  300POPC   C1A 4146   4.055   9.597   5.660  0.3191 -0.1151 -0.0248
  300POPC   D2A 4147   3.936   9.584   6.116  0.2138  0.2864  0.2298
  300POPC   C3A 4148   3.949  10.050   6.421 -0.1096 -0.0373  0.0693
  300POPC   C4A 4149   3.755  10.438   6.432 -0.4103  0.0607 -0.0222
  300POPC   C1B 4150   4.494   9.639   5.881  0.1717 -0.1130 -0.2899
  300POPC   C2B 4151   4.459   9.676   6.303 -0.2345 -0.1447 -0.2681
  300POPC   C3B 4152   4.217   9.715   6.712  0.0571  0.0930 -0.0587
  300POPC   C4B 4153   3.993   9.916   7.120  0.3552  0.1985  0.2070
  301POPC   NC3 4154   3.633   5.306   4.353 -0.2774 -0.2142 -0.0668
  301POPC   PO4 4155   3.644   5.337   4.797  0.2117  0.1138 -0.0333
  301POPC   GL1 4156   3.755   5.077   5.343 -0.1183  0.1271 -0.1967
  301POPC   GL2 4157   3.713   4.681   5.539 -0.0021 -0.0963 -0.1832
  301POPC   C1A 4158   3.765   5.134   5.739  0.1181 -0.2513  0.0766
  301POPC   D2A 4159   3.839   5.061   6.126 -0.0824  0.1282  0.0422
  301POPC   C3A 4160   3.649   5.237   6.383  0.0182 -0.2305 -0.2047
  301POPC   C4A 4161   3.448   4.959   6.698  0.3086  0.3193 -0.1041
  301POPC   C1B 4162   3.448   4.674   5.855  0.1589 -0.0653  0.0060
  301POPC   C2B 4163   3.471   4.721   6.258 -0.2010 -0.2218 -0.0262
  301POPC   C3B 4164   3.307   4.366   6.655  0.1637 -0.5046  0.2659
  301POPC   C4B 4165   3.072   4.232   6.988 -0.0674  0.1615  0.0443
  302POPC   NC3 4166   5.732   2.653   4.490 -0.1563  0.0347  0.3879
  302POPC   PO4 4167   5.725   2.146   4.637  0.1373 -0.0052  0.2440
  302POPC   GL1 4168   5.928   2.356   4.946 -0.0990 -0.2205  0.2074
  302POPC   GL2 4169   5.981   2.061   5.189  0.0146 -0.2312 -0.2170
  302POPC   C1A 4170   5.975   2.507   5.412 -0.2536  0.0526  0.0934
  302POPC   D2A 4171   5.836   2.666   5.716 -0.2387 -0.1526 -0.1010
  302POPC   C3A 4172   5.528   2.610   5.811  0.2752 -0.0456 -0.1262
  302POPC   C4A 4173   5.326   3.033   5.850  0.2754  0.1795  0.2171
  302POPC   C1B 4174   6.200   1.967   5.606 -0.0627 -0.0963 -0.0499
  302POPC   C2B 4175   6.286   2.190   5.916  0.0716  0.4380 -0.4473
  302POPC   C3B 4176   6.540   2.211   6.417 -0.2824 -0.2132 -0.1539
  302POPC   C4B 4177   6.674   2.348   6.744  0.4998 -0.4609  0.3705
  303POPC   NC3 4178   7.516   4.124   4.150  0.1447 -0.1592 -0.0981
  303POPC   PO4 4179   7.684   3.658   4.130  0.3465 -0.0826 -0.2148
  303POPC   GL1 4180   7.701   3.770   4.462  0.1905 -0.1043 -0.2229
  303POPC   GL2 4181   7.831   4.062   4.586 -0.2243 -0.0933 -0.2519
  303POPC   C1A 4182   7.633   3.626   4.797 -0.1686 -0.3522 -0.0098
  303POPC   D2A 4183   7.498   3.743   5.210  0.1768  0.2224  0.3107
  303POPC   C3A 4184   7.445   3.357   5.486  0.2285 -0.1587  0.1116
  303POPC   C4A 4185   7.709   3.071   5.575 -0.1122  0.0351  0.1144
  303POPC   C1B 4186   7.996   3.986   5.012  0.1746  0.0202 -0.1441
  303POPC   C2B 4187   7.887   3.931   5.457 -0.0504 -0.1343 -0.2204
  303POPC   C3B 4188   7.985   4.200   5.763 -0.0724  0.0336 -0.1541
  303POPC   C4B 4189   8.310   4.050   6.121 -0.0841  0.1690 -0.0422
  304POPC   NC3 4190   6.112   1.661   4.858 -0.0574  0.0265  0.2687
  304POPC   PO4 4191   5.590   1.799   4.999  0.1755  0.1511  0.0670
  304POPC   GL1 4192   5.527   1.738   5.435 -0.1946 -0.2015 -0.0710
  304POPC   GL2 4193   5.208   1.523   5.458  0.3822  0.1248  0.1828
  304POPC   C1A 4194   5.498   1.517   5.915  0.0164  0.0830  0.0399
  304POPC   D2A 4195   5.600   1.621   6.369 -0.0032  0.0460  0.1173
  304POPC   C3A 4196   5.557   2.095   6.539  0.2001 -0.0171 -0.1958
  304POPC   C4A 4197   5.592   2.529   6.623  0.1589  0.1947 -0.3157
  304POPC   C1B 4198   5.032   1.276   5.759 -0.2041 -0.2547 -0.1077
  304POPC   C2B 4199   4.832   1.068   6.063 -0.0558 -0.1810 -0.0002
  304POPC   C3B 4200   4.744   0.848   6.460  0.1775  0.4638 -0.4929
  304POPC   C4B 4201   4.711   1.187   6.876  0.0302 -0.0962 -0.1775
  305POPC   NC3 4202   2.601   7.175   5.160 -0.0266  0.0212  0.2829
  305POPC   PO4 4203   3.128   7.090   5.126 -0.0622  0.3594  0.0634
  305POPC   GL1 4204   3.371   7.241   5.547 -0.0744  0.1414 -0.0275
  305POPC   GL2 4205   3.727   7.196   5.634 -0.0982 -0.4479 -0.1666
  305POPC   C1A 4206   3.417   7.129   5.979 -0.1371  0.2521 -0.1873
  305POPC   D2A 4207   3.601   7.055   6.396 -0.2049  0.0319  0.1450
  305POPC   C3A 4208   3.798   6.701   6.722  0.1589  0.0414 -0.2164
  305POPC   C4A 4209   4.136   6.373   6.682 -0.2805 -0.2785  0.2797
  305POPC   C1B 4210   3.742   7.450   6.104 -0.0129 -0.3626  0.0414
  305POPC   C2B 4211   3.842   7.507   6.568  0.1798  0.0959 -0.0731
  305POPC   C3B 4212   3.708   7.184   6.873 -0.3791 -0.1501 -0.1583
  305POPC   C4B 4213   3.651   6.896   7.235 -0.2012 -0.0372 -0.1030
  306POPC   NC3 4214   1.126   6.602   4.919  0.1516 -0.1570  0.2580
  306POPC   PO4 4215   1.276   6.959   5.163  0.0355 -0.1150  0.1735
  306POPC   GL1 4216   1.153   7.046   5.587  0.0444  0.2799  0.0642
  306POPC   GL2 4217   0.921   7.348   5.717  0.1278 -0.0038  0.0732
  306POPC   C1A 4218   1.080   6.865   6.012 -0.0803 -0.1989  0.2702
  306POPC   D2A 4219   1.307   6.890   6.451 -0.1106 -0.0162 -0.1652
  306POPC   C3A 4220   1.497   6.557   6.695 -0.1913 -0.0786  0.0449
  306POPC   C4A 4221   1.433   6.138   6.582  0.1147 -0.3873 -0.5043
  306POPC   C1B 4222   0.876   7.392   6.236 -0.0933  0.0224 -0.0701
  306POPC   C2B 4223   0.779   7.425   6.787 -0.0187 -0.0057  0.2233
  306POPC   C3B 4224   1.073   7.286   7.172  0.0747  0.1283 -0.2348
  306POPC   C4B 4225   1.505   7.374   7.303  0.2651  0.2095 -0.2158
  307POPC   NC3 4226   6.972   7.837   5.197 -0.1236  0.0002 -0.0986
  307POPC   PO4 4227   6.995   8.251   5.144 -0.1582 -0.1815 -0.3660
  307POPC   GL1 4228   7.053   8.362   5.647  0.1165  0.2137 -0.2434
  307POPC   GL2 4229   7.368   8.459   5.921 -0.2768 -0.0822  0.2497
  307POPC   C1A 4230   6.900   8.333   6.117 -0.1766  0.0253 -0.1125
  307POPC   D2A 4231   6.980   8.273   6.603  0.2259 -0.0105 -0.0092
  307POPC   C3A 4232   7.394   8.234   6.680 -0.1360 -0.2923  0.0034
  307POPC   C4A 4233   7.501   8.161   7.133 -0.0234  0.1734 -0.1046
  307POPC   C1B 4234   7.363   8.109   6.160  0.0976 -0.0334 -0.2749
  307POPC   C2B 4235   7.162   7.820   6.532  0.1844 -0.0994  0.0409
  307POPC   C3B 4236   7.032   7.794   7.002  0.1858 -0.0186  0.0550
  307POPC   C4B 4237   7.106   8.057   7.402 -0.4263  0.0921 -0.2540
  308POPC   NC3 4238   2.830   8.760   5.522 -0.4052  0.2523 -0.1719
  308POPC   PO4 4239   2.813   8.406   5.294 -0.4408  0.1402 -0.0382
  308POPC   GL1 4240   3.067   8.269   5.726  0.1777  0.1659  0.1480
  308POPC   GL2 4241   3.202   8.541   5.823 -0.0695  0.1084  0.3975
  308POPC   C1A 4242   3.044   8.008   6.194  0.0661  0.1710  0.2598
  308POPC   D2A 4243   3.190   8.083   6.653 -0.0259  0.1295 -0.0793
  308POPC   C3A 4244   3.012   8.318   6.934  0.0506  0.3336  0.2139
  308POPC   C4A 4245   2.633   8.262   7.217  0.2414  0.2392  0.0160
  308POPC   C1B 4246   3.327   8.459   6.301  0.2000  0.2305 -0.1625
  308POPC   C2B 4247   3.411   8.523   6.773 -0.0254 -0.4839  0.2094
  308POPC   C3B 4248   3.436   8.162   7.069 -0.1739  0.0948 -0.1277
  308POPC   C4B 4249   3.169   8.012   7.266 -0.2939 -0.1052  0.1127
  309POPC   NC3 4250   4.879   1.286   4.870 -0.0511  0.2379  0.2901
  309POPC   PO4 4251   4.830   0.844   4.994  0.1140 -0.0688  0.2023
  309POPC   GL1 4252   4.521   0.739   5.315 -0.1401 -0.4667  0.0045
  309POPC   GL2 4253   4.389   0.459   5.277  0.0881 -0.1924  0.0914
  309POPC   C1A 4254   4.410   0.828   5.708  0.0805 -0.1734  0.1893
  309POPC   D2A 4255   4.336   0.912   6.194 -0.2706 -0.0841 -0.0944
  309POPC   C3A 4256   4.321   0.917   6.677  0.0301 -0.2989 -0.0622
  309POPC   C4A 4257   3.903   1.202   6.782  0.0776  0.2273  0.4241
  309POPC   C1B 4258   4.422   0.242   5.629 -0.1503  0.0303 -0.0260
  309POPC   C2B 4259   4.621   0.367   6.019  0.2078  0.3158  0.0680
  309POPC   C3B 4260   4.859   0.390   6.527  0.2693 -0.0513  0.3267
  309POPC   C4B 4261   5.255   0.333   6.805  0.3855 -0.0997 -0.0122
  310POPC   NC3 4262   1.886   8.283   5.357 -0.1189 -0.1756 -0.1852
  310POPC   PO4 4263   1.873   8.702   5.339 -0.0914 -0.0902  0.2203
  310POPC   GL1 4264   1.900   8.466   5.798 -0.0248  0.0226  0.1464
  310POPC   GL2 4265   1.935   8.051   5.856  0.2542  0.0035 -0.0151
  310POPC   C1A 4266   2.006   8.729   6.104  0.3621 -0.1729 -0.0142
  310POPC   D2A 4267   2.309   9.195   6.205  0.0952  0.3435  0.0572
  310POPC   C3A 4268   2.672   9.157   6.625  0.1236  0.1621  0.2123
  310POPC   C4A 4269   2.467   8.938   6.970  0.0733  0.2379  0.0516
  310POPC   C1B 4270   1.649   8.090   6.082  0.0226  0.0467 -0.4375
  310POPC   C2B 4271   1.236   8.216   6.225  0.0733 -0.2724 -0.2828
  310POPC   C3B 4272   0.916   8.345   6.568 -0.0005  0.4708 -0.0419
  310POPC   C4B 4273   0.646   8.619   6.716  0.0888  0.1611  0.2202
  311POPC   NC3 4274   6.415   5.316   4.647 -0.0856  0.1550  0.1191
  311POPC   PO4 4275   6.836   5.079   4.477  0.1312  0.3736 -0.0087
  311POPC   GL1 4276   6.879   5.229   4.874 -0.0259 -0.0618 -0.2176
  311POPC   GL2 4277   6.897   5.014   5.096  0.1261  0.0564  0.0491
  311POPC   C1A 4278   7.179   5.331   5.351  0.0725  0.0678 -0.1923
  311POPC   D2A 4279   7.221   5.677   5.698  0.3277 -0.0812 -0.0464
  311POPC   C3A 4280   7.304   5.956   5.928 -0.0242 -0.0702 -0.2156
  311POPC   C4A 4281   7.382   6.038   6.462  0.1359  0.0214  0.0251
  311POPC   C1B 4282   6.705   5.162   5.534 -0.0609  0.0435 -0.2834
  311POPC   C2B 4283   6.879   5.116   5.872  0.2161 -0.0417 -0.0505
  311POPC   C3B 4284   7.174   5.019   5.919 -0.0393 -0.0830  0.0579
  311POPC   C4B 4285   7.311   4.976   6.260  0.1343  0.0720  0.1309
  312POPC   NC3 4286   7.009   2.411   4.264 -0.0027  0.2669  0.1422
  312POPC   PO4 4287   7.331   2.173   4.518 -0.0221 -0.1965 -0.1220
  312POPC   GL1 4288   7.679   2.336   4.799  0.1568  0.1431 -0.0210
  312POPC   GL2 4289   7.674   2.653   4.863  0.1907  0.2062 -0.1733
  312POPC   C1A 4290   8.036   2.379   5.053 -0.0387 -0.0586  0.3589
  312POPC   D2A 4291   8.132   2.817   5.060  0.0534 -0.1075 -0.0763
  312POPC   C3A 4292   8.175   2.925   5.418 -0.0807  0.0817 -0.1229
  312POPC   C4A 4293   8.058   3.078   5.914 -0.1534  0.3640  0.3173
  312POPC   C1B 4294   7.563   2.469   5.258  0.1644 -0.0221 -0.2306
  312POPC   C2B 4295   7.178   2.231   5.511 -0.1799 -0.0705  0.3196
  312POPC   C3B 4296   7.260   2.336   5.993  0.0511 -0.1133  0.0653
  312POPC   C4B 4297   7.368   2.261   6.388 -0.0735  0.0682 -0.0907
  313POPC   NC3 4298   5.905   9.845   4.735 -0.2365 -0.1361  0.0875
  313POPC   PO4 4299   5.536  10.116   4.865  0.0256  0.0747 -0.0224
  313POPC   GL1 4300   5.291   9.897   5.142 -0.2695  0.2368 -0.2223
  313POPC   GL2 4301   4.973   9.995   5.360 -0.2491 -0.0026 -0.0245
  313POPC   C1A 4302   5.367   9.771   5.607 -0.0531  0.1905  0.0445
  313POPC   D2A 4303   5.410   9.593   5.945 -0.0514  0.0945 -0.2089
  313POPC   C3A 4304   5.770   9.503   6.031  0.0346 -0.0517  0.2458
  313POPC   C4A 4305   5.953   9.236   6.372 -0.0407 -0.1714  0.0203
  313POPC   C1B 4306   4.778  10.065   5.796 -0.2209 -0.0695 -0.0524
  313POPC   C2B 4307   4.924  10.097   6.305  0.1373 -0.2595 -0.2560
  313POPC   C3B 4308   5.017  10.068   6.806 -0.1579  0.2328 -0.3774
  313POPC   C4B 4309   5.152  10.348   7.274 -0.1377 -0.1417  0.1397
  314POPC   NC3 4310   3.076   0.866   5.334 -0.2075 -0.3471  0.2147
  314POPC   PO4 4311   2.742   0.627   5.135 -0.0418  0.0859  0.1358
  314POPC   GL1 4312   2.607   0.378   5.559  0.0108  0.0837  0.2764
  314POPC   GL2 4313   2.688   0.588   5.730 -0.1180 -0.0094 -0.0107
  314POPC   C1A 4314   2.604   0.094   5.972 -0.2411 -0.1663  0.0791
  314POPC   D2A 4315   2.499   0.055   6.379  0.0260  0.0065 -0.0753
  314POPC   C3A 4316   2.732  -0.121   6.789 -0.0880  0.2804 -0.0828
  314POPC   C4A 4317   3.171  -0.169   6.839 -0.1357  0.3423 -0.1492
  314POPC   C1B 4318   2.420   0.678   6.076 -0.3050 -0.1021 -0.1368
  314POPC   C2B 4319   2.405   0.542   6.501 -0.2404 -0.0693  0.0927
  314POPC   C3B 4320   2.400   0.329   6.824  0.2336 -0.1763  0.0664
  314POPC   C4B 4321   2.398   0.255   7.267 -0.1400  0.0059 -0.0944
  315POPC   NC3 4322   6.899   4.642   4.310  0.0440  0.0389  0.0051
  315POPC   PO4 4323   7.136   4.273   4.424 -0.0828 -0.0612 -0.0699
  315POPC   GL1 4324   7.285   4.053   4.714  0.0932 -0.0858 -0.1603
  315POPC   GL2 4325   7.054   3.837   4.989  0.0499 -0.4227  0.0956
  315POPC   C1A 4326   7.573   4.210   5.044 -0.2038 -0.0385  0.0858
  315POPC   D2A 4327   7.671   4.492   5.488  0.0493 -0.0973  0.1021
  315POPC   C3A 4328   7.762   4.889   5.404 -0.2819 -0.2626  0.0445
  315POPC   C4A 4329   8.016   5.265   5.258  0.2583  0.0069 -0.1274
  315POPC   C1B 4330   6.964   3.650   5.464  0.1269  0.1706  0.3770
  315POPC   C2B 4331   7.175   3.642   5.875  0.0661 -0.1780 -0.2181
  315POPC   C3B 4332   7.377   3.695   6.253  0.4093 -0.1053  0.1710
  315POPC   C4B 4333   7.398   4.002   6.648 -0.0826  0.2112 -0.1766
  316POPC   NC3 4334   8.546   9.121   5.003 -0.1349 -0.1963 -0.0283
  316POPC   PO4 4335   8.473   9.354   5.418 -0.1644  0.3003  0.2581
  316POPC   GL1 4336   8.512   9.199   5.813  0.1735  0.2135 -0.2592
  316POPC   GL2 4337   8.755   9.191   5.917  0.2193  0.0611 -0.0294
  316POPC   C1A 4338   8.425   9.095   6.275 -0.0325  0.0227  0.2046
  316POPC   D2A 4339   8.297   9.109   6.723  0.2262 -0.0074  0.3873
  316POPC   C3A 4340   8.063   9.522   6.787 -0.0670  0.2588 -0.0031
  316POPC   C4A 4341   7.732   9.670   6.956 -0.0797 -0.0165 -0.1586
  316POPC   C1B 4342   8.838   9.584   6.289 -0.0808  0.1970 -0.0994
  316POPC   C2B 4343   8.752   9.598   6.714  0.0410  0.0199  0.5038
  316POPC   C3B 4344   8.915   9.700   7.140 -0.0182  0.0094 -0.0482
  316POPC   C4B 4345   9.236   9.629   7.350 -0.2035  0.1101  0.0480
  317POPC   NC3 4346   2.389   2.034   4.576 -0.1551  0.0584  0.1883
  317POPC   PO4 4347   2.537   1.986   4.976  0.0119  0.2109 -0.0841
  317POPC   GL1 4348   2.532   1.989   5.391 -0.2317  0.0088  0.0816
  317POPC   GL2 4349   2.799   2.032   5.506  0.2286  0.1582 -0.0335
  317POPC   C1A 4350   2.411   2.028   5.744  0.0552  0.1549 -0.1952
  317POPC   D2A 4351   2.556   2.094   6.195 -0.1624 -0.0092 -0.1361
  317POPC   C3A 4352   2.383   2.452   6.492  0.0048  0.2557  0.0416
  317POPC   C4A 4353   2.486   2.901   6.805  0.3488  0.0107 -0.0180
  317POPC   C1B 4354   2.990   1.943   5.845 -0.2378  0.3624 -0.4577
  317POPC   C2B 4355   3.025   1.896   6.323 -0.0532  0.3107 -0.0280
  317POPC   C3B 4356   2.799   1.986   6.647 -0.0062 -0.1964  0.0787
  317POPC   C4B 4357   2.627   2.361   6.950 -0.3376  0.2257  0.2016
  318POPC   NC3 4358   4.983   0.067   4.276 -0.4775  0.0012  0.2227
  318POPC   PO4 4359   5.008  -0.028   4.785 -0.0733  0.1029  0.0429
  318POPC   GL1 4360   5.198   0.293   5.145 -0.0218  0.4004  0.1879
  318POPC   GL2 4361   4.898   0.355   5.225  0.1424 -0.1323 -0.1007
  318POPC   C1A 4362   5.330   0.119   5.587  0.1887 -0.2686 -0.1358
  318POPC   D2A 4363   5.257   0.075   5.991 -0.2060  0.0758  0.0096
  318POPC   C3A 4364   5.632   0.213   6.232  0.0209  0.1252  0.0859
  318POPC   C4A 4365   5.699   0.523   6.542  0.2352  0.2321 -0.2820
  318POPC   C1B 4366   4.993   0.470   5.683 -0.2913  0.2970  0.2791
  318POPC   C2B 4367   5.142   0.576   6.115 -0.3717 -0.0413 -0.0072
  318POPC   C3B 4368   5.216   0.786   6.592  0.1623  0.2204 -0.3440
  318POPC   C4B 4369   5.508   0.772   6.901  0.1426 -0.2806 -0.2192
  319W        W 4370   5.886   1.810   1.845  0.1084  0.0241 -0.0779
  320W        W 4371   5.802   4.546  10.276  0.0200 -0.3081 -0.1109
  321W        W 4372   2.483   4.281  12.759  0.1890  0.1275  0.0793
  322W        W 4373   1.136   9.758  12.968  0.2915  0.1329 -0.3122
  323W        W 4374   8.470   1.538   3.294 -0.1219 -0.0215 -0.1121
  324W        W 4375   8.297   8.851   2.110  0.0668  0.1692  0.0838
  325W        W 4376   5.433   8.415  12.893 -0.0742  0.0487 -0.0772
  326W        W 4377   5.483   3.189  11.394 -0.0834  0.2768  0.4241
  327W        W 4378   8.993   5.639   1.545  0.2485 -0.0248 -0.0363
  328W        W 4379   3.132   3.462  12.705 -0.1931 -0.2751  0.4633
  329W        W 4380   8.800   8.218   4.066 -0.0528 -0.0583  0.0022
  330W        W 4381   9.955   1.788  11.554  0.2359  0.4007 -0.2093
  331W        W 4382   4.239   1.544  13.831 -0.2624 -0.4019  0.0314
  332W        W 4383   6.041   6.148   4.772 -0.1270  0.2330  0.2104
  333W        W 4384   9.655   6.808   1.800  0.2200 -0.2988  0.0693
  334W        W 4385   7.657   2.826   0.373 -0.0447  0.1034 -0.0809
  335W        W 4386   0.454  10.147   1.489  0.1764 -0.4765 -0.3308
  336W        W 4387   6.397   8.360   2.624 -0.0307  0.1489 -0.0648
  337W        W 4388   9.788   6.970  10.022  0.2346  0.2148  0.0427
  338W        W 4389   1.847   6.282   2.908 -0.1461 -0.0062 -0.1587
  339W        W 4390   2.459   4.796  11.951 -0.0609 -0.2145 -0.0485
  340W        W 4391   2.061   1.805   2.348 -0.0159  0.0710 -0.0745
  341W        W 4392   6.959   2.945  12.415  0.0757  0.1066  0.2621
  342W        W 4393   9.429   0.674  12.822 -0.3440  0.0661  0.0408
  343W        W 4394   0.406   4.129   0.260  0.1590 -0.2287  0.0877
  344W        W 4395   2.901   4.957   1.628 -0.1410  0.0858 -0.0056
  345W        W 4396   5.323   4.995   9.760 -0.1143  0.0891  0.0607
  346W        W 4397   1.361   3.649   2.783 -0.1329  0.0474 -0.5272
  347W        W 4398   1.151   3.315   0.310  0.1041  0.2125  0.0530
  348W        W 4399   9.630   6.960  13.672 -0.0346 -0.0484  0.0865
  349W        W 4400   3.484   9.188  11.714 -0.1189 -0.1109  0.1102
  350W        W 4401   1.554   4.608  13.184 -0.0980 -0.2393 -0.0766
  351W        W 4402   4.271   1.217   0.153  0.0104 -0.0213  0.0723
  352W        W 4403   6.740   3.905   4.578  0.0059 -0.0001  0.1095
  353W        W 4404   6.367   2.487  13.454 -0.2718 -0.1904 -0.0791
  354W        W 4405   0.696   9.179   4.150 -0.2057 -0.0428 -0.1285
  355W        W 4406   6.249   9.974  13.116  0.0969  0.0026 -0.0340
  356W        W 4407   8.043   2.287   2.570 -0.1327 -0.1974 -0.2122
  357W        W 4408   1.685   0.109   9.428 -0.0667 -0.0469 -0.0497
  358W        W 4409   7.760   6.373   3.023 -0.2935  0.1434 -0.0775
  359W        W 4410   7.199   2.860  13.364 -0.0214  0.3531  0.0545
  360W        W 4411   4.253   2.944   1.326  0.1976 -0.5611 -0.1378
  361W        W 4412   9.388   3.729   3.613  0.1019  0.2496 -0.2467
  362W        W 4413   4.398   3.210  11.528 -0.1081 -0.1450 -0.2594
  363W        W 4414   1.468   8.227   9.719 -0.0199 -0.0823 -0.1535
  364W        W 4415   6.399   6.051   4.223  0.0699  0.0192 -0.1163
  365W        W 4416   5.395   8.251  10.657 -0.2900 -0.1974 -0.1649
  366W        W 4417   0.828   3.863  13.320  0.0344 -0.1643  0.1674
  367W        W 4418   7.298   9.393  10.377  0.0911  0.2361  0.0075
  368W        W 4419   0.066   4.198   1.122 -0.3498  0.2220  0.3773
  369W        W 4420   2.932   7.705   3.910  0.1509  0.2461 -0.0211
  370W        W 4421   5.569   6.283   1.061  0.2031  0.2921 -0.0228
  371W        W 4422   5.345   7.212  11.204 -0.2729  0.0811 -0.1155
  372W        W 4423   3.098   7.871   1.329 -0.1395  0.1395  0.4222
  373W        W 4424   9.824   0.638  12.486  0.0504  0.3443 -0.4077
  374W        W 4425   1.539   9.032   1.648 -0.0824 -0.3170 -0.0560
  375W        W 4426   9.805   8.755   4.674 -0.2568  0.2328 -0.1471
  376W        W 4427   9.528   2.314  11.590  0.2638  0.1268  0.2040
  377W        W 4428   4.142   5.919   1.452 -0.1843 -0.5131  0.0155
  378W        W 4429   5.163   3.522  11.189 -0.0574 -0.0818  0.1151
  379W        W 4430   5.795   3.938   2.016  0.0879  0.4165  0.2738
  380W        W 4431   9.307   2.614   4.520 -0.1037 -0.1225  0.1400
  381W        W 4432   1.567   1.763   1.186  0.1613 -0.1122  0.1915
  382W        W 4433   8.272   8.902   4.485 -0.1407 -0.3372 -0.3180
  383W        W 4434   8.256   9.229  10.773  0.3039  0.1178  0.0629
  384W        W 4435   3.126   0.075  13.565 -0.0613 -0.1454 -0.2220
  385W        W 4436   0.574   5.327   1.576 -0.4130  0.2435  0.2532
  386W        W 4437   4.743   9.479   9.235  0.1793 -0.0758  0.3826
  387W        W 4438   6.023   4.557   2.616  0.0625  0.0814  0.1936
  388W        W 4439   3.152   9.594   4.648  0.0580  0.0030 -0.0793
  389W        W 4440   5.261  10.059  13.976 -0.3102 -0.1198 -0.2260
  390W        W 4441   3.803   5.023  13.597 -0.2078  0.1863 -0.0901
  391W        W 4442   8.336   3.596  12.233 -0.1707  0.1068  0.2281
  392W        W 4443   4.855   4.681  12.676 -0.2166  0.0943 -0.2529
  393W        W 4444   3.542   5.211   2.430  0.1048 -0.0875 -0.4910
  394W        W 4445   6.798   2.202  11.113 -0.0347 -0.1161  0.1260
  395W        W 4446   3.105   6.346  13.654  0.1733  0.1035  0.2567
  396W        W 4447   2.817   1.059  10.104 -0.0043  0.1935 -0.1137
  397W        W 4448   2.323   7.861  12.664 -0.2226 -0.0762 -0.2862
  398W        W 4449   1.576   5.765   0.685  0.1522  0.1338  0.0152
  399W        W 4450   0.785   8.691   0.010 -0.3898 -0.1831 -0.3989
  400W        W 4451   1.639   4.103  13.247  0.2758 -0.0252 -0.2973
  401W        W 4452   2.442   7.532   2.670 -0.0718  0.2084  0.1672
  402W        W 4453   9.905   8.197  10.942 -0.0866  0.2598  0.1042
  403W        W 4454   4.746   4.285  12.428  0.3949  0.1104 -0.0235
  404W        W 4455   6.274   8.755  12.984  0.0699 -0.2655  0.2854
  405W        W 4456   6.204  10.062   4.356 -0.1512 -0.0479  0.0531
  406W        W 4457   1.431   9.492  13.282  0.0079 -0.1712  0.1014
  407W        W 4458   4.965   5.602  10.403 -0.3109  0.3217 -0.1275
  408W        W 4459   1.794   4.695  11.288 -0.1206 -0.2055  0.0930
  409W        W 4460   2.982   2.247   4.904 -0.1101  0.0317  0.0352
  410W        W 4461   1.620   9.497   5.545 -0.0673  0.0231 -0.0328
  411W        W 4462   8.021   9.298   3.172 -0.0131  0.0570 -0.1226
  412W        W 4463   0.244   0.269  11.021 -0.2196 -0.0256 -0.1234
  413W        W 4464   3.380   5.600   2.072 -0.2417 -0.0892 -0.0125
  414W        W 4465   1.197   0.467   3.581  0.0020 -0.2379 -0.2751
  415W        W 4466   6.945   1.899   1.015 -0.0593  0.4153 -0.2653
  416W        W 4467   6.746   8.406   2.944 -0.0505 -0.2800 -0.0365
  417W        W 4468   0.354   2.717  12.892  0.0586  0.2924  0.2906
  418W        W 4469   4.451   3.354  13.424 -0.0943  0.1858 -0.1342
  419W        W 4470   3.724   4.444   4.186 -0.0634 -0.1217 -0.1935
  420W        W 4471   9.126   4.702  13.711  0.1454  0.0403 -0.2414
  421W        W 4472   5.155   4.538   5.445 -0.1121 -0.0373  0.2111
  422W        W 4473   7.346   7.214  13.321 -0.3115  0.3766  0.2945
  423W        W 4474   6.982   3.440  12.224  0.0345  0.1927 -0.0926
  424W        W 4475   0.616   2.233   9.973 -0.0684  0.1118  0.2227
  425W        W 4476   7.171   3.455   4.732 -0.0383  0.1579  0.0869
  426W        W 4477   7.428   9.482  12.848 -0.3713 -0.1005 -0.0058
  427W        W 4478   5.177   8.140   3.025  0.1447 -0.2043  0.0200
  428W        W 4479   4.828   1.543   4.358 -0.0201  0.1872  0.0691
  429W        W 4480   2.273   3.803   8.779 -0.0886  0.1117 -0.0412
  430W        W 4481   3.219   8.453   0.510  0.0091  0.0500 -0.2337
  431W        W 4482   6.696   9.342   2.233  0.0213 -0.1113  0.0480
  432W        W 4483   4.219   6.219  12.170 -0.2861  0.0355  0.0436
  433W        W 4484   0.596   8.103   2.002 -0.1349 -0.2746  0.1752
  434W        W 4485   0.132   2.440  12.486  0.2716 -0.2555 -0.1982
  435W        W 4486   6.031   6.153  12.439  0.0427  0.1831  0.2578
  436W        W 4487   7.663   6.918  13.093  0.1042  0.1744  0.0572
  437W        W 4488   1.573   8.555   4.973  0.1098  0.0361  0.0081
  438W        W 4489   4.803   9.344   0.204  0.2301 -0.0433 -0.4535
  439W        W 4490   5.970   0.441  11.742  0.1023 -0.2536 -0.1801
  440W        W 4491   4.636   7.622   9.822 -0.2094  0.0523  0.0001
  441W        W 4492   8.708   1.768   1.888 -0.2085  0.1333 -0.1452
  442W        W 4493   9.285   1.547   2.696  0.4088 -0.0082 -0.0612
  443W        W 4494   7.363   9.232  12.407 -0.3628  0.3105 -0.0796
  444W        W 4495   3.425   9.401   1.922  0.3636  0.2583 -0.0389
  445W        W 4496   6.865   6.880   9.736  0.0664  0.2030 -0.0164
  446W        W 4497   8.634   9.874   9.224 -0.2574  0.0554  0.0527
  447W        W 4498   8.280   0.827   0.917 -0.1631 -0.1999  0.0440
  448W        W 4499   5.497   0.296  13.854  0.0411 -0.2308  0.0923
  449W        W 4500   7.462   3.066  10.327  0.0398  0.1554  0.1839
  450W        W 4501   4.327   8.356   9.450  0.1065  0.0282 -0.0374
  451W        W 4502   8.848   9.510  10.719  0.5786  0.2629 -0.3527
  452W        W 4503   7.474   5.465  10.700 -0.0769  0.0474  0.2507
  453W        W 4504   0.016   8.134   4.127  0.1992 -0.1870 -0.1298
  454W        W 4505   9.664   4.611   1.943 -0.1904  0.3312 -0.0426
  455W        W 4506   5.543   8.218   4.851 -0.0712 -0.0387  0.3291
  456W        W 4507   1.572   2.201   0.295  0.4224 -0.0816  0.1104
  457W        W 4508   3.598   5.378   3.260  0.1830 -0.2865  0.0644
  458W        W 4509   2.968   0.786  11.147  0.1747  0.0443 -0.0370
  459W        W 4510   2.678   3.259   3.251  0.0097 -0.0860  0.0397
  460W        W 4511   6.758   5.828   1.559 -0.1516 -0.1522  0.1425
  461W        W 4512   3.705   1.479  10.478 -0.1260 -0.1041 -0.0881
  462W        W 4513   9.712   7.557  12.703 -0.0876 -0.1127 -0.0283
  463W        W 4514   9.294   2.237   1.072  0.0362 -0.2110  0.0851
  464W        W 4515   2.873   1.318  11.150  0.0955  0.1250  0.0912
  465W        W 4516   6.286  10.075  12.584 -0.1012  0.2993 -0.2679
  466W        W 4517   8.978   3.852  11.271 -0.1081  0.1092 -0.0121
  467W        W 4518   6.032   8.801   4.836  0.1751 -0.3142  0.0582
  468W        W 4519   2.419   4.807   5.033 -0.1356 -0.2835  0.0396
  469W        W 4520   9.317   3.931  12.041  0.1539 -0.0634 -0.2248
  470W        W 4521   7.176   2.212  12.307  0.2060  0.1676 -0.0540
  471W        W 4522   7.831   7.804   3.407  0.3175  0.1162 -0.0740
  472W        W 4523   5.848   3.869   0.963 -0.1150 -0.3535 -0.1732
  473W        W 4524   2.238   2.508  10.852  0.1036  0.1491 -0.1010
  474W        W 4525   4.324   3.838  13.130  0.1379 -0.3059 -0.0711
  475W        W 4526   0.743   2.489   9.583  0.2508  0.4575 -0.1163
  476W        W 4527   3.010   8.073   2.946  0.2605 -0.2327 -0.0164
  477W        W 4528   4.891   8.323  10.499 -0.2575  0.0148  0.3121
  478W        W 4529   8.688   2.829  12.232  0.1065 -0.1029  0.0298
  479W        W 4530   4.499   4.385   1.504  0.1096  0.0290 -0.3618
  480W        W 4531   4.181   0.449   1.350 -0.3160 -0.0974  0.1225
  481W        W 4532   9.771   4.737   2.969 -0.1601  0.1167  0.1640
  482W        W 4533   8.138   3.707  11.455  0.1019 -0.1206  0.0886
  483W        W 4534   1.404   4.319   1.005  0.1985 -0.0948  0.1182
  484W        W 4535   6.095   3.465  13.891 -0.1702  0.2495  0.0519
  485W        W 4536   2.160   6.845  10.059  0.0741  0.1145  0.1351
  486W        W 4537   2.914   4.406   3.396  0.1934  0.0194  0.1389
  487W        W 4538   1.417   2.717   0.723  0.0935 -0.4718  0.0115
  488W        W 4539   9.715   9.747   1.552 -0.1388  0.0974  0.2173
  489W        W 4540   7.100   4.791  10.347 -0.3010 -0.2611  0.1994
  490W        W 4541   2.222   3.478  10.814 -0.1825 -0.0865 -0.1085
  491W        W 4542   9.820   4.783  11.492 -0.5271 -0.3250 -0.2818
  492W        W 4543   7.162   6.286   0.815 -0.1316 -0.1719  0.0896
  493W        W 4544   7.208   7.713  10.215 -0.2845  0.1075 -0.1458
  494W        W 4545   2.154   6.760   2.939  0.1346  0.2208  0.1233
  495W        W 4546   2.577   3.436  10.390 -0.0406  0.0383 -0.3250
  496W        W 4547   0.170   6.072  11.014 -0.1400 -0.1116 -0.0155
  497W        W 4548   8.500   0.748  10.909 -0.4074 -0.2401  0.1215
  498W        W 4549   5.177   6.175   2.997  0.0314  0.1052 -0.1769
  499W        W 4550   3.868   7.331   3.033 -0.1159  0.3051 -0.4450
  500W        W 4551   1.638   6.506   0.253 -0.4147 -0.4504  0.1427
  501W        W 4552   3.015   7.677  10.381  0.2178 -0.2124  0.0925
  502W        W 4553   6.102   6.742  13.822 -0.3002  0.0201 -0.3638
  503W        W 4554   6.150   1.697   9.253 -0.2916 -0.2628  0.4502
  504W        W 4555   3.038   6.628  13.119 -0.1100  0.0043 -0.2894
  505W        W 4556   4.309   2.426   1.504  0.1591 -0.3801  0.1490
  506W        W 4557   6.673   7.642   4.789 -0.0882 -0.0962 -0.2843
  507W        W 4558   4.384   0.782   1.895  0.1459 -0.5342  0.2076
  508W        W 4559   6.198   3.645  12.775  0.2737  0.0900 -0.0113
  509W        W 4560   0.457   3.417  13.915  0.2561 -0.0385  0.0626
  510W        W 4561   7.684   9.339  12.051 -0.3555 -0.1052  0.1548
  511W        W 4562   9.854   0.982   0.460 -0.2242  0.0045  0.3726
  512W        W 4563   3.153   7.279  13.097  0.0622  0.3781 -0.0995
  513W        W 4564   5.300   0.297   0.653  0.0477 -0.3443  0.0553
  514W        W 4565   3.983   8.710  11.482  0.0372  0.2645  0.2154
  515W        W 4566   3.985   8.021   1.534 -0.0228  0.1951 -0.2425
  516W        W 4567   3.958   9.236  11.429  0.0923  0.0686  0.0466
  517W        W 4568   4.173   4.847   1.435 -0.1900  0.3106 -0.3211
  518W        W 4569   5.385   3.723  12.117 -0.0623 -0.1283 -0.1635
  519W        W 4570   0.628   8.265  13.185 -0.2298 -0.0714 -0.1336
  520W        W 4571   1.828   5.553   1.147 -0.0184 -0.1373  0.1150
  521W        W 4572   5.970   8.457  12.711 -0.0273 -0.5413 -0.1257
  522W        W 4573   2.743   9.894   2.814 -0.1311  0.0989 -0.2434
  523W        W 4574   8.286   5.733   2.008  0.0075 -0.2268  0.0597
  524W        W 4575   0.047   5.587  13.056 -0.1552 -0.0762 -0.3410
  525W        W 4576   1.771   5.541   4.263 -0.0385  0.0288  0.0426
  526W        W 4577   6.713   0.062   3.945  0.0026 -0.1033  0.2514
  527W        W 4578   2.549   2.076  10.162  0.3439  0.1050  0.3028
  528W        W 4579   9.145   6.848   1.899  0.2185  0.1573  0.2009
  529W        W 4580   2.272   3.102   1.079 -0.0882 -0.1730  0.0195
  530W        W 4581   0.474   7.051  12.951  0.3566 -0.2434 -0.2764
  531W        W 4582   8.325   4.227  10.297 -0.0428  0.0663  0.2112
  532W        W 4583  10.049   5.468   3.887 -0.1698  0.2269  0.1440
  533W        W 4584   3.180   6.657   4.267  0.0015 -0.1866 -0.1900
  534W        W 4585   9.576   2.655  11.155  0.1403 -0.1072 -0.1005
  535W        W 4586   1.560   1.362  11.204  0.0141  0.1257 -0.1400
  536W        W 4587   1.904   8.725  13.601 -0.1214 -0.0005  0.2361
  537W        W 4588   9.764   2.389   9.782  0.0462 -0.1436 -0.0237
  538W        W 4589   3.975   7.853   4.311 -0.4609  0.0779  0.0851
  539W        W 4590   1.987   6.887   3.425 -0.1638 -0.0671 -0.2200
  540W        W 4591   6.739   7.539  11.449 -0.0911 -0.0486  0.2036
  541W        W 4592   8.030   0.036  10.310 -0.1591  0.0616 -0.2102
  542W        W 4593   6.273   5.015   1.738 -0.3315  0.1028  0.1130
  543W        W 4594   3.421   4.823   2.867 -0.0347 -0.1371  0.4139
  544W        W 4595   6.944   7.628  12.452  0.4192 -0.4253  0.0167
  545W        W 4596   9.885   4.575   3.405 -0.3267  0.3372  0.0719
  546W        W 4597   7.100   5.646   4.735  0.0015  0.2419 -0.0107
  547W        W 4598   1.002   5.516  11.362  0.1659 -0.1029 -0.1587
  548W        W 4599   0.285   3.695   3.461 -0.1147 -0.2674  0.2267
  549W        W 4600   3.861   9.506   1.749 -0.1813 -0.1967  0.2225
  550W        W 4601   6.520   6.662  11.674  0.1168 -0.0825  0.2811
  551W        W 4602   5.376   7.235   4.944  0.0553  0.2655 -0.1565
  552W        W 4603   8.925   4.760  11.044  0.2260 -0.2166 -0.1193
  553W        W 4604   1.179   0.316  12.058 -0.2050 -0.2204  0.0425
  554W        W 4605   4.590   6.575   5.392 -0.0327 -0.2420 -0.1210
  555W        W 4606   9.268   1.769   4.026 -0.1273 -0.2275 -0.1047
  556W        W 4607   7.244   6.795  11.463 -0.2562 -0.2715  0.3126
  557W        W 4608   5.962   8.392  10.989  0.0182 -0.0868 -0.2501
  558W        W 4609   9.863   6.463  12.310 -0.0061  0.1497  0.0631
  559W        W 4610   5.099   3.505   4.967 -0.0662 -0.2838 -0.0059
  560W        W 4611   6.285   5.435  10.363 -0.2909  0.0515 -0.0650
  561W        W 4612   1.562   7.061  11.797 -0.1028  0.3688 -0.2562
  562W        W 4613   2.909   3.411   9.935 -0.3045  0.0552 -0.1912
  563W        W 4614   6.315   2.985  13.700  0.0354  0.4367 -0.1479
  564W        W 4615   2.567   5.267   3.512  0.2040 -0.1694  0.2064
  565W        W 4616   1.994   9.059  12.724  0.0404  0.0678 -0.0941
  566W        W 4617   0.734   4.103   1.742  0.1011  0.0506 -0.0067
  567W        W 4618   7.123   0.591   3.738  0.0805  0.0897  0.0829
  568W        W 4619   8.030   5.493  12.728  0.2538 -0.0053 -0.2338
  569W        W 4620   2.891   8.723   3.800 -0.0798  0.1068  0.0864
  570W        W 4621   3.142   4.059  11.993 -0.1919 -0.0162 -0.2022
  571W        W 4622   1.927   9.599  11.409  0.1515  0.3510 -0.1828
  572W        W 4623   1.700   6.138  11.776  0.2942 -0.0979  0.0144
  573W        W 4624   9.310   4.991   1.815  0.2501 -0.0164  0.0963
  574W        W 4625   1.750   7.629   3.990  0.1841  0.1735  0.1648
  575W        W 4626   0.143   8.757   4.860  0.2431  0.3066  0.0126
  576W        W 4627   1.455   4.264  11.978 -0.2066 -0.0924  0.0185
  577W        W 4628   2.684   9.126  10.452  0.1920 -0.1436  0.0147
  578W        W 4629   2.614   3.732  11.251  0.1403 -0.2201 -0.0589
  579W        W 4630   1.316   0.914   0.814 -0.2696 -0.0433  0.0435
  580W        W 4631  10.080   1.258   2.117 -0.3317 -0.0944  0.0428
  581W        W 4632   1.855   2.939   3.201 -0.2762 -0.0187  0.0891
  582W        W 4633   0.836   4.889   2.906  0.1436 -0.0448  0.1391
  583W        W 4634   7.053   4.886  13.930 -0.1240  0.1900  0.1558
  584W        W 4635   6.317   2.572   3.105  0.0286  0.2278  0.0433
  585W        W 4636   5.610   4.154  13.803  0.4665  0.2838 -0.2993
  586W        W 4637   0.378   2.997   4.236  0.0273  0.0161  0.2449
  587W        W 4638   8.609   3.786   3.087 -0.0211 -0.1112  0.2830
  588W        W 4639   0.468   5.080   0.146  0.1232 -0.1407  0.0898
  589W        W 4640   2.055   2.583   9.215 -0.2385 -0.1503 -0.0527
  590W        W 4641   3.968   2.423   0.137  0.3311 -0.2075 -0.3358
  591W        W 4642   5.169   2.672  10.142 -0.0724 -0.1418 -0.4339
  592W        W 4643   1.741   9.964   3.783  0.0756 -0.0596  0.0093
  593W        W 4644   8.234   2.779   2.605  0.0214  0.1179  0.0459
  594W        W 4645   4.638   7.754   0.871 -0.2241  0.1377 -0.3327
  595W        W 4646   7.480   5.619  11.802 -0.0429  0.1462  0.1848
  596W        W 4647   2.627   4.800   0.273 -0.0128  0.0666  0.0514
  597W        W 4648   8.300   0.700  13.440  0.3041  0.3302 -0.0832
  598W        W 4649   9.921   9.025   2.119  0.2298  0.1010  0.0789
  599W        W 4650   8.487   2.701  12.692 -0.4043  0.0985 -0.2753
  600W        W 4651  10.048   0.471  10.669 -0.1123 -0.1877 -0.1716
  601W        W 4652   2.261   7.395  13.191 -0.0469  0.2616  0.0557
  602W        W 4653   5.694   2.154   3.583  0.1651  0.1600 -0.2519
  603W        W 4654   8.455   1.458   2.261  0.0441 -0.1670 -0.0145
  604W        W 4655   3.726   5.205   1.362 -0.2826  0.2487 -0.1651
  605W        W 4656   1.039   7.649   4.626  0.1947  0.1851  0.2086
  606W        W 4657   7.792   0.812   2.349 -0.1842 -0.0935 -0.0954
  607W        W 4658   6.888   0.224  13.718  0.1200 -0.1782 -0.1391
  608W        W 4659   2.979   8.369   3.387  0.0356  0.2613  0.2750
  609W        W 4660   5.464   6.337  12.337 -0.1256 -0.2148 -0.2456
  610W        W 4661   5.083   7.151  13.158  0.0577 -0.1551 -0.0379
  611W        W 4662   2.997   6.064   8.572 -0.0885 -0.2590  0.0721
  612W        W 4663   3.070   5.344   3.488  0.0770  0.0004  0.0596
  613W        W 4664   1.274   1.032  11.412 -0.1534  0.0645  0.0932
  614W        W 4665   3.392   4.159  11.586  0.0903 -0.0949 -0.0160
  615W        W 4666   1.061   4.425   1.417  0.3032 -0.0874  0.4713
  616W        W 4667   0.514   4.653  13.900 -0.0056 -0.0252 -0.2699
  617W        W 4668   7.594   5.459   2.564 -0.0093  0.0803 -0.3622
  618W        W 4669   1.966   8.926  14.023 -0.1427 -0.2190  0.0423
  619W        W 4670   7.925   6.495   2.327 -0.4034 -0.4036 -0.2684
  620W        W 4671   8.363   3.706  13.063  0.1016  0.0362  0.1706
  621W        W 4672   4.678   9.858   4.058 -0.0379  0.0596 -0.0609
  622W        W 4673   9.265   5.611   0.866  0.0643  0.4267 -0.1794
  623W        W 4674   7.274   8.238  11.068 -0.0231 -0.1109 -0.1732
  624W        W 4675   2.846   9.049  13.981  0.0383 -0.0523  0.5507
  625W        W 4676   7.296   7.213   4.419 -0.0781 -0.1978 -0.0318
  626W        W 4677   5.090   6.506   3.384 -0.0135 -0.1175  0.0371
  627W        W 4678   5.096   2.951  13.622 -0.1674 -0.3496 -0.1119
  628W        W 4679   9.858   1.673   2.372  0.1308  0.0436  0.1474
  629W        W 4680   3.383   0.617   1.437  0.1229 -0.0684 -0.1549
  630W        W 4681   5.792   3.039   3.658  0.0708  0.0365  0.1937
  631W        W 4682   7.578   3.524   2.682  0.3166  0.1942 -0.0236
  632W        W 4683   9.400   9.109  12.378  0.0997 -0.0247  0.1149
  633W        W 4684   5.427   0.757  12.584  0.1587  0.1533  0.1836
  634W        W 4685   6.020   0.727   4.286 -0.0881  0.0258 -0.2979
  635W        W 4686   5.884   8.047  10.537  0.4079 -0.1486 -0.0571
  636W        W 4687   4.028  10.061   4.797 -0.1563  0.4396 -0.0845
  637W        W 4688   5.905   4.939   1.181 -0.0030  0.1047  0.1514
  638W        W 4689   5.968   3.856   0.121  0.0203 -0.2495 -0.0830
  639W        W 4690   4.383   8.247   0.665  0.0099 -0.1969  0.4649
  640W        W 4691   0.471   3.482   2.956 -0.1440  0.1446  0.0298
  641W        W 4692   1.590   0.773   1.666 -0.1100  0.2076 -0.2187
  642W        W 4693   2.041   2.014  12.170 -0.2232 -0.1287  0.2330
  643W        W 4694   2.248   9.954   4.271 -0.1064  0.1886 -0.2483
  644W        W 4695   3.562   7.435   0.727  0.1972 -0.0539 -0.1016
  645W        W 4696   9.604   0.020  13.094 -0.0867 -0.0757 -0.4665
  646W        W 4697   8.052   6.756   0.091 -0.2210 -0.2540 -0.0293
  647W        W 4698   6.755   5.739   0.247  0.1229 -0.0241 -0.2113
  648W        W 4699   0.327   7.951   3.410  0.1650  0.2528  0.0625
  649W        W 4700   9.345   9.890   3.812  0.3656 -0.2875  0.1744
  650W        W 4701   3.140   3.776  11.218 -0.3416 -0.0317  0.0540
  651W        W 4702  10.020   8.112  10.396 -0.0141 -0.1761  0.3779
  652W        W 4703   4.526   1.938  13.807 -0.2267  0.1900 -0.4998
  653W        W 4704   4.238   2.243  11.660  0.0076 -0.1423  0.0152
  654W        W 4705   3.464   4.334   3.621  0.0285  0.0564 -0.1272
  655W        W 4706   2.335   9.726  13.384  0.0705  0.0687  0.1772
  656W        W 4707   2.459   1.764  11.862  0.2413  0.1632  0.1006
  657W        W 4708   6.262   0.698   9.403  0.0230  0.2104  0.2311
  658W        W 4709   9.940   3.824  13.097  0.0636 -0.1168 -0.1120
  659W        W 4710   9.680   6.786  10.465  0.0306 -0.3355 -0.3237
  660W        W 4711   6.888   0.661  13.419  0.1506  0.1875  0.2219
  661W        W 4712   8.834   5.245   0.839 -0.1052  0.1597 -0.2378
  662W        W 4713   3.045   7.916   1.904  0.0327 -0.0211  0.0111
  663W        W 4714   7.673   1.216   1.912  0.2618  0.1622 -0.0515
  664W        W 4715   3.714   7.450   4.530 -0.1490 -0.1888  0.0851
  665W        W 4716   1.848   1.432  13.919 -0.0532  0.0199  0.1276
  666W        W 4717   3.337   1.255   0.187 -0.2641 -0.1298  0.2267
  667W        W 4718   9.351   5.040   2.837 -0.1345  0.0190 -0.2926
  668W        W 4719   4.948   6.971   0.827 -0.0503 -0.0604 -0.3513
  669W        W 4720   2.391   6.463   1.979  0.0687  0.0328  0.0943
  670W        W 4721   8.419   8.776   9.550 -0.1763  0.2478  0.1078
  671W        W 4722   3.601   3.333  13.179  0.1231 -0.2133 -0.0789
  672W        W 4723   1.390   5.427  13.291 -0.0615 -0.1868 -0.0493
  673W        W 4724   0.220   6.716  12.649  0.3288 -0.0094  0.2473
  674W        W 4725   7.369   4.539   0.834 -0.0843  0.1130  0.0162
  675W        W 4726   0.146   7.656   4.341 -0.2428  0.2211 -0.1982
  676W        W 4727   1.997   8.622   3.491  0.1035  0.1691  0.5124
  677W        W 4728   3.138   2.163   1.126  0.0518 -0.0019  0.0094
  678W        W 4729   4.839   6.667   4.063  0.4720  0.2992  0.2890
  679W        W 4730   7.334   5.210   1.590 -0.2443 -0.3291  0.2607
  680W        W 4731   2.597   2.364   0.409 -0.2955 -0.0676  0.0807
  681W        W 4732   2.228   1.256  12.074  0.0827 -0.1876  0.0470
  682W        W 4733   3.264   8.739   3.269 -0.2128 -0.2447 -0.2605
  683W        W 4734   6.726   4.357   4.792  0.3771  0.1188 -0.0564
  684W        W 4735   2.564   1.200   0.832 -0.1520 -0.0872 -0.1342
  685W        W 4736   6.395   0.991  12.685  0.0079  0.0650 -0.1135
  686W        W 4737   8.618   3.929  10.641  0.2741 -0.1079  0.0580
  687W        W 4738   0.356   9.360   5.033  0.2547 -0.2859  0.1020
  688W        W 4739   9.226   1.097   1.851  0.0119  0.0157  0.3417
  689W        W 4740   9.797   8.597   9.701  0.2010  0.1563  0.1284
  690W        W 4741   8.960   4.851   2.664 -0.2546 -0.1526  0.0310
  691W        W 4742   1.092   1.904   1.164 -0.0617 -0.0773 -0.0314
  692W        W 4743   9.275   9.192   0.730  0.1942  0.1410 -0.2544
  693W        W 4744   8.915   3.378  12.137  0.1697 -0.0280 -0.4925
  694W        W 4745   1.797   4.344  10.921  0.0691  0.0365  0.2492
  695W        W 4746   9.083   0.208  11.301  0.1912 -0.0993 -0.0537
  696W        W 4747   8.449   7.197   2.403 -0.1021 -0.1090 -0.1828
  697W        W 4748   2.405   8.235   5.068 -0.1004 -0.1248  0.1104
  698W        W 4749   1.635   2.118   1.506 -0.1797  0.0163 -0.2049
  699W        W 4750   6.345   2.799   1.223  0.2457 -0.0217  0.0063
  700W        W 4751   3.803   4.027   0.355  0.0375 -0.1130  0.1969
  701W        W 4752   3.558   4.025   1.717 -0.1810  0.1250  0.5622
  702W        W 4753   2.875   0.030   9.887  0.1569 -0.1212 -0.0505
  703W        W 4754   6.137   7.237   2.711  0.1401 -0.0716  0.3889
  704W        W 4755   6.820   4.243  12.331 -0.1049 -0.3331  0.0192
  705W        W 4756   6.248   0.552   3.296  0.1171  0.0888  0.0869
  706W        W 4757   3.833   3.806  13.869 -0.0211 -0.2315  0.0376
  707W        W 4758   2.478   1.312  11.618  0.0680 -0.1041  0.1304
  708W        W 4759   2.278   5.474   3.981  0.1807 -0.1717 -0.2931
  709W        W 4760   3.402   0.865   8.925 -0.0976  0.0719  0.0873
  710W        W 4761   3.299   4.584   2.436 -0.0037  0.0032  0.0083
  711W        W 4762   9.149   3.372   3.416 -0.0034  0.1563 -0.1789
  712W        W 4763   0.274   1.590  10.725  0.1211  0.3318 -0.0717
  713W        W 4764   2.263   5.680  12.833 -0.0067 -0.3503  0.1547
  714W        W 4765   7.922   8.891   9.320 -0.4663 -0.2280  0.3185
  715W        W 4766   2.166   6.414   2.466  0.1765 -0.0558  0.1511
  716W        W 4767   8.822   8.885   9.843  0.1660 -0.1147  0.0919
  717W        W 4768   0.393   7.948  11.250  0.2267 -0.0330 -0.3018
  718W        W 4769   3.594   8.412  11.192  0.2555 -0.1682  0.0441
  719W        W 4770   6.506   8.345  10.234  0.1576  0.2387  0.0460
  720W        W 4771   9.080   0.612  11.633  0.1093 -0.1889  0.1114
  721W        W 4772   0.579   9.117  13.860  0.1741 -0.1343 -0.0740
  722W        W 4773   8.932   1.940   1.449  0.1503 -0.0433  0.2657
  723W        W 4774   6.499   8.351   3.654 -0.2755  0.0112  0.2008
  724W        W 4775   3.253   1.517   1.059 -0.0660 -0.2185 -0.2071
  725W        W 4776   3.710   1.064   4.048 -0.0415  0.2181  0.1311
  726W        W 4777   5.446   4.228   1.743  0.0687 -0.1615 -0.0251
  727W        W 4778   5.502   5.402   2.621  0.0787  0.2190  0.0254
  728W        W 4779   2.575   0.871  13.426 -0.2320 -0.0938 -0.1164
  729W        W 4780   1.181   8.345  13.881  0.0207 -0.0490 -0.0889
  730W        W 4781   0.276   2.451   2.617  0.4464  0.0696  0.1606
  731W        W 4782   5.802   7.510  12.859  0.0412  0.0245 -0.1433
  732W        W 4783   4.459   8.121   2.814 -0.0798  0.0586  0.0040
  733W        W 4784   4.719   1.269   5.409  0.2075  0.0472 -0.0557
  734W        W 4785   2.167   9.201   2.500 -0.0941 -0.4330  0.0228
  735W        W 4786   6.927   9.300  13.561  0.2242 -0.0290  0.2335
  736W        W 4787   9.412   0.051   2.509  0.5543  0.3727  0.0939
  737W        W 4788   3.874   5.258   9.305  0.0429 -0.2279 -0.1658
  738W        W 4789   2.925   2.222   3.293 -0.2202 -0.0366 -0.2672
  739W        W 4790   6.248   6.268  11.601  0.2220  0.1231 -0.2643
  740W        W 4791   6.164   0.382  12.968  0.0603  0.0495 -0.2502
  741W        W 4792   1.454   9.811   0.814  0.2945  0.1874  0.0750
  742W        W 4793   4.196   8.198  13.814  0.1121  0.1239 -0.0415
  743W        W 4794   6.510   8.554   4.846 -0.0283  0.1781  0.0143
  744W        W 4795   4.635   6.183   1.328 -0.0369  0.0475 -0.2360
  745W        W 4796   1.923   7.089  13.542 -0.1165 -0.0998  0.3377
  746W        W 4797   9.574   1.399   0.319 -0.3342  0.3534 -0.1288
  747W        W 4798   3.005   7.841  13.058  0.0002  0.4403  0.3271
  748W        W 4799   2.365   1.680   3.292 -0.1474 -0.2178 -0.0417
  749W        W 4800   7.659   6.947   1.146  0.2232  0.1711  0.2203
  750W        W 4801   5.986   8.684   1.235  0.2201 -0.0922  0.0043
  751W        W 4802   4.912   0.661   0.535  0.4382 -0.2761 -0.0151
  752W        W 4803   4.597   3.165   2.784 -0.0676  0.0084 -0.2225
  753W        W 4804   0.703   8.847   3.746 -0.0444  0.1240 -0.1909
  754W        W 4805   6.200   0.094  10.035 -0.1427 -0.2357 -0.1633
  755W        W 4806   4.102   1.930  11.260 -0.0055 -0.0098 -0.1814
  756W        W 4807   5.217   6.347  12.761  0.1361  0.1955 -0.1992
  757W        W 4808   1.985   1.562  11.721 -0.1174  0.1178  0.0582
  758W        W 4809   3.205   0.408   9.786  0.0907 -0.0478 -0.0923
  759W        W 4810   3.616   2.140   2.820 -0.2172  0.0004 -0.0637
  760W        W 4811   7.079   3.781  10.522 -0.5554 -0.0608  0.0334
  761W        W 4812   2.983   9.173   0.553  0.0096 -0.2376 -0.0532
  762W        W 4813   3.413   4.226   3.151 -0.0458  0.0505  0.0840
  763W        W 4814   9.131   8.748  13.353 -0.1736  0.2644 -0.1106
  764W        W 4815   8.517   8.170  11.992  0.0813 -0.0395 -0.0485
  765W        W 4816   1.450   7.617   0.621  0.0771  0.0838  0.0122
  766W        W 4817   1.257   6.202   0.247 -0.1829 -0.1003  0.0688
  767W        W 4818   0.329   4.888   0.596  0.1142  0.1634  0.0574
  768W        W 4819   1.726   9.092   3.408 -0.1040 -0.1328 -0.3155
  769W        W 4820   2.020   8.145  10.445 -0.2565 -0.4037  0.1026
  770W        W 4821   3.723   0.069   4.316  0.0294  0.0208 -0.1377
  771W        W 4822   0.632   3.344   2.378  0.0497 -0.1864  0.0164
  772W        W 4823   6.007   6.406   1.393 -0.0724  0.3245  0.2936
  773W        W 4824   6.150   6.955   9.937 -0.4858 -0.2444 -0.0224
  774W        W 4825   6.630   6.603  12.386  0.2571 -0.0099 -0.0009
  775W        W 4826   6.506   4.435   2.585  0.0199  0.1295  0.1169
  776W        W 4827   9.359   7.315   1.704 -0.1925 -0.0700  0.0585
  777W        W 4828   2.073   8.852   0.561  0.3553 -0.0808  0.0735
  778W        W 4829   7.032   0.910   5.003  0.3130  0.0275  0.1528
  779W        W 4830   9.737   5.345   3.015  0.1362 -0.0997 -0.0085
  780W        W 4831   0.137   9.478  10.816  0.0791  0.2670  0.1564
  781W        W 4832   0.960   4.301  10.606  0.0835 -0.1544 -0.0378
  782W        W 4833   4.486   3.403  12.745  0.1985  0.1225 -0.1896
  783W        W 4834   4.044   7.999   2.428 -0.0332  0.1705 -0.1620
  784W        W 4835   5.641   8.479  11.945  0.0244  0.0253  0.3807
  785W        W 4836   1.934   4.284   0.930  0.2985 -0.4532  0.3316
  786W        W 4837   7.918   3.154   2.706 -0.0426  0.0271  0.1203
  787W        W 4838   8.297   7.649  13.337  0.2592 -0.2258  0.0105
  788W        W 4839   5.907   3.947   1.497 -0.1844 -0.0933  0.1024
  789W        W 4840   6.277   0.526  12.492 -0.1831  0.3411 -0.0860
  790W        W 4841   3.619   9.716  13.541  0.1748 -0.1577 -0.0484
  791W        W 4842   0.738   2.221   1.343  0.2532 -0.0312 -0.0122
  792W        W 4843   3.261   3.486   0.076  0.0952  0.0658 -0.1909
  793W        W 4844   8.179   6.259   1.659 -0.2463 -0.2005 -0.1956
  794W        W 4845   9.428   2.348  10.245  0.1820  0.1698 -0.2757
  795W        W 4846   9.550   7.858  11.145 -0.1977 -0.0214  0.1984
  796W        W 4847   8.368   3.813   2.666 -0.1282 -0.3857  0.0674
  797W        W 4848   0.928   5.056  13.891 -0.1016  0.0731  0.3796
  798W        W 4849   4.951   4.329  11.464  0.0721  0.1063 -0.0667
  799W        W 4850   6.185   0.362   1.801 -0.1277  0.0972 -0.0564
  800W        W 4851   0.274   7.751  12.643 -0.2673  0.2500  0.1270
  801W        W 4852   7.893   9.296  12.540 -0.0172 -0.0104  0.1619
  802W        W 4853   2.837   1.515  12.849 -0.0138  0.0149  0.1293
  803W        W 4854   0.391   5.969   0.036 -0.1824  0.0290  0.0878
  804W        W 4855   0.577   8.181  11.737 -0.2919  0.0947  0.0047
  805W        W 4856   4.261   7.018  13.829  0.4247 -0.0498 -0.0803
  806W        W 4857   8.656   9.256   9.528 -0.1303 -0.3539  0.1744
  807W        W 4858   5.207   9.116   3.642  0.0098 -0.1033 -0.0863
  808W        W 4859   3.581   3.018  11.065 -0.2105 -0.3889 -0.0681
  809W        W 4860   0.373   1.541   2.408  0.2029  0.2079 -0.0439
  810W        W 4861   1.745   7.378  13.133  0.4156 -0.1187  0.1410
  811W        W 4862   0.239   2.167   3.029  0.4431 -0.1257 -0.0870
  812W        W 4863   5.767   4.916  11.509  0.0570  0.0162  0.0812
  813W        W 4864   4.390   5.604  13.462  0.0936  0.0496 -0.1894
  814W        W 4865   5.519   6.050   3.728 -0.3528  0.1760 -0.2462
  815W        W 4866   6.052   8.502  10.369  0.0410  0.1726  0.2828
  816W        W 4867   0.587   9.399  12.375  0.1401 -0.1391  0.0361
  817W        W 4868   1.757   4.259   1.529 -0.0754 -0.2135 -0.0749
  818W        W 4869   9.476   9.369   3.546  0.0396 -0.0354  0.1492
  819W        W 4870   0.873   0.834  13.140  0.0307 -0.3173 -0.0739
  820W        W 4871   2.790   7.931  10.862 -0.1777  0.0482 -0.1919
  821W        W 4872   1.796  10.055  11.164  0.0916 -0.0095  0.0866
  822W        W 4873   9.015   5.182   1.287 -0.1077  0.0929 -0.4600
  823W        W 4874   0.079   2.547   0.439 -0.1881  0.2600  0.2235
  824W        W 4875   1.813   7.749   2.117 -0.0469  0.3629  0.1797
  825W        W 4876   2.080   5.485  12.283  0.0819 -0.1477  0.1974
  826W        W 4877   8.258   5.597   3.102 -0.0143  0.2230  0.1543
  827W        W 4878   1.209   8.975  11.470  0.0719  0.0853  0.1087
  828W        W 4879   4.150   6.194   0.945 -0.1685 -0.0301  0.0278
  829W        W 4880   7.156   9.069   0.870  0.2036  0.4299 -0.0957
  830W        W 4881   4.885   5.844  12.600  0.2349 -0.1486 -0.0337
  831W        W 4882   6.956   7.665   2.228  0.3824 -0.0749  0.0208
  832W        W 4883   6.796   1.586  12.856 -0.0033 -0.1157 -0.0664
  833W        W 4884   9.423   9.672   0.070 -0.1419  0.0483  0.1394
  834W        W 4885   8.587   7.626   1.831  0.1651 -0.3506 -0.3242
  835W        W 4886   6.836   6.580   3.732 -0.3110  0.0466 -0.2498
  836W        W 4887   1.442   5.358  11.533 -0.3002 -0.1772 -0.1507
  837W        W 4888   0.189   0.132   2.725 -0.1246 -0.0390 -0.1086
  838W        W 4889   8.073   8.414   9.490  0.3165 -0.4899 -0.3435
  839W        W 4890   7.767   3.124   4.649  0.2276  0.1202  0.0041
  840W        W 4891   7.959   7.438   4.341 -0.3227  0.2452  0.0980
  841W        W 4892   7.893   1.883   9.996  0.0150 -0.0729 -0.0599
  842W        W 4893   5.810   1.805   0.758  0.1554 -0.0982  0.0249
  843W        W 4894   0.225   8.580   1.288 -0.1596 -0.0921 -0.2176
  844W        W 4895   6.595   3.166   0.074  0.1148  0.0216  0.0536
  845W        W 4896   8.741   5.817   3.980 -0.1422 -0.0511  0.4152
  846W        W 4897   4.265   1.858   8.439  0.0793  0.0991  0.0216
  847W        W 4898   8.981   0.344   3.785 -0.1896 -0.1093 -0.0442
  848W        W 4899   8.651   9.913   4.605 -0.0851 -0.1363  0.1171
  849W        W 4900   6.809   1.899  12.019 -0.0131  0.3531 -0.0072
  850W        W 4901   6.124   8.801  13.544 -0.0295  0.0790 -0.0504
  851W        W 4902   4.872   2.089  11.468 -0.0505  0.3335 -0.1293
  852W        W 4903   7.653   2.248  12.241  0.0286 -0.1090  0.1420
  853W        W 4904   1.088   3.576  13.865 -0.2234  0.0342 -0.1598
  854W        W 4905   2.753   5.584   3.875  0.1313 -0.0578  0.0345
  855W        W 4906   6.906   4.779   2.739  0.3243 -0.1549 -0.1990
  856W        W 4907   3.037   5.102  11.234  0.0340  0.0769 -0.3692
  857W        W 4908   2.996   6.116   0.876 -0.1774 -0.2122  0.0136
  858W        W 4909   5.784   6.644  10.701 -0.2247 -0.0778 -0.4077
  859W        W 4910   8.953   0.931  10.705  0.3515  0.3303 -0.5077
  860W        W 4911   5.873   1.777   3.278 -0.0243 -0.2371 -0.0778
  861W        W 4912   9.800   3.994   1.290 -0.0210  0.2455  0.2391
  862W        W 4913   4.426   7.268   4.698  0.0557  0.0450  0.3999
  863W        W 4914   5.797   8.566   0.409 -0.0138 -0.2569  0.1797
  864W        W 4915   2.858   2.579  12.487 -0.3239  0.2239 -0.1240
  865W        W 4916   8.728   8.772   3.259  0.0794  0.1830  0.0328
  866W        W 4917   4.831   4.902   3.258 -0.0730 -0.2452  0.2883
  867W        W 4918   6.512   7.818   0.376 -0.1189  0.0595 -0.0349
  868W        W 4919   1.390   8.134   4.661  0.1923  0.3394 -0.2015
  869W        W 4920   3.329   7.725   2.968 -0.0884  0.1491  0.1911
  870W        W 4921   9.697   2.055   3.945 -0.1152 -0.0796  0.2010
  871W        W 4922   2.926   4.356   0.015  0.0901  0.1350  0.0220
  872W        W 4923   0.831   6.172   3.602  0.3036  0.0044 -0.0495
  873W        W 4924   5.946   2.684  10.518 -0.2927  0.0322  0.2024
  874W        W 4925   7.727   6.245  10.844 -0.0442 -0.2277 -0.1834
  875W        W 4926   0.973   0.934   9.415 -0.0086  0.1662  0.2869
  876W        W 4927   8.308   7.185   2.945  0.4200 -0.0228  0.0004
  877W        W 4928   4.848   8.440   2.720 -0.0929  0.1085  0.0590
  878W        W 4929   3.851   5.007   2.773 -0.0962 -0.2971 -0.1065
  879W        W 4930   5.940   9.953   3.053  0.0810 -0.1413  0.1242
  880W        W 4931   1.255   5.481   3.241  0.1585 -0.2028  0.0243
  881W        W 4932   8.766   1.364   1.590  0.0223  0.0920  0.2161
  882W        W 4933   0.525   1.174  12.677 -0.0175  0.0330  0.0114
  883W        W 4934   3.802   8.642   9.300  0.1715  0.0193  0.0189
  884W        W 4935   1.295   6.870   3.279 -0.0369 -0.0280 -0.1678
  885W        W 4936   9.202   1.011  11.925  0.0720  0.1013  0.4192
  886W        W 4937   7.818   2.405   0.568 -0.3278 -0.1512 -0.0948
  887W        W 4938   2.240   5.477   2.920 -0.0066 -0.0415 -0.1275
  888W        W 4939   9.631   0.639   4.772  0.0494 -0.2010  0.4097
  889W        W 4940   8.410   4.873   0.292 -0.1426  0.4112 -0.0886
  890W        W 4941   2.424   7.333  13.656 -0.0964  0.1743 -0.1036
  891W        W 4942   0.525   5.335  11.514  0.1792 -0.0699 -0.0449
  892W        W 4943   4.239   7.678  10.264 -0.0862 -0.0744  0.0091
  893W        W 4944   6.761   7.566   0.863  0.0629  0.3172 -0.0672
  894W        W 4945   7.049   2.953  12.883 -0.0191 -0.0008 -0.0759
  895W        W 4946   0.216   5.618   1.438 -0.0996 -0.0942  0.1376
  896W        W 4947  10.053   2.204   2.309  0.0223 -0.4003  0.2943
  897W        W 4948   3.583   0.167  12.531  0.2388 -0.0026  0.0391
  898W        W 4949   8.486   3.085   3.510 -0.0537 -0.2630  0.0773
  899W        W 4950   6.153   6.145   9.708 -0.1466  0.0130  0.1592
  900W        W 4951   6.703   2.154  11.654  0.1700  0.0593  0.1369
  901W        W 4952   9.365   6.551   0.133 -0.1746 -0.2745 -0.0459
  902W        W 4953   9.018   6.424  10.452  0.2599  0.1804 -0.1560
  903W        W 4954   6.426   3.604   4.035 -0.0693  0.2104  0.2349
  904W        W 4955   5.816   7.132  10.913 -0.0375 -0.1034 -0.2943
  905W        W 4956   0.812   7.408  13.747 -0.0874 -0.3665 -0.0581
  906W        W 4957   3.973   5.136   3.514  0.1727  0.1597  0.1831
  907W        W 4958   1.976   9.584   9.820  0.0957 -0.1005  0.1763
  908W        W 4959   6.312   4.699   0.323  0.1889  0.0182  0.1101
  909W        W 4960   2.450   4.546   0.920 -0.0402 -0.0024  0.3956
  910W        W 4961   9.617   4.947  10.473 -0.2545 -0.1325 -0.0984
  911W        W 4962   1.467   7.811  13.222  0.1064  0.2083  0.1879
  912W        W 4963   2.812   6.086  12.279 -0.4572 -0.0044  0.4156
  913W        W 4964   9.947   8.174   0.786  0.3784  0.1008 -0.1048
  914W        W 4965   2.490   4.490  11.577  0.0826 -0.0985  0.3591
  915W        W 4966   1.891   1.852   3.072 -0.0613 -0.1666 -0.2738
  916W        W 4967   9.477   6.020  12.195  0.0779 -0.4004 -0.0312
  917W        W 4968   4.252   0.576   0.054  0.2645  0.1133  0.3112
  918W        W 4969   7.904   0.450   5.737  0.2566 -0.4088 -0.2692
  919W        W 4970   0.225   1.275  13.207  0.0095 -0.2186  0.0380
  920W        W 4971   1.020   2.436  11.929  0.0353  0.1225  0.1360
  921W        W 4972   2.010   4.053  12.871 -0.3200  0.2107  0.0547
  922W        W 4973   8.378   2.000   2.189  0.3482  0.4743  0.2861
  923W        W 4974   5.690   7.655   1.782 -0.0719  0.0964  0.0901
  924W        W 4975   3.305   8.555  12.399 -0.0371  0.2327  0.1843
  925W        W 4976   4.240   4.379   3.032 -0.0727  0.2715 -0.1344
  926W        W 4977   1.015   8.709   5.257  0.0056 -0.0022  0.2622
  927W        W 4978   7.259   1.043   0.093  0.4300  0.1962  0.1516
  928W        W 4979   6.085   3.461   3.670 -0.0466  0.2165  0.1311
  929W        W 4980   5.468   6.582   0.690  0.2110 -0.1652  0.2726
  930W        W 4981   6.072   7.124   1.194 -0.1516 -0.3535  0.0302
  931W        W 4982   8.814   4.149   2.755 -0.2786  0.0837  0.1126
  932W        W 4983   0.347   5.590   3.597 -0.3449 -0.1304  0.0386
  933W        W 4984   3.520   8.143  12.095 -0.0207  0.2052  0.1650
  934W        W 4985   3.739   7.910  11.122  0.2824 -0.0790 -0.1109
  935W        W 4986   4.418   9.185   2.182 -0.0649  0.0704  0.0457
  936W        W 4987   5.674   5.614  13.120  0.1306 -0.0701  0.1686
  937W        W 4988   7.396   8.537  11.434 -0.2021 -0.1118 -0.5693
  938W        W 4989   0.790   8.822  11.890  0.0698  0.0322 -0.1812
  939W        W 4990   1.219   7.396  12.071 -0.0394 -0.2921  0.2453
  940W        W 4991   7.401   8.704   3.406  0.2459  0.2787 -0.2228
  941W        W 4992   0.991   8.824  10.409 -0.1343 -0.1521  0.0052
  942W        W 4993   2.265   8.374  11.913  0.1571  0.4201 -0.0304
  943W        W 4994   3.571   0.864  13.718  0.1512 -0.1828 -0.1854
  944W        W 4995   3.215   1.198   9.698 -0.1947 -0.2951 -0.2516
  945W        W 4996   7.257   6.127  13.335 -0.0663  0.2134  0.2719
  946W        W 4997   2.320   6.262   0.639 -0.0482 -0.0538  0.1000
  947W        W 4998   7.469   1.943   9.770 -0.0870 -0.1656  0.2893
  948W        W 4999   3.122   5.070   0.338  0.0542 -0.1335  0.2295
  949W        W 5000   6.344   4.237   0.108  0.0969 -0.1073 -0.1460
  950W        W 5001   0.770   5.774   2.550 -0.1053  0.1301 -0.2825
  951W        W 5002   0.329   9.032   4.453 -0.1163 -0.1616 -0.5372
  952W        W 5003   9.052  10.159   4.409  0.1344  0.2480 -0.2487
  953W        W 5004   7.572  10.152   2.091  0.4855 -0.0216 -0.0454
  954W        W 5005   1.224   4.569  12.424 -0.3499  0.1809  0.2571
  955W        W 5006   5.412   2.565  13.819  0.0037  0.2155 -0.2102
  956W        W 5007   1.145   9.403   2.336 -0.1071 -0.0418  0.1926
  957W        W 5008   8.604   9.965   0.109 -0.1509 -0.0155 -0.1074
  958W        W 5009   4.036   3.264  12.504 -0.0158  0.1508 -0.0510
  959W        W 5010   7.385   8.669   0.021  0.1278 -0.0390  0.2981
  960W        W 5011   7.962   9.597   3.965 -0.5785  0.1638  0.0509
  961W        W 5012   4.646   5.896  12.155  0.2076 -0.0983 -0.0839
  962W        W 5013   3.074   1.641   4.183 -0.1243  0.0678  0.3768
  963W        W 5014   0.976   0.760  10.586 -0.1659  0.3558  0.3673
  964W        W 5015   7.760   5.740   1.734  0.1396  0.0558 -0.0566
  965W        W 5016   2.627   2.758  10.517  0.0690  0.2301  0.0222
  966W        W 5017   7.297   0.012   9.935  0.1026 -0.3348  0.2677
  967W        W 5018  10.028   2.542  12.933 -0.0242  0.5348 -0.4113
  968W        W 5019   4.729   7.446  11.120 -0.0018 -0.2815 -0.2143
  969W        W 5020   4.640   7.841   0.299 -0.0997  0.1009 -0.1215
  970W        W 5021   8.147   0.835  12.741  0.0010  0.2513 -0.3393
  971W        W 5022   5.616   7.987  13.479  0.0926  0.2665 -0.2055
  972W        W 5023   6.439   0.988   4.208 -0.0428 -0.0927 -0.3970
  973W        W 5024   1.982   5.661  11.828  0.0701 -0.1794 -0.0887
  974W        W 5025   8.708   7.769  13.547  0.3141 -0.2532 -0.0561
  975W        W 5026   8.007   8.654   4.134  0.0415 -0.2712  0.0083
  976W        W 5027   5.632   4.607   5.615 -0.2263  0.0577  0.0994
  977W        W 5028   7.913   1.460   9.652  0.3687 -0.0468  0.0970
  978W        W 5029   3.332   5.855  11.731  0.1266 -0.1547  0.0942
  979W        W 5030   2.082   2.234   2.799 -0.1696  0.1753  0.4521
  980W        W 5031   1.914   9.761   1.127 -0.1840  0.4527 -0.0043
  981W        W 5032   1.939   3.035  12.056 -0.0261 -0.0407  0.0760
  982W        W 5033   7.389   8.942   0.408  0.1208 -0.1660  0.1091
  983W        W 5034  10.079   7.596  11.672 -0.1863 -0.0925  0.0066
  984W        W 5035   5.996   7.190   9.015 -0.1078 -0.0448  0.0116
  985W        W 5036   6.579   8.953   1.191 -0.1770  0.0728  0.0915
  986W        W 5037   5.766   6.796   1.477  0.2450  0.1172  0.3652
  987W        W 5038   4.200   9.511   1.322 -0.1937  0.1766 -0.1614
  988W        W 5039   6.846   7.035  11.541  0.0498  0.0319  0.1593
  989W        W 5040   9.616   2.115   2.623  0.1272  0.2425  0.2488
  990W        W 5041   7.615   3.706  10.355  0.3034  0.0379 -0.0918
  991W        W 5042   6.907   9.174   3.800 -0.3229 -0.0833  0.0878
  992W        W 5043   5.545   1.886  10.533  0.3763 -0.0586  0.0810
  993W        W 5044   8.072   8.995   9.734 -0.3060  0.2100 -0.2568
  994W        W 5045   2.439   3.770   9.979  0.0161 -0.0238  0.1043
  995W        W 5046   9.467   0.687   3.858  0.0983  0.1960 -0.0547
  996W        W 5047   3.574   2.058   4.779 -0.1785 -0.2036 -0.0395
  997W        W 5048   6.470   5.035   1.209  0.3007 -0.0457  0.0036
  998W        W 5049   3.965   8.553   3.718  0.0780 -0.1878  0.0103
  999W        W 5050   0.952   9.783   0.421  0.2642  0.1198 -0.3900
 1000W        W 5051   9.192   2.877   1.408 -0.1976 -0.0568  0.0654
 1001W        W 5052   1.539   6.478   1.649  0.0594  0.1381 -0.3813
 1002W        W 5053   5.794   8.804  13.126  0.0291 -0.1210 -0.1351
 1003W        W 5054   9.210   2.578  12.530 -0.1778 -0.1293 -0.0888
 1004W        W 5055   2.681   3.700   9.541  0.0314  0.0316 -0.0704
 1005W        W 5056   8.987   0.528  12.740  0.2488 -0.2034  0.0710
 1006W        W 5057   8.178   2.130  11.076 -0.1113 -0.3416  0.0951
 1007W        W 5058   4.402   6.548   3.944  0.1917 -0.0185 -0.1562
 1008W        W 5059   9.725   3.022   4.441 -0.2506  0.3080 -0.0955
 1009W        W 5060   2.161   5.596  11.368 -0.1916  0.0408  0.2129
 1010W        W 5061   7.219   0.069   0.057 -0.1341  0.0093 -0.0852
 1011W        W 5062   1.218   6.463  11.081  0.0843  0.0846 -0.1212
 1012W        W 5063   7.029   1.142  10.967  0.0347  0.2526 -0.0380
 1013W        W 5064   1.215   5.511  12.803 -0.1393 -0.0304 -0.0864
 1014W        W 5065   8.566   8.646  12.912  0.0875  0.3210 -0.3596
 1015W        W 5066   5.855   3.736   9.399 -0.0512 -0.0256  0.0062
 1016W        W 5067   5.542   7.295   1.436 -0.1434 -0.1425 -0.0224
 1017W        W 5068   3.786   4.023  12.532 -0.1568 -0.2395 -0.1190
 1018W        W 5069   9.677   6.499   1.342 -0.1516 -0.0629 -0.1449
 1019W        W 5070   2.294   0.519  13.275 -0.2066 -0.1761  0.0410
 1020W        W 5071  10.156   7.821   4.965 -0.1095 -0.3843  0.0274
 1021W        W 5072   4.189   7.557   8.682 -0.6076 -0.0301 -0.0120
 1022W        W 5073   2.785   8.529   2.073  0.0368 -0.4060  0.1041
 1023W        W 5074   7.173   7.813   0.667  0.1647  0.1578  0.1213
 1024W        W 5075   8.106   0.240   0.783 -0.1056 -0.2226  0.1139
 1025W        W 5076   2.705   2.231  10.623 -0.1535  0.1462 -0.2036
 1026W        W 5077   9.637   0.550   0.850 -0.0568  0.0054 -0.0905
 1027W        W 5078  10.041   5.549   0.223  0.2514  0.0020  0.2773
 1028W        W 5079   0.697   2.021  12.149 -0.1148  0.4599 -0.1988
 1029W        W 5080   0.926   4.142  11.944  0.0054  0.1544 -0.3837
 1030W        W 5081   0.562   8.417  11.328  0.3805 -0.1028 -0.1762
 1031W        W 5082   5.810   1.848  11.228 -0.1998 -0.1881 -0.1202
 1032W        W 5083   7.844   2.678   2.181  0.1299 -0.1141  0.1025
 1033W        W 5084   1.160   3.106   0.998 -0.0818  0.0106 -0.3798
 1034W        W 5085   1.530   7.814  12.648 -0.1194 -0.2436 -0.3129
 1035W        W 5086   4.591   5.188   2.310  0.0960 -0.0756  0.0090
 1036W        W 5087   0.323   9.935  13.173  0.0216 -0.0740 -0.0384
 1037W        W 5088  10.117   2.468   3.797 -0.3373  0.2310  0.0536
 1038W        W 5089   2.231   7.526   1.719 -0.1913 -0.0348 -0.1772
 1039W        W 5090   4.381   6.729  11.047 -0.1195  0.3772 -0.1523
 1040W        W 5091   9.681   3.869   3.166  0.1101 -0.0423 -0.0171
 1041W        W 5092   0.948   0.542   0.447 -0.2270 -0.1162  0.2128
 1042W        W 5093   3.319   9.338  12.624  0.0972  0.2798  0.0191
 1043W        W 5094   5.411   2.782   3.459  0.0181  0.1146  0.0290
 1044W        W 5095   7.694   3.839   3.262  0.0953 -0.1826  0.1112
 1045W        W 5096   4.351   2.754   9.588 -0.1958 -0.1431  0.1784
 1046W        W 5097   0.947   7.538   1.855 -0.0815  0.0987 -0.1222
 1047W        W 5098   2.612   1.970   0.011  0.2878 -0.3251 -0.1212
 1048W        W 5099   2.164   8.906  10.320  0.1640  0.1640 -0.1896
 1049W        W 5100   8.861   2.682  11.514 -0.2004  0.0640  0.1357
 1050W        W 5101   8.648   9.274   1.921 -0.1609  0.0866  0.1295
 1051W        W 5102   9.164   6.145   1.276  0.0733  0.2480 -0.2033
 1052W        W 5103   9.143   8.387   1.981 -0.1358  0.0331  0.2392
 1053W        W 5104   0.773   9.420   1.929 -0.1829 -0.3826 -0.0504
 1054W        W 5105   5.117   5.137   3.649  0.0539  0.0981 -0.2214
 1055W        W 5106   3.187   8.613   4.966  0.0793  0.2011 -0.4520
 1056W        W 5107   4.617   2.975  13.130  0.0156  0.1676  0.0647
 1057W        W 5108   6.115   3.893  10.433 -0.0547 -0.1214 -0.5016
 1058W        W 5109   1.628   1.855   1.930 -0.1093 -0.0508 -0.0864
 1059W        W 5110   1.891   3.330  13.521 -0.1937 -0.1830 -0.1538
 1060W        W 5111   8.361   2.491  10.338 -0.2653  0.1811  0.2040
 1061W        W 5112   6.287   3.014   3.548 -0.0476 -0.0827 -0.1769
 1062W        W 5113   4.018   1.401   3.246  0.0206  0.2691 -0.0624
 1063W        W 5114   2.245   5.247  13.614  0.0835 -0.0553  0.1624
 1064W        W 5115   4.584   1.133  13.849  0.2356 -0.2780 -0.1173
 1065W        W 5116   4.800   1.713   9.603  0.2648  0.1041 -0.1421
 1066W        W 5117   7.737   1.369  10.140  0.0783  0.0523  0.1472
 1067W        W 5118   6.426   1.580   3.384 -0.0715 -0.1692 -0.1893
 1068W        W 5119   9.099   6.162   2.998 -0.2645 -0.0296  0.2022
 1069W        W 5120   5.760   4.058   4.376  0.1079 -0.2499  0.0382
 1070W        W 5121   7.572   8.699   4.916  0.0025  0.0297 -0.1547
 1071W        W 5122   7.759   1.207   0.167 -0.1048  0.3489  0.1014
 1072W        W 5123   0.242   4.261  13.853  0.0161 -0.0834  0.0117
 1073W        W 5124   0.043   6.954   2.508  0.2965  0.2222  0.2127
 1074W        W 5125   6.786   6.106  13.146  0.2969  0.2449 -0.4307
 1075W        W 5126   3.955   1.301  11.829 -0.2000 -0.1883  0.2888
 1076W        W 5127   8.400   5.335  11.738 -0.1015 -0.1465 -0.0130
 1077W        W 5128   9.956   7.333   2.875  0.0768 -0.0044  0.0331
 1078W        W 5129   9.792   9.927   2.298  0.0177 -0.0026  0.0564
 1079W        W 5130   3.463   6.802  10.596 -0.1055 -0.1471 -0.0018
 1080W        W 5131   4.524   6.860  12.143 -0.0030 -0.1125  0.0947
 1081W        W 5132   7.388   1.913  13.421  0.0945 -0.0370 -0.0060
 1082W        W 5133   0.664   2.401   3.636  0.3228 -0.0578  0.2270
 1083W        W 5134   2.853   1.739  11.535  0.1801 -0.0318 -0.2721
 1084W        W 5135   4.191   2.298   9.358  0.1068  0.1279 -0.4255
 1085W        W 5136   4.866   9.248   2.745  0.0141  0.0856 -0.1658
 1086W        W 5137   9.746   2.795   3.175  0.0686 -0.1174  0.1906
 1087W        W 5138   0.565   6.788   1.640  0.0464 -0.0541  0.2138
 1088W        W 5139   2.584   2.459   3.623 -0.0465 -0.0165  0.1569
 1089W        W 5140   8.153   0.583  11.776 -0.0344  0.2748  0.3866
 1090W        W 5141   6.204   9.621  11.635  0.0077  0.0816 -0.1108
 1091W        W 5142   6.156   3.292   4.921  0.2125  0.1643 -0.0166
 1092W        W 5143   9.715   5.144  11.167  0.2327 -0.2336  0.0781
 1093W        W 5144   0.362   3.323  12.084 -0.1913  0.2515  0.0208
 1094W        W 5145   7.069   0.334   4.136 -0.1377  0.1379  0.1233
 1095W        W 5146   0.754   2.651   4.261 -0.0351 -0.1927  0.2955
 1096W        W 5147   7.715   1.949   1.602 -0.0621 -0.0739  0.1079
 1097W        W 5148   9.345   4.069  10.998 -0.2188  0.3018 -0.4237
 1098W        W 5149   6.314   7.484  13.416  0.1394  0.2272 -0.1278
 1099W        W 5150   3.663   1.753  11.618 -0.2421  0.4935 -0.0873
 1100W        W 5151   6.856   7.926   9.527 -0.0211  0.1269  0.3576
 1101W        W 5152   1.501   6.662   4.437  0.1500  0.1566 -0.0975
 1102W        W 5153   3.104   6.399  12.531  0.2524 -0.0662  0.0897
 1103W        W 5154   4.476   0.477  11.726 -0.2406  0.0329 -0.1100
 1104W        W 5155   7.643   0.049  11.751  0.1789 -0.0243  0.3534
 1105W        W 5156   9.542   0.424  10.298  0.3488  0.2860 -0.3146
 1106W        W 5157   9.031   2.120  12.866  0.1368  0.0072  0.1251
 1107W        W 5158   6.482   7.662   9.625 -0.3358  0.0025  0.1541
 1108W        W 5159   5.637   7.598   9.599 -0.0506 -0.1938  0.0181
 1109W        W 5160   1.623   3.795  13.716 -0.2477 -0.1707  0.1526
 1110W        W 5161   4.217   6.499   4.464 -0.1547 -0.3731  0.3295
 1111W        W 5162   8.797   7.364  13.963  0.1583  0.2404 -0.2793
 1112W        W 5163   0.268   9.753  12.687  0.2676 -0.2693 -0.0416
 1113W        W 5164   4.977   0.005   2.261 -0.2088 -0.2774 -0.1202
 1114W        W 5165   9.430   4.408  11.762 -0.1822  0.0490  0.1155
 1115W        W 5166   6.937  10.079   1.085 -0.0631 -0.1751 -0.0826
 1116W        W 5167   4.946   0.347  11.942 -0.0322 -0.2060 -0.2387
 1117W        W 5168   1.006   1.165  13.519  0.0688 -0.1474  0.1475
 1118W        W 5169   4.613   7.074  10.728  0.1266  0.1855 -0.2448
 1119W        W 5170   4.347   9.266   0.028 -0.0148  0.1646  0.1364
 1120W        W 5171   3.427   1.146  12.701  0.0902  0.3095  0.1858
 1121W        W 5172   0.143   4.947   1.524 -0.2195 -0.0629  0.4074
 1122W        W 5173   2.372   9.133  13.812 -0.3200 -0.0298 -0.1185
 1123W        W 5174   1.559   9.518   2.638 -0.0692 -0.1359  0.1096
 1124W        W 5175   9.866   3.233   1.143  0.3542  0.3131  0.2190
 1125W        W 5176   1.645   6.274  11.290  0.2820  0.2239  0.2924
 1126W        W 5177   6.380   0.419   4.476  0.2135  0.0679  0.0256
 1127W        W 5178   7.386   1.292  11.769  0.1989 -0.0649  0.3644
 1128W        W 5179   8.703   0.179   2.422 -0.0562 -0.1376  0.4744
 1129W        W 5180   4.016   1.512   9.621  0.1685 -0.0001  0.0317
 1130W        W 5181   4.971   7.954   4.434 -0.2383 -0.1327  0.2697
 1131W        W 5182   1.460   7.253  10.788 -0.0303  0.0351 -0.3993
 1132W        W 5183   3.468   3.812  12.983 -0.0994  0.4011  0.0542
 1133W        W 5184   7.343   0.351   1.795 -0.1751 -0.2584  0.0055
 1134W        W 5185   3.034   5.623  11.375 -0.2047 -0.2033 -0.1140
 1135W        W 5186   9.968   8.176  13.991 -0.1546  0.0259 -0.1182
 1136W        W 5187   8.505   0.299   3.609  0.2088  0.2348 -0.2812
 1137W        W 5188   0.636   7.282  11.625  0.3475  0.0008  0.0492
 1138W        W 5189   0.280   3.518  13.446  0.2258  0.4189 -0.0816
 1139W        W 5190   6.928   1.901   0.187  0.0502  0.0660 -0.2454
 1140W        W 5191  10.079   0.964  12.763 -0.0102  0.0541  0.1332
 1141W        W 5192   8.625   2.297   3.508 -0.1765 -0.2302 -0.3430
 1142W        W 5193   4.664   1.765  11.094 -0.1662  0.1798 -0.0688
 1143W        W 5194   9.490   7.984   4.171 -0.1783 -0.0807 -0.0040
 1144W        W 5195   5.997   3.691  13.281  0.3536 -0.0023  0.0946
 1145W        W 5196   5.945   1.623  13.279 -0.0053 -0.2511 -0.0449
 1146W        W 5197   2.132   8.596   4.877  0.2415 -0.1480 -0.2301
 1147W        W 5198   2.117   2.876   1.582  0.4811 -0.0048 -0.0972
 1148W        W 5199   5.839   5.941  10.301 -0.1992 -0.0887 -0.1137
 1149W        W 5200   1.250   7.632  11.213  0.4789  0.0906  0.1464
 1150W        W 5201   5.547   9.548  12.681 -0.0292 -0.0816 -0.1072
 1151W        W 5202   8.543   5.680  10.782 -0.3838  0.1196 -0.1189
 1152W        W 5203   4.184   9.026  10.609  0.1669  0.1021  0.1760
 1153W        W 5204   9.237   8.258   0.145 -0.2342  0.0533 -0.0242
 1154W        W 5205   3.117   4.634   9.099  0.1270  0.1508 -0.1046
 1155W        W 5206   4.741   4.446   3.457 -0.1075  0.0887  0.1801
 1156W        W 5207   5.909   0.811  13.751 -0.0470  0.0802 -0.1739
 1157W        W 5208   3.962   4.239  12.907 -0.4282 -0.1206 -0.0621
 1158W        W 5209   2.634   7.682   5.054 -0.3624  0.2886 -0.1104
 1159W        W 5210   0.988   5.256   1.130 -0.1320  0.2864 -0.1069
 1160W        W 5211   9.230   6.789   3.222 -0.1405 -0.0132  0.1975
 1161W        W 5212   8.323   1.939   2.920 -0.1204 -0.3774 -0.1584
 1162W        W 5213   3.479   0.030   0.696 -0.0594  0.1897  0.1457
 1163W        W 5214   5.857   0.022   1.398  0.0901  0.0698  0.2562
 1164W        W 5215   9.236   0.301   1.544  0.3006 -0.0209 -0.3382
 1165W        W 5216   3.425   6.862  12.886  0.0387  0.1424 -0.1102
 1166W        W 5217   3.000   3.892   3.626 -0.5300 -0.1749  0.1136
 1167W        W 5218   1.906   5.675   0.125 -0.2662  0.3873 -0.0642
 1168W        W 5219   9.158   9.886  11.427 -0.1564 -0.0882  0.1931
 1169W        W 5220   7.661   4.770   1.420 -0.1487 -0.1062  0.1458
 1170W        W 5221   5.478   6.735  11.092  0.0481 -0.1563 -0.0715
 1171W        W 5222   2.356   6.049   0.062 -0.0166  0.1787 -0.1009
 1172W        W 5223   3.706   6.664   0.218 -0.0472  0.0760  0.0560
 1173W        W 5224   4.166   6.981   0.232 -0.1763 -0.0875 -0.0425
 1174W        W 5225   6.791   4.950   0.846 -0.0118 -0.2211  0.2000
 1175W        W 5226   9.405   8.015   1.829 -0.0719 -0.1799 -0.4363
 1176W        W 5227   7.122   3.612   0.204  0.1157  0.3746 -0.0316
 1177W        W 5228   6.116   4.202   2.263  0.0123  0.2094  0.1792
 1178W        W 5229   8.007   3.996   2.308 -0.2282 -0.0143  0.0180
 1179W        W 5230   4.949   6.492   0.582  0.0238 -0.0698  0.3069
 1180W        W 5231   1.212   9.631   3.529 -0.1788 -0.4576 -0.0796
 1181W        W 5232   1.817   9.382  10.322 -0.0079  0.0170  0.0758
 1182W        W 5233   1.277   1.088  13.912 -0.1985 -0.0800 -0.2600
 1183W        W 5234   3.013   3.874  13.837  0.1850  0.1780  0.0774
 1184W        W 5235   1.915   6.008  13.253  0.1032  0.3050  0.0273
 1185W        W 5236   1.207   6.835   0.210  0.0098 -0.0515 -0.0065
 1186W        W 5237   6.953   1.392  11.977  0.0033  0.3113  0.2192
 1187W        W 5238   1.004   6.185   1.294  0.0283  0.0663 -0.0743
 1188W        W 5239   5.910   3.439   1.409 -0.2286 -0.0416  0.1941
 1189W        W 5240   3.484   3.484   3.937 -0.3161  0.2020 -0.1437
 1190W        W 5241   6.403   7.869  11.408 -0.0221 -0.1762  0.0812
 1191W        W 5242   4.815   7.236   1.715  0.4092 -0.0788 -0.1689
 1192W        W 5243   8.510   2.820   9.396  0.1855  0.1809  0.2826
 1193W        W 5244   7.733   4.332   0.415 -0.0428  0.0738 -0.2322
 1194W        W 5245   0.421   1.382  10.034  0.1974  0.2331 -0.4266
 1195W        W 5246   6.879   8.226   4.683  0.0493  0.1003  0.0384
 1196W        W 5247   5.502   7.299   9.115 -0.0424 -0.0285 -0.0189
 1197W        W 5248   3.415   4.449   0.146  0.1277  0.0183  0.1198
 1198W        W 5249   0.903   8.062   2.850  0.2037  0.0731  0.1589
 1199W        W 5250   0.877   5.710  10.885 -0.0627  0.2131  0.0104
 1200W        W 5251   1.636   0.260  10.903 -0.1717 -0.3365  0.1727
 1201W        W 5252   8.415   1.724  12.513  0.1803 -0.0178  0.1920
 1202W        W 5253   8.627   6.681   2.797  0.0600 -0.1425  0.0636
 1203W        W 5254   7.852   6.477  12.128 -0.3090 -0.0234  0.3409
 1204W        W 5255   3.754   2.287   4.273  0.0679  0.0141 -0.0475
 1205W        W 5256   5.164   6.053   1.917  0.3850  0.2156 -0.0414
 1206W        W 5257  10.084   1.119  13.624  0.1079  0.0611 -0.1388
 1207W        W 5258   3.656   9.932   1.562  0.1795  0.0687  0.0796
 1208W        W 5259   5.538   8.095   0.496 -0.1026  0.3240  0.1481
 1209W        W 5260   1.224   7.642  10.491 -0.1612 -0.2221 -0.0576
 1210W        W 5261   3.381   2.431   2.448 -0.1386  0.4716 -0.2159
 1211W        W 5262   0.336   2.278  13.107 -0.1513  0.2903  0.3261
 1212W        W 5263   2.424   4.576  13.945  0.0577 -0.4722 -0.2631
 1213W        W 5264   7.138   7.069  10.590 -0.2099 -0.0223 -0.1638
 1214W        W 5265   3.483   5.786   3.679 -0.1107 -0.0534 -0.3043
 1215W        W 5266   1.595   3.152   3.600 -0.2104  0.0028 -0.0113
 1216W        W 5267   2.204   9.219  11.277 -0.0243 -0.2356  0.0597
 1217W        W 5268   7.255   1.686   0.660 -0.1223 -0.1680 -0.1677
 1218W        W 5269   9.351   0.004   0.706 -0.1730  0.0435  0.1748
 1219W        W 5270   2.274   7.370   2.204 -0.2940 -0.0569 -0.3478
 1220W        W 5271   2.979   4.605  11.861  0.4380  0.2915  0.0674
 1221W        W 5272   8.899   8.534   3.690  0.0901  0.0135 -0.1282
 1222W        W 5273   3.042   2.276  11.110  0.1204  0.1949  0.0934
 1223W        W 5274   4.475   5.152   1.877 -0.0669 -0.1285  0.1810
 1224W        W 5275   1.528   7.990   2.819 -0.1926 -0.1523  0.0135
 1225W        W 5276   6.698   7.325   4.215 -0.2300 -0.2207  0.1138
 1226W        W 5277  10.057   7.617   3.354  0.1450  0.2413  0.2344
 1227W        W 5278   2.783   1.598   8.674  0.4234  0.1199 -0.2273
 1228W        W 5279   8.576   0.491  13.049 -0.2091  0.1912 -0.2350
 1229W        W 5280   5.394   8.131  11.616 -0.2466  0.0662  0.1266
 1230W        W 5281  10.085  10.090   1.342  0.0100 -0.2765 -0.2464
 1231W        W 5282   2.617   5.291  12.150 -0.0202 -0.1752  0.1178
 1232W        W 5283   7.271   2.580   8.899 -0.0362 -0.2389 -0.2639
 1233W        W 5284   0.448   6.378   0.551  0.0653  0.5909  0.1720
 1234W        W 5285   2.232   6.241  13.589 -0.0732 -0.1219  0.2882
 1235W        W 5286   1.953   8.151  13.384 -0.2564  0.1604  0.4847
 1236W        W 5287   7.921   5.945   2.239  0.0525 -0.0262  0.0756
 1237W        W 5288   9.972   6.320  12.897 -0.1577 -0.0370 -0.0817
 1238W        W 5289   5.819   8.723   4.294 -0.0063 -0.1582  0.2595
 1239W        W 5290   6.294   0.816   3.767 -0.1370 -0.1911 -0.0816
 1240W        W 5291   0.111   0.745   4.191 -0.3644  0.2466  0.1612
 1241W        W 5292   8.330   8.990  10.194  0.2916  0.0847  0.0826
 1242W        W 5293   0.288   6.869  10.726 -0.1752  0.4068 -0.4942
 1243W        W 5294   0.789   5.728   3.341  0.1596  0.2957  0.1567
 1244W        W 5295   1.924   3.189   9.929  0.0701  0.2830 -0.0169
 1245W        W 5296   4.019   4.585   1.899  0.0595  0.0690  0.0334
 1246W        W 5297   4.223   3.899  10.320  0.1022  0.1592 -0.0635
 1247W        W 5298   7.351   9.489   4.175 -0.2525  0.0174 -0.1646
 1248W        W 5299   6.361   1.574   3.936 -0.2142 -0.0098  0.5058
 1249W        W 5300   8.416   0.950   2.559  0.0406 -0.0998  0.0452
 1250W        W 5301   9.114   7.008   0.143 -0.0928 -0.0111  0.1857
 1251W        W 5302   1.512   5.951   2.099  0.0452 -0.1170  0.4733
 1252W        W 5303   0.611   2.960  13.736  0.0674  0.0791  0.1231
 1253W        W 5304   9.614   9.031  13.744  0.3642  0.2412 -0.0512
 1254W        W 5305   5.257   4.131  11.786  0.1482 -0.0806  0.0552
 1255W        W 5306   6.292   3.493  12.283 -0.1521  0.0671 -0.1169
 1256W        W 5307   9.318  10.098   3.042  0.1591 -0.0332  0.1625
 1257W        W 5308   8.622   4.186   3.416  0.1069 -0.0376 -0.1087
 1258W        W 5309   8.563   4.273   3.891 -0.1498  0.0783  0.0193
 1259W        W 5310   5.419   9.653   4.678  0.2523 -0.0150 -0.1877
 1260W        W 5311   6.183   3.726  11.710 -0.0499 -0.0879 -0.2242
 1261W        W 5312   2.131   7.992   1.827 -0.2710  0.0196 -0.1684
 1262W        W 5313   7.210   5.650  10.229 -0.0638 -0.0279  0.3212
 1263W        W 5314   4.673   2.830  10.151  0.0177  0.0962 -0.1480
 1264W        W 5315   2.809   6.699   0.918 -0.2267 -0.3965  0.0043
 1265W        W 5316   6.171   1.890   4.337 -0.0752 -0.1396  0.0973
 1266W        W 5317   5.407   2.325  12.289  0.3241  0.0909 -0.0438
 1267W        W 5318   0.862   8.608   2.800  0.2709 -0.1053 -0.1021
 1268W        W 5319   6.547   5.521   0.923  0.0208  0.1041 -0.0149
 1269W        W 5320   5.166   0.203  11.098  0.0803 -0.1100  0.0094
 1270W        W 5321   2.127   2.137   0.350  0.3972  0.0387 -0.0440
 1271W        W 5322   2.345   1.595  13.043  0.1166  0.0982 -0.0622
 1272W        W 5323   6.806   1.560   1.771 -0.3655 -0.2418  0.1568
 1273W        W 5324   8.877   6.794  11.360  0.1737 -0.1571 -0.4885
 1274W        W 5325   6.021   3.155  11.385  0.1791  0.1347  0.0452
 1275W        W 5326   8.100   2.000   0.845 -0.1075  0.3810 -0.0504
 1276W        W 5327   4.569   7.347   9.401 -0.4064 -0.2923 -0.0018
 1277W        W 5328   3.871   4.170   3.365  0.1094  0.3920  0.0329
 1278W        W 5329   7.657   2.906  13.594 -0.3075  0.1047 -0.0375
 1279W        W 5330   1.099   8.017  12.935 -0.1616  0.2848 -0.0790
 1280W        W 5331   0.547   3.676  13.014  0.2010  0.1002  0.1600
 1281W        W 5332   0.623   2.789  11.956  0.1284 -0.1511  0.1258
 1282W        W 5333   2.736   5.371   3.017 -0.0411  0.0037  0.0573
 1283W        W 5334   6.412   8.071   4.553 -0.0882  0.0477 -0.2757
 1284W        W 5335   2.337   2.841   4.144 -0.0605 -0.1299 -0.2307
 1285W        W 5336   9.980   2.379   2.882 -0.1881 -0.0594 -0.1160
 1286W        W 5337   2.695   7.999  11.760  0.1871  0.1754 -0.2114
 1287W        W 5338   1.002   9.906   9.500  0.1724  0.2442 -0.0948
 1288W        W 5339   3.160   9.137  13.186 -0.0933 -0.0289 -0.3170
 1289W        W 5340   1.665   3.871   2.478  0.1661  0.1785 -0.0601
 1290W        W 5341   8.142   4.691   1.101  0.2237 -0.1075  0.3530
 1291W        W 5342   6.833   2.346  10.613 -0.0650  0.1460  0.0233
 1292W        W 5343   8.159   0.148   0.259 -0.0226 -0.0010  0.0580
 1293W        W 5344   5.862   3.541   4.430 -0.0207  0.2241 -0.0583
 1294W        W 5345   6.465   8.290  12.166 -0.2623  0.1990  0.1514
 1295W        W 5346   5.106   2.783   1.052 -0.1805  0.1208  0.1005
 1296W        W 5347   4.532   2.516   1.973 -0.1378 -0.0655  0.1864
 1297W        W 5348   3.498   3.470  10.341  0.0844 -0.1976 -0.0749
 1298W        W 5349   1.494   4.398  10.454 -0.2034  0.1529  0.1346
 1299W        W 5350   4.345   7.860  13.340 -0.0282 -0.0619  0.2569
 1300W        W 5351   0.704   7.494  12.113 -0.0527 -0.4081 -0.2279
 1301W        W 5352   1.968   4.924  13.176 -0.5139 -0.1804 -0.0794
 1302W        W 5353   3.526   8.129  12.896  0.1361 -0.0907  0.0889
 1303W        W 5354   5.493   3.574   1.220  0.3112 -0.2015 -0.2224
 1304W        W 5355   2.167   4.812  11.537 -0.1765  0.3258 -0.0390
 1305W        W 5356   3.669   2.105  11.988 -0.0060 -0.1113  0.4215
 1306W        W 5357   8.300   4.292  10.765 -0.3173 -0.0130 -0.0096
 1307W        W 5358   8.354   1.446   2.761  0.4242 -0.0631 -0.1971
 1308W        W 5359   4.145   5.735  13.026 -0.2672 -0.0755 -0.0117
 1309W        W 5360   2.048   7.626   0.586  0.0297  0.0805  0.0481
 1310W        W 5361   7.800   1.214  12.805 -0.0368  0.3168 -0.1747
 1311W        W 5362   5.702   9.110   3.954  0.0463  0.4037  0.0972
 1312W        W 5363   1.169   3.864   0.208 -0.1085 -0.0852 -0.4000
 1313W        W 5364   3.172   7.752  12.051  0.0588  0.3322  0.0786
 1314W        W 5365   3.904   5.450   8.725 -0.2557  0.0682 -0.1023
 1315W        W 5366   1.693   4.593   2.171 -0.1069 -0.0392 -0.1570
 1316W        W 5367   4.694   6.850   1.363  0.1910  0.2471 -0.1667
 1317W        W 5368   8.772   9.654   5.045  0.0344  0.0326  0.0539
 1318W        W 5369   3.758   0.381   9.635  0.1978 -0.0211 -0.1126
 1319W        W 5370   6.318   3.546   2.743  0.0699 -0.1086  0.1645
 1320W        W 5371   6.449   8.179   9.766 -0.2374 -0.0963 -0.0000
 1321W        W 5372   5.184   5.540   9.598  0.2488  0.0746 -0.1060
 1322W        W 5373   9.467   3.763  12.863  0.1244  0.2091 -0.2125
 1323W        W 5374   1.250  10.004  11.519 -0.0583  0.0918 -0.1130
 1324W        W 5375   0.648   7.007  12.046  0.2659 -0.1370  0.2027
 1325W        W 5376   5.338   1.345   4.627 -0.0299  0.3466  0.1538
 1326W        W 5377   1.612   0.360   5.317 -0.1734 -0.4178  0.2891
 1327W        W 5378   3.436   2.996  10.505 -0.1340  0.1658 -0.3702
 1328W        W 5379   6.998   5.152   3.101 -0.2500 -0.1341 -0.2877
 1329W        W 5380   0.891   6.433   2.639  0.2291  0.0100 -0.2115
 1330W        W 5381   5.580   6.779   9.746 -0.1795 -0.0609  0.2526
 1331W        W 5382   3.329   0.287   2.416 -0.0310 -0.1180 -0.1969
 1332W        W 5383   7.829   7.148  10.758  0.0330  0.0137 -0.1121
 1333W        W 5384   8.307   4.110  12.347 -0.0531 -0.1052 -0.0224
 1334W        W 5385   5.068   0.240   3.501 -0.0379 -0.3052 -0.0434
 1335W        W 5386   0.328   0.122  12.778 -0.0904  0.0705 -0.0376
 1336W        W 5387   8.091   4.450   2.148 -0.1226  0.1628  0.1584
 1337W        W 5388   0.619   9.234   1.136 -0.4048  0.0228  0.0670
 1338W        W 5389   5.460   7.292  12.221 -0.0672 -0.0867  0.0154
 1339W        W 5390   6.528   7.461   2.492  0.0403 -0.1977  0.2590
 1340W        W 5391   3.896   1.693  13.176 -0.0709 -0.3237  0.2315
 1341W        W 5392   7.044   7.006  11.064 -0.0483  0.0639  0.0635
 1342W        W 5393   9.878   0.149  12.579  0.0801  0.0415  0.4625
 1343W        W 5394   2.720   1.451   0.122  0.0907  0.0743 -0.0996
 1344W        W 5395   6.507   1.936  10.709  0.0726 -0.2655 -0.3419
 1345W        W 5396   3.998   6.880   1.191  0.0734  0.1699  0.0744
 1346W        W 5397   6.610   4.625   1.698 -0.0715 -0.2679  0.1006
 1347W        W 5398   7.742   7.928  10.285  0.0293  0.1427  0.2489
 1348W        W 5399   6.074   3.515   1.929 -0.2426  0.1730  0.1104
 1349W        W 5400   4.528   7.667   4.351 -0.0002  0.2116  0.1708
 1350W        W 5401   6.754   8.729   3.348  0.1432 -0.3526 -0.2747
 1351W        W 5402   2.852   1.411  12.011 -0.1423 -0.2435  0.0679
 1352W        W 5403   3.592   5.315   3.741  0.1786 -0.2757 -0.1860
 1353W        W 5404   6.746   7.601   3.743  0.2159  0.2182 -0.0230
 1354W        W 5405   9.772   8.272  11.437 -0.1721  0.1332 -0.1239
 1355W        W 5406   6.834   7.855   1.785  0.1344 -0.1910 -0.1340
 1356W        W 5407  10.043   2.575   4.640  0.3208 -0.1115 -0.2223
 1357W        W 5408   8.892   1.127   9.259 -0.6013  0.0565  0.2355
 1358W        W 5409   7.197   6.310   2.788  0.2248 -0.0468 -0.1145
 1359W        W 5410   0.062   3.673  11.909  0.0473  0.0122  0.2533
 1360W        W 5411   4.505   5.585   3.866  0.0627 -0.1627  0.0702
 1361W        W 5412  10.052   0.262  11.993 -0.0212 -0.3897 -0.3516
 1362W        W 5413   2.241   1.921   1.864 -0.1131 -0.0468 -0.0167
 1363W        W 5414   2.858   3.312  11.291 -0.0098  0.0607 -0.1333
 1364W        W 5415   4.701   8.231   1.085  0.0593  0.2586 -0.1352
 1365W        W 5416   9.016   4.582   1.540 -0.1517 -0.0941  0.3432
 1366W        W 5417   0.917   4.744   0.240  0.3206  0.2849  0.1097
 1367W        W 5418   2.589   5.716   9.454 -0.2254  0.3627 -0.2392
 1368W        W 5419   5.963   9.258   2.287  0.2590  0.2908  0.1583
 1369W        W 5420   0.261   4.561  11.173 -0.0096  0.0222 -0.1866
 1370W        W 5421   9.967   4.658  13.402  0.1489  0.1172 -0.0861
 1371W        W 5422   8.267   5.785   2.541  0.2760  0.1094 -0.1570
 1372W        W 5423   7.349   1.891   3.717 -0.1129 -0.3283 -0.1400
 1373W        W 5424   6.736   0.040   4.579 -0.1992  0.2966 -0.0602
 1374W        W 5425   4.900   3.751   3.464  0.1092 -0.0314  0.0105
 1375W        W 5426   4.743   1.550   0.011 -0.3042 -0.2455  0.2099
 1376W        W 5427   3.204   1.642  11.213  0.1138  0.0826  0.2352
 1377W        W 5428   5.999   7.525  10.653  0.0012  0.0035 -0.0813
 1378W        W 5429   0.293   8.595   2.364 -0.3117 -0.2233 -0.1308
 1379W        W 5430   0.227   9.461  10.268 -0.0276 -0.0174 -0.1315
 1380W        W 5431   6.271   2.036   3.073  0.1099  0.2003 -0.1489
 1381W        W 5432   3.940   0.777  13.361 -0.0900 -0.0502  0.1018
 1382W        W 5433   6.935   5.889   2.941 -0.3983 -0.3559  0.0908
 1383W        W 5434   2.289   8.389  12.440 -0.3402 -0.0993 -0.0651
 1384W        W 5435   4.358   6.885   9.249 -0.1547  0.2756 -0.0409
 1385W        W 5436   0.108  10.097   4.813  0.0722  0.0058  0.2589
 1386W        W 5437   2.727   6.394   3.905  0.0809 -0.1854 -0.0742
 1387W        W 5438   9.793   1.820   9.116  0.2535 -0.0588  0.3090
 1388W        W 5439   2.304   9.755   2.658 -0.1642 -0.3602 -0.0447
 1389W        W 5440   5.312   7.348  12.705  0.2863  0.1298 -0.2138
 1390W        W 5441   4.100   2.355  10.752 -0.5630  0.0704  0.0513
 1391W        W 5442   2.307   0.036  12.064  0.0135  0.1607  0.5814
 1392W        W 5443   6.900   3.203   0.585 -0.1437  0.2724 -0.1008
 1393W        W 5444   2.539   7.771   0.482  0.0916  0.1606  0.0906
 1394W        W 5445   9.444  10.110  11.040 -0.0012 -0.1402 -0.0414
 1395W        W 5446   9.844   9.126   1.249  0.0078  0.1591  0.4316
 1396W        W 5447   4.636   5.487  14.000  0.0126 -0.2236 -0.1400
 1397W        W 5448   7.542   1.652   2.305 -0.1225  0.1605 -0.3813
 1398W        W 5449   0.534   0.813   4.513  0.1015  0.1784  0.1376
 1399W        W 5450   1.489   5.349   1.838  0.0193  0.0020  0.2618
 1400W        W 5451   4.340   3.767  11.196 -0.1814  0.1571  0.0754
 1401W        W 5452   3.055   8.329  11.860  0.0667  0.1750 -0.2788
 1402W        W 5453   6.942  10.040  11.845 -0.0625 -0.1226  0.0063
 1403W        W 5454  10.054   5.039   0.268  0.0716  0.1234  0.1727
 1404W        W 5455   6.837   2.936  13.650  0.1715 -0.0039 -0.2234
 1405W        W 5456   3.508   9.010   2.291  0.1925 -0.3259 -0.1092
 1406W        W 5457   4.948   4.798  10.540 -0.1211  0.0797  0.1076
 1407W        W 5458   5.692   8.956  12.170 -0.1481  0.0159  0.1330
 1408W        W 5459   9.905   9.515  13.866 -0.0504  0.1155  0.1503
 1409W        W 5460   0.723   7.542  10.456  0.2266 -0.3382  0.1744
 1410W        W 5461   8.865   8.250   2.625 -0.2861 -0.1314 -0.1067
 1411W        W 5462   7.136   4.532   1.470 -0.1107  0.0155 -0.0451
 1412W        W 5463   1.319   4.637  10.877  0.4876 -0.4328 -0.0767
 1413W        W 5464   8.474   8.565   5.088  0.1326 -0.1874  0.0565
 1414W        W 5465   9.251   0.297   9.777  0.1455  0.1165  0.0556
 1415W        W 5466   0.931   6.773   3.023  0.0249  0.0826  0.1370
 1416W        W 5467   6.639   9.626   4.748  0.0033 -0.1934  0.2307
 1417W        W 5468   5.310   6.897   3.032 -0.1246 -0.2396 -0.2032
 1418W        W 5469   9.026   8.552   9.477 -0.2440 -0.1677 -0.0236
 1419W        W 5470   0.101   3.491  12.449 -0.5178  0.2512 -0.1725
 1420W        W 5471   2.483   4.705  13.021 -0.1550 -0.2265 -0.0320
 1421W        W 5472   0.928   0.125   4.096  0.2208  0.3051 -0.0669
 1422W        W 5473   2.582   0.429   2.673  0.1047  0.2549 -0.1611
 1423W        W 5474   4.349   7.553   3.078  0.0114 -0.0117 -0.0759
 1424W        W 5475   4.723   7.830   1.920  0.0994  0.0604  0.0509
 1425W        W 5476   2.926   2.848   3.335 -0.4376  0.3888  0.3537
 1426W        W 5477   5.810   0.642  13.247 -0.2926 -0.0789 -0.0209
 1427W        W 5478   1.244   9.936   1.272 -0.0713  0.3733  0.0464
 1428W        W 5479   5.698   7.143   2.433 -0.0217  0.1466  0.1226
 1429W        W 5480   7.569   2.798  11.274  0.0310 -0.4277  0.2574
 1430W        W 5481   7.789   5.986  11.653  0.3501 -0.3217  0.0006
 1431W        W 5482  10.123   8.690  13.852  0.1078 -0.3331  0.0155
 1432W        W 5483   7.506   4.143  12.826  0.3131 -0.0260  0.2010
 1433W        W 5484   0.779   1.445   0.887 -0.1432  0.4423 -0.0785
 1434W        W 5485   9.820   5.499   1.027  0.1550 -0.0795 -0.4210
 1435W        W 5486   3.085   5.145   9.229  0.0842  0.1056 -0.2595
 1436W        W 5487   6.246   1.397   0.738  0.0320  0.0186  0.0588
 1437W        W 5488   1.557   7.223   0.422 -0.0822 -0.1468 -0.0175
 1438W        W 5489   4.056   6.791  10.081 -0.2280 -0.0573 -0.0459
 1439W        W 5490   5.755   3.000  11.806  0.0529  0.2087  0.2290
 1440W        W 5491   0.802   8.728   1.126  0.0473 -0.3199  0.1685
 1441W        W 5492   3.840   8.180  11.552 -0.0781 -0.0755 -0.1391
 1442W        W 5493   4.425   6.936   0.729  0.3100 -0.1678  0.0916
 1443W        W 5494   3.344   2.093   1.808  0.1377 -0.1450  0.0381
 1444W        W 5495   6.119   1.156  13.435 -0.1609  0.0506 -0.1240
 1445W        W 5496   7.251   4.986   1.175 -0.2275  0.0793 -0.0203
 1446W        W 5497   1.701   1.133   1.215  0.1096  0.1833 -0.1700
 1447W        W 5498   1.417   9.097  11.891  0.0007 -0.1308 -0.2839
 1448W        W 5499   6.332   4.175  10.880 -0.1444  0.5739 -0.2466
 1449W        W 5500   8.126   4.042   3.443 -0.1325 -0.4211 -0.0892
 1450W        W 5501   9.032   6.022   1.862  0.2349  0.1930 -0.1279
 1451W        W 5502   8.427   5.361   2.291 -0.1350  0.1780 -0.1645
 1452W        W 5503   7.239   9.951  12.784  0.0605 -0.2493  0.1720
 1453W        W 5504   9.606   3.913  10.370 -0.2741  0.2170  0.2151
 1454W        W 5505   4.257   3.834  12.632  0.1273 -0.1537  0.2005
 1455W        W 5506   9.362   7.892  10.072  0.4822  0.0570 -0.0514
 1456W        W 5507   9.216   8.211  11.440 -0.0702  0.2181 -0.0966
 1457W        W 5508   1.643   6.528   3.323 -0.2069  0.3310 -0.1572
 1458W        W 5509   1.935   7.600  11.342  0.0927 -0.3432 -0.0378
 1459W        W 5510   5.141   7.458   4.274 -0.3242 -0.1929 -0.4065
 1460W        W 5511   8.883   9.710   1.949  0.0490  0.0486  0.2794
 1461W        W 5512   2.136   0.498   0.277  0.1168 -0.0735  0.2216
 1462W        W 5513   5.682   8.497  11.389 -0.1753  0.1197 -0.1202
 1463W        W 5514   5.210   7.655   2.672  0.0080 -0.2856  0.0159
 1464W        W 5515   3.144   8.138  12.565 -0.0894  0.2719 -0.0639
 1465W        W 5516   6.333   6.491  13.422 -0.3221  0.4487  0.2147
 1466W        W 5517   9.372   9.163  13.267 -0.2647 -0.1282  0.1846
 1467W        W 5518   3.201   1.203   2.348  0.0504 -0.1014 -0.0768
 1468W        W 5519   5.321   2.177  10.908  0.0695  0.0242  0.1120
 1469W        W 5520   7.885   7.360   3.310 -0.0116 -0.2318 -0.4682
 1470W        W 5521   6.931   8.593  13.906 -0.3205  0.0906  0.2356
 1471W        W 5522   3.146   3.100  13.575  0.1010  0.0955  0.0426
 1472W        W 5523  10.055   7.812  11.244  0.2483  0.0518 -0.0789
 1473W        W 5524   0.439   8.853   0.781  0.2369 -0.0436  0.0541
 1474W        W 5525   2.045  10.000  12.415  0.0391  0.2625  0.1577
 1475W        W 5526   7.973   3.808   1.474 -0.0344 -0.0438 -0.2246
 1476W        W 5527   0.083   9.912  11.144 -0.0279  0.0005  0.1207
 1477W        W 5528  10.007   0.223  10.198 -0.1982 -0.1004  0.1795
 1478W        W 5529   3.244   3.563   9.600  0.0880  0.3227  0.1270
 1479W        W 5530   4.580   5.224  12.614  0.3001  0.0031  0.0711
 1480W        W 5531   3.265   4.786   0.894 -0.0127 -0.1071  0.0325
 1481W        W 5532   9.539   9.137  10.693  0.1938 -0.0981 -0.0837
 1482W        W 5533   4.757   5.887   4.244  0.1580 -0.0718  0.2275
 1483W        W 5534   2.379   8.708   5.274  0.1195 -0.2716  0.0719
 1484W        W 5535   3.535   3.308   8.403  0.0414  0.0577  0.1206
 1485W        W 5536   5.458   2.921   8.609 -0.1899  0.0463 -0.1804
 1486W        W 5537   0.954   2.815  10.656 -0.1433  0.1061 -0.0929
 1487W        W 5538   1.257   3.244   1.463  0.0088 -0.2382  0.1889
 1488W        W 5539   8.366  10.038   9.573 -0.0599 -0.0147 -0.2566
 1489W        W 5540   6.082   5.785   3.967 -0.3929 -0.1997  0.1209
 1490W        W 5541   8.970   5.622   0.008  0.1399  0.1293 -0.0086
 1491W        W 5542   4.956   2.463   9.118  0.1747  0.0056  0.0573
 1492W        W 5543   2.189   5.947   2.625 -0.3667  0.0109  0.1333
 1493W        W 5544   4.642   2.106   1.633 -0.4594 -0.0131  0.0390
 1494W        W 5545   6.230   0.009  10.840 -0.2780 -0.0144 -0.0918
 1495W        W 5546   0.074   0.041  13.768  0.2025 -0.2178 -0.1312
 1496W        W 5547   8.497   7.025   3.343 -0.2124  0.0219  0.2095
 1497W        W 5548   2.872   5.239   1.194 -0.0427  0.0167 -0.0407
 1498W        W 5549   8.194   0.424  10.046 -0.0065  0.1001  0.0208
 1499W        W 5550   6.255   6.714  10.562  0.0813  0.1329  0.3418
 1500W        W 5551   2.599   5.239   2.294  0.0736 -0.0185 -0.2611
 1501W        W 5552   7.969   9.156  13.516 -0.0592 -0.4527  0.1058
 1502W        W 5553   2.353   8.422   5.645 -0.0467  0.0836 -0.0897
 1503W        W 5554   5.238   4.947   2.857  0.2904 -0.0658  0.3994
 1504W        W 5555   9.230   1.886  13.732 -0.0724 -0.1124 -0.4621
 1505W        W 5556   0.690   0.231   2.471  0.0337  0.2070 -0.0389
 1506W        W 5557   7.737   1.209   3.183 -0.2373  0.1042 -0.0939
 1507W        W 5558  10.121   1.372   2.749 -0.0233  0.2313 -0.1457
 1508W        W 5559   1.532   3.169  11.733  0.2658 -0.0177  0.0749
 1509W        W 5560   0.127   0.092   1.875 -0.1255 -0.3856 -0.0432
 1510W        W 5561   2.231   2.744  13.680 -0.4378  0.3019 -0.1139
 1511W        W 5562   2.973   6.838   9.008 -0.0994 -0.1176  0.3637
 1512W        W 5563   4.201   4.951  12.401  0.0281  0.1265 -0.1192
 1513W        W 5564   3.893   7.828   3.051  0.1217  0.0305  0.0926
 1514W        W 5565   7.001   6.189  12.324  0.2714 -0.2248 -0.2656
 1515W        W 5566   6.059   7.340   1.657  0.0784 -0.0150  0.1369
 1516W        W 5567  10.085   1.263  10.315 -0.1212 -0.2733  0.1094
 1517W        W 5568   0.294   2.933   0.081  0.1314  0.3832  0.1443
 1518W        W 5569   9.550   5.471  10.723  0.1121 -0.0689  0.1226
 1519W        W 5570   5.886   5.490   1.753 -0.0897 -0.0853 -0.0032
 1520W        W 5571   9.720  10.012   4.695 -0.0087  0.0488 -0.0127
 1521W        W 5572   3.428   1.698  13.861 -0.2005  0.1393  0.0348
 1522W        W 5573   4.663   2.163   9.422  0.2537 -0.0227  0.1580
 1523W        W 5574   4.236   0.177   3.408 -0.3203 -0.0363 -0.4795
 1524W        W 5575   3.953   0.151   3.813 -0.1198 -0.0547 -0.2473
 1525W        W 5576   3.326   0.816  10.054  0.2545 -0.0760  0.1601
 1526W        W 5577   5.692   5.404  11.712 -0.1724 -0.2503 -0.1304
 1527W        W 5578  10.118   8.245   3.185  0.1979  0.0410 -0.0682
 1528W        W 5579   4.356   4.756  10.736 -0.0200  0.2499  0.3704
 1529W        W 5580   0.124   8.699  12.641 -0.1171  0.0531  0.1706
 1530W        W 5581   3.896   7.511   1.611 -0.1106  0.1901 -0.0307
 1531W        W 5582   6.867   0.947   3.441  0.0792  0.2174 -0.5414
 1532W        W 5583   2.314   4.632  11.084 -0.0847  0.1395  0.1098
 1533W        W 5584   6.063   9.275  13.327 -0.1321  0.2360  0.2875
 1534W        W 5585   6.211   6.958   0.721 -0.0780  0.2371 -0.3923
 1535W        W 5586   7.145   6.681  12.349 -0.0133 -0.1738 -0.2405
 1536W        W 5587   9.391   6.955   3.690  0.0289 -0.2917 -0.1285
 1537W        W 5588   6.975   6.046   2.379  0.0695 -0.2755  0.0366
 1538W        W 5589   6.244   5.401  12.979  0.3003  0.1855  0.2941
 1539W        W 5590   3.487   6.027   1.182 -0.0012  0.0967  0.0568
 1540W        W 5591   5.545   2.479   1.157 -0.4173 -0.0781 -0.1174
 1541W        W 5592   5.932   9.763   1.016 -0.2900 -0.3832  0.2112
 1542W        W 5593   2.498   5.968   0.997  0.1204 -0.0802  0.1576
 1543W        W 5594   7.396   8.407   2.796  0.1553 -0.3451 -0.1906
 1544W        W 5595   0.887   0.742  11.277 -0.1780  0.2353  0.1665
 1545W        W 5596   0.609   8.930   5.029  0.0884  0.1447 -0.3342
 1546W        W 5597   9.613   3.919   0.412 -0.2285  0.1042 -0.1036
 1547W        W 5598   2.604   2.948  12.942 -0.1403  0.1093  0.1685
 1548W        W 5599   1.484   6.308   0.737 -0.1626 -0.1364  0.1570
 1549W        W 5600   4.551   2.621   0.188 -0.2498  0.2169  0.2422
 1550W        W 5601   8.336   5.002   9.687  0.0626  0.3519 -0.0399
 1551W        W 5602   4.024  10.141  12.356  0.2238  0.0552  0.0154
 1552W        W 5603   9.773   0.675   4.286 -0.2023  0.4329  0.1774
 1553W        W 5604   3.252   2.464   9.438  0.1683 -0.0977  0.0025
 1554W        W 5605   4.191   9.013   9.720  0.0939  0.0617  0.1953
 1555W        W 5606   8.261   6.023   0.591 -0.0105 -0.1227  0.1939
 1556W        W 5607   7.382   8.669   1.873  0.0096 -0.1771  0.3032
 1557W        W 5608   1.492   0.734   4.412 -0.2089  0.0556 -0.0264
 1558W        W 5609   6.326   9.820   0.070 -0.0227 -0.3935  0.3138
 1559W        W 5610   0.451   6.899   4.219 -0.0074  0.2368  0.2072
 1560W        W 5611   7.012   6.854   4.182 -0.1472 -0.0038  0.1024
 1561W        W 5612   8.874   7.084   0.699 -0.0682 -0.0419  0.0174
 1562W        W 5613  10.006   7.932   1.905 -0.0626 -0.0470 -0.0832
 1563W        W 5614   0.476   4.157   2.880  0.0568  0.0345 -0.0549
 1564W        W 5615   8.846   2.911   3.820  0.0510 -0.0926  0.0226
 1565W        W 5616   2.379   0.523   1.706 -0.0621  0.2193  0.1623
 1566W        W 5617   0.326   2.882  12.331 -0.2385  0.4593 -0.0708
 1567W        W 5618   5.125   2.363   3.733 -0.2655  0.1366 -0.1396
 1568W        W 5619   2.407   1.302   2.893  0.1963 -0.0918 -0.3334
 1569W        W 5620   6.940   2.766  10.065 -0.2441 -0.0815  0.0349
 1570W        W 5621   9.430   6.672  12.053  0.2955  0.3498 -0.3723
 1571W        W 5622   9.176   3.697  12.466  0.2522  0.4313 -0.2723
 1572W        W 5623   6.788   6.149   9.953  0.2520 -0.0597 -0.2495
 1573W        W 5624   7.512   0.449   4.315  0.1025  0.0075 -0.2301
 1574W        W 5625   0.116   6.573  11.133 -0.0802 -0.1239 -0.1339
 1575W        W 5626   8.891   7.226  12.029 -0.1006  0.0831 -0.0536
 1576W        W 5627   4.914   7.207   9.954 -0.0128 -0.1049 -0.0766
 1577W        W 5628   3.190   8.786  12.815  0.1093  0.1988  0.2463
 1578W        W 5629   5.446   1.090   3.543  0.4038 -0.4786  0.0213
 1579W        W 5630   5.916   3.645   8.270 -0.2138 -0.0788  0.2344
 1580W        W 5631   4.610   6.335   3.434 -0.0548  0.2779 -0.0700
 1581W        W 5632   1.782   5.363   2.795  0.1586 -0.1129  0.0408
 1582W        W 5633   0.403   4.035  12.016  0.2839  0.0563 -0.1255
 1583W        W 5634   0.808   6.273   4.122 -0.1022  0.1773 -0.1135
 1584W        W 5635   8.146   0.909  10.307 -0.3213  0.1250  0.1536
 1585W        W 5636   9.683   6.292  11.790 -0.0875  0.0745  0.1641
 1586W        W 5637   8.948   6.526   2.192  0.2403  0.2421 -0.0163
 1587W        W 5638   0.941   5.252   2.455  0.1903 -0.0254  0.2337
 1588W        W 5639   6.358   5.957  12.127  0.0699  0.1847  0.0744
 1589W        W 5640   0.918   0.977   5.143  0.2691  0.1635 -0.1537
 1590W        W 5641   3.630   1.167   1.467  0.0970  0.1757 -0.0502
 1591W        W 5642   8.631   6.753   0.972  0.3209 -0.3134 -0.1584
 1592W        W 5643   2.855   3.334  13.911  0.0674  0.0695 -0.0768
 1593W        W 5644   6.120   5.599   9.483 -0.1193 -0.3021  0.0424
 1594W        W 5645   1.684   8.764  11.570  0.3040 -0.0295 -0.1382
 1595W        W 5646   3.511   0.372   3.922  0.0854 -0.0753 -0.3285
 1596W        W 5647   0.110   5.603   2.313  0.1618 -0.1079  0.2993
 1597W        W 5648   1.777   3.308  12.469  0.3411 -0.0252 -0.0120
 1598W        W 5649   2.118   6.420   3.397  0.1620 -0.0556  0.2774
 1599W        W 5650   9.182   7.590  11.790  0.0988 -0.1796 -0.1097
 1600W        W 5651   9.117   2.950   0.082 -0.0226 -0.1525 -0.1839
 1601W        W 5652   9.920   4.303  11.364 -0.0879 -0.0571  0.0806
 1602W        W 5653   2.613   3.656  13.580  0.3743  0.1877  0.1135
 1603W        W 5654   9.171   8.671   0.438 -0.1658 -0.3391 -0.0659
 1604W        W 5655   1.573   8.113   0.129  0.1157  0.0398  0.2697
 1605W        W 5656   3.461   1.152   0.751 -0.1172 -0.2472  0.2096
 1606W        W 5657   9.675   1.476  11.178 -0.0037  0.0585 -0.1994
 1607W        W 5658   1.320   1.722   9.671  0.0418 -0.1745  0.1383
 1608W        W 5659   7.916   9.815   9.792  0.2196  0.0935  0.3520
 1609W        W 5660   1.330   2.471  12.778  0.1529 -0.0132 -0.2437
 1610W        W 5661   8.420   3.134  13.004 -0.1231  0.0308 -0.1248
 1611W        W 5662   8.508   8.409   2.306  0.2338  0.1828 -0.1762
 1612W        W 5663   3.349   5.221  13.403 -0.2279  0.1322 -0.1200
 1613W        W 5664   7.144   2.586  10.989  0.0034 -0.1623 -0.2759
 1614W        W 5665   5.795   6.757   9.166  0.0661  0.0379  0.2088
 1615W        W 5666   8.498   3.391  13.465  0.0824 -0.2089 -0.0842
 1616W        W 5667   0.510   5.063  13.578 -0.0855  0.0091 -0.1780
 1617W        W 5668   5.866   8.021  11.419 -0.0346  0.1146 -0.0283
 1618W        W 5669   2.066   6.520   9.143  0.1427  0.1502  0.1718
 1619W        W 5670   6.880   8.317  10.793  0.0232  0.0540  0.4444
 1620W        W 5671   0.354   0.941   2.104 -0.1570  0.1830 -0.4011
 1621W        W 5672   5.417   3.868   9.745 -0.2379 -0.0584 -0.0979
 1622W        W 5673   7.426   9.715  12.352 -0.1450 -0.0643  0.1101
 1623W        W 5674   5.547   7.260   3.360  0.2835 -0.0920 -0.2686
 1624W        W 5675   1.721   6.885  10.451  0.0314 -0.0698  0.0177
 1625W        W 5676   1.481   7.331  12.505  0.0553 -0.0065  0.0033
 1626W        W 5677   6.598   7.244   9.868  0.1492 -0.3379  0.0932
 1627W        W 5678   3.690   7.628   2.087  0.1855 -0.0148 -0.0052
 1628W        W 5679   7.925   7.706   9.808 -0.3159 -0.0576 -0.0873
 1629W        W 5680   2.414  10.114   2.297 -0.1674 -0.0381  0.2571
 1630W        W 5681   4.781   8.209  13.420 -0.3246 -0.0011 -0.2684
 1631W        W 5682   5.931   6.684   8.644 -0.0270 -0.0002  0.2200
 1632W        W 5683   3.597   2.869   2.328  0.0180 -0.3208  0.0520
 1633W        W 5684   4.016   6.338  13.454  0.1573 -0.0423 -0.0713
 1634W        W 5685   7.057   6.081   3.507  0.2011 -0.2551  0.2688
 1635W        W 5686   4.580   1.464   0.460  0.2341 -0.2022 -0.0079
 1636W        W 5687   8.233   9.269  13.943  0.3655  0.1925  0.0326
 1637W        W 5688   4.530   3.594  12.309 -0.0528  0.0173 -0.3466
 1638W        W 5689   0.657   0.957   4.058 -0.2112  0.2702 -0.1328
 1639W        W 5690   4.994   3.913   9.478  0.0600  0.1027 -0.0177
 1640W        W 5691   1.407   3.071  12.220 -0.3746  0.0123 -0.3652
 1641W        W 5692   2.111   5.311   2.469  0.0801  0.0162 -0.1934
 1642W        W 5693   3.634   3.256   3.481  0.0056  0.1398  0.2441
 1643W        W 5694   7.606   6.164  14.021  0.0930  0.2118 -0.0894
 1644W        W 5695   6.746   5.287   1.675 -0.2706 -0.2694 -0.0686
 1645W        W 5696   0.285   5.360  12.601  0.2067  0.0955 -0.0634
 1646W        W 5697   4.703   5.808   3.045  0.0610 -0.1680 -0.0230
 1647W        W 5698   4.087   3.072   3.371 -0.0033 -0.5061 -0.0472
 1648W        W 5699   7.552   2.470   1.554 -0.3517 -0.0659  0.2301
 1649W        W 5700   2.999   0.489   1.192 -0.0972  0.1033 -0.3288
 1650W        W 5701   5.384   5.723   0.370  0.1071  0.2896  0.1012
 1651W        W 5702   0.282   3.029  10.624  0.0876  0.0323 -0.0575
 1652W        W 5703   0.115   2.113  13.595  0.1587 -0.0758  0.1687
 1653W        W 5704   7.800   1.867   0.493 -0.2506  0.0180  0.3567
 1654W        W 5705   1.038   2.183   4.194 -0.1091 -0.0678 -0.1390
 1655W        W 5706   4.969   1.099  10.715  0.0306  0.0056 -0.4628
 1656W        W 5707   5.190   0.271   9.925  0.0468 -0.0847  0.1262
 1657W        W 5708   7.905   2.397  10.022 -0.0225 -0.2794 -0.2713
 1658W        W 5709   5.561   0.352   1.073  0.4769 -0.0040 -0.1464
 1659W        W 5710   6.299  10.076  13.654 -0.3197 -0.2539  0.2174
 1660W        W 5711   3.431   8.307   1.486 -0.0985  0.1045 -0.4096
 1661W        W 5712   3.097   6.678  11.478 -0.1567 -0.3135 -0.3401
 1662W        W 5713   6.639   4.855  13.625  0.4068 -0.1290  0.1028
 1663W        W 5714   7.077   7.164   0.827 -0.0541  0.3284 -0.0267
 1664W        W 5715   5.011   0.521  12.420  0.1788  0.0546 -0.1119
 1665W        W 5716   9.413   6.982  12.795  0.0111  0.0767 -0.0913
 1666W        W 5717   7.772   5.842   0.272 -0.0035 -0.0670  0.0826
 1667W        W 5718   5.986   1.705  11.691  0.0413  0.0757 -0.3775
 1668W        W 5719   5.268   6.129   0.067  0.1957  0.2367  0.2734
 1669W        W 5720   1.966   6.603  13.784  0.2338  0.0041  0.0529
 1670W        W 5721   4.917   1.910   3.562 -0.2732 -0.1930 -0.0348
 1671W        W 5722   5.719   9.997  13.521  0.1364 -0.0496  0.1911
 1672W        W 5723   9.204   7.078  11.628  0.2763 -0.2975  0.0723
 1673W        W 5724   7.662   9.405   4.599  0.2589 -0.0013 -0.1753
 1674W        W 5725   4.675   7.958   9.474  0.0027  0.2002  0.0152
 1675W        W 5726   5.655   6.334   9.380  0.3168  0.3449  0.0499
 1676W        W 5727   7.249   0.094   3.703  0.1829 -0.0034  0.1212
 1677W        W 5728   5.917   8.499   9.104  0.1447 -0.0992 -0.2788
 1678W        W 5729   5.418   3.864   4.144 -0.1797  0.0423  0.4167
 1679W        W 5730   1.430   0.673   0.267 -0.0625 -0.0537 -0.2045
 1680W        W 5731   9.879   9.222   4.522 -0.0225  0.3338  0.1780
 1681W        W 5732   1.550   1.015   2.825  0.2365  0.4113 -0.1354
 1682W        W 5733   4.458   9.996   0.531 -0.0233 -0.1623  0.0031
 1683W        W 5734   9.813   7.241   1.920  0.0159 -0.0791 -0.2553
 1684W        W 5735   1.314   4.976  13.498  0.3675  0.1707 -0.4464
 1685W        W 5736   8.788   3.122  12.614 -0.3815 -0.2775 -0.4123
 1686W        W 5737   7.120   9.697   1.409 -0.1132 -0.0334  0.0412
 1687W        W 5738   3.953   6.518  10.996 -0.1655 -0.0628  0.0450
 1688W        W 5739  10.093   7.232  13.569 -0.0893  0.0539  0.1761
 1689W        W 5740   6.537   0.274  13.299  0.2520 -0.0526 -0.1245
 1690W        W 5741   7.274   9.519   0.023  0.0900  0.4050  0.2316
 1691W        W 5742   2.839   5.772   9.927 -0.2598  0.1722  0.4841
 1692W        W 5743   8.304   7.226  13.094  0.0563  0.1621 -0.2053
 1693W        W 5744   3.367   5.642  10.550  0.1806  0.1191  0.0010
 1694W        W 5745   4.705   9.304   1.296  0.0581 -0.0621  0.1857
 1695W        W 5746   7.045   8.175   0.168  0.2131 -0.0668  0.2046
 1696W        W 5747   3.406   6.316   4.735 -0.0990  0.0180  0.0171
 1697W        W 5748   7.431   5.166  12.868  0.0485 -0.0735 -0.0517
 1698W        W 5749   7.889   8.729  11.368 -0.0889 -0.1859 -0.1342
 1699W        W 5750   8.897   2.787   2.225 -0.1180  0.3731  0.0468
 1700W        W 5751   3.922   1.958  12.491 -0.2094  0.0950 -0.0578
 1701W        W 5752   6.660   3.844   0.736  0.1135 -0.2053 -0.0185
 1702W        W 5753   6.500   8.835   2.867 -0.0244 -0.0194  0.1022
 1703W        W 5754   8.849  10.009  11.005  0.2181  0.1363 -0.1674
 1704W        W 5755   0.017   3.655   1.175  0.0114 -0.1788  0.0085
 1705W        W 5756   3.428   2.120   9.763  0.1883  0.2578  0.3353
 1706W        W 5757   8.294   9.634  12.205 -0.0147  0.0222 -0.1080
 1707W        W 5758   1.225   7.504  12.924  0.0919  0.2363 -0.3950
 1708W        W 5759   2.672   5.012  10.863  0.1976  0.2905 -0.1137
 1709W        W 5760   5.885   6.163   0.634  0.1317 -0.1783  0.0506
 1710W        W 5761   2.068   6.286   4.416  0.3126 -0.0477 -0.1114
 1711W        W 5762   7.590   4.460   2.380  0.1927 -0.1090 -0.2158
 1712W        W 5763   3.003   2.855   9.153 -0.2304  0.0839 -0.0893
 1713W        W 5764   1.242   3.447  10.553 -0.0707 -0.1613 -0.1574
 1714W        W 5765   2.854   2.111   9.550 -0.0431 -0.2719 -0.1949
 1715W        W 5766   6.432   6.410   2.376  0.2880 -0.0816  0.1296
 1716W        W 5767   0.362   1.933   1.620 -0.4171 -0.1626  0.0539
 1717W        W 5768   7.687   1.949   3.370 -0.0208 -0.2531  0.2506
 1718W        W 5769   6.762   9.414   1.138 -0.2489  0.0731 -0.0036
 1719W        W 5770   7.269   0.574  11.751  0.2048  0.1972 -0.3180
 1720W        W 5771   5.471   5.032   3.331  0.0525 -0.0260  0.3073
 1721W        W 5772   5.500   1.703   1.481 -0.0005 -0.4324  0.0247
 1722W        W 5773   9.820   7.146   1.447 -0.2347 -0.1167  0.6806
 1723W        W 5774   4.281   1.996   3.460 -0.2592 -0.1156  0.0361
 1724W        W 5775   8.156   7.631   1.351 -0.2770  0.0075 -0.2535
 1725W        W 5776   8.247  10.018  12.968 -0.1201  0.1357 -0.3828
 1726W        W 5777   5.509   4.377   4.138 -0.4196  0.0949  0.0755
 1727W        W 5778   5.378   4.912  12.076 -0.0017  0.0262  0.0872
 1728W        W 5779   8.044   4.101   4.057  0.1565  0.2222 -0.2969
 1729W        W 5780   0.040   0.739  11.128  0.1042  0.1632 -0.3063
 1730W        W 5781   2.661   7.089   9.308  0.1255 -0.2876 -0.4903
 1731W        W 5782   2.397   8.430   3.008 -0.0719 -0.0768  0.2631
 1732W        W 5783   2.404   2.162   3.213 -0.1922 -0.2866 -0.0119
 1733W        W 5784   5.721   4.889   0.758  0.0616  0.0505 -0.0007
 1734W        W 5785   1.854   7.075   4.396 -0.0315 -0.1659 -0.1681
 1735W        W 5786   4.253   5.254   4.760 -0.1244 -0.2249  0.2010
 1736W        W 5787   8.875   5.043  13.437 -0.0030 -0.1349  0.1240
 1737W        W 5788   7.424   1.705   5.089 -0.2303  0.1207  0.3086
 1738W        W 5789   6.721   7.264   0.398  0.0574 -0.0204  0.1354
 1739W        W 5790   8.645   4.996  12.075  0.0570  0.0187  0.1156
 1740W        W 5791  10.095   1.259   1.161  0.4672 -0.0776 -0.1165
 1741W        W 5792   7.687   9.913   4.334  0.0077 -0.2284  0.0286
 1742W        W 5793   0.173   9.808   5.303  0.1317  0.4107 -0.0988
 1743W        W 5794   8.543   8.546  10.229 -0.0328 -0.0365 -0.0780
 1744W        W 5795   6.175   0.059   2.142  0.2505  0.2599 -0.2723
 1745W        W 5796   9.410   1.542   4.607  0.1429 -0.0924  0.4673
 1746W        W 5797   0.978   3.706   1.598  0.1752  0.3486 -0.2556
 1747W        W 5798   5.244  10.140  12.075  0.1580  0.1466 -0.0735
 1748W        W 5799   0.774   9.752   1.410  0.1458  0.3256  0.0207
 1749W        W 5800   6.996   1.350   2.176  0.0354 -0.1660  0.0084
 1750W        W 5801   7.829   7.529   3.854  0.2421  0.2471  0.0824
 1751W        W 5802   0.533   5.146   3.213  0.0390 -0.2077  0.0903
 1752W        W 5803   5.844   6.945   1.965 -0.0740 -0.1442  0.2099
 1753W        W 5804   1.117   7.110   3.735 -0.0807 -0.1885 -0.1148
 1754W        W 5805   6.044   3.491   0.438  0.0372  0.4957  0.2680
 1755W        W 5806   5.722   2.424   2.613 -0.0452 -0.3618  0.1603
 1756W        W 5807   0.165   8.433  10.135 -0.4914 -0.0125 -0.0028
 1757W        W 5808   2.000   0.480   4.350  0.0290  0.0305 -0.3039
 1758W        W 5809   7.439  10.014   0.979  0.1012  0.2992 -0.3529
 1759W        W 5810   9.043   0.757  13.160  0.1731 -0.1957 -0.0782
 1760W        W 5811   7.071   8.498  11.844  0.1533  0.0595  0.0345
 1761W        W 5812   7.895   3.256  13.799 -0.3391  0.0309 -0.2192
 1762W        W 5813   6.567   1.265   2.963  0.0418 -0.6074 -0.0387
 1763W        W 5814   3.599   2.470   1.994  0.0188 -0.1947  0.0288
 1764W        W 5815   2.834   6.147   9.571  0.2702 -0.1420  0.1768
 1765W        W 5816   5.614   7.207   9.944 -0.3919  0.2951 -0.3273
 1766W        W 5817   7.778   7.251  12.023 -0.3118 -0.0501 -0.0767
 1767W        W 5818   3.302   6.825  12.362 -0.3494 -0.2730 -0.3459
 1768W        W 5819   2.465   6.709   4.202 -0.0086  0.0900  0.1249
 1769W        W 5820   8.093   7.688   1.855  0.2172  0.2278  0.2425
 1770W        W 5821   0.162   6.199  12.354  0.2843  0.0023  0.0451
 1771W        W 5822   0.481   6.078   1.415  0.1945  0.2087  0.1359
 1772W        W 5823   6.968   2.617  11.504  0.0714 -0.1551  0.0828
 1773W        W 5824   0.738   1.336  13.140 -0.0739 -0.0190  0.2073
 1774W        W 5825   6.315   0.592  13.615  0.1500  0.0833 -0.0894
 1775W        W 5826   9.969   2.649  12.132  0.1547  0.1449  0.0382
 1776W        W 5827   5.429   1.806  12.345  0.1176  0.1881  0.1715
 1777W        W 5828   1.503   7.138   4.041  0.3289 -0.1548  0.3068
 1778W        W 5829   4.863   5.664   1.257  0.2455 -0.2368  0.1308
 1779W        W 5830   4.863   2.593   2.343  0.1423 -0.1568 -0.0839
 1780W        W 5831   7.315   2.066   1.354  0.6901  0.0600 -0.0533
 1781W        W 5832   6.400   4.048  13.279 -0.0029  0.0411  0.0790
 1782W        W 5833   1.969   4.518  11.875  0.1603 -0.2980 -0.4271
 1783W        W 5834   1.216   8.383   3.053  0.1812  0.3982  0.1844
 1784W        W 5835   1.155   9.278   4.439  0.0872  0.0220 -0.1527
 1785W        W 5836   7.956   0.368   2.223 -0.1629 -0.0032 -0.1933
 1786W        W 5837   5.987   7.566  11.590 -0.0129  0.0689  0.2528
 1787W        W 5838   4.373   6.567  13.718  0.2212 -0.0131  0.1411
 1788W        W 5839   6.388   7.944   3.955 -0.0136 -0.0758 -0.0057
 1789W        W 5840   4.300   4.596   3.540  0.1747 -0.1025  0.0306
 1790W        W 5841   8.782   5.903  11.717 -0.1675  0.1454 -0.0744
 1791W        W 5842   3.918   9.445   9.651  0.0984  0.0337  0.0909
 1792W        W 5843   8.913   1.149   9.880  0.0761  0.1663  0.2484
 1793W        W 5844   7.292   0.597   3.272  0.3028 -0.0214  0.1079
 1794W        W 5845   1.255   0.450   1.288 -0.1859  0.3326 -0.1242
 1795W        W 5846   7.829   4.363   0.932 -0.1058  0.2894  0.0013
 1796W        W 5847   4.567   7.311   0.000  0.0128 -0.0871  0.2442
 1797W        W 5848   0.679   9.315   4.679 -0.1132  0.0568 -0.2651
 1798W        W 5849   2.623   6.512  12.435  0.2479  0.4074 -0.0421
 1799W        W 5850   4.902   6.456   1.693  0.1090 -0.0290  0.0015
 1800W        W 5851   6.984   1.047   9.783  0.1193  0.1598 -0.0407
 1801W        W 5852   5.770   1.244  11.879 -0.0759  0.1420  0.0167
 1802W        W 5853   0.544   2.554  10.442 -0.0088 -0.1641 -0.1717
 1803W        W 5854   2.615   0.696   0.773  0.0326  0.2188  0.1219
 1804W        W 5855   9.719   6.783  13.206 -0.2266  0.0463  0.3268
 1805W        W 5856   7.989   9.915   9.320 -0.0003 -0.1661  0.1749
 1806W        W 5857   5.240   1.343  13.342 -0.0305  0.1740 -0.1435
 1807W        W 5858   1.887   5.288  10.407  0.2047 -0.2696  0.0753
 1808W        W 5859   3.940   3.416   2.831  0.0198  0.1902  0.3217
 1809W        W 5860   0.579   8.469  12.166 -0.1051  0.0324  0.1255
 1810W        W 5861   7.114   7.646  10.784  0.2210  0.3151  0.0449
 1811W        W 5862   2.654   2.852   0.223  0.0612 -0.2071  0.1434
 1812W        W 5863   3.012   2.158  10.111  0.0128  0.2216 -0.0834
 1813W        W 5864   5.497   1.255  10.050  0.3386  0.1070  0.0632
 1814W        W 5865   7.106   2.853   9.483  0.0120  0.0953  0.1959
 1815W        W 5866   6.056   9.883   9.639 -0.4086  0.1243 -0.0275
 1816W        W 5867   9.410   6.763   2.347 -0.0990 -0.3123  0.1204
 1817W        W 5868  10.129   4.764   1.995 -0.0658  0.0267  0.1299
 1818W        W 5869   8.830   7.360   2.232 -0.1689 -0.0455  0.2813
 1819W        W 5870   1.352   3.510  12.022  0.0128 -0.0666  0.2121
 1820W        W 5871   0.449   0.830   9.572 -0.0704  0.2510  0.2367
 1821W        W 5872   9.718   3.588  11.871 -0.1815 -0.4259  0.1830
 1822W        W 5873   6.707   9.205   0.623  0.3324 -0.4098 -0.0753
 1823W        W 5874   1.279   0.981  12.301  0.0005 -0.1534  0.0810
 1824W        W 5875   7.918   9.016   4.771  0.2490 -0.0842  0.0994
 1825W        W 5876   1.872   0.768   4.741 -0.1827  0.0662 -0.0906
 1826W        W 5877   4.860   3.189   4.203  0.0627 -0.1589  0.0266
 1827W        W 5878  10.102   0.050  11.489 -0.0647 -0.0736  0.0382
 1828W        W 5879   6.790   0.193  12.545  0.1089  0.0508 -0.2229
 1829W        W 5880   8.559   8.687   4.142 -0.3197 -0.1099  0.1024
 1830W        W 5881   4.296   1.345  10.945 -0.5486  0.0202  0.0915
 1831W        W 5882   3.647   6.214   0.735  0.0722 -0.2477 -0.3738
 1832W        W 5883   0.101   3.417   2.625 -0.0169  0.1403 -0.2579
 1833W        W 5884   2.761   9.917  13.801 -0.1501 -0.1281  0.0606
 1834W        W 5885   0.788   1.706   9.814  0.0926  0.1535 -0.0488
 1835W        W 5886   5.712   7.311   0.072 -0.0948 -0.0616 -0.0632
 1836W        W 5887   7.592   2.793   3.057 -0.0867  0.0671  0.1069
 1837W        W 5888   4.666   5.030   3.910 -0.2446  0.3571  0.0878
 1838W        W 5889   3.645   8.347   4.966 -0.2345 -0.3469 -0.2266
 1839W        W 5890   4.383   8.357  13.166  0.1000  0.0197 -0.0645
 1840W        W 5891   6.783   9.734   0.747 -0.1612  0.2120 -0.0173
 1841W        W 5892   0.565   0.866   9.077 -0.0154 -0.1159  0.1174
 1842W        W 5893  10.074   6.240   0.854 -0.3331  0.0881 -0.0955
 1843W        W 5894   4.036   6.737   1.727  0.1234  0.2902 -0.0326
 1844W        W 5895   5.097   1.453   3.853 -0.1934  0.0850 -0.0142
 1845W        W 5896   4.662   1.047  11.109 -0.4772 -0.2968 -0.2865
 1846W        W 5897   5.895   7.074  10.400 -0.3959  0.1213 -0.2760
 1847W        W 5898   4.734   3.740   2.225 -0.0607  0.3099  0.1369
 1848W        W 5899   4.145  10.159  11.838  0.2008  0.0460  0.1025
 1849W        W 5900   7.350   4.992   0.643  0.1539 -0.0984 -0.0688
 1850W        W 5901   2.279   9.686   0.527 -0.1905 -0.0841 -0.1898
 1851W        W 5902   2.511   0.778   1.295 -0.1584 -0.1574  0.1237
 1852W        W 5903   7.658   7.571   1.579  0.2890  0.2003  0.1502
 1853W        W 5904   7.941   2.996   0.759 -0.1171 -0.0133  0.0337
 1854W        W 5905   0.637   9.799  10.313  0.0544 -0.0081 -0.2053
 1855W        W 5906   7.468   5.141   3.464 -0.0364  0.0402  0.3153
 1856W        W 5907   8.185   6.438   1.125  0.0182 -0.0297 -0.2627
 1857W        W 5908   8.519   6.390  12.487 -0.3863  0.0057 -0.3670
 1858W        W 5909   3.768   4.449  11.709  0.2346 -0.3855 -0.1710
 1859W        W 5910   5.342   5.753   2.321 -0.1403 -0.1307 -0.0982
 1860W        W 5911   4.888   4.726   2.433  0.2609 -0.1663  0.1643
 1861W        W 5912   5.432   3.709   1.759  0.0978  0.0441 -0.1462
 1862W        W 5913   2.807   0.671   4.033  0.0500 -0.4073  0.0657
 1863W        W 5914   0.275   9.395   9.752  0.1678  0.0983 -0.1915
 1864W        W 5915   9.840   4.341  10.716  0.2143 -0.3715  0.1014
 1865W        W 5916   2.637   2.192   2.750  0.2858  0.0250 -0.2038
 1866W        W 5917   0.595   2.129   5.206  0.0803 -0.0873 -0.1186
 1867W        W 5918  10.083   5.855   3.621 -0.0257 -0.1481  0.1509
 1868W        W 5919   6.430   3.075   8.860 -0.0324 -0.4263 -0.3699
 1869W        W 5920   5.326   7.055  11.684 -0.0680 -0.0410 -0.1920
 1870W        W 5921   4.406   3.664  11.807  0.0899  0.2169  0.0768
 1871W        W 5922   4.704   8.822  14.026 -0.1405 -0.0075  0.0089
 1872W        W 5923   7.168   4.659   3.192 -0.0828 -0.0046  0.0315
 1873W        W 5924   9.755   3.776  13.976 -0.4279 -0.2076  0.1298
 1874W        W 5925   1.951   3.390   1.306 -0.0239 -0.0469  0.0974
 1875W        W 5926   9.595   9.828  12.565 -0.0688  0.1855 -0.0179
 1876W        W 5927   4.924   6.788  11.079 -0.1596  0.2048 -0.2424
 1877W        W 5928   3.288   9.763   1.129  0.1238  0.2919 -0.0743
 1878W        W 5929   2.890   6.381  11.818  0.4467 -0.0624 -0.1962
 1879W        W 5930   8.458   6.668  13.734  0.4583 -0.3710 -0.3428
 1880W        W 5931   6.403   3.813   2.320  0.1375  0.0290 -0.0721
 1881W        W 5932   0.403   2.575   0.831  0.1294  0.0569 -0.0926
 1882W        W 5933   5.454   7.187  13.606  0.1772  0.0477 -0.4716
 1883W        W 5934   4.097   5.542   0.072 -0.1934 -0.0875  0.0728
 1884W        W 5935   4.887   9.614  11.011  0.0174 -0.2402  0.1873
 1885W        W 5936   5.193   5.880  12.257 -0.1806  0.1163  0.1726
 1886W        W 5937   0.760   3.859   9.751 -0.1159 -0.0376 -0.1903
 1887W        W 5938   4.870   5.644   2.140  0.2094  0.1317 -0.2477
 1888W        W 5939   8.095   3.284   1.588  0.1739  0.1310  0.1177
 1889W        W 5940   8.426   6.932  11.563  0.2980  0.0920 -0.3457
 1890W        W 5941   6.941   4.845  13.221 -0.2333  0.5119 -0.0864
 1891W        W 5942   5.464   3.146   9.065 -0.2271 -0.0121  0.0492
 1892W        W 5943   2.035   6.674   1.668 -0.2097  0.0973  0.1276
 1893W        W 5944   6.035   8.705  11.763 -0.1239  0.0023 -0.1188
 1894W        W 5945   7.520   3.002  10.816  0.0988  0.0493 -0.0034
 1895W        W 5946   1.459   6.669  11.509 -0.0098  0.0504 -0.0162
 1896W        W 5947   4.484   5.762   0.892  0.1586  0.0134  0.0434
 1897W        W 5948   6.484   7.991   0.904  0.2612 -0.0529  0.0311
 1898W        W 5949   6.566   8.214   1.628 -0.1145 -0.0128  0.2053
 1899W        W 5950   8.247   2.959  13.567  0.0389  0.0146 -0.1538
 1900W        W 5951   3.468   0.947  13.227 -0.1599 -0.2465 -0.1156
 1901W        W 5952   6.580   7.797  11.867 -0.2124  0.2274  0.0215
 1902W        W 5953   5.202   8.552   2.328  0.1078  0.3243 -0.1785
 1903W        W 5954   0.958   7.714  11.700 -0.2189 -0.1303 -0.0489
 1904W        W 5955   5.139   8.336  12.082 -0.1540 -0.1225 -0.1202
 1905W        W 5956   2.709   4.941   0.788 -0.0372 -0.0652 -0.1055
 1906W        W 5957   7.119   7.870   2.993 -0.0113 -0.0109 -0.1349
 1907W        W 5958   7.650  10.156  13.544 -0.2196  0.1813 -0.2356
 1908W        W 5959   4.367   7.734  12.473  0.0330  0.3560  0.0511
 1909W        W 5960   6.691   1.037   2.515 -0.1668 -0.0236 -0.0813
 1910W        W 5961   9.342   9.421   4.047  0.0985  0.1025 -0.2424
 1911W        W 5962   3.382   3.802   1.060  0.0253 -0.1025  0.2305
 1912W        W 5963   4.520   4.036   4.310  0.2405  0.0144 -0.1597
 1913W        W 5964   4.605   3.172   8.974 -0.0682 -0.3222 -0.0330
 1914W        W 5965   3.438  10.086   2.029  0.3495  0.1704 -0.0441
 1915W        W 5966   7.249   3.571   2.276  0.0832  0.0559 -0.1280
 1916W        W 5967   8.707   6.236   0.691 -0.0561  0.0628  0.1764
 1917W        W 5968   8.213   8.456   0.833  0.3753 -0.2025 -0.1954
 1918W        W 5969   6.011   7.926   3.171  0.2663 -0.0480  0.1432
 1919W        W 5970   8.427   2.326   5.380  0.0006 -0.1583  0.2315
 1920W        W 5971   5.050   6.005  10.701  0.2663 -0.1542  0.1879
 1921W        W 5972   3.939   5.809  12.283  0.2586 -0.2065 -0.3513
 1922W        W 5973   2.008   4.764  13.675 -0.0925 -0.0228 -0.2881
 1923W        W 5974   0.996   6.013   2.192 -0.0705  0.4818 -0.1110
 1924W        W 5975   7.679   2.497  10.826 -0.0306 -0.1594 -0.1901
 1925W        W 5976   0.081   4.337   0.632 -0.1051 -0.3512  0.2458
 1926W        W 5977   4.876   2.903   1.915 -0.1732 -0.0534  0.0143
 1927W        W 5978   7.193   3.910  13.707  0.2204 -0.0666  0.1996
 1928W        W 5979   8.475   7.193   1.406  0.0161  0.0389  0.1780
 1929W        W 5980   8.162   1.081  11.861  0.1137 -0.0374 -0.0173
 1930W        W 5981   1.953   9.343  13.649 -0.1280 -0.4296  0.1165
 1931W        W 5982   0.248   3.545   0.266 -0.3628 -0.0657 -0.1978
 1932W        W 5983   0.061   8.117  11.581 -0.4146  0.2430 -0.1787
 1933W        W 5984   6.007   5.859  11.765 -0.0271  0.2034 -0.0086
 1934W        W 5985   3.456   5.614  12.145 -0.3436 -0.0519 -0.1414
 1935W        W 5986   1.933   1.337   2.713  0.2140  0.2797 -0.3662
 1936W        W 5987   4.406   7.674   1.475 -0.0544  0.3726  0.1181
 1937W        W 5988   4.410   0.336   1.779  0.1222  0.0007 -0.2144
 1938W        W 5989   0.718   0.565  12.701  0.0521 -0.0774  0.0128
 1939W        W 5990   6.379   1.736   0.135  0.0639  0.1299 -0.0617
 1940W        W 5991   5.836   5.185   9.194 -0.2643 -0.1562  0.2187
 1941W        W 5992   0.148   1.914  11.130 -0.0506  0.1357  0.1100
 1942W        W 5993   9.061   0.991   3.353 -0.3471  0.1905 -0.2830
 1943W        W 5994   4.270   0.479   9.662 -0.0967 -0.2022 -0.0900
 1944W        W 5995   9.695   0.617   9.852 -0.3566  0.2765  0.2059
 1945W        W 5996   2.976   2.444   0.069 -0.1042  0.1940 -0.0055
 1946W        W 5997   4.796   3.745  11.584 -0.3202 -0.1877 -0.1883
 1947W        W 5998   3.502  10.091   0.215  0.1732 -0.0948  0.1270
 1948W        W 5999   4.413   6.444   2.439  0.0215 -0.0089  0.0673
 1949W        W 6000  10.076   0.505   0.513 -0.1720 -0.3173  0.1287
 1950W        W 6001   9.206   9.376  10.348 -0.1197 -0.5874 -0.0958
 1951W        W 6002   5.677   4.114   2.506 -0.4074 -0.0615  0.1391
 1952W        W 6003   3.998   0.088  10.659  0.1536  0.4079  0.0974
 1953W        W 6004   2.097   9.746  10.314 -0.3273 -0.1187  0.2021
 1954W        W 6005   0.851   0.374  10.294  0.5342 -0.1191 -0.1365
 1955W        W 6006   8.888   6.471  13.914  0.0655  0.2152  0.0928
 1956W        W 6007   0.398   8.714   3.301 -0.0126 -0.1577 -0.1071
 1957W        W 6008   7.176   3.579   0.729 -0.0346 -0.2189 -0.0536
 1958W        W 6009   5.844   9.865   1.941  0.0789 -0.2545 -0.0377
 1959W        W 6010   5.471   8.060  11.088  0.2661 -0.1055 -0.3077
 1960W        W 6011   9.501   5.171   0.164  0.1824  0.2474 -0.1262
 1961W        W 6012   1.973   8.687  11.085  0.3356  0.2225 -0.0108
 1962W        W 6013   1.989   0.360  11.792  0.1110  0.0046  0.1636
 1963W        W 6014   8.298   9.052  13.073  0.4000 -0.1533 -0.1185
 1964W        W 6015   7.447   6.256   3.663 -0.0748 -0.2051 -0.0072
 1965W        W 6016   1.727   4.423  12.353 -0.1486  0.2927  0.0154
 1966W        W 6017   3.284   8.292  13.674  0.3785  0.0611  0.0921
 1967W        W 6018   2.735   1.234   2.532 -0.4498 -0.1085  0.1197
 1968W        W 6019   1.492   9.368  12.814  0.3235 -0.0378 -0.0931
 1969W        W 6020   5.744   7.053  11.368  0.1461  0.1260 -0.1276
 1970W        W 6021   2.847   7.206   2.451  0.0086  0.1658 -0.0534
 1971W        W 6022   1.995   9.353   1.476 -0.1843 -0.2893 -0.0756
 1972W        W 6023   3.721   1.206   3.560 -0.0657 -0.1330  0.0267
 1973W        W 6024   2.923   8.977   2.494  0.1317  0.0041 -0.1352
 1974W        W 6025   1.892   1.866   9.679 -0.0412 -0.3378 -0.1215
 1975W        W 6026   9.251   0.874   2.892 -0.1500  0.0255 -0.0255
 1976W        W 6027   7.305   0.595  13.907  0.0371  0.0086 -0.1932
 1977W        W 6028   4.432   1.587   2.950  0.2576  0.0852  0.3122
 1978W        W 6029   4.804   8.369   0.436  0.1942 -0.1573 -0.1545
 1979W        W 6030   2.849   9.302   1.979 -0.2058  0.4933  0.1902
 1980W        W 6031   8.928   0.037   3.360 -0.1983 -0.0024 -0.0092
 1981W        W 6032   0.392   2.040   2.213  0.3556 -0.2640 -0.2325
 1982W        W 6033   2.716   4.232  11.039  0.0288 -0.1059  0.0674
 1983W        W 6034   7.189   8.772  11.011  0.1287 -0.2230 -0.2404
 1984W        W 6035   5.393   7.144   2.039  0.3744 -0.3810  0.2392
 1985W        W 6036   2.115   4.576   3.454  0.0459 -0.3610  0.3091
 1986W        W 6037   6.152   6.009   1.682  0.3591 -0.3509 -0.1416
 1987W        W 6038   7.431   1.421  13.797 -0.2135  0.1794 -0.0739
 1988W        W 6039   6.617   1.126   0.834 -0.0140  0.0126  0.0174
 1989W        W 6040   2.729   2.933  10.074  0.0480  0.1379  0.1885
 1990W        W 6041   8.081   3.086   2.103 -0.0194  0.2790 -0.2751
 1991W        W 6042   7.819   5.993   3.889  0.0712  0.2628 -0.0176
 1992W        W 6043   1.796   8.813   1.290 -0.1315 -0.0591  0.2382
 1993W        W 6044   6.059   7.542   9.848 -0.1148  0.1117 -0.2532
 1994W        W 6045   2.234   4.006  10.951  0.0176 -0.1903 -0.0530
 1995W        W 6046   2.884   3.673   1.356 -0.0715 -0.2623  0.0448
 1996W        W 6047   1.692   3.822  11.068 -0.0424 -0.0317 -0.1115
 1997W        W 6048   3.205  10.122   9.445 -0.2399 -0.0049  0.1701
 1998W        W 6049   4.373   8.809   5.134 -0.0885 -0.0699 -0.0456
 1999W        W 6050   1.422   2.533   2.470  0.1511  0.2454 -0.1594
 2000W        W 6051   4.384   0.307  10.916 -0.4899 -0.3105 -0.0153
 2001W        W 6052   0.529   9.917   1.944  0.0884 -0.0489  0.2170
 2002W        W 6053   2.681   8.666   1.310  0.1912 -0.4319  0.1401
 2003W        W 6054   3.208   6.447  10.798  0.0651  0.1736  0.1577
 2004W        W 6055  10.038   0.738   5.092  0.5260  0.0294 -0.1265
 2005W        W 6056   1.409   1.902   3.908  0.1127 -0.0008  0.0283
 2006W        W 6057   6.284   0.760   0.111  0.1280  0.3881  0.1189
 2007W        W 6058   3.778   4.006  11.253 -0.2781 -0.1558  0.0782
 2008W        W 6059   8.742   6.422  10.019 -0.0622  0.1021  0.1342
 2009W        W 6060   9.025   1.067  14.016 -0.1533  0.0347 -0.0942
 2010W        W 6061   9.829   7.649   4.117  0.1929  0.2864 -0.0293
 2011W        W 6062   5.791   6.850   0.376 -0.2520  0.1769  0.0755
 2012W        W 6063   4.773   3.110   1.365 -0.4085  0.1186 -0.2858
 2013W        W 6064   4.017   8.596   0.739  0.2226 -0.4532 -0.3934
 2014W        W 6065   8.834   7.956   3.004  0.2473 -0.0677  0.1319
 2015W        W 6066   2.743   8.927   5.015  0.0622 -0.0438 -0.0212
 2016W        W 6067   4.355   0.714   4.830  0.0936  0.2030 -0.2109
 2017W        W 6068   9.820   2.813   3.715  0.0949 -0.0418 -0.2961
 2018W        W 6069   4.123   8.275   3.170  0.4822 -0.1554 -0.2153
 2019W        W 6070   4.564   1.556   3.444  0.2308  0.0447 -0.0252
 2020W        W 6071   7.158   6.018  12.758  0.0137  0.2272  0.0120
 2021W        W 6072   5.780   1.701   9.999 -0.1924 -0.0702 -0.1273
 2022W        W 6073   8.786   1.359  11.046  0.1572  0.3133  0.0239
 2023W        W 6074   2.328   4.255  10.006 -0.0389  0.1575 -0.2702
 2024W        W 6075   8.032   6.911   2.578 -0.0924 -0.2303 -0.1994
 2025W        W 6076   3.768   9.967   1.057 -0.1153  0.0998  0.0337
 2026W        W 6077   2.073   0.249   1.332 -0.3468 -0.2159 -0.5073
 2027W        W 6078   4.954   7.406  10.631 -0.0477  0.2012 -0.1639
 2028W        W 6079   1.631   7.591   0.080 -0.0930  0.2636 -0.1603
 2029W        W 6080   5.683   0.944   8.514 -0.0160  0.1743 -0.1531
 2030W        W 6081   6.490   3.636  10.652  0.0771 -0.3936 -0.3706
 2031W        W 6082   0.380   7.726  11.722  0.1331 -0.4590 -0.0186
 2032W        W 6083   3.198   6.386   9.815 -0.0101  0.6177 -0.2371
 2033W        W 6084   5.921   0.779   4.843  0.0888  0.2188  0.0683
 2034W        W 6085   8.037   6.298  10.379 -0.0668 -0.4291 -0.1856
 2035W        W 6086   6.932   4.281   2.924 -0.0516 -0.5930 -0.2005
 2036W        W 6087   9.652   8.377   4.426 -0.0954 -0.1888 -0.0469
 2037W        W 6088   1.699   3.895  12.377 -0.2052 -0.0299 -0.0962
 2038W        W 6089   4.627   6.275  12.671 -0.0421  0.3691  0.1419
 2039W        W 6090   1.708   9.814  13.009  0.0548  0.0850 -0.1304
 2040W        W 6091   0.572   8.394   3.765 -0.2133  0.4333  0.1580
 2041W        W 6092   2.344   4.352   1.955  0.1052  0.1186  0.0309
 2042W        W 6093   1.897   9.282   0.857  0.1316  0.1295 -0.3704
 2043W        W 6094   1.916   8.098   4.881  0.0826 -0.3002  0.3197
 2044W        W 6095   9.583   4.427  12.276 -0.1805 -0.3943 -0.0411
 2045W        W 6096   9.324   6.588  11.542 -0.1249 -0.0152 -0.0992
 2046W        W 6097   7.223   6.716  13.298 -0.3229  0.1272  0.3723
 2047W        W 6098   0.344   0.307   1.060 -0.1085  0.0364  0.0045
 2048W        W 6099   8.858   5.789   1.070 -0.2046 -0.1211  0.1331
 2049W        W 6100   3.475   7.764   9.394  0.1383  0.1775 -0.2867
 2050W        W 6101   2.962  10.126   3.282  0.2074 -0.3076 -0.1294
 2051W        W 6102   3.638   2.293   3.733 -0.3261 -0.1245 -0.2171
 2052W        W 6103   4.810   7.821  13.881  0.4681  0.3022 -0.1057
 2053W        W 6104   8.221   4.641  13.697 -0.1546  0.0981  0.0124
 2054W        W 6105   0.813   0.062  11.870 -0.0755 -0.0218  0.0324
 2055W        W 6106   7.260   8.998  13.707  0.0145 -0.0711 -0.0345
 2056W        W 6107   6.535   8.714   0.768 -0.1160  0.0651  0.2559
 2057W        W 6108   3.612   1.181   4.590  0.1166  0.1029  0.0570
 2058W        W 6109   5.718   1.368  11.335 -0.1978  0.0705  0.0246
 2059W        W 6110   9.959   9.585   3.088 -0.0278 -0.1476  0.2063
 2060W        W 6111   9.308   6.159  10.789 -0.4818  0.0157  0.0836
 2061W        W 6112   0.336   0.188   0.139 -0.0290 -0.0151 -0.1904
 2062W        W 6113   7.346   4.662  11.148 -0.2439 -0.4092 -0.0794
 2063W        W 6114   9.100   4.653  12.096 -0.0806 -0.0821  0.1642
 2064W        W 6115   2.027   3.251  11.592  0.1182 -0.0203  0.0228
 2065W        W 6116   3.346   9.166   0.967 -0.1095  0.1086  0.3019
 2066W        W 6117   4.292   8.898  11.099 -0.1349  0.0505 -0.0203
 2067W        W 6118   5.666   3.659  13.674 -0.3497  0.0770  0.1372
 2068W        W 6119   2.252   0.193  12.854  0.0546  0.0256 -0.4091
 2069W        W 6120   0.790   1.001   1.150 -0.1700  0.2669 -0.0083
 2070W        W 6121   3.133   2.630  10.356 -0.0249 -0.0220 -0.2857
 2071W        W 6122   6.923   9.096   2.631  0.2547 -0.1549 -0.2032
 2072W        W 6123   4.049   9.030  11.889  0.1341 -0.1684  0.5330
 2073W        W 6124   3.962   0.805   0.603  0.1720 -0.0272 -0.2224
 2074W        W 6125   3.426   7.535   8.925  0.1691 -0.1572 -0.2418
 2075W        W 6126   2.288   9.039   1.247  0.0868  0.3039  0.1027
 2076W        W 6127   6.910   1.177  12.535 -0.0696 -0.2024  0.1377
 2077W        W 6128   6.318   0.236   2.900 -0.0925  0.2319 -0.1695
 2078W        W 6129   9.182   5.567  12.493  0.0901 -0.0028  0.0059
 2079W        W 6130   7.029   1.706  13.761 -0.1240  0.0547  0.1911
 2080W        W 6131   0.944   6.198  10.757  0.0294 -0.1646  0.1672
 2081W        W 6132   5.177   9.775  12.447 -0.0318 -0.2865  0.0465
 2082W        W 6133   3.734   5.667   2.822  0.2776 -0.0761 -0.1583
 2083W        W 6134   2.220   8.023   2.303 -0.2147  0.2878  0.0298
 2084W        W 6135   5.571   4.053  13.122  0.0633 -0.0715 -0.4579
 2085W        W 6136   9.539   2.448   3.507  0.0235  0.2165  0.3465
 2086W        W 6137   9.034   8.499   2.997  0.0705 -0.0480  0.0277
 2087W        W 6138   9.007   0.727   1.573 -0.0751  0.0213 -0.2479
 2088W        W 6139   4.649  10.153   2.633  0.0303 -0.2174 -0.1751
 2089W        W 6140   8.870   2.249   2.200 -0.0079  0.2125 -0.3093
 2090W        W 6141   1.210   5.141   0.312  0.1469 -0.0318  0.1045
 2091W        W 6142   1.223   0.197   0.092  0.1487  0.0125  0.0904
 2092W        W 6143   6.984   1.895   2.224  0.1495  0.2298  0.0185
 2093W        W 6144   1.344   4.357   0.095  0.1608  0.1472 -0.4919
 2094W        W 6145   1.818   6.452   2.043 -0.1982  0.1092 -0.0159
 2095W        W 6146   7.649   0.101   4.015  0.3285 -0.0135  0.0454
 2096W        W 6147   8.842   7.710  11.122  0.0236 -0.2165 -0.4160
 2097W        W 6148   4.781   3.785  12.906  0.0236 -0.0609  0.0511
 2098W        W 6149   1.877   1.098   4.405 -0.0392 -0.0858 -0.0086
 2099W        W 6150   4.976   4.102   3.101  0.1218 -0.3313 -0.0822
 2100W        W 6151   0.529   4.084   4.212 -0.3514  0.0452  0.0813
 2101W        W 6152   1.292   9.950   4.154  0.3851 -0.0216  0.0250
 2102W        W 6153   6.441   8.825   3.886 -0.1369  0.1138  0.0092
 2103W        W 6154   5.888   8.869   1.905  0.1333  0.1054 -0.1465
 2104W        W 6155   9.610   9.101   9.600 -0.0367 -0.1901  0.0364
 2105W        W 6156   3.540   6.631   3.842  0.2651 -0.0690 -0.0240
 2106W        W 6157   5.574   9.676  12.174 -0.1976 -0.2177  0.2345
 2107W        W 6158  10.129   5.563  11.281 -0.1218 -0.4015  0.2457
 2108W        W 6159   9.115   1.374  13.641  0.1189  0.2169  0.0367
 2109W        W 6160   3.481   2.124   9.162  0.3120 -0.1506  0.2010
 2110W        W 6161   4.569   3.346   7.995  0.1790 -0.0350  0.3174
 2111W        W 6162   3.090   4.132   2.529 -0.2492 -0.0358  0.1865
 2112W        W 6163   3.297   9.806   3.459  0.0770  0.1459 -0.0910
 2113W        W 6164   2.664   9.750   1.853  0.0531 -0.0365  0.0538
 2114W        W 6165   2.013  10.126   0.164  0.0843  0.0341 -0.1862
 2115W        W 6166   5.413   5.354   2.074 -0.0276  0.2044 -0.1607
 2116W        W 6167   7.271   8.702  12.722  0.1850  0.0271 -0.0595
 2117W        W 6168   6.436   4.370  13.643 -0.0876  0.3961  0.1571
 2118W        W 6169   4.156   2.248  12.155  0.1539  0.1501 -0.1570
 2119W        W 6170   2.503   2.368   4.116 -0.0903  0.1474  0.1150
 2120W        W 6171   2.938   5.823   1.297  0.0285  0.5370  0.0774
 2121W        W 6172   8.378  10.055   1.514 -0.1191 -0.0141 -0.1565
 2122W        W 6173   2.545   7.359  12.691  0.1375 -0.0902  0.3132
 2123W        W 6174   0.374   7.697   1.967 -0.0529  0.0542 -0.0083
 2124W        W 6175   8.805   1.582   4.042  0.2484  0.0835 -0.0377
 2125W        W 6176   1.992   8.818   2.956 -0.0966 -0.0419  0.1294
 2126W        W 6177   7.482   5.090  10.290  0.1397  0.1347 -0.3731
 2127W        W 6178   5.991   0.243   4.132 -0.0017  0.1047  0.2657
 2128W        W 6179   2.942   8.704   0.874  0.2657  0.0261 -0.4326
 2129W        W 6180   9.216   1.134   1.349 -0.0944  0.1866 -0.2099
 2130W        W 6181   6.111   6.441   1.954 -0.0801  0.0859  0.6416
 2131W        W 6182   8.328   1.750   3.889 -0.4163 -0.0189 -0.2614
 2132W        W 6183   3.993   2.040   8.944  0.1130  0.2494 -0.0400
 2133W        W 6184   5.327   4.331   2.241 -0.0156  0.1446  0.1170
 2134W        W 6185   2.450   0.870   0.325 -0.0242 -0.0742 -0.2591
 2135W        W 6186   0.586   7.339   2.261 -0.3082 -0.2667 -0.2677
 2136W        W 6187   6.774   5.628  11.065 -0.1775 -0.0148 -0.0186
 2137W        W 6188   9.577   6.627   4.418 -0.0903  0.0284 -0.4189
 2138W        W 6189   0.286   4.010  13.376  0.2309 -0.2802 -0.1313
 2139W        W 6190   7.876   8.886   0.498 -0.0712 -0.2768  0.1462
 2140W        W 6191   5.090   1.106  13.747  0.3027 -0.5213 -0.2385
 2141W        W 6192   1.376   8.101   5.657 -0.1153  0.4586  0.1933
 2142W        W 6193   3.581   6.146  10.752 -0.0372 -0.1283 -0.3853
 2143W        W 6194   4.836   0.361   3.925  0.1178  0.0302  0.1856
 2144W        W 6195   0.501   8.544   6.051  0.0380 -0.0981  0.2673
 2145W        W 6196   8.028   3.478   0.741  0.1152  0.1121 -0.2712
 2146W        W 6197   4.814   7.314   8.293  0.3941  0.1851  0.3104
 2147W        W 6198   4.222   6.479   1.358  0.2075  0.1827  0.1839
 2148W        W 6199   6.091   4.897  13.424 -0.2305  0.0722 -0.2543
 2149W        W 6200   7.165   5.024   4.012  0.1850  0.0297 -0.0836
 2150W        W 6201  10.081   3.883   2.365  0.2831  0.0455 -0.0074
 2151W        W 6202   5.165   2.806  11.694 -0.2617  0.1067 -0.1125
 2152W        W 6203   2.708   3.760   0.218  0.0604 -0.2806 -0.1648
 2153W        W 6204   1.949   1.668   1.527 -0.2006 -0.1386 -0.1624
 2154W        W 6205   6.343   4.540  13.097  0.2769  0.3802 -0.1459
 2155W        W 6206   4.296   8.570   1.224 -0.0015 -0.4386 -0.0117
 2156W        W 6207   0.022   4.131  11.042 -0.0717  0.1196  0.1619
 2157W        W 6208   6.308   7.910  14.024 -0.1189 -0.0870 -0.1119
 2158W        W 6209   1.726   4.020   0.182 -0.0989  0.1271 -0.1524
 2159W        W 6210   8.374   6.698   3.744 -0.1822  0.0352 -0.1703
 2160W        W 6211   1.123   9.062   0.168 -0.0266  0.0137 -0.0812
 2161W        W 6212   2.942   5.427   1.929  0.2099 -0.0579 -0.1182
 2162W        W 6213   6.085   7.008   4.244 -0.1432 -0.1959  0.1354
 2163W        W 6214   3.514   7.126   4.199 -0.1221  0.1187 -0.0442
 2164W        W 6215   3.168   4.309   9.527  0.2786  0.0854 -0.0691
 2165W        W 6216   4.802   8.527   9.356  0.0397 -0.0220 -0.0880
 2166W        W 6217   6.680   0.600   9.732 -0.0540  0.0917 -0.2703
 2167W        W 6218   8.386   5.180  13.539  0.3809  0.1107 -0.2427
 2168W        W 6219   4.739   9.209  13.715  0.2282  0.0522 -0.1120
 2169W        W 6220   2.700   7.701  12.360 -0.2904 -0.0302 -0.0125
 2170W        W 6221   1.739   9.641   0.462  0.0949  0.3796  0.2404
 2171W        W 6222   5.894   6.378   3.694  0.3151 -0.1570  0.0872
 2172W        W 6223   4.762   9.855   9.575  0.1572 -0.2250  0.0752
 2173W        W 6224   2.804   0.537  10.139  0.0066  0.0734 -0.0664
 2174W        W 6225   6.819   3.068  11.836  0.1716  0.0271 -0.2498
 2175W        W 6226   9.650   7.926   3.141 -0.1560  0.1925  0.0639
 2176W        W 6227  10.155   6.535   3.309 -0.0686  0.0424 -0.1816
 2177W        W 6228  10.068   9.628   4.912  0.0696  0.0408  0.2324
 2178W        W 6229   2.520   4.124   3.382 -0.0295 -0.0502 -0.3556
 2179W        W 6230   5.797   1.108   0.506  0.0028  0.0677  0.2576
 2180W        W 6231   7.619   4.924   0.207  0.4639  0.1976 -0.0802
 2181W        W 6232   9.029   6.008  13.765 -0.2098 -0.2506  0.2195
 2182W        W 6233   1.893   6.130  13.952 -0.0983 -0.4970 -0.0054
 2183W        W 6234   1.664   0.679   3.901  0.2405  0.0032 -0.0443
 2184W        W 6235   8.075   7.965  11.770  0.3345  0.1744  0.2550
 2185W        W 6236   5.373   8.117   1.849 -0.2305 -0.1363 -0.0373
 2186W        W 6237   9.506   2.645   2.725  0.1993  0.1787  0.1108
 2187W        W 6238   6.435   8.034  13.411 -0.1538 -0.0329 -0.4236
 2188W        W 6239   9.039   3.264   2.024  0.1553 -0.0943 -0.2740
 2189W        W 6240   6.967   1.775   9.787 -0.1046  0.2106 -0.1993
 2190W        W 6241   3.780   7.881   9.860  0.4164  0.1082  0.1471
 2191W        W 6242   5.869   0.495   2.950  0.2409 -0.0589  0.0254
 2192W        W 6243   9.741   7.328  13.180  0.0300 -0.1593  0.1299
 2193W        W 6244   3.649   1.655  12.154 -0.3488  0.0857  0.1262
 2194W        W 6245   4.692   6.065  10.366 -0.2515  0.0597  0.0944
 2195W        W 6246   4.578   5.214   1.391  0.3799 -0.1292 -0.1298
 2196W        W 6247   0.304   7.063  13.977  0.3476  0.1113 -0.2951
 2197W        W 6248   3.013   4.842   9.614 -0.1413  0.3874 -0.1473
 2198W        W 6249   7.608   5.524  13.993  0.1576 -0.1496  0.1605
 2199W        W 6250   4.707   0.803   3.942 -0.0763 -0.1186 -0.0521
 2200W        W 6251   7.584   9.786  10.180  0.0854  0.0071  0.5382
 2201W        W 6252   8.960   9.485   3.724 -0.0463 -0.2623  0.0234
 2202W        W 6253   9.239   7.310  13.648 -0.1077  0.1823 -0.1314
 2203W        W 6254   0.667   1.631   4.345  0.0542 -0.1709  0.1345
 2204W        W 6255   9.699   1.183   1.673  0.0615  0.0122  0.2626
 2205W        W 6256   1.467   9.904   4.670  0.0523  0.2766 -0.1851
 2206W        W 6257   9.108   3.960   3.201  0.1751  0.3400  0.0834
 2207W        W 6258   1.714   5.783  11.352  0.0409  0.0525  0.0510
 2208W        W 6259   9.200   6.203  11.805 -0.0295 -0.1685 -0.0689
 2209W        W 6260   1.775   3.497   0.290  0.1636  0.0750  0.1683
 2210W        W 6261   1.249   0.186  10.530  0.0196 -0.0724  0.1179
 2211W        W 6262   8.807   7.874  11.609 -0.2140 -0.0181  0.0658
 2212W        W 6263   2.354   9.387  12.695  0.0997 -0.1307  0.0217
 2213W        W 6264   4.456   3.557   3.113  0.1809  0.1478  0.4215
 2214W        W 6265   0.408   1.365   4.064  0.1214 -0.0334  0.1961
 2215W        W 6266   9.977   3.199  12.169 -0.0910 -0.1005 -0.1546
 2216W        W 6267   1.734   0.153  12.811  0.0121 -0.3449  0.0277
 2217W        W 6268   4.078   2.393   2.152  0.0953  0.1293  0.0278
 2218W        W 6269   0.263   6.876   9.855 -0.0371  0.3628 -0.3517
 2219W        W 6270   0.406   0.566  12.014  0.1206  0.2963  0.0222
 2220W        W 6271   8.051   5.305   2.725 -0.2108  0.2471 -0.1476
 2221W        W 6272   6.965   3.902   1.967  0.3372 -0.1789 -0.1571
 2222W        W 6273   1.034   0.763   4.615 -0.1653 -0.0286 -0.3208
 2223W        W 6274   5.004   2.167   9.845 -0.4198 -0.2571 -0.0789
 2224W        W 6275   7.126   8.524   2.341  0.0090 -0.0460 -0.1292
 2225W        W 6276   1.773   5.339   0.572  0.1033  0.3490 -0.1863
 2226W        W 6277   8.946   9.414   1.029  0.1167 -0.3459 -0.1812
 2227W        W 6278   9.201   9.789   2.326  0.1731  0.1774  0.0325
 2228W        W 6279   1.263   9.344   2.970  0.0222 -0.1203 -0.0424
 2229W        W 6280   6.524   1.130   1.632  0.0841  0.3422  0.2874
 2230W        W 6281   8.479   8.887   0.702  0.1227  0.1933 -0.1881
 2231W        W 6282   2.756   3.698  12.077  0.0649 -0.0346  0.1194
 2232W        W 6283   5.483   8.255  12.423  0.1935  0.0164 -0.2896
 2233W        W 6284   5.868   4.565  12.997  0.2359  0.1838  0.0801
 2234W        W 6285   3.468   9.543  13.039  0.1854 -0.0906  0.3176
 2235W        W 6286   8.063   7.570  10.804  0.1141  0.1087 -0.1418
 2236W        W 6287   8.501   8.106   0.562  0.2011 -0.0011  0.2711
 2237W        W 6288   6.631   0.534   4.068  0.0067  0.2874 -0.0606
 2238W        W 6289   7.320   9.068   4.722 -0.0698  0.1019  0.0641
 2239W        W 6290   2.143   3.614  12.699  0.0340  0.2571 -0.1666
 2240W        W 6291   8.396   6.717   1.511 -0.1277  0.1836  0.2185
 2241W        W 6292   5.817   1.561   8.853 -0.0752 -0.1241 -0.0102
 2242W        W 6293   6.001   4.079   8.970  0.0355 -0.0676  0.2297
 2243W        W 6294   1.358   4.888   1.960  0.2200 -0.0748 -0.0542
 2244W        W 6295   7.307   4.450  13.310  0.1363 -0.1561  0.0349
 2245W        W 6296   1.520   9.358   9.749 -0.2947  0.0805 -0.1190
 2246W        W 6297   6.817   8.169   2.295  0.2136  0.0937 -0.0139
 2247W        W 6298   9.523   8.386   4.949 -0.1037  0.0403  0.0392
 2248W        W 6299   7.439   6.245   0.414 -0.1957 -0.0392 -0.1375
 2249W        W 6300   7.212   7.474  11.437  0.1081  0.0568  0.3187
 2250W        W 6301   0.571   8.927  12.376 -0.2943 -0.0705 -0.0278
 2251W        W 6302   5.612   7.648   2.382  0.2906 -0.0823 -0.0385
 2252W        W 6303   3.668   8.220   0.956  0.2310  0.1775 -0.1535
 2253W        W 6304   3.111   6.007  10.297  0.0028 -0.0906 -0.3348
 2254W        W 6305   5.879   9.039   0.246 -0.1626 -0.3449 -0.0492
 2255W        W 6306   8.527   2.998   0.209 -0.0658 -0.1181 -0.3692
 2256W        W 6307   7.366   2.168   2.372 -0.1331  0.1462 -0.0982
 2257W        W 6308   4.294   3.068  10.491 -0.1627  0.0847  0.0185
 2258W        W 6309   0.520   1.082  11.947 -0.1571  0.1567 -0.7185
 2259W        W 6310   8.667   3.629  12.589  0.0774  0.0794  0.4557
 2260W        W 6311   8.190   5.137   1.262 -0.4501 -0.0071  0.0995
 2261W        W 6312   8.796   7.918  10.016 -0.1244  0.0782  0.0641
 2262W        W 6313   0.937   2.888   1.451 -0.0003 -0.2254  0.2209
 2263W        W 6314   1.127   5.617  10.460  0.0694  0.1608  0.0226
 2264W        W 6315   8.196   5.665   1.500 -0.4480 -0.3420  0.2758
 2265W        W 6316   4.708   3.863  10.343 -0.2049 -0.3048  0.1257
 2266W        W 6317   7.119   3.063  11.139 -0.5185  0.3234 -0.0281
 2267W        W 6318   6.818   8.770   4.399 -0.3282  0.1628 -0.2737
 2268W        W 6319   6.344   5.848  11.187  0.2433  0.4274  0.0085
 2269W        W 6320   6.087   9.808  11.190 -0.2211  0.2496  0.0066
 2270W        W 6321   0.237   9.509  11.455  0.2434  0.2875  0.2450
 2271W        W 6322   6.538   9.048   9.829  0.0348 -0.1466 -0.1069
 2272W        W 6323   9.034   8.920  10.315 -0.0081 -0.0186 -0.0779
 2273W        W 6324   5.678   3.665   8.828  0.1232 -0.0324 -0.0801
 2274W        W 6325   2.448   6.768   0.466 -0.0563 -0.2933 -0.2208
 2275W        W 6326   6.682   6.128   1.016 -0.2432 -0.2788  0.1278
 2276W        W 6327   2.335  10.110   5.525  0.1185  0.1376 -0.0491
 2277W        W 6328   1.990   0.861  13.577  0.1335 -0.0701 -0.1243
 2278W        W 6329   0.894   6.544  11.938  0.1032  0.1107  0.0236
 2279W        W 6330   7.103   6.687  10.275 -0.1673 -0.1119 -0.0920
 2280W        W 6331   4.924   8.844   0.415  0.0168 -0.3160  0.0680
 2281W        W 6332   6.040   0.559   2.345 -0.0861  0.1688 -0.0014
 2282W        W 6333   7.893   3.328  12.277 -0.1124 -0.1071 -0.0050
 2283W        W 6334   2.381   3.346   0.248 -0.0243  0.1409  0.3645
 2284W        W 6335   6.795   0.705  12.438  0.0859  0.2108  0.1896
 2285W        W 6336   5.583   8.326  14.035  0.2428 -0.1391 -0.1932
 2286W        W 6337   3.571   7.801   1.156  0.0147  0.0754 -0.2856
 2287W        W 6338   9.612   1.478   1.304  0.3609  0.2856  0.0108
 2288W        W 6339   2.948   7.017  12.668  0.2202 -0.1616 -0.0494
 2289W        W 6340   8.479   7.414  11.120 -0.0352  0.2304 -0.0751
 2290W        W 6341   5.561   9.148   9.324 -0.3969 -0.1113 -0.1594
 2291W        W 6342   6.073   9.141   1.439 -0.1596  0.0371 -0.1858
 2292W        W 6343   8.643   1.382  13.999  0.0015  0.1842 -0.1354
 2293W        W 6344   7.540   2.044   8.947 -0.3519 -0.0609 -0.3759
 2294W        W 6345   3.262   1.460  11.688  0.2155  0.0989  0.1221
 2295W        W 6346   9.243   2.781  10.776 -0.1268  0.0593  0.0459
 2296W        W 6347   0.740   1.139   2.498  0.0879 -0.0975 -0.3434
 2297W        W 6348   2.928   4.151  11.525  0.2965  0.1020  0.0412
 2298W        W 6349   9.768   1.119   9.944  0.2699  0.1244  0.0999
 2299W        W 6350   2.210   4.952  10.560 -0.3078 -0.0306  0.3034
 2300W        W 6351   6.241   0.622   9.936  0.0475 -0.0043  0.3202
 2301W        W 6352   9.480   7.311  10.309  0.1650 -0.1271 -0.0054
 2302W        W 6353   0.538   2.886   9.260  0.0854  0.4110 -0.0916
 2303W        W 6354   1.313   0.602  11.636 -0.0028  0.0186 -0.2451
 2304W        W 6355   5.747   0.733   9.327  0.2569 -0.3221 -0.0183
 2305W        W 6356   2.317   3.248  13.738  0.0102  0.1229 -0.3709
 2306W        W 6357   4.018  10.137   1.939  0.3310 -0.0032 -0.0824
 2307W        W 6358   2.100   5.529   3.432  0.1270  0.4718  0.0574
 2308W        W 6359   0.169   8.797  12.136 -0.0127 -0.1579 -0.2391
 2309W        W 6360   3.271   6.258   1.554  0.0823 -0.3175 -0.0826
 2310W        W 6361   4.121   4.389  11.000 -0.1961 -0.1614 -0.0234
 2311W        W 6362   6.113   7.720  12.120 -0.2468  0.1041  0.0385
 2312W        W 6363   5.510   7.579  10.753 -0.0508  0.3465 -0.0864
 2313W        W 6364   2.384   9.501   1.066 -0.0225  0.1618 -0.0381
 2314W        W 6365   3.520   6.557  11.271 -0.2639  0.1354  0.0279
 2315W        W 6366   3.603   8.863  13.642 -0.2900  0.0385 -0.2177
 2316W        W 6367  10.143   7.111   3.277 -0.1273 -0.3573 -0.0346
 2317W        W 6368   2.857   3.840   0.806  0.1211 -0.2547 -0.2486
 2318W        W 6369   4.329   6.016   9.679  0.0141  0.2067  0.1689
 2319W        W 6370   5.927   4.532   4.411 -0.3251 -0.0686 -0.1176
 2320W        W 6371   3.138   2.928   0.011 -0.2758 -0.1679  0.0415
 2321W        W 6372   4.825   7.562  12.384 -0.1587  0.0712  0.1067
 2322W        W 6373   3.390   1.916  10.284  0.0242  0.2529  0.0289
 2323W        W 6374   7.712   8.124  11.380 -0.2470  0.0895  0.1065
 2324W        W 6375   4.045   8.328  11.024  0.1663 -0.1368  0.3247
 2325W        W 6376   1.764   1.745   3.579 -0.1031 -0.2114  0.2606
 2326W        W 6377  10.045   8.496   2.097 -0.1511 -0.0949 -0.1732
 2327W        W 6378   1.248   6.465   2.109  0.2169  0.0324  0.1692
 2328W        W 6379   3.659   9.164   3.306 -0.1566  0.1759  0.2187
 2329W        W 6380   1.206   5.958  11.221 -0.0510 -0.0319 -0.0421
 2330W        W 6381   2.743   9.898   9.426 -0.0846  0.1435  0.2649
 2331W        W 6382   8.854   5.720   0.579 -0.2387  0.0707  0.0572
 2332W        W 6383   5.821   9.648   2.592 -0.0266  0.1505 -0.4320
 2333W        W 6384   9.519   7.577   1.185 -0.2738 -0.1258 -0.1876
 2334W        W 6385   1.876   9.321   2.975  0.2181  0.0454  0.1841
 2335W        W 6386   2.001   3.126   9.460  0.3699 -0.0368 -0.0362
 2336W        W 6387   1.631   0.593   2.184  0.1378  0.0903  0.3972
 2337W        W 6388   2.329   6.931  12.494 -0.0777 -0.0155 -0.1649
 2338W        W 6389   6.044   8.118  13.682  0.0899  0.1087 -0.0078
 2339W        W 6390   3.248   5.056   2.004  0.0993 -0.0788 -0.3050
 2340W        W 6391   2.577   2.012   8.792  0.2201 -0.0012 -0.1851
 2341W        W 6392   5.834   1.845  13.744 -0.2925  0.3010 -0.1421
 2342W        W 6393   4.313   1.812   9.321 -0.1624 -0.0859  0.0220
 2343W        W 6394   6.132   4.973   9.508  0.1588 -0.0948 -0.1465
 2344W        W 6395   3.649   1.741   0.263  0.0070  0.0391 -0.0889
 2345W        W 6396   4.319   0.619  10.142 -0.1840  0.3120 -0.0644
 2346W        W 6397   5.162   9.064  14.014 -0.1563  0.1416 -0.4731
 2347W        W 6398   3.824   2.564  11.926  0.0230 -0.1319 -0.0542
 2348W        W 6399   1.421   1.719   0.161  0.2561 -0.1571 -0.1051
 2349W        W 6400   9.468   9.484  11.219  0.1219  0.1248  0.1312
 2350W        W 6401   1.114   6.348  13.790  0.1697 -0.1917  0.1268
 2351W        W 6402   9.940   2.658   2.461  0.1869 -0.0425  0.2772
 2352W        W 6403   1.765   8.531   0.277 -0.3075 -0.0422  0.0142
 2353W        W 6404   4.461   1.845   3.887 -0.2552 -0.0161  0.3230
 2354W        W 6405   4.505   9.499  10.542  0.0046 -0.1744  0.4747
 2355W        W 6406   7.369   7.283   3.659 -0.0757  0.0654 -0.1983
 2356W        W 6407   0.110   7.107   1.281  0.0763  0.0980  0.0257
 2357W        W 6408   9.582   2.179   3.109  0.1229  0.2023  0.0474
 2358W        W 6409   2.834   6.326   1.297 -0.1763 -0.1282 -0.0500
 2359W        W 6410   5.862   5.445  12.660  0.2222  0.2219 -0.3312
 2360W        W 6411   3.773   2.552  13.748  0.0921 -0.0055  0.0887
 2361W        W 6412   7.665   3.523   9.506  0.0735 -0.1653  0.2760
 2362W        W 6413   6.447   7.444   1.947 -0.0879 -0.1230  0.1419
 2363W        W 6414   0.999   8.185  12.027  0.1597  0.0225  0.0424
 2364W        W 6415   5.529   1.436   4.118 -0.0874 -0.1713 -0.0776
 2365W        W 6416   7.768   8.097   1.649  0.0396  0.2412 -0.2089
 2366W        W 6417   5.472  10.030   4.348  0.0233 -0.1413 -0.2550
 2367W        W 6418   7.477   1.810   4.213 -0.0242 -0.0355 -0.1582
 2368W        W 6419   3.175   4.561   1.772  0.2352  0.0046  0.0333
 2369W        W 6420   2.106   0.477   0.802  0.0607  0.2264 -0.0365
 2370W        W 6421   4.392   1.651  13.298  0.1211 -0.0025  0.2048
 2371W        W 6422   8.475   3.790   1.452 -0.0264 -0.0586  0.0198
 2372W        W 6423   3.722   3.037   1.279  0.0202 -0.0198  0.0453
 2373W        W 6424   6.047   5.882  12.851  0.2181 -0.0075  0.2348
 2374W        W 6425   8.737   7.449  10.665 -0.0646 -0.0057  0.1383
 2375W        W 6426   6.755   6.587  13.230 -0.1992  0.2312  0.1258
 2376W        W 6427   9.101   3.224  13.494 -0.3956  0.0927 -0.2142
 2377W        W 6428   2.417   7.226   9.783  0.0282 -0.2100  0.2390
 2378W        W 6429   9.265   4.337   0.635 -0.2387  0.0982  0.0555
 2379W        W 6430   1.013   2.722   2.807  0.0870  0.1845 -0.0366
 2380W        W 6431   2.512   3.442   2.650 -0.0035  0.0886 -0.0262
 2381W        W 6432   4.474   4.786  10.234 -0.0194  0.0013  0.0264
 2382W        W 6433   7.127   9.142  13.078 -0.0930 -0.0517 -0.2531
 2383W        W 6434   8.174   0.563  11.239 -0.3965 -0.0216 -0.2294
 2384W        W 6435   6.663  10.101   0.353 -0.3106  0.1598 -0.3506
 2385W        W 6436   3.173   5.613   0.369  0.1153  0.0728  0.3090
 2386W        W 6437   4.863   3.550   2.666 -0.1286  0.1197  0.1116
 2387W        W 6438   7.988   1.641   3.069  0.4264  0.0434  0.3216
 2388W        W 6439   2.822   5.098   3.947 -0.0074  0.0456 -0.0542
 2389W        W 6440   3.610   5.816   5.462  0.2030 -0.0351 -0.1645
 2390W        W 6441   7.429   1.833  12.078  0.1608  0.0031 -0.0196
 2391W        W 6442   2.955   5.606  11.908 -0.0352 -0.4433  0.1952
 2392W        W 6443   6.440   5.850  13.714  0.0964  0.0049 -0.0179
 2393W        W 6444   7.603   5.662   3.540  0.0548 -0.1440 -0.0719
 2394W        W 6445   0.174   4.886   2.434 -0.1018 -0.3263  0.3849
 2395W        W 6446   6.668   1.659   0.658  0.1943  0.0370 -0.2301
 2396W        W 6447   4.640   3.577   1.271 -0.0186 -0.1064 -0.1542
 2397W        W 6448   2.826   9.590   0.830  0.1085  0.0549  0.1280
 2398W        W 6449   9.954   3.806  11.475 -0.0949  0.2930 -0.0120
 2399W        W 6450   9.796   3.381  12.690  0.0226  0.3376 -0.3893
 2400W        W 6451   1.063   8.602   3.473 -0.3088  0.1392  0.1176
 2401W        W 6452   0.631   9.697   5.335 -0.1090 -0.1992  0.0960
 2402W        W 6453   4.550   5.012   2.779  0.0391  0.0816  0.0448
 2403W        W 6454   4.024   1.188   1.840  0.0490 -0.1060  0.1101
 2404W        W 6455   0.164   3.086  13.604 -0.3217  0.2277  0.0629
 2405W        W 6456   9.433   2.051  12.580 -0.3252 -0.3873  0.0097
 2406W        W 6457   9.485   6.114  11.313 -0.1273 -0.1225  0.4716
 2407W        W 6458   6.015   9.161   3.550  0.2713  0.1620  0.0240
 2408W        W 6459   3.234   3.412  10.909  0.0509  0.1154 -0.1218
 2409W        W 6460   5.602   5.726   4.178 -0.1141 -0.1116  0.1188
 2410W        W 6461   2.874   9.566   3.211  0.1583  0.0278 -0.1963
 2411W        W 6462   5.331   6.554   1.970 -0.0764  0.3062 -0.0217
 2412W        W 6463   8.559   3.117   2.059  0.0998  0.0182 -0.1334
 2413W        W 6464   4.825   9.983  12.714 -0.1048  0.2665  0.1442
 2414W        W 6465   3.664   1.273  11.445  0.2112 -0.0629 -0.3560
 2415W        W 6466   1.725   1.385  13.398 -0.0838 -0.0666  0.2853
 2416W        W 6467   8.561   0.384  12.070  0.0089 -0.2595  0.0903
 2417W        W 6468   2.298   2.702   2.447 -0.1821 -0.0952 -0.3478
 2418W        W 6469   0.857   1.250  12.274  0.1208  0.1454 -0.1780
 2419W        W 6470   1.883   2.448  14.005  0.5349 -0.1904 -0.0976
 2420W        W 6471   0.518   7.271  12.508 -0.2912 -0.2515 -0.3625
 2421W        W 6472   8.126   4.989  11.277  0.1105 -0.4931 -0.2052
 2422W        W 6473   0.956   9.093  12.684  0.2750  0.0972 -0.2096
 2423W        W 6474   6.749   2.332   2.116  0.2080  0.0863  0.1469
 2424W        W 6475   4.339   9.783  12.651  0.1283 -0.3200  0.1107
 2425W        W 6476   9.910   9.730  11.458 -0.1165 -0.4615  0.3496
 2426W        W 6477   6.914   5.822   0.702  0.2489  0.0030  0.0891
 2427W        W 6478   3.367   5.708  13.121 -0.0318 -0.0783 -0.0981
 2428W        W 6479   6.597   8.678  12.363  0.0833 -0.1425 -0.0364
 2429W        W 6480   9.741   5.084  13.127 -0.2018  0.2004  0.0363
 2430W        W 6481   4.783  10.149  12.278 -0.0142 -0.0865 -0.1504
 2431W        W 6482   9.757   3.540   1.467 -0.0346 -0.1417 -0.2439
 2432W        W 6483   7.018   3.435   1.580  0.0968 -0.1467  0.0725
 2433W        W 6484   6.570   1.346  13.216 -0.0891 -0.0931  0.0739
 2434W        W 6485   9.321   4.897  11.433 -0.1101 -0.0668  0.0412
 2435W        W 6486   3.503   7.325  10.604  0.1231  0.1206 -0.3653
 2436W        W 6487   1.613   1.196  11.938 -0.2646  0.1431 -0.1281
 2437W        W 6488   3.921   6.457  10.446  0.2831  0.1273 -0.2284
 2438W        W 6489   5.817   3.310   0.914 -0.1078  0.0863  0.0264
 2439W        W 6490   3.659   8.240  10.713  0.0574  0.0149  0.4235
 2440W        W 6491   7.214   8.835   1.355  0.2421 -0.1914 -0.0151
 2441W        W 6492   4.139   1.303   2.579  0.1749 -0.0192 -0.2661
 2442W        W 6493   6.629   0.586  12.890 -0.2336 -0.2120 -0.1506
 2443W        W 6494   3.259   8.631  10.762  0.2033 -0.1088  0.2359
 2444W        W 6495   0.258   3.587  11.464 -0.1043  0.0406 -0.0912
 2445W        W 6496   7.844   4.131  14.037  0.2415  0.0024 -0.0915
 2446W        W 6497   1.190   4.035   3.125  0.0110  0.0506 -0.2476
 2447W        W 6498   9.897   2.243  13.311 -0.0357  0.1049  0.2380
 2448W        W 6499   9.113   2.332   3.226  0.2145  0.0148 -0.0932
 2449W        W 6500   5.592   2.598   3.925 -0.2975 -0.1310 -0.0313
 2450W        W 6501   7.143   3.188   2.830 -0.1788 -0.0429  0.5162
 2451W        W 6502   5.324   9.064   3.147  0.0104 -0.0517  0.1961
 2452W        W 6503   1.473   7.874  12.122 -0.1029  0.0939  0.0252
 2453W        W 6504   4.759   7.614  10.266  0.0072 -0.0398 -0.1934
 2454W        W 6505   0.016   9.940   0.123 -0.2403  0.0273 -0.1656
 2455W        W 6506   1.216   0.516  13.190  0.1015 -0.1760 -0.5588
 2456W        W 6507   6.039   4.842   4.015  0.0135  0.2405 -0.0391
 2457W        W 6508   2.807   3.267   8.792 -0.2882  0.1929 -0.1023
 2458W        W 6509   9.671   7.739   2.672 -0.0212 -0.4996 -0.0299
 2459W        W 6510   0.524   8.577  10.560  0.2698  0.1180 -0.0459
 2460W        W 6511   0.689   0.239  12.317 -0.1978  0.1084  0.1397
 2461W        W 6512   8.487   5.844  13.263  0.3624  0.0654  0.0450
 2462W        W 6513   9.738   0.308   1.377  0.1033  0.2280 -0.1824
 2463W        W 6514   0.434   0.520   1.822 -0.1815  0.2223 -0.1240
 2464W        W 6515   0.528   8.335   4.251 -0.0155 -0.0435 -0.0592
 2465W        W 6516   2.431   8.672  12.859  0.1041 -0.1825 -0.1799
 2466W        W 6517   5.604   6.256   9.938 -0.2436 -0.1911  0.1715
 2467W        W 6518   5.384   7.120   0.545  0.0030  0.1899 -0.0387
 2468W        W 6519   2.592   6.249   3.450 -0.1006 -0.1944 -0.1965
 2469W        W 6520   1.425   6.485  13.004  0.4372 -0.2473 -0.0015
 2470W        W 6521   1.025   9.871   8.882 -0.1606 -0.1406 -0.0973
 2471W        W 6522   8.188   2.124   4.666  0.0654  0.0335 -0.0618
 2472W        W 6523   4.425   8.484  10.258  0.2701  0.2192 -0.0305
 2473W        W 6524   5.333   2.942   9.669 -0.0028  0.1316 -0.1018
 2474W        W 6525   1.836   2.452  11.272  0.4181 -0.0549  0.0955
 2475W        W 6526   6.232   9.775   0.616 -0.1242  0.3834  0.3808
 2476W        W 6527   8.889   4.694  11.601 -0.0025 -0.0880  0.1404
 2477W        W 6528   5.330   4.162   1.204  0.0065  0.3058  0.0234
 2478W        W 6529   8.310   0.666   9.074 -0.1224  0.1972 -0.0015
 2479W        W 6530   4.722   1.200   2.624 -0.1707 -0.0757  0.1268
 2480W        W 6531   7.769   2.138   2.113  0.0807 -0.2163  0.2698
 2481W        W 6532   9.390   1.823   0.488 -0.2909 -0.1028 -0.0187
 2482W        W 6533   7.302   0.934  13.387  0.1789 -0.0732  0.1236
 2483W        W 6534   2.044   5.162   1.510  0.2044 -0.0735 -0.3955
 2484W        W 6535   2.024   0.638  10.459 -0.5284  0.0900 -0.1291
 2485W        W 6536   5.825   2.284  10.917 -0.0163 -0.0424  0.2551
 2486W        W 6537   5.768   6.914   4.944  0.1143 -0.3940 -0.3701
 2487W        W 6538   0.936   2.877   4.803  0.4801  0.0821  0.0847
 2488W        W 6539   3.951   6.847   3.052  0.1730  0.0472 -0.2591
 2489W        W 6540   1.369   8.844   3.061 -0.2130  0.1374 -0.1925
 2490W        W 6541   2.208   5.739   1.411 -0.1046  0.2048 -0.1512
 2491W        W 6542   3.335   5.347  11.636 -0.1300 -0.1407  0.2363
 2492W        W 6543   5.002   1.789  13.182 -0.0264  0.0529 -0.2912
 2493W        W 6544   6.261   4.002   4.391 -0.0894 -0.0229  0.1020
 2494W        W 6545   1.533   0.673  10.537 -0.3429  0.1766 -0.1213
 2495W        W 6546   6.292   7.373  10.230 -0.0203  0.0205 -0.1319
 2496W        W 6547   0.229   2.541   3.375 -0.1430 -0.0223 -0.2298
 2497W        W 6548   9.977   2.170  11.928  0.3746 -0.1312  0.1440
 2498W        W 6549   5.023   7.504   2.262 -0.1303  0.0621 -0.1483
 2499W        W 6550   7.494   6.500   1.291  0.1886 -0.0895 -0.0445
 2500W        W 6551   3.872   9.268  10.932 -0.2211 -0.1606  0.1275
 2501W        W 6552   3.388  10.018   3.903 -0.3020  0.2018 -0.0477
 2502W        W 6553   9.098   3.105   0.557 -0.0109 -0.1896 -0.0905
 2503W        W 6554   2.959   5.549  10.875 -0.0467  0.1792  0.2140
 2504W        W 6555   1.542   2.190   3.483 -0.0204  0.1711 -0.1126
 2505W        W 6556   8.146   7.124   9.823  0.1350  0.1689  0.3842
 2506W        W 6557   1.118   0.960   3.698  0.0174 -0.0255  0.0108
 2507W        W 6558   1.069   8.045   3.712  0.1027 -0.3124 -0.0241
 2508W        W 6559   9.227   7.701  13.906 -0.0210  0.1293 -0.1270
 2509W        W 6560   0.838   2.338  10.810  0.0861  0.3338  0.2382
 2510W        W 6561   9.528   3.354   2.049 -0.0046 -0.2104 -0.1090
 2511W        W 6562   7.852   3.062  11.615 -0.3110  0.3340 -0.2030
 2512W        W 6563   0.382   6.497   2.538 -0.0166  0.1896 -0.1303
 2513W        W 6564   6.622   6.239   2.789  0.0461  0.0829  0.0210
 2514W        W 6565   3.996   0.947  11.446  0.0336  0.0952 -0.5236
 2515W        W 6566   7.011   8.140  13.441 -0.1657 -0.2157 -0.1897
 2516W        W 6567   1.810   2.093   4.615  0.0094 -0.2787 -0.1151
 2517W        W 6568   6.934   0.373  12.086 -0.3486  0.2517  0.3624
 2518W        W 6569   3.939   9.290  10.138  0.2421 -0.1654 -0.0656
 2519W        W 6570   9.906   2.007  12.408  0.3208  0.3520  0.2125
 2520W        W 6571   5.962   0.008   0.785  0.1305 -0.1939  0.1335
 2521W        W 6572   2.358   3.331   4.208  0.1669  0.0781 -0.3810
 2522W        W 6573   3.436   7.258  12.125  0.2428  0.0981  0.1022
 2523W        W 6574   7.100   0.580  10.020  0.0072  0.1369  0.0103
 2524W        W 6575   5.574   6.542   5.304  0.0803  0.1234  0.1296
 2525W        W 6576   0.424   7.135  10.351  0.1126 -0.4049 -0.1342
 2526W        W 6577   7.443   2.526   9.402  0.1530  0.0687 -0.3530
 2527W        W 6578   3.107   7.003   1.437 -0.0464 -0.0488  0.2487
 2528W        W 6579   8.929   9.925   2.726 -0.1452  0.0334  0.3684
 2529W        W 6580   1.177   2.451   1.501 -0.0894 -0.0532  0.2527
 2530W        W 6581   7.561   2.700  11.769 -0.0727  0.0360  0.2198
 2531W        W 6582   2.667   4.141   1.210 -0.0951  0.1840 -0.1121
 2532W        W 6583   3.614   0.008  13.704 -0.2145 -0.0598 -0.0417
 2533W        W 6584   7.279   8.564   4.515 -0.4617  0.1546  0.1349
 2534W        W 6585   7.191   6.847   8.885 -0.1313  0.1915 -0.3685
 2535W        W 6586   8.592   2.365   2.617  0.1019 -0.0523  0.0941
 2536W        W 6587   8.324   3.224  11.344 -0.3071  0.0634  0.3761
 2537W        W 6588   8.561   9.124  12.532  0.0838  0.1481  0.1124
 2538W        W 6589   7.140   9.383   1.844  0.1183 -0.0826  0.0095
 2539W        W 6590   2.028   9.957   3.081 -0.0326  0.2976  0.2979
 2540W        W 6591  10.020   9.118  10.502 -0.0522 -0.0042  0.0650
 2541W        W 6592   5.521   0.631   4.263  0.1589 -0.0564  0.0756
 2542W        W 6593   0.015   8.490   4.451 -0.0249 -0.3744 -0.1006
 2543W        W 6594   4.203   9.260  12.283 -0.0922  0.1135  0.1905
 2544W        W 6595   9.644   5.794  11.711 -0.0515 -0.0077 -0.2263
 2545W        W 6596   8.134   5.838  10.198  0.0990  0.1335  0.1289
 2546W        W 6597   9.154   0.715  10.275  0.0959 -0.0514 -0.0895
 2547W        W 6598   3.604   6.836   5.190  0.0803  0.1408  0.0293
 2548W        W 6599   2.320   1.628  10.675  0.0518  0.0750  0.0527
 2549W        W 6600   1.296   7.856   1.063  0.0170  0.1179  0.2242
 2550W        W 6601   1.112   7.311   2.397  0.4731 -0.0084 -0.0435
 2551W        W 6602   3.191   1.886   3.605 -0.1753 -0.1950 -0.2559
 2552W        W 6603   9.872   5.690   2.042  0.0277 -0.3809 -0.1553
 2553W        W 6604   2.288   9.736  11.719 -0.0564  0.0357  0.0290
 2554W        W 6605   1.056   9.551   0.026  0.0838 -0.0575  0.4871
 2555W        W 6606   5.376   3.534   2.682 -0.0245  0.0211  0.1042
 2556W        W 6607   9.530   0.112   3.474  0.2295  0.0113  0.1670
 2557W        W 6608   2.536   4.606   3.064  0.1937 -0.0289 -0.0767
 2558W        W 6609   9.218   0.816   4.604 -0.1995 -0.0513  0.0753
 2559W        W 6610   7.820   4.584  13.245 -0.2659 -0.2570  0.0440
 2560W        W 6611   1.865   9.047  10.797  0.0478 -0.2048  0.1862
 2561W        W 6612   3.406   6.781  13.891  0.3122  0.1752  0.0653
 2562W        W 6613   3.463   2.637   4.041 -0.3658  0.3128 -0.0151
 2563W        W 6614   3.087   8.034   4.865 -0.1056 -0.0941  0.2691
 2564W        W 6615   6.069   9.828  12.114 -0.1392 -0.0021  0.0367
 2565W        W 6616   4.809   9.513  12.918 -0.3128  0.0868 -0.0732
 2566W        W 6617   2.294   7.793  10.169  0.0262 -0.0766  0.0096
 2567W        W 6618   5.275   1.932   1.959 -0.0331  0.3695  0.0756
 2568W        W 6619   9.256   8.435   1.479  0.0226 -0.1738  0.3383
 2569W        W 6620   2.225   9.785  12.910  0.0934 -0.2217  0.4319
 2570W        W 6621   0.329   5.033  10.859 -0.2250  0.3501  0.1463
 2571W        W 6622   5.334   2.999   4.917 -0.1231 -0.0357  0.0577
 2572W        W 6623   2.284   7.385  12.173  0.2964  0.0658 -0.1579
 2573W        W 6624   6.391   9.154  12.543 -0.2316 -0.2127 -0.0222
 2574W        W 6625   5.717   9.015   2.757  0.0632  0.0145  0.0556
 2575W        W 6626   7.212   8.124   4.178 -0.0250 -0.1298  0.0849
 2576W        W 6627   6.276   2.926   9.493  0.1330  0.1570 -0.1202
 2577W        W 6628   5.091   3.386   0.436  0.0146 -0.1307  0.0464
 2578W        W 6629   6.772   0.696  13.903  0.2346 -0.1771  0.0833
 2579W        W 6630   1.175   4.598   0.658 -0.0189  0.0204  0.1215
 2580W        W 6631   5.651   1.804   0.213  0.2254  0.0996 -0.1622
 2581W        W 6632   6.452   6.434  12.882 -0.0153 -0.0651 -0.1659
 2582W        W 6633   9.439   8.291   9.651 -0.2659  0.3715  0.2443
 2583W        W 6634   2.402   3.138  11.249 -0.1748 -0.1901 -0.0444
 2584W        W 6635   6.364   5.608   2.024 -0.1511 -0.1804 -0.0959
 2585W        W 6636   9.415   3.821   1.884  0.1037  0.0995  0.0719
 2586W        W 6637   7.329   5.325   2.108 -0.0581 -0.1813 -0.1490
 2587W        W 6638   0.030   4.367  13.075 -0.2742  0.0852 -0.4037
 2588W        W 6639   2.655   1.580   4.615  0.0367  0.0291 -0.0200
 2589W        W 6640   3.301   7.507  11.622  0.3206  0.2128  0.0860
 2590W        W 6641   6.239   3.648   3.217  0.1001 -0.1136  0.1601
 2591W        W 6642   8.268   7.505   3.588  0.1233  0.0415 -0.2530
 2592W        W 6643   0.161   9.969   2.334  0.0657  0.0129  0.3847
 2593W        W 6644   3.314   2.416  12.719  0.1895 -0.0173  0.1062
 2594W        W 6645   5.233   8.641  11.403 -0.2658 -0.0476  0.0111
 2595W        W 6646   7.553   6.430  10.150 -0.3531 -0.0589 -0.0048
 2596W        W 6647   6.654   9.283  12.941 -0.1519 -0.3030  0.4192
 2597W        W 6648   9.978   4.014   3.625 -0.2854 -0.0031  0.0529
 2598W        W 6649   8.327   7.227  13.593  0.1131  0.0012 -0.1288
 2599W        W 6650   0.620   2.968   1.009 -0.1329 -0.3220 -0.1787
 2600W        W 6651   8.855   8.097   1.542 -0.0137  0.0304 -0.3798
 2601W        W 6652   2.368   1.055   3.414  0.0878 -0.1056 -0.0359
 2602W        W 6653   5.299   1.861   4.505  0.0192  0.0290 -0.0297
 2603W        W 6654   7.849   1.018   3.718  0.1864 -0.1270 -0.1898
 2604W        W 6655   0.983   7.107   1.502  0.1379 -0.0348 -0.1044
 2605W        W 6656   2.625  10.089  13.092  0.1953 -0.0320 -0.0228
 2606W        W 6657   1.264   2.989  12.740  0.0315 -0.0766  0.4240
 2607W        W 6658   6.209   9.752   2.293  0.0614  0.0649  0.1175
 2608W        W 6659  10.133   0.562  11.568  0.3118 -0.0250  0.2974
 2609W        W 6660   1.710   3.961   3.106  0.1079  0.0705 -0.4629
 2610W        W 6661   8.063   4.427   2.649 -0.1155 -0.4421  0.2874
 2611W        W 6662   6.087   0.258  11.274 -0.1429 -0.0841 -0.1890
 2612W        W 6663   4.393   4.590  12.017 -0.1679  0.0465  0.1522
 2613W        W 6664   2.996   6.074  13.284  0.1727 -0.3449 -0.0544
 2614W        W 6665   3.782   2.943  10.143 -0.3154 -0.0499  0.0901
 2615W        W 6666   4.650   5.613  13.091  0.2150 -0.2451  0.1337
 2616W        W 6667   6.262   0.849   2.044 -0.3963 -0.2465  0.1852
 2617W        W 6668   5.057   8.016   0.665  0.1041  0.0758  0.1907
 2618W        W 6669   4.094   0.956  13.790 -0.0904 -0.0072 -0.1065
 2619W        W 6670   5.349   8.632   1.799 -0.3767 -0.0530 -0.2384
 2620W        W 6671   5.070   2.250   1.011 -0.0734 -0.2379 -0.1615
 2621W        W 6672   9.125   2.462  11.103  0.0672  0.0769 -0.4048
 2622W        W 6673   8.293   7.236   0.077 -0.0861  0.3693 -0.0785
 2623W        W 6674   5.883   4.542  11.135 -0.0366 -0.0217 -0.2316
 2624W        W 6675   6.794   0.404  11.631  0.2576 -0.2682 -0.0308
 2625W        W 6676   1.240   3.971   3.705  0.0278  0.2491 -0.1990
 2626W        W 6677   8.780   4.397   0.317 -0.1432 -0.2455  0.0799
 2627W        W 6678   6.991   9.540  12.592 -0.1641  0.3203  0.0962
 2628W        W 6679   5.168   6.052   9.608  0.1408 -0.0424 -0.0778
 2629W        W 6680   5.073   9.654   1.306  0.0985 -0.1053  0.0589
 2630W        W 6681   3.418   3.778   2.230  0.0940 -0.1097  0.0214
 2631W        W 6682   1.346   2.333  11.542 -0.1208  0.0302  0.1658
 2632W        W 6683   3.390   5.005  12.062  0.1983  0.1293 -0.2199
 2633W        W 6684   9.741  10.069   0.389  0.1265 -0.1798 -0.1435
 2634W        W 6685   3.489   4.746   9.915  0.1912 -0.1499  0.2528
 2635W        W 6686   3.074   0.763  12.110 -0.0047 -0.1023 -0.0012
 2636W        W 6687   8.357   5.100   0.707 -0.2161 -0.0265  0.1042
 2637W        W 6688   5.589   0.855  11.604 -0.2490  0.1479  0.0238
 2638W        W 6689   1.005   4.002  11.492 -0.2044 -0.0855  0.1075
 2639W        W 6690   2.063   2.014   9.154  0.1244  0.0394 -0.2285
 2640W        W 6691   8.391   0.917   9.891  0.0482  0.2706  0.1933
 2641W        W 6692   7.660   5.787  11.177 -0.1707 -0.2087  0.0497
 2642W        W 6693  10.019   5.235  12.287 -0.1644  0.0951 -0.2095
 2643W        W 6694   9.166   5.717  11.507  0.0832  0.3462  0.2290
 2644W        W 6695   0.109   9.155   3.209 -0.0067  0.1232  0.1412
 2645W        W 6696   6.378   8.814   0.284 -0.2508 -0.1017  0.1895
 2646W        W 6697   8.227   2.494  12.318  0.0446 -0.2899 -0.0542
 2647W        W 6698   9.617   0.221  11.530 -0.0448  0.0348  0.0413
 2648W        W 6699   7.323   6.721   0.586  0.1121 -0.2758  0.0067
 2649W        W 6700   4.893   0.396  11.458  0.1889 -0.1442  0.2804
 2650W        W 6701   0.366  10.137   3.897  0.0994  0.1139  0.1713
 2651W        W 6702   0.247   6.600   0.089  0.0942  0.1076 -0.0541
 2652W        W 6703   5.420   4.837   1.895  0.0656  0.0586  0.0591
 2653W        W 6704   5.064   8.296   4.039 -0.2533  0.1527  0.2008
 2654W        W 6705   8.189   2.585   0.928  0.0455  0.1696  0.0200
 2655W        W 6706   4.909   3.391   3.183  0.3231  0.2086  0.0925
 2656W        W 6707   0.367   5.263   1.116 -0.2600 -0.1800 -0.2488
 2657W        W 6708   2.682   3.177  10.840  0.0392 -0.1250  0.1285
 2658W        W 6709   3.323   3.012   4.343  0.2880 -0.0253  0.1365
 2659W        W 6710   4.861   3.436  11.949  0.1766 -0.0049  0.1716
 2660W        W 6711   8.908   0.737   2.542 -0.2101  0.1060  0.2340
 2661W        W 6712   0.291   9.627   3.406 -0.1503  0.0252 -0.0830
 2662W        W 6713   6.266   3.181   3.094  0.3819 -0.0092 -0.0795
 2663W        W 6714   1.101   3.876  12.850  0.0691 -0.0102  0.2195
 2664W        W 6715   9.558   3.821  13.424 -0.0166 -0.3216  0.3896
 2665W        W 6716   9.566   7.282   0.036 -0.0249 -0.0705 -0.1804
 2666W        W 6717   4.985   5.389   1.711  0.0658 -0.4017 -0.2340
 2667W        W 6718   1.935   8.019   4.293  0.1036 -0.2704  0.0074
 2668W        W 6719  10.017   4.256   2.022 -0.0460  0.0209  0.3981
 2669W        W 6720   5.534   3.288   2.263 -0.1772  0.0289  0.0332
 2670W        W 6721   6.043   8.350  13.193 -0.1983  0.1873  0.0018
 2671W        W 6722   5.206   8.896   2.640 -0.0783 -0.1062  0.0317
 2672W        W 6723  10.160   2.586  10.717 -0.1946 -0.1724 -0.0606
 2673W        W 6724   5.274   7.652  13.765 -0.0106 -0.0932 -0.0229
 2674W        W 6725   5.969   1.325   3.588  0.0184 -0.0372 -0.0939
 2675W        W 6726   6.941   2.307   3.778 -0.2108 -0.0391  0.2865
 2676W        W 6727   8.321   4.492  11.230 -0.0580 -0.1976  0.4835
 2677W        W 6728   3.372   8.617   4.081 -0.1306 -0.2118  0.0307
 2678W        W 6729   8.449   3.759  11.046  0.0781  0.1942 -0.0388
 2679W        W 6730   2.574   3.702   3.072 -0.0774  0.2758 -0.2213
 2680W        W 6731   4.196   7.124  13.241  0.0610 -0.0063 -0.0044
 2681W        W 6732   8.301   0.434   9.548 -0.4030  0.1311  0.1553
 2682W        W 6733   6.104   6.654   4.644  0.0264 -0.0724 -0.3027
 2683W        W 6734   4.717   9.260   0.751 -0.0396 -0.0438 -0.2531
 2684W        W 6735   7.746   1.982   2.846 -0.1283 -0.4659  0.2660
 2685W        W 6736   5.273   8.986  13.111  0.0132 -0.2767  0.1078
 2686W        W 6737   7.407   7.680  13.282  0.2394 -0.0027 -0.2114
 2687W        W 6738   9.174   7.721   1.514  0.0970  0.0717 -0.2202
 2688W        W 6739   1.626   6.912  13.134  0.0956  0.0685  0.1476
 2689W        W 6740   0.053   3.998  12.339  0.0370  0.0142  0.1441
 2690W        W 6741   5.364   9.556   0.255  0.1977  0.0178  0.0270
 2691W        W 6742  10.111   5.731  12.533 -0.0458  0.0784 -0.1182
 2692W        W 6743   8.604   8.670   2.691  0.0063  0.0016 -0.3543
 2693W        W 6744   4.770   1.413  13.019  0.1810  0.1184 -0.0703
 2694W        W 6745   2.664   9.344  11.090 -0.2502  0.0435 -0.2138
 2695W        W 6746   2.152   8.256  12.915 -0.1614  0.2377 -0.1230
 2696W        W 6747   8.753   1.972   3.070 -0.2219 -0.0507  0.0872
 2697W        W 6748   6.151   2.908   4.471 -0.1957 -0.1015 -0.2338
 2698W        W 6749   5.764   3.450  10.524 -0.0670  0.3328  0.2086
 2699W        W 6750   1.055   1.897  13.836  0.3054 -0.0771  0.1882
 2700W        W 6751   5.358   9.360   2.651  0.2540  0.0235 -0.0545
 2701W        W 6752   6.042   6.592   9.557  0.3443  0.0378 -0.3559
 2702W        W 6753   4.864   5.120  13.057 -0.2497  0.0520 -0.1450
 2703W        W 6754   8.012   5.855  13.822 -0.0571 -0.0583  0.0176
 2704W        W 6755   3.171   2.924   2.488 -0.2203  0.1752 -0.3476
 2705W        W 6756   3.866   0.061  11.107  0.1157  0.0796  0.2740
 2706W        W 6757   7.527   3.330   1.565  0.0780 -0.1114  0.1089
 2707W        W 6758   2.432   9.004   9.532  0.4270  0.1568  0.1635
 2708W        W 6759   0.706   2.137   0.823  0.0646  0.3200  0.0898
 2709W        W 6760   2.255   5.628  10.252  0.1738  0.1756 -0.2440
 2710W        W 6761   8.446   2.502   3.032  0.1083  0.1356  0.1070
 2711W        W 6762   8.160  10.122   4.942  0.0079  0.0103 -0.0963
 2712W        W 6763   4.000   0.797   2.216  0.2594 -0.1128 -0.1137
 2713W        W 6764   6.569   9.192  11.696  0.0111 -0.1547 -0.2479
 2714W        W 6765   3.781   1.663   8.425 -0.0783 -0.1515 -0.1099
 2715W        W 6766   3.612   9.103   4.586  0.0819 -0.1368  0.1279
 2716W        W 6767   4.767   6.447  10.658  0.1440 -0.0793 -0.0727
 2717W        W 6768   4.783   4.822   8.318 -0.4309 -0.0496  0.0994
 2718W        W 6769   7.447   7.256  11.024  0.3421 -0.2298 -0.1556
 2719W        W 6770   3.262   7.657   4.326  0.4052  0.0951  0.1105
 2720W        W 6771   8.661   9.117  11.938  0.0992  0.1847 -0.2126
 2721W        W 6772   8.237   2.627  11.370  0.1459 -0.3227 -0.2016
 2722W        W 6773   4.237   5.963   2.965  0.3032 -0.3433 -0.0853
 2723W        W 6774   7.598   3.016   9.403 -0.1268  0.1002  0.1968
 2724W        W 6775   4.698   9.538  12.378  0.0564 -0.1418 -0.2393
 2725W        W 6776   6.795   3.897  10.972 -0.1362 -0.2216  0.3066
 2726W        W 6777   4.697   3.919  13.951 -0.0848  0.1938  0.1014
 2727W        W 6778   3.665   9.489   1.156  0.2476  0.0618  0.1799
 2728W        W 6779   8.655   1.535  13.485 -0.0519  0.1278 -0.1033
 2729W        W 6780   6.715   0.481   3.353 -0.0777  0.0626 -0.1391
 2730W        W 6781   4.256   1.942   0.780 -0.0458 -0.5319  0.1343
 2731W        W 6782   8.683   8.867   9.164 -0.3498  0.1381  0.1243
 2732W        W 6783   8.134   8.538   9.987  0.0252  0.2438  0.2718
 2733W        W 6784   7.708   3.999   2.717 -0.2365  0.2353  0.0283
 2734W        W 6785   1.836   8.611  10.579 -0.0725 -0.3120 -0.1487
 2735W        W 6786   8.344   7.261   4.014 -0.2578 -0.2020  0.6087
 2736W        W 6787   8.533   2.402  11.954 -0.0911 -0.2737  0.1116
 2737W        W 6788   6.751   0.805   2.943 -0.5393 -0.4435  0.1520
 2738W        W 6789   3.409   1.297  13.581  0.0971 -0.0068  0.4058
 2739W        W 6790   1.692   3.332  11.234 -0.1054  0.0288 -0.1215
 2740W        W 6791   3.858   1.206  13.031  0.1806  0.1325 -0.3208
 2741W        W 6792   6.994   0.060   2.398  0.0731  0.0216  0.2062
 2742W        W 6793   4.430   1.370   4.169 -0.3093  0.2616 -0.0194
 2743W        W 6794   7.932   0.095   1.742 -0.2147  0.2311  0.1665
 2744W        W 6795   6.248   4.457  10.462  0.2283 -0.0948 -0.2617
 2745W        W 6796   1.163   8.173  13.394  0.2178 -0.0058 -0.0825
 2746W        W 6797   3.768   0.767   1.104  0.1804  0.2626 -0.1737
 2747W        W 6798   0.826   3.109  11.254  0.0125 -0.0042 -0.1668
 2748W        W 6799   4.320   6.678  12.596 -0.1972 -0.3152  0.0621
 2749W        W 6800   3.554   6.551   9.495  0.1649  0.1844 -0.1368
 2750W        W 6801   6.021   9.665  10.141  0.2782  0.1973 -0.1417
 2751W        W 6802   5.440   3.763   5.317 -0.3184  0.2391  0.0191
 2752W        W 6803   8.771   3.295   3.115  0.1038  0.1550  0.0355
 2753W        W 6804   3.233   8.820   1.870 -0.2344 -0.2134  0.1625
 2754W        W 6805   3.025   0.071   0.061 -0.1319  0.3610  0.1101
 2755W        W 6806   5.927   1.380   0.002  0.0816 -0.0590  0.0516
 2756W        W 6807   1.460   8.202   0.640  0.3141 -0.2138  0.1473
 2757W        W 6808   0.294   8.940  10.160  0.0106 -0.0823 -0.0778
 2758W        W 6809   2.490   4.963   1.313  0.0672  0.0178  0.0618
 2759W        W 6810   4.920   1.487   0.837  0.2410 -0.0235 -0.1872
 2760W        W 6811   8.602   2.403   9.883  0.0939  0.0312  0.4985
 2761W        W 6812   4.691   6.719  10.066  0.2107 -0.0178 -0.1368
 2762W        W 6813   7.118   7.375   4.956 -0.1049 -0.3656 -0.1301
 2763W        W 6814   0.947   7.374  10.860 -0.0855 -0.2082  0.0256
 2764W        W 6815   8.990   9.886   1.031 -0.3672  0.1147  0.0643
 2765W        W 6816   8.188   1.319   3.946  0.2427 -0.0006  0.2431
 2766W        W 6817   5.721   0.374  12.698 -0.0936 -0.1752 -0.2486
 2767W        W 6818   6.125   4.114  11.364  0.0068 -0.5123  0.1098
 2768W        W 6819   4.760   5.317  13.528 -0.0121  0.1042 -0.0216
 2769W        W 6820   3.667   6.833   0.756  0.1008 -0.0757  0.2297
 2770W        W 6821   6.496   2.937  12.303  0.1919 -0.0280 -0.3362
 2771W        W 6822   2.917   7.302   8.813 -0.0620  0.1413  0.1292
 2772W        W 6823   1.833   8.644  12.497 -0.1144 -0.1134 -0.0196
 2773W        W 6824   1.074   4.053   0.649  0.0806 -0.0043 -0.2072
 2774W        W 6825   9.857   5.066   3.533  0.0128  0.1294 -0.1134
 2775W        W 6826   2.818   0.041  12.045  0.0876 -0.0936 -0.0795
 2776W        W 6827   1.365   8.557   1.932 -0.1634  0.1112  0.3067
 2777W        W 6828   8.011   2.509  13.521  0.2253  0.0273  0.2350
 2778W        W 6829   7.271   5.931  10.816  0.0944 -0.1504 -0.2276
 2779W        W 6830   2.417   9.985   0.958  0.3288 -0.0343 -0.2867
 2780W        W 6831   5.744   4.552   2.120 -0.2056  0.2137 -0.1334
 2781W        W 6832   6.151   6.601  12.539 -0.0733  0.1727  0.0575
 2782W        W 6833   4.549   6.860   1.945 -0.1804 -0.2317  0.2284
 2783W        W 6834   9.765   9.995  13.953  0.4244  0.0561  0.1363
 2784W        W 6835   8.961   7.452  10.209  0.0075  0.0922 -0.0062
 2785W        W 6836   2.787   5.131  12.724  0.0361  0.2540 -0.1441
 2786W        W 6837   9.388   4.320   1.141  0.1289 -0.0363  0.1114
 2787W        W 6838   5.966   4.091   3.290 -0.2556 -0.0332  0.0244
 2788W        W 6839   0.032   4.433   2.969 -0.3483 -0.2102 -0.0711
 2789W        W 6840   4.417   5.271   3.336 -0.1353 -0.1112 -0.0230
 2790W        W 6841   7.114   4.592  11.618  0.0279 -0.0434  0.0240
 2791W        W 6842   0.219   5.840   1.012  0.0170  0.1648 -0.1412
 2792W        W 6843   5.180   1.062   4.181  0.1500  0.4709 -0.0271
 2793W        W 6844   1.440   9.079  13.673  0.1881  0.2756 -0.0525
 2794W        W 6845   5.033   9.347  10.058 -0.2291  0.2022 -0.1766
 2795W        W 6846   8.891   7.224   1.712 -0.0960 -0.2934 -0.0677
 2796W        W 6847   4.346   8.066   9.965  0.1764  0.1933  0.1972
 2797W        W 6848   5.812  10.002  12.486  0.1099  0.0517 -0.1026
 2798W        W 6849   7.036   2.437   1.628 -0.2065 -0.3063  0.0889
 2799W        W 6850   3.224   2.228  10.640 -0.2138  0.1036  0.2258
 2800W        W 6851   8.928   6.936  13.710  0.3053  0.1339 -0.0253
 2801W        W 6852   3.709   5.511  11.366  0.2070  0.4732  0.1943
 2802W        W 6853   9.881   1.726   4.492  0.0806  0.0498  0.2405
 2803W        W 6854   0.625   2.093  13.551 -0.1418  0.5113 -0.1862
 2804W        W 6855   4.860   2.358   0.554 -0.1608 -0.3567  0.2126
 2805W        W 6856   9.554   9.215  12.812  0.0441  0.1575 -0.0054
 2806W        W 6857   4.950   8.043   2.398 -0.1868 -0.1728  0.0170
 2807W        W 6858   1.966   7.203   3.833 -0.0938  0.0395 -0.0435
 2808W        W 6859  10.107   8.705   0.836 -0.1377  0.3964 -0.0425
 2809W        W 6860   5.720   9.846   0.528  0.1305  0.1854 -0.0646
 2810W        W 6861   7.210   8.088  11.574 -0.1095  0.1465 -0.2719
 2811W        W 6862   9.318   3.933  13.822 -0.3328  0.1590 -0.3257
 2812W        W 6863   9.815   0.441  12.981 -0.3160  0.1236 -0.0785
 2813W        W 6864   1.405   1.959   2.389  0.3043  0.1007 -0.4084
 2814W        W 6865   3.677   8.983  13.142  0.0003  0.1159  0.2123
 2815W        W 6866   3.643   3.373   9.839  0.0056 -0.0259 -0.1729
 2816W        W 6867   2.707   8.213  12.296 -0.0932  0.1357  0.0242
 2817W        W 6868   3.535   8.528  13.282 -0.0167 -0.0666 -0.1384
 2818W        W 6869   6.419   2.238  10.289  0.0630  0.3019 -0.1510
 2819W        W 6870   8.998   9.171  11.053 -0.4596  0.0009 -0.1902
 2820W        W 6871   7.943   1.621  10.933 -0.0186 -0.0162 -0.0420
 2821W        W 6872   7.518   3.264   0.164  0.3671  0.0156  0.3411
 2822W        W 6873   0.984   6.511   0.549 -0.0993  0.1291 -0.0153
 2823W        W 6874   3.012   6.195   2.725  0.1493 -0.0413  0.0016
 2824W        W 6875   7.421   7.409  13.759  0.2643 -0.1590 -0.1541
 2825W        W 6876   4.564   6.768  11.520  0.1378 -0.0241  0.3237
 2826W        W 6877  10.071   6.163   0.146  0.0914  0.2271  0.0426
 2827W        W 6878   7.842   5.216   1.651 -0.2896  0.2325  0.2751
 2828W        W 6879   9.986   9.562  12.725  0.1387  0.2442  0.2498
 2829W        W 6880   0.002   6.196   2.258 -0.2023 -0.0380 -0.4287
 2830W        W 6881   8.471   9.661  13.748 -0.1132 -0.0370  0.0594
 2831W        W 6882   8.184   1.975  12.097 -0.3670  0.1633 -0.2366
 2832W        W 6883   4.306   0.634  13.042  0.1850 -0.2928 -0.0205
 2833W        W 6884   8.846   0.477   4.499 -0.3535 -0.1658  0.3422
 2834W        W 6885   2.995   7.825   0.325  0.2352 -0.2916 -0.0568
 2835W        W 6886   8.886   7.203   2.988 -0.0651  0.1489 -0.2106
 2836W        W 6887   9.081   9.260  13.921 -0.0492 -0.0432  0.1303
 2837W        W 6888   1.625   3.490   2.126 -0.0243 -0.1462  0.1782
 2838W        W 6889   2.757   2.727   1.347  0.0631 -0.1223  0.0173
 2839W        W 6890   0.971   2.962  13.198  0.0061  0.1246 -0.2832
 2840W        W 6891   9.199   1.147   4.937 -0.1353 -0.0812 -0.1075
 2841W        W 6892   0.478   6.193  13.239  0.4044  0.1585  0.1185
 2842W        W 6893   3.073   7.983   9.606 -0.3580 -0.0805 -0.0986
 2843W        W 6894  10.147   9.793   1.802  0.0797 -0.2789 -0.2507
 2844W        W 6895   5.752  10.064  13.015  0.3804  0.0094 -0.3082
 2845W        W 6896   6.997   2.725   2.924  0.0573  0.2930 -0.1137
 2846W        W 6897   5.436   7.527  13.231  0.1263 -0.0007  0.1347
 2847W        W 6898   4.010   8.816  10.113  0.2933 -0.0743  0.1131
 2848W        W 6899   4.831   6.526  13.047  0.3401 -0.1402 -0.2280
 2849W        W 6900  10.084   2.920  12.655 -0.0889 -0.0226 -0.1139
 2850W        W 6901   0.082   8.424   3.676 -0.2175  0.1283  0.0704
 2851W        W 6902   2.120   1.674   4.544  0.0923  0.0511  0.0404
 2852W        W 6903   0.921   9.978   2.277 -0.1224  0.1530 -0.0097
 2853W        W 6904   3.012   8.226   3.885 -0.2110  0.1989  0.1099
 2854W        W 6905   7.601   5.938   0.828 -0.2893 -0.0933 -0.1675
 2855W        W 6906   5.190   2.506  13.340 -0.1248 -0.4075  0.0482
 2856W        W 6907   5.251   3.763  12.623 -0.1136  0.0546 -0.0605
 2857W        W 6908   4.241   1.599   8.883  0.0805  0.1043 -0.1219
 2858W        W 6909   4.810   6.552   8.473  0.4988  0.2105  0.2682
 2859W        W 6910   0.594   5.516   2.143 -0.0365 -0.1237  0.0152
 2860W        W 6911   2.488   0.227   0.487 -0.1757 -0.2631 -0.0250
 2861W        W 6912   1.408   7.769  10.041  0.1659 -0.0736  0.0932
 2862W        W 6913   4.425   2.641   3.360  0.1563  0.3024 -0.0876
 2863W        W 6914   7.888   5.036  13.004 -0.1350 -0.0283  0.0470
 2864W        W 6915   8.731   1.609  10.048  0.3300 -0.4186 -0.4283
 2865W        W 6916   2.062   2.697   9.725  0.3348  0.0702  0.0811
 2866W        W 6917   1.281   3.963  10.525 -0.2014  0.1281 -0.0908
 2867W        W 6918   6.129   3.212   4.090 -0.1250 -0.6442  0.3348
 2868W        W 6919   6.065   9.648   1.535  0.4101  0.2406 -0.0189
 2869W        W 6920   0.671   8.983  13.186  0.0408  0.0901 -0.3235
 2870W        W 6921   6.235   4.628  11.512  0.0644 -0.1972  0.1244
 2871W        W 6922   6.036   4.988   4.533 -0.1975  0.2903 -0.0864
 2872W        W 6923   3.966   4.925  12.887  0.1995  0.1804 -0.1665
 2873W        W 6924   3.758   3.497   0.241  0.2295 -0.0152  0.0988
 2874W        W 6925   1.349   2.058  12.108 -0.1523  0.0131 -0.0175
 2875W        W 6926   2.284   6.073   9.365  0.2259 -0.0789  0.2393
 2876W        W 6927   1.396   1.404   0.678  0.1790 -0.2435 -0.0497
 2877W        W 6928   4.985   6.918  10.441 -0.0499  0.0432 -0.2001
 2878W        W 6929   8.656   7.655  12.979  0.2605 -0.0181  0.2285
 2879W        W 6930   5.685   3.983   0.495 -0.2874 -0.0356  0.1170
 2880W        W 6931  10.115   6.998  11.434 -0.2745  0.2841  0.3130
 2881W        W 6932   9.601   9.800   3.336 -0.2130 -0.0053 -0.1951
 2882W        W 6933   5.930   9.664   3.524  0.1136  0.3668 -0.0177
 2883W        W 6934   4.842   8.892   4.439  0.4658 -0.2661 -0.0446
 2884W        W 6935   6.871   5.653   2.075 -0.4171  0.0307  0.1133
 2885W        W 6936   9.339   6.922   1.438  0.2324  0.3494 -0.0531
 2886W        W 6937   8.137  10.089   4.033  0.0964  0.0773 -0.2234
 2887W        W 6938   0.115   3.773  13.904 -0.6014 -0.1343  0.1418
 2888W        W 6939   3.477   4.952  14.022  0.0618  0.0486  0.1670
 2889W        W 6940  10.043   7.007   0.197 -0.1085  0.0604  0.1904
 2890W        W 6941   1.198   1.912   0.678 -0.1230 -0.1197 -0.1781
 2891W        W 6942   8.784   4.215  11.015 -0.2640  0.3235 -0.1161
 2892W        W 6943   0.594   8.889   9.754  0.3150 -0.0584 -0.1787
 2893W        W 6944   6.629   0.353  10.200  0.0110 -0.0936  0.1314
 2894W        W 6945   3.949   2.760   1.694 -0.0941  0.0291 -0.0964
 2895W        W 6946   7.580   3.557  12.693 -0.1882 -0.4106  0.0850
 2896W        W 6947   0.742   2.428   1.786  0.1864  0.1424  0.0303
 2897W        W 6948   7.155   3.563   3.167 -0.1426  0.0760 -0.2214
 2898W        W 6949   4.389   0.285  12.226 -0.5092  0.0349 -0.1817
 2899W        W 6950   7.905   6.834   0.589  0.1065 -0.1451 -0.1099
 2900W        W 6951   7.645   0.665  12.728  0.2771  0.0395  0.1685
 2901W        W 6952   0.630   6.034  13.670  0.0032  0.0141  0.1624
 2902W        W 6953   1.721   8.248   2.292  0.0260 -0.2791  0.1381
 2903W        W 6954   1.938   9.541   4.781 -0.1498 -0.0606  0.1953
 2904W        W 6955   8.613   3.407   4.141 -0.2801  0.3436  0.2572
 2905W        W 6956   9.693   6.003   3.935  0.3554 -0.0475  0.1816
 2906W        W 6957   4.033   9.140  13.440 -0.0732 -0.1624  0.0321
 2907W        W 6958   6.798   7.632  13.437 -0.0544 -0.1129 -0.1844
 2908W        W 6959   4.704  10.131   3.636 -0.0099 -0.0851 -0.2508
 2909W        W 6960   4.482   5.612  10.531  0.3305  0.1210 -0.0441
 2910W        W 6961   2.409   0.861   2.621  0.3071  0.1367  0.3479
 2911W        W 6962   7.504   6.780  11.963 -0.0567 -0.4356 -0.1282
 2912W        W 6963   4.409   1.099  13.282  0.0163  0.2152 -0.0301
 2913W        W 6964   6.834   8.272   0.630  0.0539  0.0470  0.0026
 2914W        W 6965   8.766   6.236  10.862 -0.2452 -0.2133 -0.0514
 2915W        W 6966   5.344   3.649  11.631 -0.0660  0.1072  0.3573
 2916W        W 6967   9.275   8.200   3.324  0.0609 -0.1689  0.2519
 2917W        W 6968   8.223   2.837  11.895 -0.1761 -0.0149  0.3291
 2918W        W 6969   1.677   0.119  12.226  0.2936 -0.2339 -0.2155
 2919W        W 6970   5.935   2.817   4.950  0.0518  0.0539 -0.0821
 2920W        W 6971   2.517   5.986   4.244 -0.2546  0.0330 -0.3014
 2921W        W 6972   2.778   6.262  12.884  0.0213 -0.2319  0.1389
 2922W        W 6973   6.622   8.108   5.692  0.0521  0.1628 -0.0357
 2923W        W 6974   0.258   5.713  13.503 -0.1439 -0.4656  0.1484
 2924W        W 6975   1.471   9.402   4.921  0.0517 -0.3360  0.1037
 2925W        W 6976   2.014   6.033   0.886  0.3449  0.4596 -0.0091
 2926W        W 6977   0.653   4.830  11.321 -0.0884  0.1734  0.1307
 2927W        W 6978   1.614   3.539   1.610 -0.3072 -0.2566  0.0517
 2928W        W 6979   4.093   1.624   2.100 -0.0733  0.0096 -0.2224
 2929W        W 6980   9.382   4.897  10.926 -0.2764 -0.0231 -0.1322
 2930W        W 6981   1.931   7.709   2.614 -0.0703  0.1884  0.2311
 2931W        W 6982  10.123   1.815  10.350 -0.0111 -0.3241  0.0035
 2932W        W 6983   9.974   1.172   9.499  0.1815 -0.0535  0.0780
 2933W        W 6984   2.525   1.831   9.267 -0.0353 -0.2114  0.1361
 2934W        W 6985   4.116   5.422   2.964 -0.0902 -0.0156  0.3294
 2935W        W 6986   7.260   3.219   1.939  0.0164  0.6842  0.0838
 2936W        W 6987   5.528   0.006   9.547  0.2501 -0.1350  0.2020
 2937W        W 6988   4.699   5.295   9.730  0.0078  0.1426  0.3748
 2938W        W 6989   5.405   5.674   4.979  0.0444  0.0901  0.0790
 2939W        W 6990   6.279   1.123   1.206 -0.2421 -0.0490  0.1986
 2940W        W 6991   7.538   0.908   2.814 -0.0638  0.0989  0.0374
 2941W        W 6992   3.301   8.736   8.888  0.2523  0.1295  0.0931
 2942W        W 6993   5.246   9.912  12.971 -0.1391 -0.3831 -0.2713
 2943W        W 6994   9.583   3.147   0.649  0.1264  0.0711 -0.4464
 2944W        W 6995   3.926   8.371   4.466  0.0292 -0.0146  0.1639
 2945W        W 6996   6.732   2.021  12.562 -0.2014 -0.4049 -0.2468
 2946W        W 6997   7.698   8.459  10.397 -0.0896  0.1960  0.0156
 2947W        W 6998   2.585   9.955   0.270  0.4035  0.0453  0.0255
 2948W        W 6999   7.287   8.470   0.515  0.2478  0.5597 -0.2066
 2949W        W 7000   0.882   8.148   0.220  0.2183  0.0284  0.1003
 2950W        W 7001   3.520   7.521   2.541  0.2385 -0.0686 -0.1635
 2951W        W 7002   4.681   6.184   3.864  0.0128  0.0056 -0.2060
 2952W        W 7003   2.998   9.665   4.146 -0.0190 -0.2130 -0.1983
 2953W        W 7004  10.034   5.430  11.794  0.0485  0.1608  0.0759
 2954W        W 7005   9.181   5.565   3.662 -0.1926 -0.0709  0.1150
 2955W        W 7006   6.108   3.107  10.284 -0.2572 -0.0095  0.3780
 2956W        W 7007   7.728   0.692   1.876 -0.2508 -0.1540 -0.0916
 2957W        W 7008   4.110   7.965  12.128  0.2644 -0.0473 -0.3518
 2958W        W 7009   0.202   3.176   1.167  0.2182 -0.0488 -0.1687
 2959W        W 7010   9.426   7.051   2.762 -0.0933 -0.0494 -0.1787
 2960W        W 7011   2.035   4.712   0.606 -0.0645  0.0897 -0.0835
 2961W        W 7012   3.434   6.052   9.510 -0.2086 -0.0977 -0.1179
 2962W        W 7013   6.120   0.928  10.540 -0.2340  0.2249 -0.1461
 2963W        W 7014   8.491   9.414   3.484  0.1071  0.0796 -0.3056
 2964W        W 7015   8.760   7.415  11.586  0.2238  0.1688  0.0711
 2965W        W 7016   3.558   3.921   8.264  0.2821 -0.2358 -0.2260
 2966W        W 7017   1.354   5.157   0.800 -0.1813 -0.2294  0.3113
 2967W        W 7018   2.816   3.533   4.448 -0.1277 -0.0358 -0.1795
 2968W        W 7019   1.120   5.006   1.555 -0.1771  0.1323  0.0579
 2969W        W 7020   2.014   2.497  12.213 -0.0486  0.0778 -0.1212
 2970W        W 7021   3.087   0.712   2.623 -0.0502 -0.5853  0.1119
 2971W        W 7022   0.051   1.706   3.282  0.0022 -0.1753 -0.2324
 2972W        W 7023   7.726   8.983   2.104 -0.0540 -0.1043 -0.3339
 2973W        W 7024   3.797   4.035  13.316  0.0329  0.1864 -0.2792
 2974W        W 7025   7.264   5.572   3.000 -0.2898  0.0448  0.3719
 2975W        W 7026   2.345   7.360   4.691 -0.0250 -0.2156  0.1547
 2976W        W 7027   8.025   0.382   3.568  0.0186  0.0497  0.1766
 2977W        W 7028   0.547   5.557   0.803 -0.3806  0.4629  0.2613
 2978W        W 7029   7.119   9.976  11.383  0.4911  0.2047  0.1572
 2979W        W 7030   8.752   6.280   3.791 -0.0863  0.0239 -0.2657
 2980W        W 7031   5.272   1.803  11.308  0.2897 -0.0473 -0.0022
 2981W        W 7032   9.729   7.229  11.651 -0.1980 -0.1549  0.0953
 2982W        W 7033   2.447   4.354  13.523 -0.0093 -0.2276  0.1855
 2983W        W 7034   4.156   3.417   1.546 -0.1563  0.2141 -0.2592
 2984W        W 7035   3.229   2.351   0.473 -0.1407 -0.0623  0.0459
 2985W        W 7036   5.553   9.572  13.231  0.1082 -0.1461 -0.0417
 2986W        W 7037   4.271   0.647   0.933  0.0824 -0.1636  0.0978
 2987W        W 7038   8.355   8.769  11.188  0.0431 -0.1547 -0.2146
 2988W        W 7039   5.180   8.841  10.765 -0.2087  0.1025 -0.1360
 2989W        W 7040   3.889   5.354  11.986  0.0703  0.0503  0.0013
 2990W        W 7041   9.863   9.370   0.790  0.3785 -0.2558 -0.0151
 2991W        W 7042   5.592   5.172   1.493  0.0992 -0.1124 -0.0345
 2992W        W 7043   4.174   3.437   0.542  0.0635  0.1120  0.0840
 2993W        W 7044   2.010   9.698   8.862  0.0410 -0.0818 -0.0528
 2994W        W 7045   9.526   1.032  13.976  0.2869  0.2027  0.1256
 2995W        W 7046   5.429   9.325  10.778  0.2316  0.1195 -0.0224
 2996W        W 7047   5.288   9.465   0.824  0.3541 -0.0130 -0.2301
 2997W        W 7048   9.015   5.830  11.015 -0.3670 -0.0580 -0.1343
 2998W        W 7049   1.630   1.903  12.465  0.1282 -0.1176 -0.0962
 2999W        W 7050   3.063   7.389   0.574  0.1122  0.4055 -0.2667
 3000W        W 7051   4.715   0.548   2.695  0.0392 -0.0813  0.0026
 3001W        W 7052   1.222   0.169   9.676 -0.0449  0.2224 -0.3281
 3002W        W 7053   8.358   5.931   1.145  0.1887  0.1540 -0.0136
 3003W        W 7054   5.559   2.868  12.323  0.1106  0.1347  0.4246
 3004W        W 7055   8.635   9.186  13.674 -0.0942 -0.0007 -0.2259
 3005W        W 7056   0.508   2.978   3.314 -0.1384 -0.0325 -0.0007
 3006W        W 7057   2.285   9.359  10.620  0.1193  0.1626  0.2613
 3007W        W 7058   7.708   0.501  11.525 -0.2688 -0.3999 -0.0567
 3008W        W 7059   9.192   4.673  12.616 -0.1110  0.2149  0.0316
 3009W        W 7060   5.379  10.016   1.819  0.1036  0.0509  0.0815
 3010W        W 7061   6.207   3.910   9.711  0.1488  0.1015 -0.0044
 3011W        W 7062   4.396   1.648   1.658 -0.2270  0.0412 -0.2201
 3012W        W 7063   8.937   6.889   9.474  0.1605 -0.0767  0.1001
 3013W        W 7064   6.053   5.674  10.800  0.0076  0.1371 -0.1387
 3014W        W 7065   8.271   8.916   3.392  0.0139  0.2197 -0.2597
 3015W        W 7066   8.073   4.150  13.177  0.0300  0.0354 -0.0300
 3016W        W 7067   9.739   7.054  12.347 -0.0907  0.3375 -0.1346
 3017W        W 7068   4.732   7.982  12.988  0.1735 -0.1469 -0.1416
 3018W        W 7069   6.355   9.194   2.582 -0.0796 -0.0795 -0.3151
 3019W        W 7070   7.033   9.612  13.120  0.0498  0.1534  0.0999
 3020W        W 7071   5.222   3.204   1.615 -0.0862 -0.0388 -0.0525
 3021W        W 7072   6.441   3.438  13.525  0.3059  0.0502 -0.1862
 3022W        W 7073   0.484  10.090  11.355 -0.0260 -0.0107  0.1964
 3023W        W 7074   7.624   7.702   2.063  0.0254 -0.0549  0.0796
 3024W        W 7075   7.440   4.663   4.250  0.3580 -0.0271  0.3874
 3025W        W 7076   4.261   5.519   9.673  0.1795 -0.1714  0.2021
 3026W        W 7077   4.825   9.740  11.945 -0.1317  0.1202  0.0341
 3027W        W 7078   4.838   5.655  10.951  0.3031 -0.1629  0.0729
 3028W        W 7079   7.088   0.749   9.454 -0.0896 -0.1453 -0.1132
 3029W        W 7080   1.260   5.135   2.831  0.1631 -0.0730  0.1167
 3030W        W 7081   2.854   5.669   4.419  0.2761  0.1225 -0.2867
 3031W        W 7082   1.450   0.948  13.361 -0.1402 -0.1061 -0.0824
 3032W        W 7083   9.475   0.544   2.536  0.0903 -0.1459  0.1638
 3033W        W 7084   6.287   3.215  10.949  0.2940 -0.1348 -0.2794
 3034W        W 7085   9.325   8.751   9.849 -0.0732 -0.2289  0.0109
 3035W        W 7086   0.007   2.793  11.300 -0.0884 -0.1179 -0.0500
 3036W        W 7087   3.616   8.483   8.576  0.2187 -0.1899  0.0491
 3037W        W 7088   8.780   8.466   0.720  0.1117  0.2163  0.0705
 3038W        W 7089   7.910   9.849  12.576  0.0977 -0.0540  0.1193
 3039W        W 7090   5.817   3.891  12.420 -0.1357 -0.1630  0.0867
 3040W        W 7091   0.082   8.057  13.109  0.0017 -0.2561 -0.0168
 3041W        W 7092   4.982   4.682   9.981 -0.1604  0.2500  0.1533
 3042W        W 7093   3.077   0.326   5.328 -0.0034 -0.0478 -0.1648
 3043W        W 7094   8.029   5.565   1.010 -0.0618  0.0427 -0.2594
 3044W        W 7095   3.273   1.397   3.450 -0.0708 -0.0041 -0.0665
 3045W        W 7096   1.823   8.825   2.215  0.1750  0.0306  0.0607
 3046W        W 7097   0.614   4.334  11.633 -0.1363 -0.0220 -0.0230
 3047W        W 7098   0.391   6.735   0.927  0.2386  0.1477 -0.2231
 3048W        W 7099   1.247   6.949  11.110 -0.2606  0.1065  0.0116
 3049W        W 7100   8.389   9.675   1.860 -0.2291 -0.0538 -0.1621
 3050W        W 7101   5.362   1.275   1.211 -0.0770 -0.0467  0.0619
 3051W        W 7102   7.596   0.192   3.286 -0.2506  0.2792  0.1968
 3052W        W 7103   4.598   6.310  11.752  0.1392 -0.0646  0.0662
 3053W        W 7104   6.827   7.116   4.657 -0.0707 -0.2111  0.0825
 3054W        W 7105   5.830   0.946   2.672  0.0893 -0.2670 -0.0910
 3055W        W 7106   9.615   0.585   0.283  0.0934 -0.2385  0.2556
 3056W        W 7107   3.339   0.432  12.912  0.1055 -0.1698  0.4100
 3057W        W 7108   4.648   8.811   2.451 -0.1423  0.0914  0.2301
 3058W        W 7109   9.106   4.346  11.360 -0.0103  0.1130  0.1832
 3059W        W 7110   0.809   4.367  11.142 -0.1439  0.1811 -0.0001
 3060W        W 7111   3.903   9.225   5.433  0.0797  0.2112 -0.3086
 3061W        W 7112   5.919   5.007   8.646  0.0165 -0.0441  0.1181
 3062W        W 7113   3.958   2.494  12.700 -0.0439  0.1555 -0.1000
 3063W        W 7114   0.343   0.604  10.055  0.1546 -0.0038  0.1230
 3064W        W 7115   7.315   3.195  13.757  0.2018  0.3382  0.0153
 3065W        W 7116   0.147   9.643  13.614  0.0010 -0.1250  0.0100
 3066W        W 7117   9.438  10.091   1.219 -0.1106 -0.1858 -0.3554
 3067W        W 7118   9.315   2.467   2.302  0.1743  0.1099 -0.6098
 3068W        W 7119   0.737   6.576   1.245 -0.1845  0.0745  0.0168
 3069W        W 7120   2.912   7.709  11.402  0.0690 -0.0526 -0.0084
 3070W        W 7121   3.095   8.300   8.767  0.2007  0.0235  0.0443
 3071W        W 7122   9.652   9.331   2.547 -0.3033  0.0927 -0.3563
 3072W        W 7123   5.270   7.763  12.152  0.1977 -0.1034  0.0114
 3073W        W 7124   0.675   4.286  13.553  0.0418 -0.3812 -0.1517
 3074W        W 7125   7.886   8.534   1.906  0.0494 -0.0966 -0.0580
 3075W        W 7126   6.632   9.847  10.865  0.0955 -0.1841 -0.2174
 3076W        W 7127   5.986   6.518  10.179 -0.0246 -0.0762  0.0090
 3077W        W 7128   5.867   1.930   2.776 -0.0011  0.2140 -0.1654
 3078W        W 7129   7.373   2.615   2.103  0.0546 -0.1159 -0.0311
 3079W        W 7130   1.012   2.019  11.706 -0.0999  0.1921  0.4984
 3080W        W 7131   0.255   0.376   3.657  0.2569 -0.2210  0.2953
 3081W        W 7132   8.224   4.060   1.846  0.0225 -0.1153  0.1238
 3082W        W 7133   3.057  10.027  10.649  0.0598 -0.2597  0.0566
 3083W        W 7134   4.323   2.528  13.135 -0.2765 -0.0901  0.1024
 3084W        W 7135  10.041   3.408  11.099  0.2288  0.0847  0.4251
 3085W        W 7136   4.875   6.914   4.562  0.0685 -0.4341 -0.2656
 3086W        W 7137   1.808   1.155  12.967  0.3027 -0.1237  0.2049
 3087W        W 7138   9.002   1.781   4.450  0.0738 -0.1256 -0.2923
 3088W        W 7139   1.779   2.383  13.443  0.0293  0.0340  0.1316
 3089W        W 7140   2.042   7.087   1.401 -0.1413  0.2034  0.0957
 3090W        W 7141   5.117   1.504  10.372 -0.1473 -0.2845  0.2553
 3091W        W 7142   8.041   8.323   4.886 -0.0545  0.0061  0.0404
 3092W        W 7143   9.721   5.406  12.719 -0.0377  0.1560  0.1016
 3093W        W 7144   8.138   8.169  10.524  0.1476  0.0212  0.0748
 3094W        W 7145   4.707   8.685   1.484 -0.0665 -0.0381  0.1738
 3095W        W 7146   0.854   0.098   1.258 -0.2817 -0.2260 -0.4410
 3096W        W 7147   5.659   4.374  12.160  0.0018  0.4541  0.0176
 3097W        W 7148   8.901   3.402  13.070  0.1413 -0.0035  0.1003
 3098W        W 7149   3.602   6.148  12.567  0.0777 -0.2188  0.3911
 3099W        W 7150   2.687   2.693  10.995  0.2117  0.1231  0.1678
 3100W        W 7151   9.228   4.446   2.563 -0.0536 -0.1633  0.0563
 3101W        W 7152   5.369   1.804   2.523  0.2258  0.1072  0.0624
 3102W        W 7153   4.665   9.670  13.603 -0.0892  0.1859 -0.0689
 3103W        W 7154   1.503   1.645  11.737  0.0265  0.1902  0.0257
 3104W        W 7155   4.013   2.146  10.237  0.1432 -0.1035 -0.3154
 3105W        W 7156   0.813   5.671  10.116  0.3112 -0.1824  0.0461
 3106W        W 7157   4.437   2.308   4.161  0.0789 -0.1349 -0.1383
 3107W        W 7158   4.708   0.699  10.743 -0.0467  0.1590  0.1225
 3108W        W 7159   2.795   0.934   2.964  0.6183  0.2897  0.2094
 3109W        W 7160   9.917   5.796  10.850  0.0435 -0.0855 -0.0248
 3110W        W 7161   1.350   8.538  10.685  0.1983  0.2326 -0.1368
 3111W        W 7162   0.467   9.824  10.838  0.1855  0.0205  0.0940
 3112W        W 7163   5.666   8.593   5.171 -0.1120 -0.0721  0.2090
 3113W        W 7164   9.264   0.014  12.721 -0.1276 -0.0852  0.0368
 3114W        W 7165   7.585   1.968  11.023  0.1336 -0.1684 -0.1232
 3115W        W 7166   7.058   5.829  11.894 -0.0835  0.1685  0.2182
 3116W        W 7167   1.403   9.569  11.652  0.0960  0.0747 -0.0957
 3117W        W 7168   7.854   7.716   0.012  0.0927 -0.0323  0.0238
 3118W        W 7169   3.963   6.611   2.557  0.0786  0.5017 -0.0651
 3119W        W 7170   4.054   6.551   0.583  0.1035 -0.1110  0.0028
 3120W        W 7171   3.003   1.074   1.068 -0.2690  0.2479  0.1858
 3121W        W 7172   8.839   3.438  11.168  0.0459  0.0529  0.0833
 3122W        W 7173   6.383   3.483   4.500  0.2850  0.0241  0.0448
 3123W        W 7174   0.000   7.264  10.000  0.0720  0.0292 -0.2071
 3124W        W 7175   8.639   8.611   1.803 -0.0355 -0.1355  0.1159
 3125W        W 7176   2.976   2.562   2.802  0.3542  0.4139 -0.3330
 3126W        W 7177   4.759  10.034   8.989 -0.0222  0.1814  0.0205
 3127W        W 7178   5.943   9.055   9.892 -0.3112 -0.3179 -0.1988
 3128W        W 7179   0.006   6.905  10.341  0.1899 -0.0974  0.2700
 3129W        W 7180   6.354   1.753  13.004 -0.2182  0.1567  0.2794
 3130W        W 7181   6.649   5.141  12.543 -0.1577  0.0025 -0.1152
 3131W        W 7182   5.250   7.116   0.025 -0.0209  0.0745  0.2066
 3132W        W 7183   4.504   4.934   0.999  0.4052  0.0742 -0.0672
 3133W        W 7184   7.117   6.601   1.838  0.1549  0.1660  0.0280
 3134W        W 7185   7.957   7.331   0.971 -0.2792  0.0332 -0.0626
 3135W        W 7186   8.413   5.033  12.778  0.2127 -0.1899  0.0435
 3136W        W 7187   2.529   7.997   2.747  0.1242  0.2296 -0.0634
 3137W        W 7188   4.611   8.091  11.983  0.0487  0.1604 -0.0697
 3138W        W 7189   9.272   7.584  10.832 -0.0248 -0.2750  0.3617
 3139W        W 7190   8.020   6.132  11.236 -0.0650  0.3531  0.4773
 3140W        W 7191   0.897   6.920  13.879 -0.0721 -0.4257  0.0682
 3141W        W 7192   5.088   3.021   2.665 -0.2457 -0.0493  0.0191
 3142W        W 7193   7.680   0.897  11.888 -0.1137 -0.1045 -0.0692
 3143W        W 7194   1.126   1.569  10.225  0.1275  0.0991 -0.0318
 3144W        W 7195   2.412   2.588  13.212  0.5474  0.1730 -0.0443
 3145W        W 7196   4.245   5.361  11.465  0.1058  0.3009  0.1189
 3146W        W 7197   0.243   8.467   9.599  0.2563  0.1050 -0.1731
 3147W        W 7198   6.993   9.991  12.331  0.1893 -0.0114 -0.2384
 3148W        W 7199   5.048   6.084   4.644 -0.2338  0.1584 -0.2064
 3149W        W 7200   2.147   0.976   0.986  0.0035  0.3866 -0.0877
 3150W        W 7201   6.075   2.378   1.247  0.1454  0.0862  0.2157
 3151W        W 7202   3.790  10.064   3.353  0.0318  0.2602  0.0040
 3152W        W 7203   7.159   6.107   9.404  0.0927  0.0344 -0.4125
 3153W        W 7204   5.930   1.636  12.667  0.1035 -0.0014  0.1053
 3154W        W 7205   7.848   5.962  12.171  0.1269 -0.1288 -0.2828
 3155W        W 7206   5.272   2.831   2.136  0.0889 -0.1997  0.0605
 3156W        W 7207   2.574   0.543  12.297  0.1056 -0.1588 -0.0456
 3157W        W 7208   9.458   8.388  12.335 -0.0088  0.0653 -0.1736
 3158W        W 7209   8.088   5.442  11.079 -0.0983 -0.0412 -0.1320
 3159W        W 7210   9.088   4.253   3.604 -0.1174 -0.2982 -0.0341
 3160W        W 7211   6.607   0.538   2.420 -0.0649  0.5883  0.0835
 3161W        W 7212   3.809   5.743   9.751  0.0321 -0.1090 -0.0879
 3162W        W 7213   6.333   0.594   1.017  0.0820 -0.2652 -0.2558
 3163W        W 7214   5.564   8.499   2.722  0.1063  0.0403  0.0632
 3164W        W 7215   1.743   0.156  10.376  0.0641 -0.0846  0.2696
 3165W        W 7216   4.980   2.880   3.126 -0.1341 -0.1267  0.1696
 3166W        W 7217   4.377   7.227  12.521  0.1965  0.1462  0.1379
 3167W        W 7218   4.557   8.766  11.629 -0.3304  0.0702  0.0681
 3168W        W 7219   9.679   0.787   3.376 -0.1519  0.2022  0.1081
 3169W        W 7220   9.604   8.394   0.476  0.2162 -0.2390 -0.1548
 3170W        W 7221   8.401   7.727  10.384 -0.0424 -0.0835 -0.2353
 3171W        W 7222   6.219   9.527   4.467  0.1662  0.0025 -0.0201
 3172W        W 7223   5.633   9.668   9.379  0.0078  0.1347  0.1549
 3173W        W 7224   3.267   1.327   9.122 -0.2495  0.3268 -0.0869
 3174W        W 7225   7.766   8.072  10.817  0.0231  0.0222  0.1619
 3175W        W 7226   3.286   3.309   9.036 -0.0445 -0.1221  0.0111
 3176W        W 7227   9.006   2.124  11.503  0.1267  0.0588  0.2164
 3177W        W 7228   0.792   3.362  10.773  0.1057  0.0574  0.2995
 3178W        W 7229   7.236   6.422   4.091  0.1324 -0.0365  0.1977
 3179W        W 7230   4.437   1.070   3.469 -0.3843  0.1741  0.2554
 3180W        W 7231   3.688   5.251   1.893 -0.1258  0.0748  0.0568
 3181W        W 7232   8.164   6.932   1.097  0.1245  0.0690  0.0348
 3182W        W 7233   3.959   6.179   3.796 -0.0649 -0.2571  0.2321
 3183W        W 7234   7.213   1.309   1.070  0.0951 -0.3152 -0.3028
 3184W        W 7235   6.410   4.522   4.336 -0.2089  0.1724  0.0980
 3185W        W 7236   7.637   3.361   9.993  0.0281  0.1316 -0.2205
 3186W        W 7237   3.534   0.459  10.529  0.3106 -0.4611  0.0814
 3187W        W 7238   3.942   1.506   4.225  0.0436 -0.0357  0.3269
 3188W        W 7239   6.552   9.034  13.354 -0.2117 -0.0202 -0.1178
 3189W        W 7240   2.773   1.398   3.284 -0.6262  0.1139 -0.1481
 3190W        W 7241   0.555   9.491   0.702  0.0001  0.1390  0.2254
 3191W        W 7242   8.182   1.988   3.422 -0.0666  0.1357 -0.1564
 3192W        W 7243   5.284   3.206  11.981 -0.0040  0.2223  0.0299
 3193W        W 7244   1.539   9.938  10.175  0.2313  0.2144 -0.1590
 3194W        W 7245   6.082   3.087   0.147 -0.0094  0.0637  0.2653
 3195W        W 7246   8.686   0.152  11.613 -0.1557  0.2973 -0.0933
 3196W        W 7247   3.437   9.306   9.456 -0.0471  0.3392 -0.0493
 3197W        W 7248   0.613   3.417  12.581 -0.1744  0.2251 -0.2504
 3198W        W 7249   1.287   6.693   1.145 -0.2323 -0.0280 -0.2056
 3199W        W 7250   3.930   0.403   5.155 -0.1836  0.0149 -0.0252
 3200W        W 7251   6.872   6.141  11.026  0.1603 -0.2526 -0.3198
 3201W        W 7252   6.311   2.129   3.641 -0.2380 -0.0215 -0.0009
 3202W        W 7253   4.240   2.091  12.867  0.1678  0.1782  0.0428
 3203W        W 7254   0.137   2.042   0.203 -0.0232 -0.2024  0.1067
 3204W        W 7255   8.690   4.574  13.451  0.0425  0.1258 -0.0916
 3205W        W 7256   7.076   5.524   2.497  0.0617 -0.1943 -0.4561
 3206W        W 7257   4.434   3.546   3.632 -0.1018  0.2888 -0.0834
 3207W        W 7258   7.022   9.869  10.269  0.2556 -0.2285 -0.2081
 3208W        W 7259   3.911   6.888   9.584  0.0618 -0.0552 -0.0334
 3209W        W 7260   6.063   8.318   4.062  0.3790 -0.2722 -0.2770
 3210W        W 7261   6.577   6.635   3.268  0.2194  0.0787 -0.3247
 3211W        W 7262   4.324   4.708   9.694 -0.2363 -0.2587 -0.0084
 3212W        W 7263   4.587   3.036  13.897 -0.1463  0.1004  0.0232
 3213W        W 7264   3.710   8.192   9.409 -0.2640 -0.3791 -0.2854
 3214W        W 7265   5.015   8.921   1.966 -0.0544 -0.2606  0.1875
 3215W        W 7266   6.429   4.759  12.058  0.3174  0.1651 -0.1212
 3216W        W 7267   0.317   4.481   1.488  0.3440  0.0633 -0.3533
 3217W        W 7268   9.528   4.516  11.187 -0.0762 -0.0311 -0.2946
 3218W        W 7269   8.870   2.456   9.503 -0.0321 -0.0235  0.0519
 3219W        W 7270   8.756   0.984  13.560  0.2979  0.1640  0.0961
 3220W        W 7271   4.440   0.840   0.485 -0.3632 -0.2285  0.1061
 3221W        W 7272   7.555   1.214  11.028 -0.1083 -0.0986 -0.0839
 3222W        W 7273  10.134   0.903   4.639 -0.1135 -0.1302  0.1627
 3223W        W 7274   7.391   6.800   3.761 -0.3068 -0.0745  0.0347
 3224W        W 7275   7.327   2.480  12.958 -0.0593 -0.0151  0.1345
 3225W        W 7276   6.744   2.716   0.390  0.1629  0.1366 -0.2351
 3226W        W 7277   7.519   8.410   1.330  0.0210  0.1436  0.2662
 3227W        W 7278   8.892   6.750  11.883 -0.2296 -0.1006 -0.1446
 3228W        W 7279   3.240   2.872  12.289  0.2631  0.2009  0.1399
 3229W        W 7280   2.518   9.351   1.589  0.0678  0.2928  0.1019
 3230W        W 7281   5.281   0.091  12.585 -0.1816  0.3650  0.0296
 3231W        W 7282   9.140   4.687   0.950  0.0298 -0.1781  0.0308
 3232W        W 7283   1.377   8.632  10.126  0.2957  0.0608  0.2614
 3233W        W 7284   5.361   8.158   1.027  0.1486  0.2057  0.0441
 3234W        W 7285   6.415   9.862   1.202  0.2977 -0.0381 -0.1831
 3235W        W 7286   4.841   0.499   9.159  0.1523 -0.0352  0.2116
 3236W        W 7287   5.499   0.230  13.334 -0.0535 -0.1270  0.0171
 3237W        W 7288   8.568   7.579   3.230  0.0709 -0.0978  0.0159
 3238W        W 7289   7.317   7.970  12.806  0.1390 -0.0755 -0.3667
 3239W        W 7290   6.314   4.264   0.971 -0.0300  0.0537 -0.0418
 3240W        W 7291   7.172   3.113   3.418 -0.2340 -0.2543 -0.0990
 3241W        W 7292   8.676   9.017  11.457 -0.1278 -0.1927 -0.1282
 3242W        W 7293   5.191   4.636   4.851  0.0981  0.0129  0.0500
 3243W        W 7294   6.590   1.727   4.528 -0.1619 -0.1163  0.1050
 3244W        W 7295   0.949   1.632   2.471  0.0763  0.0916 -0.2644
 3245W        W 7296   8.782   4.512  10.635 -0.1713  0.0391 -0.0589
 3246W        W 7297   0.439   7.913  13.463  0.1927 -0.0777  0.1185
 3247W        W 7298   4.431   7.528  10.710 -0.2943 -0.1783 -0.0214
 3248W        W 7299   7.811   2.493  12.625 -0.1665 -0.0444 -0.3440
 3249W        W 7300   5.297   7.335  10.281 -0.0214  0.2556 -0.1294
 3250W        W 7301   3.530   1.772   4.410  0.2150 -0.1417  0.1712
 3251W        W 7302   3.119   1.729  13.481  0.0291 -0.2419  0.1341
 3252W        W 7303   0.949   2.750   3.306 -0.0373 -0.0949  0.0865
 3253W        W 7304   8.863   2.839   3.348 -0.0494 -0.1639  0.0614
 3254W        W 7305   1.009   8.188   4.391 -0.1120 -0.0954 -0.0630
 3255W        W 7306   9.778   4.591   2.472 -0.1626 -0.0274 -0.0021
 3256W        W 7307   0.611   0.291   9.758  0.1380 -0.2495 -0.3496
 3257W        W 7308   2.580   3.602   3.594  0.1846 -0.1203  0.2101
 3258W        W 7309   0.431   0.036   4.422 -0.0988  0.1614  0.0958
 3259W        W 7310   8.772   9.582  11.803  0.0086 -0.2002 -0.2052
 3260W        W 7311   6.094   9.631  12.792  0.1066  0.0987  0.1862
 3261W        W 7312   5.188   8.186  13.714  0.0935 -0.4374  0.3363
 3262W        W 7313   7.900   1.238  10.619  0.1453 -0.2681  0.3184
 3263W        W 7314   9.574   8.456   2.190  0.0965  0.0574 -0.0367
 3264W        W 7315   6.500   4.988  13.165 -0.0534  0.1059 -0.1984
 3265W        W 7316   2.950   8.346   1.613 -0.2878  0.1034 -0.2485
 3266W        W 7317   5.046   4.901   4.234 -0.2386  0.0491 -0.4547
 3267W        W 7318   7.794   5.053  10.785 -0.2256 -0.1400  0.2980
 3268W        W 7319   4.876   8.326   1.948  0.2887 -0.1275 -0.0977
 3269W        W 7320   3.119   8.188  10.531 -0.2704 -0.1146 -0.1799
 3270W        W 7321   3.513   0.196   4.904 -0.3016 -0.0523  0.4926
 3271W        W 7322  10.076   6.615   0.540 -0.1035  0.0874  0.3188
 3272W        W 7323   1.523   8.271  13.037 -0.2044 -0.3767  0.3371
 3273W        W 7324   0.743   0.403  10.926  0.0787  0.0088  0.1415
 3274W        W 7325   6.301   5.564  12.497  0.0004  0.2447 -0.3240
 3275W        W 7326   5.249   8.069  13.154 -0.0983 -0.0352 -0.0159
 3276W        W 7327   7.096   6.278  11.634  0.0308 -0.1112 -0.0263
 3277W        W 7328   5.273   5.633  11.324  0.1270 -0.2977 -0.0549
 3278W        W 7329   3.783   3.470  11.015 -0.1617  0.0186  0.0065
 3279W        W 7330   6.742   6.809   1.479 -0.0237  0.0672 -0.2476
 3280W        W 7331   5.255   8.479   0.566 -0.0684 -0.1827  0.1652
 3281W        W 7332   5.359   5.194  13.771 -0.0311  0.1551  0.1913
 3282W        W 7333   4.113   7.887   9.456  0.2420 -0.0376  0.4565
 3283W        W 7334   8.975   4.136   1.242  0.1033 -0.0847  0.1603
 3284W        W 7335   8.123   8.285  11.114  0.1645 -0.2351  0.3429
 3285W        W 7336   4.013   3.976  10.814 -0.0230 -0.1445  0.0930
 3286W        W 7337   1.843   8.228  10.916 -0.1566  0.3179 -0.1250
 3287W        W 7338   9.783   3.749  12.366  0.4176 -0.0263 -0.0332
 3288W        W 7339   4.532   2.870   8.192  0.1698  0.1239 -0.2027
 3289W        W 7340   2.955   6.676   2.250 -0.0379 -0.0791 -0.4059
 3290W        W 7341  10.134   6.787   4.271  0.2800  0.0904 -0.3459
 3291W        W 7342   1.165  10.134   3.614  0.1368  0.0186  0.1690
 3292W        W 7343   4.932   0.154   1.761 -0.1707  0.2438 -0.1508
 3293W        W 7344   9.137   7.098   4.114 -0.0208  0.0570  0.1039
 3294W        W 7345   3.331   4.897   1.378  0.2211  0.1005  0.2185
 3295W        W 7346   1.210   6.832  12.202 -0.2072 -0.1197  0.0968
 3296W        W 7347   6.523   8.341   0.209 -0.2975  0.2356  0.1794
 3297W        W 7348   3.746   3.814   8.948 -0.2381 -0.1013 -0.2193
 3298W        W 7349   0.179   9.423   0.156  0.0441  0.3268  0.1909
 3299W        W 7350   4.436   2.987   3.903  0.1672  0.0455 -0.0826
 3300W        W 7351   9.102   8.887   1.725 -0.0588  0.0209  0.0582
 3301W        W 7352   3.481   0.752   2.201  0.0845 -0.1882 -0.0702
 3302W        W 7353   4.078   5.815  11.782  0.0671 -0.0716 -0.2757
 3303W        W 7354   1.052   1.040  11.851 -0.1977  0.0911 -0.2630
 3304W        W 7355   4.289   9.940   3.761  0.0301  0.0726 -0.0780
 3305W        W 7356   7.015   1.995   3.307  0.0226 -0.4264 -0.2723
 3306W        W 7357   1.707   0.459  13.241 -0.1518  0.0187 -0.2262
 3307W        W 7358   6.177   5.098  11.732 -0.0354 -0.2683  0.2053
 3308W        W 7359   2.806   7.176   1.008  0.1068 -0.0328  0.0665
 3309W        W 7360   9.583   8.657   9.233 -0.2200 -0.3458  0.0891
 3310W        W 7361   2.260   0.808  10.045  0.3001  0.1558  0.2458
 3311W        W 7362   2.553   0.451  11.786 -0.0281  0.0677 -0.0279
 3312W        W 7363   8.069   8.886   6.086 -0.1688  0.0761 -0.1283
 3313W        W 7364   7.112   4.036  11.462  0.1769 -0.3106 -0.1228
 3314W        W 7365   2.549   4.366   4.298 -0.0122 -0.4747 -0.3056
 3315W        W 7366   1.148   0.093  12.833  0.1729 -0.0538 -0.2338
 3316W        W 7367   6.615   2.788  10.917  0.0134 -0.0340  0.0249
 3317W        W 7368   8.881   7.876   3.505  0.0573  0.1616 -0.2388
 3318W        W 7369   3.233   3.716   4.722 -0.1714  0.1792  0.1727
 3319W        W 7370   1.363   1.413   3.761 -0.3244 -0.3946  0.0372
 3320W        W 7371   4.175   1.004   3.873  0.1051 -0.0815 -0.4903
 3321W        W 7372   3.990   6.820  11.425  0.2427  0.2122 -0.0455
 3322W        W 7373   6.703   1.163   5.286  0.2302  0.1145 -0.1290
 3323W        W 7374   2.876   3.281   0.370 -0.1793  0.0887 -0.3852
 3324W        W 7375   2.445   2.202   2.278  0.3357 -0.2069 -0.1126
 3325W        W 7376   6.975   2.827   3.773 -0.1194  0.1297 -0.0002
 3326W        W 7377   2.537   6.374  11.325  0.3916  0.2804 -0.4750
 3327W        W 7378   1.360   5.623  10.949  0.0922 -0.2063 -0.0478
 3328W        W 7379   5.754   2.866   0.442 -0.4174 -0.0348 -0.2986
 3329W        W 7380   9.682   8.700   0.105  0.3030 -0.0708  0.1777
 3330W        W 7381   7.954   7.137  12.748  0.3403 -0.3309 -0.2058
 3331W        W 7382   2.613   7.015  10.197  0.0009 -0.0712  0.5608
 3332W        W 7383   0.467   5.350   2.589  0.0123  0.0201  0.0068
 3333W        W 7384   8.333   4.923   2.552  0.1204 -0.1489  0.2379
 3334W        W 7385   2.594   6.720  12.904  0.3299  0.1431  0.2529
 3335W        W 7386   9.298   3.333   1.590 -0.3580 -0.2231 -0.3365
 3336W        W 7387   1.545   3.380  10.163  0.1619  0.0633 -0.0626
 3337W        W 7388   4.890   7.201  11.527 -0.0232 -0.2203 -0.0486
 3338W        W 7389   6.740   5.155   2.196 -0.1376  0.0118  0.0550
 3339W        W 7390   5.798   8.358   0.879  0.1484  0.2217  0.2090
 3340W        W 7391   3.470   2.242   3.325 -0.2240 -0.0945  0.0908
 3341W        W 7392   1.479   8.973  10.457  0.1212  0.2104 -0.1720
 3342W        W 7393   4.934   1.717   2.777 -0.4096  0.1926  0.1067
 3343W        W 7394   7.912   6.014   3.374 -0.0798  0.0065 -0.2365
 3344W        W 7395   6.715   7.801  10.046 -0.1500  0.2755  0.2263
 3345W        W 7396   4.235   1.971   1.282 -0.2599 -0.2359 -0.2581
 3346W        W 7397   7.502   0.900  10.004 -0.0855  0.1681 -0.1439
 3347W        W 7398   1.430   3.600   1.078  0.0284  0.1741  0.0146
 3348W        W 7399  10.120   1.513   9.879  0.0337  0.1673 -0.1065
 3349W        W 7400   1.710   6.625  11.960 -0.0189 -0.1705  0.0793
 3350W        W 7401   1.673   1.434   9.973  0.0278 -0.0529  0.3581
 3351W        W 7402   2.173   2.755   3.623 -0.1046  0.2470  0.1110
 3352W        W 7403   6.841   5.273  10.119 -0.1331  0.1509  0.0116
 3353W        W 7404   2.567   3.902   2.383  0.2078  0.1405  0.1692
 3354W        W 7405   6.878   0.951   4.015 -0.1412  0.0578 -0.5035
 3355W        W 7406   4.916   5.467  12.248  0.0074 -0.0577  0.0136
 3356W        W 7407   6.578   3.558  13.083 -0.1599 -0.1552  0.5357
 3357W        W 7408   2.917   6.891   0.455  0.0448  0.0983 -0.1780
 3358W        W 7409   5.305   2.372   2.365 -0.0179 -0.1035  0.2273
 3359W        W 7410   5.193   9.832   9.288 -0.3282  0.2372 -0.1451
 3360W        W 7411   7.889   4.855   0.637 -0.0663  0.1085 -0.0035
 3361W        W 7412   5.704   7.752  12.428  0.1498  0.0567  0.1029
 3362W        W 7413   6.005   0.996   1.574 -0.0592  0.1216 -0.1904
 3363W        W 7414   7.179   4.568   0.311  0.0506  0.0671  0.0523
 3364W        W 7415   7.835   9.520  11.090  0.0752  0.4481  0.3772
 3365W        W 7416   3.953   7.064   4.710 -0.1578  0.2255  0.2230
 3366W        W 7417   6.156   6.001   0.230 -0.1315  0.0411 -0.2293
 3367W        W 7418   5.550   3.332   0.266  0.0439 -0.0593  0.0642
 3368W        W 7419   1.566   4.786  12.701 -0.0148 -0.3449 -0.1450
 3369W        W 7420   8.167   1.130   5.406 -0.2595 -0.3279 -0.1598
 3370W        W 7421   1.993   5.481  13.177 -0.0301  0.0562 -0.1514
 3371W        W 7422   7.751   7.173   0.120  0.1836 -0.2958  0.1651
 3372W        W 7423   2.961   1.082  11.587  0.1011  0.0528 -0.2030
 3373W        W 7424   5.621   1.646   9.359 -0.1256 -0.2416  0.0513
 3374W        W 7425   5.264   1.727   9.764 -0.2637 -0.0377  0.1918
 3375W        W 7426   0.566   3.251   1.617  0.1868  0.1415  0.0640
 3376W        W 7427   5.165   8.832   4.045 -0.4520  0.2762 -0.0859
 3377W        W 7428   4.147   9.804   4.269 -0.1616 -0.3174  0.0871
 3378W        W 7429   1.607   4.838   0.407  0.1524  0.2953  0.0277
 3379W        W 7430   2.414   5.234  13.112  0.2975  0.1353 -0.0001
 3380W        W 7431   2.329   3.860  12.226  0.0809  0.2009 -0.0908
 3381W        W 7432   5.611  10.085  11.275 -0.0230 -0.2206 -0.1220
 3382W        W 7433   1.943   0.570   2.564 -0.4848 -0.1776 -0.0766
 3383W        W 7434   9.436   6.369  13.138  0.2176 -0.0319 -0.2354
 3384W        W 7435   5.701   6.978  12.556  0.0512  0.0188  0.1120
 3385W        W 7436   3.437   2.847   1.612 -0.1581  0.1173 -0.1287
 3386W        W 7437   2.604   0.942  11.930  0.2189 -0.0295  0.0098
 3387W        W 7438   8.004   4.655   0.072 -0.0210  0.1451  0.2702
 3388W        W 7439   3.987   4.902  10.184 -0.1925 -0.0041 -0.0507
 3389W        W 7440   0.310   6.372  10.632  0.2423 -0.2666  0.1749
 3390W        W 7441   1.050   3.082  13.947  0.4472  0.2038  0.1506
 3391W        W 7442   9.315   3.983   2.747 -0.1790 -0.0244  0.1827
 3392W        W 7443   6.509   6.055  12.583  0.0418  0.2704 -0.0988
 3393W        W 7444   5.053   4.114  10.633  0.2173 -0.0863 -0.1714
 3394W        W 7445   0.028   0.422   1.470  0.0371  0.0307  0.2324
 3395W        W 7446   9.451   8.912   2.855  0.0936 -0.1873  0.0765
 3396W        W 7447   6.813   7.936  10.497  0.0184  0.3726  0.0696
 3397W        W 7448   2.471   8.088   0.072  0.2973  0.1107  0.0376
 3398W        W 7449   4.415   1.500   4.688 -0.2407 -0.0041  0.2300
 3399W        W 7450   8.804   3.656  13.767  0.1998  0.0098  0.1359
 3400W        W 7451   1.608   1.969  10.044 -0.0704  0.1763 -0.0027
 3401W        W 7452   6.649   0.925  10.727  0.0180 -0.0497  0.0263
 3402W        W 7453   3.013   1.339  13.779  0.0815  0.0891 -0.2544
 3403W        W 7454   4.375   7.027   9.732  0.1266  0.2040 -0.4579
 3404W        W 7455   4.024   8.633  13.445  0.0069 -0.0512  0.2433
 3405W        W 7456   9.038   0.043   2.081 -0.0079 -0.0844 -0.1107
 3406W        W 7457   4.563   1.403  12.475  0.0987  0.1015  0.1138
 3407W        W 7458   5.860   1.447   1.191 -0.2460 -0.2166  0.0734
 3408W        W 7459   9.686   3.655   0.808  0.1214  0.2214 -0.0088
 3409W        W 7460   7.777   8.394   4.454 -0.1027  0.0482 -0.1752
 3410W        W 7461   1.771   6.808  11.052 -0.0054 -0.1132 -0.2344
 3411W        W 7462   2.473   7.202  10.755  0.0693 -0.0447 -0.4492
 3412W        W 7463   8.430   2.635   3.832 -0.2175 -0.0305 -0.0330
 3413W        W 7464   3.979   3.538  13.462  0.0430 -0.1530  0.0209
 3414W        W 7465   6.544   5.795   2.482 -0.1630 -0.1279 -0.0058
 3415W        W 7466   8.397   3.372  13.952 -0.0830  0.2677 -0.0523
 3416W        W 7467   9.833   7.246   2.406  0.0664 -0.0657 -0.3427
 3417W        W 7468   9.880   7.333   3.690 -0.0835 -0.0364 -0.3221
 3418W        W 7469   8.266   8.568   0.351 -0.0755 -0.3823 -0.2843
 3419W        W 7470   1.758   2.246  11.771 -0.2312  0.3508  0.1592
 3420W        W 7471   5.024   8.412  10.985 -0.0858 -0.0348 -0.2569
 3421W        W 7472  10.011   3.501   3.624 -0.1862  0.0164 -0.0766
 3422W        W 7473   1.041   5.006   3.334 -0.2829 -0.1911 -0.1108
 3423W        W 7474   5.367   2.107  13.958  0.0097  0.1036 -0.1968
 3424W        W 7475   5.120   3.015  11.073  0.0529 -0.0638  0.0774
 3425W        W 7476   4.209   2.965   8.728 -0.0552  0.1662 -0.0594
 3426W        W 7477   4.556   4.285  12.920 -0.0079 -0.1874  0.2783
 3427W        W 7478   9.995   5.829  13.821 -0.4175 -0.0828 -0.0266
 3428W        W 7479   9.079   8.721  12.226  0.0563  0.0578 -0.1008
 3429W        W 7480   0.171   1.233   9.165  0.5400 -0.0077 -0.3428
 3430W        W 7481   7.587   6.663   0.176  0.1135  0.1001 -0.3702
 3431W        W 7482   3.150   8.259   1.013  0.0598 -0.0424  0.0977
 3432W        W 7483   9.503   9.898  11.784  0.1114 -0.0786  0.1946
 3433W        W 7484   8.852   5.169  12.516  0.3021  0.0798  0.1510
 3434W        W 7485   7.755   0.356  11.026  0.1547  0.3004  0.2110
 3435W        W 7486   4.314   9.955  10.908 -0.2384 -0.0418  0.4714
 3436W        W 7487   4.179   6.618   3.510  0.0429  0.1940 -0.0307
 3437W        W 7488   7.242   7.525   1.861 -0.0203 -0.0504  0.1289
 3438W        W 7489   9.020   9.194   4.922  0.1550  0.0446 -0.1185
 3439W        W 7490   5.973   5.730  13.536  0.1603  0.0052  0.1130
 3440W        W 7491   2.413   6.325   2.950  0.1058  0.1083  0.0271
 3441W        W 7492   2.452   4.773  12.538 -0.2858 -0.1824  0.0969
 3442W        W 7493   2.106   6.371   5.068 -0.0298 -0.0383  0.1599
 3443W        W 7494   7.112   1.516  13.296 -0.0900  0.2371  0.0344
 3444W        W 7495   7.832   9.277  10.454 -0.3619 -0.1197 -0.3813
 3445W        W 7496   3.604   6.830   9.961  0.1594 -0.1512  0.0734
 3446W        W 7497   2.028   4.444  13.278 -0.1908 -0.2833 -0.0603
 3447W        W 7498   5.170   7.719  11.454  0.0388  0.2818  0.2672
 3448W        W 7499   2.839   1.832  10.958 -0.1705 -0.1941  0.2914
 3449W        W 7500   6.963   0.455  10.932 -0.1123 -0.0056  0.0299
 3450W        W 7501   9.151   6.945  12.377 -0.3448  0.3253  0.2782
 3451W        W 7502  10.060   1.239   4.233  0.0060  0.1136  0.0592
 3452W        W 7503   7.962   9.276   1.358  0.1523 -0.0522  0.0354
 3453W        W 7504   1.179   1.778  11.240 -0.1419  0.0717  0.3626
 3454W        W 7505   7.663   7.124   4.078 -0.1239 -0.1382  0.0825
 3455W        W 7506   2.324   0.850   4.503 -0.1955  0.2478 -0.2664
 3456W        W 7507   6.346   1.251   0.267  0.2035  0.0333 -0.1302
 3457W        W 7508   6.995   6.954   3.365  0.0209  0.1719 -0.1300
 3458W        W 7509   2.023   7.337   3.087 -0.1020 -0.0173 -0.0899
 3459W        W 7510   3.302   6.814   3.382  0.2610 -0.2358 -0.1712
 3460W        W 7511   3.913   4.596   0.148  0.2067  0.0127 -0.1964
 3461W        W 7512   4.703   8.204   3.714 -0.1517 -0.0806  0.3394
 3462W        W 7513   2.881   2.197   4.390 -0.0790 -0.2827  0.1115
 3463W        W 7514   1.174   9.061   4.036  0.0856 -0.1001  0.1469
 3464W        W 7515   3.571   3.570   3.083  0.2428 -0.1232  0.0604
 3465W        W 7516   2.660   2.436   9.206  0.0085 -0.1605 -0.2146
 3466W        W 7517   3.111   9.098   2.919  0.2615 -0.1386  0.4001
 3467W        W 7518   4.562   4.053   1.863 -0.2182 -0.0193  0.2721
 3468W        W 7519   1.378   3.652   3.382  0.1028  0.0609 -0.1191
 3469W        W 7520   0.260   7.909   0.009 -0.3344 -0.1924  0.4789
 3470W        W 7521   9.918   1.270  13.115 -0.1236  0.1250 -0.0081
 3471W        W 7522   4.850   0.881  13.357 -0.2167 -0.0015 -0.1386
 3472W        W 7523   5.243   1.023  12.966  0.1453 -0.1361 -0.0632
 3473W        W 7524   0.664   7.764   1.003  0.0990 -0.2130  0.0801
 3474W        W 7525   1.080   2.986  11.781 -0.1698 -0.1768  0.0505
 3475W        W 7526   1.043   2.267   2.656 -0.0094 -0.0057 -0.0933
 3476W        W 7527   3.072   0.789  12.603 -0.0255 -0.1152  0.0365
 3477W        W 7528   8.657   9.890  13.255 -0.4218  0.0265 -0.1325
 3478W        W 7529   5.142   1.268  11.170  0.0166  0.6717 -0.0451
 3479W        W 7530   7.298   2.926   1.495 -0.2366  0.3690 -0.3079
 3480W        W 7531   5.420   4.792  11.141  0.1103  0.0305 -0.0353
 3481W        W 7532   9.792   4.407   0.421  0.0570  0.0339 -0.0576
 3482W        W 7533   9.327   1.995   3.625  0.0021 -0.3526 -0.0635
 3483W        W 7534   3.036   0.092   2.768 -0.1283 -0.1616 -0.0210
 3484W        W 7535   0.202   7.465   0.329 -0.0053  0.2282 -0.2259
 3485W        W 7536   1.665   5.241  11.076  0.1239 -0.0275  0.0232
 3486W        W 7537   2.817   0.235   9.384  0.0049 -0.2688  0.1392
 3487W        W 7538   2.770   1.384   1.439  0.1192  0.2075 -0.4157
 3488W        W 7539   4.379   8.621   2.904 -0.1326 -0.1016 -0.1524
 3489W        W 7540   5.484   5.182   4.135 -0.1651 -0.0918 -0.2547
 3490W        W 7541   2.454   8.597   0.878 -0.0747  0.1657  0.0487
 3491W        W 7542   1.059   5.447   1.617 -0.0456 -0.1167  0.1479
 3492W        W 7543   9.059   2.460   3.747 -0.0016 -0.0176  0.1427
 3493W        W 7544   0.630   4.345   1.127  0.1624  0.0734 -0.0689
 3494W        W 7545   0.278   2.522   9.012  0.0201 -0.0151 -0.0112
 3495W        W 7546   9.527   1.168  12.766 -0.0406  0.1440  0.3497
 3496W        W 7547   5.866   1.924   1.212 -0.0133 -0.0217  0.1891
 3497W        W 7548   4.278   0.993   1.397 -0.1641 -0.2249  0.1226
 3498W        W 7549   7.892   6.628   9.781  0.0721  0.1619  0.3712
 3499W        W 7550   8.318   8.563   3.723  0.0207  0.3936 -0.4442
 3500W        W 7551   6.652   0.990   9.267 -0.1188 -0.3194 -0.1601
 3501W        W 7552   9.149   8.943   3.881 -0.0641  0.0490 -0.1835
 3502W        W 7553   1.248   6.198  12.086 -0.1489  0.0285  0.5580
 3503W        W 7554   8.731   1.482   4.695  0.0764  0.1135 -0.1314
 3504W        W 7555   0.886   2.217  11.267  0.0283  0.0784 -0.0591
 3505W        W 7556   7.591   5.434   4.041 -0.3434 -0.1610 -0.3406
 3506W        W 7557   3.433   0.808  11.480  0.0252 -0.0251 -0.0197
 3507W        W 7558   4.510   2.038  10.345  0.0112  0.1645 -0.4090
 3508W        W 7559   7.150   2.713  12.006  0.0803 -0.0039 -0.0580
 3509W        W 7560   8.459   5.367  13.113  0.0287 -0.0384  0.2116
 3510W        W 7561   9.149   6.607   1.110 -0.2782 -0.2745  0.2846
 3511W        W 7562   3.967   3.643   3.399 -0.0717  0.0065  0.0377
 3512W        W 7563   9.190   7.635   2.568  0.2117 -0.0690 -0.0830
 3513W        W 7564   1.567   0.583  12.121 -0.0150  0.1762 -0.1148
 3514W        W 7565   3.468   4.375   0.607 -0.0158 -0.3252  0.0025
 3515W        W 7566   5.091   0.835   2.614 -0.0838  0.0934 -0.1329
 3516W        W 7567   4.434   1.790  11.543  0.0894 -0.1941 -0.2654
 3517W        W 7568   0.668   7.725   9.484  0.2514  0.0918  0.2589
 3518W        W 7569   9.759   4.762   3.886 -0.0245  0.1093 -0.0069
 3519W        W 7570   3.014   6.787   9.500  0.2994  0.2723  0.2169
 3520W        W 7571   9.841   4.140  12.690 -0.1534 -0.0771 -0.1565
 3521W        W 7572   9.205   0.485   0.458  0.2164 -0.1716  0.1330
 3522W        W 7573   4.659   6.787   3.545  0.1341 -0.0227  0.0098
 3523W        W 7574   9.758   9.080   3.244 -0.0287  0.0753 -0.0734
 3524W        W 7575   9.383   2.724   0.413 -0.0281 -0.0744  0.3349
 3525W        W 7576   1.131   4.653  11.371 -0.3020  0.0992  0.0211
 3526W        W 7577   4.283   4.346  10.032  0.0786  0.0485  0.4254
 3527W        W 7578   8.425   1.724  11.024  0.1574 -0.2297 -0.0839
 3528W        W 7579   5.070   8.903   9.153 -0.2369  0.0569 -0.0503
 3529W        W 7580   6.048   8.199   3.580 -0.0390  0.6186  0.1050
 3530W        W 7581   1.480   0.482  13.711 -0.0393 -0.0282  0.0399
 3531W        W 7582   8.722   5.544  11.387 -0.0051 -0.1372  0.3560
 3532W        W 7583   4.051   3.152   2.434 -0.0261  0.1522  0.1274
 3533W        W 7584   6.041   6.759  11.592 -0.0849 -0.0170 -0.0611
 3534W        W 7585   7.318   1.538   0.195  0.0089 -0.3514 -0.1560
 3535W        W 7586   3.644   5.728   1.566 -0.1834 -0.0611 -0.0282
 3536W        W 7587   4.308   0.047   0.982  0.1959 -0.2144 -0.4810
 3537W        W 7588   0.385   2.321  11.054  0.0666  0.0383 -0.0997
 3538W        W 7589   5.228   5.398   1.101  0.0581 -0.0414  0.2134
 3539W        W 7590   1.451   8.366   3.680 -0.3266  0.1664  0.2133
 3540W        W 7591   0.206   1.928   9.801 -0.3198  0.0156  0.0248
 3541W        W 7592   9.405   0.437  13.354  0.3737  0.0185  0.0797
 3542W        W 7593   2.732   6.861  12.080  0.1839 -0.1020 -0.3290
 3543W        W 7594   0.073   7.829   2.885 -0.1239 -0.2416  0.0882
 3544W        W 7595   2.527   6.868   2.344  0.1860 -0.0139  0.0788
 3545W        W 7596   8.944   4.928   3.168 -0.3654 -0.1075  0.1188
 3546W        W 7597   2.347   1.829   9.786  0.0421 -0.2000 -0.4225
 3547W        W 7598   1.271   8.722   4.526  0.0548 -0.1389  0.1976
 3548W        W 7599   3.971   5.930  13.814 -0.0961 -0.0588  0.0608
 3549W        W 7600   0.410   5.655   3.015 -0.0662  0.1469  0.0434
 3550W        W 7601   7.232   8.132   1.976 -0.0140  0.0980  0.3181
 3551W        W 7602   5.788   2.350   3.144  0.0679  0.0452 -0.0460
 3552W        W 7603   8.495   4.354   1.439  0.1528 -0.0166  0.0228
 3553W        W 7604   3.324   5.740   4.493  0.2854  0.0865  0.1423
 3554W        W 7605   4.324   8.340  11.450  0.1457  0.0181 -0.0773
 3555W        W 7606   1.772   5.583   3.770  0.2604 -0.2632  0.3788
 3556W        W 7607   5.905   8.811   9.470 -0.0130 -0.3417  0.0022
 3557W        W 7608   3.110   9.156  11.358  0.3815 -0.4131  0.0896
 3558W        W 7609   2.553   9.965  12.557  0.2594 -0.1965 -0.1600
 3559W        W 7610   1.168   2.738  13.622 -0.1988  0.2622  0.0647
 3560W        W 7611   7.858   1.000  12.342 -0.1032  0.2062  0.1577
 3561W        W 7612  10.111   8.842   3.573  0.0870  0.2794 -0.2653
 3562W        W 7613   2.918   9.061   9.469  0.3036 -0.0979 -0.3066
 3563W        W 7614   2.629   8.063   2.052 -0.1044  0.2260 -0.0028
 3564W        W 7615   3.779   6.354   9.886  0.0859  0.1059  0.0732
 3565W        W 7616   5.649   9.346   1.191  0.0909  0.0544 -0.0514
 3566W        W 7617   4.717   4.345  10.307  0.0874 -0.0438  0.0728
 3567W        W 7618   1.616   7.985  11.281  0.1398 -0.1218  0.0805
 3568W        W 7619   9.262   3.712  10.032 -0.0192  0.1099  0.0455
 3569W        W 7620   0.357   6.417   3.015  0.1595 -0.1009 -0.0727
 3570W        W 7621   5.310   6.132   0.605  0.4555  0.0823 -0.2009
 3571W        W 7622   0.214   2.039  12.270 -0.0322  0.2731 -0.3497
 3572W        W 7623   3.999   3.494  10.148 -0.1714  0.0041  0.0207
 3573W        W 7624   1.775   2.825   4.150  0.1563 -0.0164  0.1015
 3574W        W 7625   0.100   3.461  12.947 -0.0455  0.1473 -0.1434
 3575W        W 7626   8.485   9.751   4.150  0.0074  0.1231  0.4212
 3576W        W 7627   9.196   1.581   0.075  0.2889  0.1431 -0.1608
 3577W        W 7628   3.192   0.219  10.289 -0.2699 -0.1644  0.0291
 3578W        W 7629   2.872   7.572   3.037  0.2559  0.2324 -0.2258
 3579W        W 7630   7.569   1.612   9.313 -0.0169 -0.4209  0.1488
 3580W        W 7631   2.195   6.128  11.597  0.1410  0.1635  0.0036
 3581W        W 7632   6.676   1.418   1.270 -0.0479 -0.4980 -0.3904
 3582W        W 7633   3.803   8.790  10.899 -0.0696  0.0397  0.1308
 3583W        W 7634   2.487   8.938   2.215 -0.3499  0.4005  0.3283
 3584W        W 7635   3.164   5.669   3.080  0.0020 -0.0597  0.0141
 3585W        W 7636   2.224   4.996   3.229  0.0847 -0.0293 -0.0990
 3586W        W 7637   1.597   5.325  12.404 -0.1431 -0.1277 -0.2697
 3587W        W 7638   4.864   8.104   9.035 -0.0279  0.0192  0.0207
 3588W        W 7639   3.454   1.766   2.567  0.4600 -0.0141  0.0703
 3589W        W 7640   0.270   0.828   1.250  0.1982 -0.0359  0.1124
 3590W        W 7641   6.869   6.259   0.412  0.0224  0.0956 -0.1869
 3591W        W 7642   9.526   7.137  10.807 -0.0995 -0.0124  0.0216
 3592W        W 7643   1.713   3.310  10.747 -0.1036  0.0925 -0.2340
 3593W        W 7644   4.342   7.325  11.530 -0.1511  0.0268 -0.0519
 3594W        W 7645   3.352   9.533  12.154 -0.1840  0.2018 -0.2538
 3595W        W 7646   4.329   9.504   9.955  0.3138  0.0532  0.3694
 3596W        W 7647   8.733   0.697   1.141  0.1502  0.3509  0.0814
 3597W        W 7648   9.344   6.659  10.865 -0.1561  0.0777 -0.1115
 3598W        W 7649   7.764   8.224   0.781  0.1408  0.0020 -0.1035
 3599W        W 7650   5.494   2.183  10.079  0.2029  0.3196  0.1448
 3600W        W 7651   6.038   5.324  11.257 -0.1112  0.1340 -0.0953
 3601W        W 7652   7.379   0.903  11.419 -0.0641 -0.4223 -0.0857
 3602W        W 7653   1.522   2.881  11.355 -0.1442 -0.1824 -0.2083
 3603W        W 7654   5.097   8.808  12.165  0.0746  0.1765 -0.0850
 3604W        W 7655   8.247   2.642   0.443  0.3641  0.1677 -0.0015
 3605W        W 7656   2.721   5.598  12.584 -0.1411 -0.0535  0.3772
 3606W        W 7657   3.321   1.411  13.075 -0.1331  0.2279 -0.1341
 3607W        W 7658   6.005   8.149  12.327 -0.1201  0.2700  0.2127
 3608W        W 7659   1.432   7.471   1.933  0.1566  0.0859 -0.0020
 3609W        W 7660   2.487   3.457  11.663  0.0921 -0.0240  0.1844
 3610W        W 7661   9.596   5.995   1.040 -0.1098  0.1040  0.0490
 3611W        W 7662   9.487   4.780   0.525 -0.0446 -0.1537 -0.2773
 3612W        W 7663   7.988   8.209  13.948  0.3605  0.1229 -0.2990
 3613W        W 7664   7.497   3.192  13.108 -0.0209  0.1425 -0.0825
 3614W        W 7665   9.604   3.189  11.369  0.2384  0.0503 -0.0650
 3615W        W 7666   3.724   6.470   1.127 -0.2795  0.3450 -0.2429
 3616W        W 7667   7.606   5.516   1.312  0.0053 -0.1921 -0.0769
 3617W        W 7668   2.291   6.680   0.939 -0.1944  0.0053  0.0719
 3618W        W 7669   7.685   0.325  10.087  0.1217  0.0903  0.0841
 3619W        W 7670   4.389  10.131   5.133  0.1156  0.1652  0.2304
 3620W        W 7671   6.878   8.441  11.271 -0.2914  0.2552  0.0728
 3621W        W 7672   4.788   8.696   5.374 -0.0608  0.5656  0.3385
 3622W        W 7673   2.542   0.036   1.577 -0.0349 -0.0696  0.1414
 3623W        W 7674   5.800   9.049  11.585  0.2935  0.1796  0.2205
 3624W        W 7675   5.925   3.189  13.444 -0.4280 -0.2382  0.0481
 3625W        W 7676   0.832   3.474   3.333 -0.1779  0.1610  0.3348
 3626W        W 7677   3.641   3.310  11.867  0.0068  0.0746 -0.0168
 3627W        W 7678   4.346   4.220   4.775  0.0474  0.0929 -0.1893
 3628W        W 7679   4.848   0.140   0.476 -0.3242  0.1620  0.0208
 3629W        W 7680   1.957   0.579   9.654  0.0409 -0.2553 -0.2568
 3630W        W 7681   1.471   8.649   8.982 -0.0099  0.0172  0.2485
 3631W        W 7682   8.964   5.950   3.462  0.0199 -0.0091  0.0806
 3632W        W 7683   0.961   7.309  12.589 -0.3043  0.2014 -0.0876
 3633W        W 7684   5.223   6.903  12.758  0.2596  0.0570  0.1504
 3634W        W 7685   8.751   4.358   0.842  0.0357  0.1120 -0.0575
 3635W        W 7686   6.540   2.197   4.124 -0.0795  0.4683 -0.0362
 3636W        W 7687   1.986   7.901  13.962 -0.0270  0.0883  0.0445
 3637W        W 7688   2.065   3.410  10.330  0.0771  0.0445 -0.0446
 3638W        W 7689   9.345   9.666  10.733  0.0186 -0.1171  0.0499
 3639W        W 7690   8.032   2.735  13.974 -0.2501  0.0208 -0.1537
 3640W        W 7691   8.800   3.123  13.812  0.1288  0.0131  0.1290
 3641W        W 7692   7.391   2.132   0.357  0.0411  0.0646 -0.1114
 3642W        W 7693   9.877   8.831  10.899 -0.2395 -0.0195 -0.2305
 3643W        W 7694   5.726   6.068  10.913 -0.1254  0.1589  0.0347
 3644W        W 7695   6.856   8.641   9.004  0.0933  0.1075  0.0154
 3645W        W 7696   0.766   0.925   3.170  0.0566 -0.0727  0.3197
 3646W        W 7697   4.004   8.777   4.691  0.2660  0.0522 -0.2104
 3647W        W 7698   1.518   9.534   1.338  0.1681 -0.0305 -0.2698
 3648W        W 7699   9.787   0.089   1.906 -0.1045  0.0370  0.1524
 3649W        W 7700   2.686   8.237  12.841  0.4060 -0.0240  0.2222
 3650W        W 7701   0.665   4.493   3.237  0.2445  0.0595  0.0535
 3651W        W 7702   7.829   3.699  13.180  0.0370 -0.0826 -0.0834
 3652W        W 7703   1.284   8.533   0.253 -0.0730 -0.2223 -0.0615
 3653W        W 7704   7.260   7.173  11.812 -0.0353 -0.0021 -0.1553
 3654W        W 7705   3.835   4.817  12.054 -0.3417 -0.4217  0.0691
 3655W        W 7706   9.632   9.369  11.688  0.2022 -0.1043 -0.0754
 3656W        W 7707   6.677   6.439  10.487 -0.1642 -0.3770  0.2553
 3657W        W 7708   3.957   0.449   4.630 -0.0864 -0.2267 -0.2826
 3658W        W 7709   8.770   8.447   0.189  0.0938  0.0510 -0.1602
 3659W        W 7710   7.774   9.373   9.972 -0.2064 -0.1162 -0.0777
 3660W        W 7711   1.586   6.771   3.742 -0.1588  0.0120  0.3977
 3661W        W 7712   0.699   3.369   4.179 -0.0363  0.6157  0.0781
 3662W        W 7713   9.831   9.895   0.957 -0.1376  0.1255 -0.0933
 3663W        W 7714   7.636   9.583   1.140 -0.1262 -0.3163  0.3481
 3664W        W 7715   7.419   7.494   3.165 -0.0065 -0.0145  0.0253
 3665W        W 7716   5.605   5.827   0.905  0.0540  0.0943  0.0569
 3666W        W 7717   7.278  10.012   2.803  0.2529  0.1153 -0.0058
 3667W        W 7718   4.530   0.820   9.394 -0.0257 -0.0522 -0.0501
 3668W        W 7719   0.045   4.009   1.567 -0.1599  0.1402  0.2900
 3669W        W 7720   8.341   6.577   0.617  0.0447  0.2133 -0.1920
 3670W        W 7721   8.531   8.482  10.799 -0.4455 -0.2859  0.4700
 3671W        W 7722   0.500   0.030   3.330 -0.0106 -0.1051 -0.0618
 3672W        W 7723   4.672   0.948   9.969 -0.0625  0.4178  0.2046
 3673W        W 7724   5.696   4.470   0.180 -0.0410  0.0398  0.2837
 3674W        W 7725  10.086   8.452   0.348  0.3210  0.3558  0.2351
 3675W        W 7726   8.627   8.296   3.297 -0.1323 -0.2044  0.3484
 3676W        W 7727   6.167   4.278   1.806 -0.0183 -0.0503 -0.2207
 3677W        W 7728   4.965   9.791   1.932  0.1112  0.1966 -0.0453
 3678W        W 7729   7.305   4.071   0.099  0.1570 -0.2037  0.0997
 3679W        W 7730   0.381   9.151  12.776  0.1595  0.1723 -0.3057
 3680W        W 7731   7.629   9.037  12.899 -0.3732 -0.2159 -0.1278
 3681W        W 7732   0.183   7.956   9.887 -0.0643 -0.0725 -0.3233
 3682W        W 7733   3.073   9.457  10.491  0.1654 -0.1555  0.2340
 3683W        W 7734   8.779   8.942   5.447 -0.2423  0.0921 -0.1234
 3684W        W 7735   8.563   6.381  13.095 -0.0923  0.1594 -0.0342
 3685W        W 7736   7.822   4.316   3.112  0.0551  0.2514 -0.1226
 3686W        W 7737   3.663   8.209   4.082 -0.1441 -0.3635 -0.0464
 3687W        W 7738   0.795   9.846  13.333  0.2036  0.1997  0.1644
 3688W        W 7739   5.985   1.344   4.181 -0.0829 -0.0006 -0.2952
 3689W        W 7740   6.656   8.733   2.394  0.1079 -0.1693  0.3593
 3690W        W 7741   4.246   1.202   0.748  0.1269 -0.0479  0.1197
 3691W        W 7742   6.901   3.444  11.524  0.0456 -0.0212 -0.0842
 3692W        W 7743   0.818   0.629   2.727 -0.2785 -0.4066  0.2958
 3693W        W 7744   9.632   7.850   0.138 -0.0582  0.1444  0.2973
 3694W        W 7745   6.900   3.954  12.921 -0.4671 -0.1777  0.2560
 3695W        W 7746   6.740   0.390   1.132  0.0807 -0.1563 -0.2953
 3696W        W 7747   4.879   6.317  13.542 -0.0982 -0.0850  0.0567
 3697W        W 7748   8.432   1.835  13.840  0.5545 -0.1061 -0.0281
 3698W        W 7749   3.401   6.759   5.671 -0.0786 -0.4020 -0.0405
 3699W        W 7750   3.692   7.563   4.019  0.0442 -0.0875  0.0503
 3700W        W 7751   2.873   1.716   2.530 -0.0020 -0.0452  0.3527
 3701W        W 7752   1.142   8.833   2.468  0.4248 -0.0989  0.3679
 3702W        W 7753   4.144   1.545  10.272 -0.0004  0.1979  0.0610
 3703W        W 7754   6.009   5.753   5.564  0.0077 -0.0453 -0.2163
 3704W        W 7755   6.334   8.983   2.092 -0.0119 -0.1186  0.1169
 3705W        W 7756   1.908   7.848  12.980  0.3641  0.0865 -0.1459
 3706W        W 7757   7.946   1.292   2.336 -0.2021  0.2382  0.1568
 3707W        W 7758   0.224   7.984   9.344 -0.1280 -0.3546  0.0715
 3708W        W 7759   6.023   0.224   9.569 -0.1291 -0.5602 -0.0564
 3709W        W 7760   8.676   8.294  13.363 -0.3404 -0.1341  0.0734
 3710W        W 7761   5.713   2.164   9.582 -0.1405  0.4620  0.0957
 3711W        W 7762   1.021   7.904   0.613 -0.2041 -0.0977  0.3207
 3712W        W 7763   8.588   5.867   0.138 -0.4612  0.2820 -0.2571
 3713W        W 7764   2.338   5.703  13.746  0.0921 -0.0996  0.4261
 3714W        W 7765   0.425   8.736  13.494  0.2316  0.1864  0.2284
 3715W        W 7766   4.212   2.342   2.883 -0.2127  0.2268  0.2386
 3716W        W 7767   4.767   4.880  12.230 -0.1213 -0.1638 -0.1133
 3717W        W 7768   6.498   9.145   3.508  0.2401  0.0221 -0.0181
 3718W        W 7769   2.735   7.469   0.050  0.2914 -0.3030 -0.0031
 3719W        W 7770   0.158   4.153  11.606 -0.1281  0.1759 -0.2031
 3720W        W 7771   1.503   4.906  11.674  0.4296  0.0294  0.0873
 3721W        W 7772   4.611   8.307   4.301 -0.0935 -0.0241  0.0036
 3722W        W 7773   4.080   7.469   0.216  0.0156  0.0655  0.2324
 3723W        W 7774   7.449   9.725   9.641 -0.2071  0.2565 -0.2289
 3724W        W 7775   0.585   0.510  13.504  0.0604  0.0397  0.1105
 3725W        W 7776   8.388   7.032   0.562  0.0883 -0.2485  0.1117
 3726W        W 7777   9.096   1.320  10.329 -0.1481 -0.2983 -0.3910
 3727W        W 7778   7.734   9.358   0.272 -0.3007 -0.1743  0.0516
 3728W        W 7779   3.020   3.467  13.229  0.1494  0.1607 -0.0987
 3729W        W 7780   4.121  10.132   9.662  0.2510 -0.1492 -0.1587
 3730W        W 7781   6.830   1.323  10.521  0.0747  0.1001 -0.1098
 3731W        W 7782   4.320   6.587   8.614 -0.0667  0.1372  0.0678
 3732W        W 7783   9.520   8.934   4.246  0.0015 -0.0108  0.1757
 3733W        W 7784   1.175   7.419   5.024  0.0246  0.0875  0.0469
 3734W        W 7785   0.424   6.998  11.219 -0.1911 -0.1609 -0.1510
 3735W        W 7786   8.065   6.653  10.819 -0.3459 -0.0357 -0.1766
 3736W        W 7787   4.267   2.899  12.734 -0.2636  0.0085 -0.2045
 3737W        W 7788   6.388   2.754  12.838 -0.2194 -0.2947  0.3421
 3738W        W 7789   2.768   6.858  13.592 -0.2526 -0.1490  0.1015
 3739W        W 7790   8.484   5.166   3.265  0.0168  0.0067  0.2074
 3740W        W 7791   2.835   2.098   3.889 -0.0822  0.2069  0.2518
 3741W        W 7792   5.754   3.220  10.947  0.1900 -0.2999 -0.1310
 3742W        W 7793   3.928   4.529   0.601 -0.0235 -0.1520  0.0450
 3743W        W 7794   4.372   9.582   2.721 -0.0270 -0.1233  0.0618
 3744W        W 7795   1.021   2.518   0.520 -0.1254  0.0953  0.0218
 3745W        W 7796   2.299   2.230   9.490 -0.1426 -0.2548 -0.2358
 3746W        W 7797   0.551   9.356  11.072  0.0120  0.0413 -0.1802
 3747W        W 7798   8.249   8.895  11.741 -0.1661  0.3898 -0.0265
 3748W        W 7799   4.236   3.906   1.491  0.0714  0.2338  0.1764
 3749W        W 7800   7.376   5.721  12.310  0.1279 -0.3015 -0.0140
 3750W        W 7801   7.920   1.637   1.946 -0.0247  0.3030  0.0536
 3751W        W 7802   1.763   5.740   1.659  0.1359 -0.0717 -0.1422
 3752W        W 7803   7.685   6.496  13.386 -0.1819 -0.0355 -0.1895
 3753W        W 7804   8.314   0.783   3.929 -0.2000 -0.0034 -0.1174
 3754W        W 7805   2.948   9.734  12.359  0.1883 -0.0665  0.1442
 3755W        W 7806  10.141   9.833  10.495 -0.4476  0.0433 -0.0629
 3756W        W 7807   3.372   9.141  10.798  0.0287 -0.1312 -0.1572
 3757W        W 7808   2.380   8.121  10.875  0.2352  0.0760  0.0883
 3758W        W 7809   7.106   2.269   9.604  0.0561 -0.2913 -0.0998
 3759W        W 7810  10.069   3.462   3.088 -0.0211 -0.1945  0.0160
 3760W        W 7811   3.491   6.159   9.024  0.1851 -0.0660 -0.1213
 3761W        W 7812   1.743   6.602   9.533  0.1067 -0.0119  0.0603
 3762W        W 7813   5.849   0.906   9.809 -0.0815  0.0472 -0.1133
 3763W        W 7814   5.655   4.497   3.378  0.0863 -0.1168  0.0019
 3764W        W 7815   2.498   9.123   0.767 -0.3102  0.5670 -0.0477
 3765W        W 7816   7.129   8.241   9.165  0.1550  0.0187 -0.2524
 3766W        W 7817   7.267   7.882   1.524  0.1496 -0.5004  0.0219
 3767W        W 7818   2.062   4.213   4.268  0.2187  0.2985  0.0862
 3768W        W 7819   0.188   9.106   1.341  0.2725  0.1664  0.3171
 3769W        W 7820   0.894   1.350   3.396 -0.1365  0.2294  0.0218
 3770W        W 7821   1.279   2.666   0.158  0.4760  0.0231  0.0214
 3771W        W 7822   5.627   8.288   3.244  0.0259  0.3082  0.2058
 3772W        W 7823   1.815   3.854   1.234 -0.0577 -0.0997 -0.2084
 3773W        W 7824   1.010   0.607   9.798 -0.0492  0.0835  0.0116
 3774W        W 7825   9.589   6.466   0.733  0.0976 -0.1015  0.1529
 3775W        W 7826   3.107   0.784  10.495  0.0788  0.0233 -0.2571
 3776W        W 7827   7.667   6.641  10.562 -0.1407 -0.1786  0.5378
 3777W        W 7828   8.683   9.015   3.698  0.0211  0.2266  0.1183
 3778W        W 7829   8.792   2.966   9.807  0.2167  0.1577  0.2993
 3779W        W 7830   9.176   2.942  12.036  0.3062  0.1903  0.0379
 3780W        W 7831   4.066   7.962  10.645  0.1405 -0.1833 -0.0291
 3781W        W 7832   2.641   7.804   1.554  0.0468 -0.5015 -0.0384
 3782W        W 7833   3.475   8.685   0.836 -0.0004 -0.1516 -0.1437
 3783W        W 7834   8.065   6.806   3.160 -0.0200  0.0196  0.0127
 3784W        W 7835   0.184   8.327  13.608  0.0487 -0.2777  0.2223
 3785W        W 7836   9.039   2.313  12.057 -0.1297 -0.2807  0.1195
 3786W        W 7837   5.145   6.338  11.992  0.1688 -0.0676 -0.2058
 3787W        W 7838   6.423   4.892   2.696 -0.0625 -0.1356  0.1820
 3788W        W 7839   3.858   8.873   0.058 -0.0065  0.7120 -0.1290
 3789W        W 7840   9.000   7.822  10.472  0.1977 -0.2608 -0.0343
 3790W        W 7841   0.453   6.023   2.168 -0.1304  0.3398 -0.0531
 3791W        W 7842   9.585   8.600  10.571  0.0728  0.1653  0.1192
 3792W        W 7843   9.699   1.961  10.037 -0.0905  0.0720 -0.0797
 3793W        W 7844   1.156   5.557   2.114  0.2427 -0.1800 -0.3240
 3794W        W 7845   8.621   1.094   4.190 -0.0628  0.1323  0.0506
 3795W        W 7846   2.543   0.753  10.525  0.1490 -0.1064  0.0559
 3796W        W 7847   7.399   0.729  10.956  0.1615 -0.0010 -0.0484
 3797W        W 7848   3.701   3.088   0.800  0.2026 -0.4516 -0.0610
 3798W        W 7849   1.758   5.686  12.740 -0.2110  0.2635 -0.4128
 3799W        W 7850   6.650   4.353  11.870 -0.0587 -0.1695 -0.0711
 3800W        W 7851   1.134   9.011   1.931 -0.0314 -0.1176  0.2597
 3801W        W 7852   9.909   8.689   2.567 -0.1135  0.0472 -0.2169
 3802W        W 7853   0.753   6.417   0.102  0.0356  0.0929  0.0574
 3803W        W 7854   3.294   6.641   1.949 -0.3973  0.0607  0.2454
 3804W        W 7855   6.494   0.446   0.457  0.0927  0.2261 -0.0756
 3805W        W 7856   9.247   6.452   3.591 -0.1014 -0.3114  0.1189
 3806W        W 7857   0.683   2.493  12.332  0.1118 -0.1600  0.1602
 3807W        W 7858   2.992   4.000   3.088 -0.0656  0.0679  0.0179
 3808W        W 7859   6.488   9.663  12.443  0.5337  0.1918  0.1486
 3809W        W 7860   2.983   0.975  13.036 -0.0900 -0.0366 -0.1969
 3810W        W 7861   1.868   5.711  13.658 -0.0336  0.1431  0.1415
 3811W        W 7862   7.374   1.297  12.262 -0.3544 -0.2898 -0.0928
 3812W        W 7863   9.826   1.441  10.698 -0.0435  0.0292  0.1457
 3813W        W 7864   6.165   0.573  10.878  0.0213 -0.1075 -0.0690
 3814W        W 7865   8.959   1.157   8.697  0.3879 -0.1102 -0.0955
 3815W        W 7866   3.518   5.843   4.940 -0.2290  0.3858  0.0742
 3816W        W 7867   2.469   4.267   0.376  0.2122  0.0409 -0.0907
 3817W        W 7868   6.883   9.754   9.032  0.0456  0.0344 -0.2099
 3818W        W 7869   9.349   4.273  12.812 -0.2554 -0.5337 -0.2946
 3819W        W 7870   3.481   8.372   3.645 -0.0428 -0.0779  0.1537
 3820W        W 7871   4.027   0.892   9.578  0.2403  0.0531  0.3151
 3821W        W 7872   2.769   9.726  11.358 -0.0088  0.1184  0.0093
 3822W        W 7873   9.072   2.766   0.950 -0.3292 -0.1527 -0.3095
 3823W        W 7874   5.856   4.262  10.677  0.2296 -0.1421 -0.2577
 3824W        W 7875   2.087   4.595   2.670  0.0099 -0.2140  0.0783
 3825W        W 7876   1.793   6.208  12.727  0.0213  0.0468 -0.2308
 3826W        W 7877   3.073   7.088  14.002  0.1490  0.0234 -0.2167
 3827W        W 7878   1.143   2.225  13.404 -0.0450  0.1251 -0.0757
 3828W        W 7879   9.674   1.799  13.493 -0.0601 -0.0748 -0.0136
 3829W        W 7880   6.377   8.232  10.771 -0.0438 -0.2566  0.2761
 3830W        W 7881   6.993   2.381   0.132 -0.3256 -0.0186  0.0495
 3831W        W 7882   5.727   9.433   3.080 -0.0046 -0.0350  0.1343
 3832W        W 7883   0.298   7.496  13.741  0.1118 -0.0953 -0.0732
 3833W        W 7884   5.858   8.335   1.659  0.1858 -0.0535 -0.0200
 3834W        W 7885   5.393   9.188   4.364 -0.0685 -0.0893  0.2881
 3835W        W 7886   1.573   7.566   3.035 -0.1724 -0.1518 -0.2264
 3836W        W 7887   7.917   8.383   3.353 -0.0193 -0.2081 -0.1650
 3837W        W 7888   3.250   5.284   0.766 -0.2038 -0.1041 -0.5638
 3838W        W 7889   1.781   9.703  13.993 -0.0967 -0.0464 -0.2106
 3839W        W 7890   6.169   4.916  12.808  0.3811 -0.0836 -0.1982
 3840W        W 7891   3.759   4.784   1.051 -0.3115 -0.0950  0.0970
 3841W        W 7892   9.571   7.155   3.222  0.0424 -0.3396  0.1668
 3842W        W 7893   9.917   4.299   4.174  0.0326 -0.0076  0.1790
 3843W        W 7894   9.990   6.054  11.464  0.0724  0.0678  0.1221
 3844W        W 7895   7.517   9.413  13.349  0.0781  0.2550 -0.1303
 3845W        W 7896   7.152   0.001  10.897 -0.1566  0.2893  0.0320
 3846W        W 7897   0.781   8.792   4.477 -0.2407 -0.0042  0.0058
 3847W        W 7898   7.838   5.003  12.494 -0.2869 -0.0973  0.0388
 3848W        W 7899   2.252   9.746   1.514  0.1369 -0.3963  0.0591
 3849W        W 7900   1.706   1.933   0.737  0.5020 -0.0874  0.1717
 3850W        W 7901   2.980   3.486   3.966  0.1412 -0.2877 -0.0608
 3851W        W 7902   3.638   5.364   0.349 -0.2779 -0.2393  0.0274
 3852W        W 7903   8.654   7.538   2.708 -0.0400  0.0441  0.1506
 3853W        W 7904   3.229   5.520   4.059  0.0680 -0.1417  0.3450
 3854W        W 7905   9.596   8.721  13.086  0.1246  0.0515  0.0228
 3855W        W 7906   5.340   3.787   9.128  0.0142  0.1440 -0.1766
 3856W        W 7907   3.013   0.990   1.518 -0.1382  0.2117 -0.2630
 3857W        W 7908   2.864   2.690   9.607 -0.0604 -0.0966  0.1212
 3858W        W 7909   8.051   3.617   2.961  0.0858 -0.0521  0.0513
 3859W        W 7910   9.539   8.039  12.722  0.4914  0.0497  0.0031
 3860W        W 7911   8.592   0.982  13.005 -0.0993 -0.1049  0.2351
 3861W        W 7912   3.341   5.759   9.890 -0.0487 -0.1148 -0.3659
 3862W        W 7913   4.878   7.782   3.981  0.0854  0.0474 -0.1050
 3863W        W 7914   3.703   8.587   1.761  0.0805  0.1292 -0.0864
 3864W        W 7915   6.102   6.260  10.672 -0.0628  0.2728 -0.1320
 3865W        W 7916   7.376   8.277  12.412  0.1600 -0.2257  0.0563
 3866W        W 7917   0.066   1.246   1.648  0.1155 -0.1233  0.4175
 3867W        W 7918   1.925   1.052   9.620 -0.2664 -0.1116 -0.2472
 3868W        W 7919   9.605   0.225   3.991 -0.2423  0.1332 -0.3094
 3869W        W 7920   4.599   0.144   9.897  0.0315  0.2004  0.0664
 3870W        W 7921   0.195   9.636   3.938  0.2482 -0.2519  0.0720
 3871W        W 7922   9.388   9.316   4.615  0.1087 -0.3013 -0.1055
 3872W        W 7923   3.289   2.547  13.739 -0.0839  0.0046 -0.2165
 3873W        W 7924   6.024   7.828  13.266  0.2786 -0.2058  0.1101
 3874W        W 7925   1.530   2.563   1.924 -0.1433  0.5368  0.0075
 3875W        W 7926   0.071   3.918   2.910  0.2281  0.0816  0.1336
 3876W        W 7927   0.233   9.857   2.983  0.2537 -0.3573  0.0161
 3877W        W 7928   4.872   4.966   0.618  0.1656  0.1801 -0.4212
 3878W        W 7929   0.958   8.084  10.545  0.0852  0.1337 -0.1792
 3879W        W 7930   3.238   6.928  13.449  0.2868 -0.1070  0.4171
 3880W        W 7931   5.059   0.770   1.683 -0.0420  0.1161  0.2078
 3881W        W 7932   4.570   6.518   0.906 -0.0345  0.1357  0.0824
 3882W        W 7933   3.829   7.442  11.393  0.3458 -0.0483 -0.0353
 3883W        W 7934   6.683   9.880  12.856 -0.1399 -0.0534  0.0360
 3884W        W 7935   7.037   9.560  12.067  0.0831  0.1485 -0.1267
 3885W        W 7936   0.908   7.825   2.347  0.1796  0.2951  0.2305
 3886W        W 7937   4.310   4.478  12.511 -0.0988 -0.0890 -0.0604
 3887W        W 7938   8.082  10.025  13.871  0.0159 -0.1511 -0.0100
 3888W        W 7939   4.997   8.524  13.113 -0.1847  0.1013 -0.3699
 3889W        W 7940  10.041   5.059   1.101 -0.0708 -0.0200  0.1201
 3890W        W 7941   5.223   1.604  13.918  0.0120 -0.1145 -0.0556
 3891W        W 7942   6.737   9.314   4.378 -0.0305 -0.1129  0.2889
 3892W        W 7943   8.706   2.953  13.332 -0.0449  0.2572  0.1081
 3893W        W 7944   4.154   3.776   3.959 -0.1627 -0.2754 -0.0857
 3894W        W 7945   2.015   7.437  12.701  0.1669  0.0304  0.1278
 3895W        W 7946   9.549   6.455   2.991 -0.0166 -0.0432 -0.1218
 3896W        W 7947   5.706   6.371   0.220  0.0682  0.4040  0.1458
 3897W        W 7948   0.659   3.752  11.712  0.0998  0.1256 -0.1213
 3898W        W 7949   3.447   8.593   5.387  0.0236 -0.3443 -0.2837
 3899W        W 7950   8.301   4.255   0.117 -0.0350 -0.2260  0.1293
 3900W        W 7951   4.147   2.935   0.837 -0.4288 -0.0255 -0.2659
 3901W        W 7952   8.185   8.218  13.500  0.4160 -0.2364  0.2850
 3902W        W 7953   7.692   1.403   1.460 -0.1923  0.0118  0.1294
 3903W        W 7954   3.810   9.315  13.858  0.2979 -0.0681 -0.0502
 3904W        W 7955   6.211   8.940  11.335  0.1719 -0.2223  0.2650
 3905W        W 7956   8.194   5.554   0.135 -0.0149 -0.1949 -0.1241
 3906W        W 7957   7.714   2.359  11.426 -0.0377  0.1639 -0.1931
 3907W        W 7958   7.998   9.872   2.130 -0.0789 -0.1498  0.4005
 3908W        W 7959   7.508   4.278  11.444  0.2037 -0.0515  0.1253
 3909W        W 7960   5.782   6.296  11.886 -0.1150 -0.1206 -0.0372
 3910W        W 7961   7.721   2.328   0.006 -0.1574 -0.4004  0.2117
 3911W        W 7962   9.498   0.738   1.607 -0.1616  0.4959 -0.0297
 3912W        W 7963   1.958   9.071   9.579 -0.0629 -0.0123  0.1942
 3913W        W 7964   3.180   1.912  12.880  0.2712  0.3091 -0.0726
 3914W        W 7965   5.049   5.527   5.360  0.1253 -0.0069  0.0901
 3915W        W 7966   3.738   8.387  13.850 -0.0841  0.0857 -0.2272
 3916W        W 7967   1.799   1.015   2.360 -0.3398 -0.1663  0.2259
 3917W        W 7968   4.299   7.708  13.853  0.0375  0.1114  0.2672
 3918W        W 7969   1.052   7.217   0.484  0.0557  0.0454 -0.2429
 3919W        W 7970   2.247   3.371  13.159 -0.1504 -0.0069  0.1264
 3920W        W 7971   4.359   0.454   3.777  0.0180 -0.1222 -0.3590
 3921W        W 7972   3.902   4.251   9.140 -0.0394 -0.1631 -0.0406
 3922W        W 7973  10.011   7.993  12.557 -0.0451  0.3032  0.2183
 3923W        W 7974   5.085   2.674  10.671  0.0699 -0.0429  0.0479
 3924W        W 7975  10.003   8.318   4.855 -0.0994 -0.0270 -0.0316
 3925W        W 7976   9.033   6.569  12.851 -0.1722 -0.1340  0.2101
 3926W        W 7977   4.350   5.286  10.134 -0.0337  0.2858 -0.1234
 3927W        W 7978   5.378   7.882   4.077  0.2690 -0.0206 -0.0173
 3928W        W 7979   8.961   9.641   4.235 -0.0736 -0.3366  0.1213
 3929W        W 7980   9.446   0.522  10.834 -0.2118 -0.1412  0.0663
 3930W        W 7981   3.320   1.713  10.756 -0.3856 -0.0155  0.4351
 3931W        W 7982   5.854   9.010   5.293 -0.3088  0.0223  0.2388
 3932W        W 7983   9.459   2.089  11.064  0.2467  0.2543  0.0888
 3933W        W 7984   0.971   9.630  12.038 -0.0199  0.0666 -0.1673
 3934W        W 7985   1.563   2.599  12.063  0.1493 -0.2635 -0.1059
 3935W        W 7986   8.178   6.691   1.942  0.1351 -0.2856 -0.0274
 3936W        W 7987   5.157   4.896   1.032 -0.2821  0.0034  0.1611
 3937W        W 7988   6.825   0.871   4.524 -0.1068  0.0773 -0.0955
 3938W        W 7989   2.171   3.325   3.349 -0.1745  0.1548  0.0195
 3939W        W 7990   2.337   0.857  11.508  0.0377 -0.2118 -0.2649
 3940W        W 7991   0.137   4.614   0.150  0.0142 -0.0771 -0.0229
 3941W        W 7992   5.322   3.253   3.420 -0.3682  0.0075  0.0151
 3942W        W 7993   5.580   4.895   2.437  0.1783 -0.1451 -0.1970
 3943W        W 7994   1.950   9.554  10.931 -0.1003 -0.1733  0.1596
 3944W        W 7995   1.390   2.690   8.800 -0.1252 -0.0772  0.1586
 3945W        W 7996   1.297   0.273   4.505 -0.1230  0.0462  0.1408
 3946W        W 7997   8.257   9.390  11.805  0.0719  0.1639  0.0204
 3947W        W 7998   7.599   9.222   0.750 -0.0565  0.0847 -0.2077
 3948W        W 7999   7.543   9.181   9.496  0.0087  0.0489  0.1240
 3949W        W 8000   9.893   4.323  13.957 -0.0368  0.0205 -0.2169
 3950W        W 8001   0.679   5.203  12.294  0.0858  0.0879 -0.0947
 3951W        W 8002   3.927   5.690   4.632 -0.1686  0.0947  0.0008
 3952W        W 8003   3.124   2.426   3.692 -0.0540 -0.0164  0.1183
 3953W        W 8004   2.187   5.096  11.056 -0.3895 -0.1249  0.1707
 3954W        W 8005   7.093   9.624   4.563  0.2642  0.0909 -0.0353
 3955W        W 8006   2.103   5.014   0.072  0.0960 -0.0312 -0.1807
 3956W        W 8007   5.510   2.609   9.075  0.3396 -0.0559  0.1060
 3957W        W 8008   9.600   3.493   4.334  0.3651 -0.2179 -0.2355
 3958W        W 8009   5.599   8.127   9.040 -0.0259  0.2136 -0.1907
 3959W        W 8010   6.604   5.881   9.454  0.0157  0.2341  0.2415
 3960W        W 8011   8.120   9.124   3.872 -0.1319 -0.3316 -0.1894
 3961W        W 8012   4.329   7.659   3.886  0.1153 -0.1901  0.1591
 3962W        W 8013   8.865   3.392   0.146 -0.0517  0.0148 -0.0633
 3963W        W 8014   1.909   8.436   3.970  0.1843 -0.2835 -0.2367
 3964W        W 8015   6.588   7.541  13.948  0.1847 -0.0770  0.0532
 3965W        W 8016   8.766   9.052   1.404  0.1540  0.0505 -0.1181
 3966W        W 8017   6.961   4.494  12.872  0.1945 -0.2171  0.4693
 3967W        W 8018   3.887   3.139   1.988  0.1543  0.2311 -0.2800
 3968W        W 8019   0.579   7.083   1.227  0.2628  0.2000  0.0813
 3969W        W 8020   6.826   9.651   2.560  0.1195  0.1828 -0.0113
 3970W        W 8021   1.568   3.273   4.117  0.3796  0.0005 -0.1241
 3971W        W 8022   0.277   0.423   4.663 -0.2533 -0.1486 -0.0010
 3972W        W 8023   7.344   3.724   3.681 -0.0108 -0.1007 -0.2018
 3973W        W 8024   8.678   8.741   6.027 -0.0334 -0.1170 -0.0179
 3974W        W 8025   9.524   1.395   2.094  0.0032  0.3435  0.2134
 3975W        W 8026   6.550   3.029  13.242 -0.0829 -0.1351 -0.0858
 3976W        W 8027   2.116   7.306  10.327 -0.0361  0.1711  0.1498
 3977W        W 8028   7.739   9.820   5.974 -0.0692 -0.2747  0.0269
 3978W        W 8029   1.824   2.787   2.739 -0.3108  0.2208  0.1637
 3979W        W 8030   7.108   1.207   1.651  0.0935  0.0338  0.0947
 3980W        W 8031   1.664   7.290   2.453 -0.0647  0.1867 -0.0510
 3981W        W 8032   8.434   7.807   0.166 -0.1722 -0.1739  0.0480
 3982W        W 8033   4.854   2.085   4.087  0.0677  0.0546  0.0626
 3983W        W 8034   8.301   6.181  10.817  0.2683 -0.0403 -0.2427
 3984W        W 8035   3.718   8.574   3.245  0.0997 -0.2536 -0.1805
 3985W        W 8036   2.821   9.023   3.303  0.0901 -0.1642 -0.1253
 3986W        W 8037   8.390   7.750   2.345 -0.1768 -0.2956  0.1098
 3987W        W 8038   2.284   3.044   2.877  0.1899  0.0395 -0.0845
 3988W        W 8039   5.916  10.056  10.401 -0.0035  0.2077 -0.0634
 3989W        W 8040   3.645   2.429  12.359 -0.1068 -0.3631  0.2190
 3990W        W 8041   0.368   0.645   0.048  0.0236 -0.4985 -0.0056
 3991W        W 8042   0.327   8.630  11.708 -0.2884  0.2623 -0.0972
 3992W        W 8043   8.609   2.375  11.173  0.1191 -0.1642 -0.1412
 3993W        W 8044   4.858   4.826  13.732 -0.1320 -0.1799  0.0078
 3994W        W 8045   6.727   2.883   3.291  0.1544  0.0091 -0.0123
 3995W        W 8046   2.235   8.471   2.080 -0.3726  0.2349  0.0725
 3996W        W 8047   5.348   3.175  10.668 -0.0399  0.0595  0.1561
 3997W        W 8048   5.425   4.610   1.401 -0.2008 -0.1185 -0.3268
 3998W        W 8049   1.642   3.229  13.043 -0.3547  0.1122 -0.1792
 3999W        W 8050   1.461   1.997  10.506  0.3513 -0.1392  0.2064
 4000W        W 8051   2.794   8.272   0.637 -0.0535  0.2216  0.0909
 4001W        W 8052   4.921   5.153  11.817  0.1275  0.0995 -0.5369
 4002W        W 8053   6.809   5.015   0.335  0.0066 -0.0205  0.2917
 4003W        W 8054   3.303   9.976  11.235  0.0188  0.1372 -0.0922
 4004W        W 8055   7.583   6.990   3.242  0.1939  0.1277 -0.1400
 4005W        W 8056   2.091   0.790  10.911 -0.5262  0.2753  0.0092
 4006W        W 8057   7.114   9.684  10.742  0.0412  0.1491  0.0675
 4007W        W 8058   0.046   9.812   0.604  0.2513 -0.4484  0.1134
 4008W        W 8059   1.671   3.636   3.766 -0.2494  0.0017  0.1202
 4009W        W 8060   9.286   0.904   9.045 -0.1206 -0.1709 -0.0655
 4010W        W 8061   5.061   7.576   0.161  0.0792 -0.1642 -0.0916
 4011W        W 8062   4.963   5.388   4.149 -0.1787  0.3304  0.1532
 4012W        W 8063   7.017   4.975   3.547 -0.1628  0.0144 -0.1144
 4013W        W 8064   8.237   8.115   9.083 -0.0951  0.3581 -0.1774
 4014W        W 8065   9.088   5.865  13.238 -0.2726 -0.3028 -0.0105
 4015W        W 8066   8.948   2.647  10.143 -0.0983 -0.2361 -0.0036
 4016W        W 8067   4.383   1.144   5.100 -0.0626 -0.2479  0.5270
 4017W        W 8068   5.799   7.436   4.268  0.1491 -0.1625  0.0490
 4018W        W 8069   2.527   8.959   2.839 -0.1343 -0.0198  0.0118
 4019W        W 8070   1.391   3.854   4.628 -0.2206 -0.0082  0.2413
 4020W        W 8071   3.871   0.346   0.779 -0.0860  0.0062  0.3644
 4021W        W 8072   2.588   3.986   1.681  0.1601 -0.0462  0.1189
 4022W        W 8073   7.426   2.755   2.593  0.0296 -0.0510 -0.3855
 4023W        W 8074   6.158   9.333   8.595  0.0430 -0.1047  0.1343
 4024W        W 8075   3.829   5.884   3.277  0.0596 -0.0751 -0.1247
 4025W        W 8076   7.768   9.511  13.757  0.1045  0.2452 -0.1606
 4026W        W 8077   6.641   9.821   4.287 -0.1528 -0.1624 -0.1962
 4027W        W 8078   0.649   7.010   3.795 -0.0317 -0.2249 -0.0160
 4028W        W 8079   0.213   6.044  12.836  0.0708  0.1063  0.0183
 4029W        W 8080   5.069   0.741  11.107  0.0278 -0.0669 -0.0138
 4030W        W 8081   4.187   2.165  13.456 -0.1020  0.3068 -0.0827
 4031W        W 8082   2.801   9.447   4.952  0.1197  0.0469 -0.1497
 4032W        W 8083   2.693   1.150   3.846 -0.5914  0.0864  0.0022
 4033W        W 8084   4.520   8.765   1.916 -0.0684  0.0997  0.3213
 4034W        W 8085   7.996   3.507  10.974  0.2656 -0.3326  0.0276
 4035W        W 8086   2.615   6.052   1.632  0.3192  0.2075 -0.3253
 4036W        W 8087   9.506   4.434  13.652 -0.1935  0.2403  0.0823
 4037W        W 8088   4.235   4.801   3.984  0.0631 -0.1342  0.0522
 4038W        W 8089   2.598   2.508   4.605  0.1195 -0.0331 -0.2465
 4039W        W 8090   5.071   0.920  10.261 -0.0484 -0.1502  0.0808
 4040W        W 8091   9.253   4.737  13.153 -0.1191  0.0793 -0.1599
 4041W        W 8092   7.358   7.474   2.442  0.1702 -0.1410 -0.1066
 4042W        W 8093   8.137   8.839  12.643 -0.0588 -0.1152  0.2609
 4043W        W 8094   5.918   1.195   2.200 -0.1276  0.0000 -0.1495
 4044W        W 8095   1.616   2.498  10.023 -0.0709 -0.4578  0.0039
 4045W        W 8096   6.043   5.916   3.533  0.0162 -0.2724 -0.1545
 4046W        W 8097   1.522   6.462  12.375  0.4159 -0.1386 -0.0558
 4047W        W 8098   1.937   4.030  11.903 -0.2534  0.1054 -0.0095
 4048W        W 8099   0.445   7.467  13.239  0.2167  0.0335  0.2929
 4049W        W 8100   0.602   3.878  13.815 -0.1160 -0.2887  0.0541
 4050W        W 8101   4.907   3.431  13.515  0.1591  0.3941  0.2662
 4051W        W 8102   8.621   2.203  12.412 -0.0787 -0.0000 -0.1193
 4052W        W 8103   7.481   7.811  11.081  0.2336 -0.1848  0.0028
 4053W        W 8104   2.952   1.933   1.511 -0.1779 -0.0620 -0.2347
 4054W        W 8105   9.522   2.505   1.547  0.0328  0.0959 -0.0776
 4055W        W 8106   0.228   2.453  12.019  0.0823  0.0780  0.1154
 4056W        W 8107   1.802   0.849   0.596  0.1416  0.3054 -0.1136
 4057W        W 8108   3.516   4.025   4.449  0.0595  0.1708  0.1342
 4058W        W 8109   7.261   8.152   0.970 -0.2969 -0.0544  0.1319
 4059W        W 8110   3.026   8.831   4.333  0.1235  0.0754  0.0920
 4060W        W 8111   4.675   7.984  11.324  0.1680 -0.3517 -0.0161
 4061W        W 8112   8.921  10.039   5.264 -0.3156  0.1165 -0.2054
 4062W        W 8113   4.732   8.328   3.208 -0.3599  0.0329 -0.6099
 4063W        W 8114   2.985   7.873   3.439 -0.0260  0.1992 -0.2278
 4064W        W 8115   6.449   2.481  11.358 -0.1911 -0.2394 -0.1706
 4065W        W 8116   2.431   5.740  12.035  0.0507 -0.2502  0.0744
 4066W        W 8117   4.874   7.660  11.841  0.1704  0.1022  0.1013
 4067W        W 8118   3.725   5.255   0.816  0.0505 -0.1607  0.0214
 4068W        W 8119   3.374   4.850   4.009  0.0988  0.1767  0.3565
 4069W        W 8120   6.609   8.966  13.887 -0.0310  0.2177 -0.0340
 4070W        W 8121   2.466   7.454  11.205  0.3049 -0.1294  0.0692
 4071W        W 8122   6.866   7.891  11.120 -0.0696  0.2246  0.0670
 4072W        W 8123   2.127   5.177  12.722 -0.0848  0.1970  0.0622
 4073W        W 8124   3.866   9.172   9.213  0.1461 -0.2314 -0.4940
 4074W        W 8125   5.325   0.283  11.641 -0.0941 -0.1160  0.2505
 4075W        W 8126   1.327   8.066  10.861 -0.1060  0.2467 -0.2550
 4076W        W 8127   6.381   7.174  11.683  0.1573  0.0051 -0.1310
 4077W        W 8128   5.246   6.270   2.487 -0.1630 -0.1624 -0.1880
 4078W        W 8129   0.993   9.161  12.185  0.0593  0.0326 -0.1317
 4079W        W 8130   5.154   4.190  13.393 -0.0077 -0.0444  0.2400
 4080W        W 8131   9.915   6.756  12.719  0.1379 -0.1192  0.4259
 4081W        W 8132   3.374   6.418   2.396  0.0925 -0.1322 -0.0310
 4082W        W 8133   7.617   3.192   2.292 -0.2093  0.1419 -0.0763
 4083W        W 8134   2.619   1.093   5.497 -0.3548  0.0598  0.0676
 4084W        W 8135   7.108   4.381   2.466  0.1340 -0.3413 -0.2629
 4085W        W 8136   3.482   1.828   1.348 -0.0293 -0.2036 -0.2554
 4086W        W 8137   1.168   7.632   2.806 -0.0323 -0.2916  0.0036
 4087W        W 8138   3.907   6.980  12.816 -0.0444  0.1231  0.0668
 4088W        W 8139   1.403   0.415  10.115  0.2443  0.0388  0.2184
 4089W        W 8140   0.289   0.459   2.344 -0.0282 -0.0297 -0.1009
 4090W        W 8141   2.735   6.546  10.437  0.1485 -0.0436  0.2945
 4091W        W 8142   6.202   0.829   0.604  0.0510  0.2560  0.1187
 4092W        W 8143   3.021   4.597   0.477  0.0239  0.0592  0.0426
 4093W        W 8144   3.494   7.967   0.576  0.2653 -0.1500  0.1543
 4094W        W 8145   8.356   1.279  10.798  0.0265  0.0022  0.0658
 4095W        W 8146   4.562   3.988   2.776  0.2051 -0.0663 -0.0586
 4096W        W 8147   8.658   7.756   3.986 -0.1356  0.0711 -0.0773
 4097W        W 8148   4.301   9.438  10.982 -0.1773 -0.2203  0.0984
 4098W        W 8149   9.475   9.599  13.626 -0.0420  0.2701 -0.1495
 4099W        W 8150   4.194   1.062  12.761  0.0103 -0.0141  0.1143
 4100W        W 8151   5.374   9.774   2.951  0.0300  0.1411  0.0324
 4101W        W 8152   5.181   4.565   3.201  0.3129  0.0397 -0.4073
 4102W        W 8153   9.260   3.286  12.775 -0.0130  0.1798 -0.0300
 4103W        W 8154   3.676   6.503   3.412  0.0805  0.0843  0.1399
 4104W        W 8155   3.719   2.799   4.550 -0.0504  0.0933 -0.0184
 4105W        W 8156   8.951   2.451  13.237 -0.0636  0.1289 -0.0355
 4106W        W 8157   1.342   2.214  10.945 -0.1177 -0.1144 -0.0969
 4107W        W 8158   4.103   5.526   0.605  0.0858  0.3506 -0.1137
 4108W        W 8159   4.055   3.875   2.977 -0.1395 -0.2344  0.1593
 4109W        W 8160   6.961   5.242  13.499  0.1240 -0.0084 -0.0886
 4110W        W 8161   7.738   0.158   5.152  0.0918  0.1766 -0.2397
 4111W        W 8162   6.863   6.658   0.958 -0.0598  0.3171 -0.2760
 4112W        W 8163   6.308   6.994   2.172 -0.1099 -0.2504  0.0228
 4113W        W 8164   5.053   5.697   0.744 -0.3348  0.0068  0.1059
 4114W        W 8165   1.502   6.120  10.808  0.1867 -0.1101  0.1749
 4115W        W 8166   0.558   5.946   4.441  0.0312  0.2612  0.0736
 4116W        W 8167   9.585  10.094  10.176 -0.1288  0.0105 -0.2094
 4117W        W 8168   8.818   8.884   2.305 -0.0292 -0.1915  0.2361
 4118W        W 8169   1.267   1.596  10.735  0.1691 -0.0449 -0.0137
 4119W        W 8170   6.456   3.769   1.787 -0.3905  0.0518 -0.0914
 4120W        W 8171   6.251   1.947  13.456 -0.3776 -0.3441  0.0306
 4121W        W 8172   2.921   7.954  13.880  0.0593  0.1821 -0.0046
 4122W        W 8173   6.460   0.029   0.792  0.4354  0.2446 -0.0841
 4123W        W 8174   3.002   6.239   4.413  0.1062  0.0287 -0.4022
 4124W        W 8175   0.433   1.319   1.299  0.0600 -0.1073  0.1395
 4125W        W 8176   9.662   8.369   2.889 -0.4467 -0.0236 -0.0033
 4126W        W 8177   8.150   0.980   4.830  0.1377 -0.1793 -0.1998
 4127W        W 8178   4.597   7.025  12.970  0.3327 -0.2154  0.2671
 4128W        W 8179   7.104   7.636   4.569 -0.0205  0.1441  0.2690
 4129W        W 8180   2.449   8.738   0.015 -0.1308  0.0379 -0.1757
 4130W        W 8181   2.306   7.136   4.223  0.0579 -0.1574 -0.0602
 4131W        W 8182   5.510  10.094   2.401  0.0129  0.0191  0.0574
 4132W        W 8183   8.571   0.024   2.905 -0.1358  0.2030  0.1419
 4133W        W 8184   0.714   4.356  12.323  0.1217 -0.1270 -0.1091
 4134W        W 8185   5.221   7.891  12.663  0.0649  0.1144 -0.1328
 4135W        W 8186   5.252   1.303   2.717 -0.0825  0.2436  0.1245
 4136W        W 8187   1.077   4.645  11.933  0.0452  0.1111 -0.2914
 4137W        W 8188   9.619   8.914   3.720 -0.2114  0.0677  0.1866
 4138W        W 8189   4.121   5.376  12.606  0.2320 -0.1312  0.1832
 4139W        W 8190   4.352   9.088   2.702 -0.2286  0.1286  0.1442
 4140W        W 8191   8.401   6.214   2.229  0.0252  0.2347 -0.0920
 4141W        W 8192   6.173   7.272  13.824 -0.0411 -0.1402  0.0915
 4142W        W 8193   9.346  10.039   9.489 -0.1410 -0.2322  0.2776
 4143W        W 8194   4.753   4.519   2.899 -0.0063 -0.0305 -0.0057
 4144W        W 8195   2.837   4.624  11.310  0.0565  0.0810 -0.1329
 4145W        W 8196   3.855   5.590  13.463 -0.2020  0.1616 -0.0268
 4146W        W 8197   9.658   5.631   3.552 -0.0812  0.0384 -0.0089
 4147W        W 8198   1.328   9.479   1.849 -0.0898 -0.1742  0.0317
 4148W        W 8199  10.033   0.234   0.928  0.0344  0.6035  0.1206
 4149W        W 8200   4.059   9.459   3.471 -0.1648 -0.0788  0.3174
 4150W        W 8201   3.646   8.933  10.442 -0.1379 -0.0212 -0.0028
 4151W        W 8202   8.928   0.140  12.372 -0.0569 -0.3348 -0.0752
 4152W        W 8203   5.356   5.639   1.632 -0.0045 -0.1032  0.0382
 4153W        W 8204   8.931  10.086   1.575 -0.0537  0.1211 -0.1449
 4154W        W 8205   7.357   2.586  10.499  0.2963 -0.0920  0.0635
 4155W        W 8206   2.364   9.220  11.931  0.1530  0.0335  0.0403
 4156W        W 8207   3.082   9.828   0.487 -0.1968 -0.1949 -0.0336
 4157W        W 8208   5.182   9.385   9.530  0.3350  0.0149 -0.1722
 4158W        W 8209   8.938   8.026  12.994 -0.0259 -0.0788  0.2689
 4159W        W 8210   9.800   9.842   5.407 -0.1723  0.1157  0.3259
 4160W        W 8211   5.700   8.563   9.901  0.0780 -0.0780  0.1133
 4161W        W 8212   6.367   8.388  11.239 -0.0909  0.1019 -0.0891
 4162W        W 8213   0.537   6.514  12.306  0.2077  0.1743 -0.1469
 4163W        W 8214   1.454   7.995   4.121  0.3864  0.0638 -0.1423
 4164W        W 8215   5.559   2.711  10.898  0.4380  0.4287 -0.0065
 4165W        W 8216   4.221   7.773  11.199  0.0736  0.2509  0.2264
 4166W        W 8217   1.700   1.870  13.522 -0.0124 -0.0967  0.1732
 4167W        W 8218   1.147   7.704   0.159  0.1195 -0.1978  0.0130
 4168W        W 8219   0.694   6.909   2.559 -0.1912 -0.2772  0.0932
 4169W        W 8220   7.603   9.705  10.649 -0.3180 -0.1051 -0.1376
 4170W        W 8221   9.458   7.006   0.947  0.2529 -0.2078 -0.3190
 4171W        W 8222   2.435   6.022   4.856 -0.0858 -0.1922  0.1867
 4172W        W 8223   8.272   7.425  11.635  0.2220  0.0921 -0.1038
 4173W        W 8224   5.388   4.330  10.365 -0.0254 -0.0275  0.0921
 4174W        W 8225   5.091   3.377   2.158 -0.0697  0.6405  0.1287
 4175W        W 8226   1.618   2.660   3.644 -0.0882 -0.1925  0.5185
 4176W        W 8227   8.538   7.930  12.531 -0.3576 -0.1225  0.1685
 4177W        W 8228   4.061   7.488   2.365  0.1284  0.3036 -0.0427
 4178W        W 8229   3.055   5.340   2.389 -0.0094  0.0131 -0.2161
 4179W        W 8230   3.632   3.940   9.446 -0.0664 -0.0497  0.2617
 4180W        W 8231   9.597   6.883   0.423  0.0972 -0.0059 -0.0508
 4181W        W 8232   6.813   8.602   9.968 -0.0466 -0.0200 -0.1208
 4182W        W 8233   6.737   4.551   1.167  0.0441  0.1910 -0.1160
 4183W        W 8234   2.033   5.920   4.086 -0.0660 -0.0272 -0.1013
 4184W        W 8235   0.438   8.619   1.862 -0.1995 -0.2244  0.0535
 4185W        W 8236   9.006   0.082  13.866  0.0956  0.1674  0.1304
 4186W        W 8237   0.882   7.197  13.151 -0.2869 -0.2052 -0.1445
 4187W        W 8238   1.526   3.238   0.649  0.1552 -0.0792 -0.2346
 4188W        W 8239   4.367   6.323   1.898 -0.1803 -0.1195  0.1852
 4189W        W 8240   0.299   2.340   4.118 -0.1063  0.1646  0.0278
 4190W        W 8241   4.654   2.959  11.931 -0.0552  0.0559 -0.2249
 4191W        W 8242   0.957   2.558   1.066 -0.1507 -0.0546 -0.0968
 4192W        W 8243   5.091   6.522  11.451 -0.2066 -0.1388 -0.3503
 4193W        W 8244   6.027   5.463  12.077  0.1365  0.1839  0.1436
 4194W        W 8245   9.735   5.887   3.004 -0.0696 -0.2290  0.0333
 4195W        W 8246   3.718   0.963   2.599  0.0771 -0.0431  0.0819
 4196W        W 8247   5.253   0.452   2.130 -0.1204 -0.1374  0.1583
 4197W        W 8248   2.716   9.235   5.387 -0.0835 -0.0740 -0.1920
 4198W        W 8249   1.452   9.930  12.546  0.2263 -0.2014  0.0150
 4199W        W 8250  10.121   0.810  12.052 -0.2079  0.3876 -0.1322
 4200W        W 8251   0.726   5.264   3.724 -0.1597  0.1470  0.2420
 4201W        W 8252   7.054   0.169  10.470  0.1062 -0.0476  0.0558
 4202W        W 8253  10.149   6.877   1.717  0.1877  0.0906 -0.1548
 4203W        W 8254   0.216   4.646  11.677 -0.0785  0.1170 -0.0726
 4204W        W 8255   7.332   9.786  13.633 -0.1191 -0.1788 -0.1382
 4205W        W 8256   1.911   9.224  11.719  0.1781  0.0568 -0.1286
 4206W        W 8257   4.507   8.224  10.924 -0.2572  0.1215  0.2701
 4207W        W 8258   0.435   3.524   0.778  0.0136  0.1301  0.1533
 4208W        W 8259   5.718   7.551  11.202 -0.0113  0.1665  0.2206
 4209W        W 8260   8.838  10.140   0.637  0.3473  0.0678  0.2259
 4210W        W 8261   4.471   9.289  13.287  0.0534  0.1443  0.1828
 4211W        W 8262   3.187   8.268   4.409 -0.0369 -0.0256 -0.2985
 4212W        W 8263   1.079   2.074   9.479  0.1201 -0.0639  0.0654
 4213W        W 8264   3.752   8.118   1.964  0.0817 -0.0086 -0.1237
 4214W        W 8265   4.913   2.933   0.555 -0.0246  0.0046 -0.5124
 4215W        W 8266   2.861   6.210   0.085  0.1076 -0.3959 -0.2129
 4216W        W 8267   3.420   1.707   9.453 -0.2029 -0.0630 -0.1395
 4217W        W 8268   5.604   5.968  12.667  0.4172  0.0811 -0.3580
 4218W        W 8269   7.088   2.895   4.302  0.1842  0.0366 -0.0119
 4219W        W 8270   8.596   6.826  13.294 -0.1145  0.0931  0.1581
 4220W        W 8271   1.909   2.316   2.335  0.0146  0.1253  0.1721
 4221W        W 8272   7.681   4.712   3.357  0.2361  0.1748 -0.0340
 4222W        W 8273  10.157   9.660   9.453 -0.0236  0.3203 -0.2068
 4223W        W 8274   3.730   7.075   2.607 -0.0813 -0.2836 -0.1906
 4224W        W 8275   4.128   3.161   4.564 -0.0047  0.3079 -0.0868
 4225W        W 8276   4.650   0.077   1.362 -0.0749 -0.2167  0.2376
 4226W        W 8277   3.491   9.008   0.391  0.0911 -0.2972 -0.1887
 4227W        W 8278   5.929   2.088  13.029 -0.4377 -0.1641 -0.1119
 4228W        W 8279   7.028   9.277  11.085  0.1575 -0.1902  0.0528
 4229W        W 8280   3.568   7.795  12.440  0.3989 -0.0603 -0.0731
 4230W        W 8281   6.720   9.503  10.359 -0.1198 -0.1132  0.0243
 4231W        W 8282   4.465   8.346   2.392 -0.0610 -0.0683  0.0272
 4232W        W 8283   0.274   5.111  11.878  0.2691  0.3991  0.2524
 4233W        W 8284   9.415   3.966  11.542 -0.0933  0.0395 -0.1306
 4234W        W 8285   2.109   5.956   2.091 -0.0895 -0.1774  0.0758
 4235W        W 8286   0.763   8.862  10.908  0.4108 -0.0939  0.2761
 4236W        W 8287   5.412   4.901  10.216 -0.0210  0.1942 -0.0474
 4237W        W 8288   7.766   4.400  12.422  0.1865 -0.1027 -0.2127
 4238W        W 8289   9.509   5.324  11.602  0.1426 -0.0178  0.3755
 4239W        W 8290   5.711   7.382   0.881 -0.3694  0.1368  0.0715
 4240W        W 8291   2.570   2.914   1.891  0.0019  0.0468 -0.1293
 4241W        W 8292   4.519   9.200  11.425 -0.0129  0.0267 -0.0417
 4242W        W 8293   5.847   5.518   3.097 -0.0726  0.3009  0.1538
 4243W        W 8294   8.295   4.177  13.665 -0.1856 -0.3299  0.1857
 4244W        W 8295   3.517   0.678   5.205 -0.1304  0.0494 -0.1309
 4245W        W 8296   6.799   9.091  12.145  0.4386 -0.0526 -0.2041
 4246W        W 8297   3.444   0.427  11.871  0.0296  0.1838 -0.3766
 4247W        W 8298   3.736   2.033  10.675  0.4092  0.0492 -0.0932
 4248W        W 8299   4.929   1.952   2.317  0.1982 -0.2329 -0.0453
 4249W        W 8300   2.581   4.696   3.602  0.0703 -0.2052 -0.0674
 4250W        W 8301   2.727   5.900   0.489 -0.2043 -0.1901  0.1509
 4251W        W 8302   7.505   0.875   0.524  0.0169 -0.3285  0.0281
 4252W        W 8303   8.330  10.098  12.442  0.1199  0.0846  0.2852
 4253W        W 8304   1.027   3.425  13.041 -0.1980 -0.1533 -0.1305
 4254W        W 8305   0.779   0.174   1.868 -0.1504 -0.3910 -0.0284
 4255W        W 8306   9.369   7.524   5.584  0.1367 -0.0677 -0.2655
 4256W        W 8307   5.651   0.154   0.332  0.2312  0.1191 -0.0604
 4257W        W 8308   6.107   7.836   4.879 -0.1050 -0.0756 -0.1800
 4258W        W 8309   5.244   8.181   8.617 -0.0811  0.1166 -0.0778
 4259W        W 8310   4.759   5.473   4.708 -0.0011  0.3044  0.3178
 4260W        W 8311   4.458   4.000   3.360 -0.0155 -0.0226  0.0112
 4261W        W 8312   8.608   0.850  12.488  0.1243 -0.0440 -0.2086
 4262W        W 8313   5.822   5.572   2.264 -0.0949 -0.1600 -0.2682
 4263W        W 8314   6.407   5.387  13.456  0.0686  0.2072  0.0560
 4264W        W 8315   4.965   6.253   9.210 -0.2880  0.2484  0.3131
 4265W        W 8316   8.345   7.621  12.123  0.0580  0.0574 -0.1868
 4266W        W 8317   2.945   0.448  13.237  0.0294  0.0242 -0.0346
 4267W        W 8318   6.191   7.677   3.513  0.1900 -0.0996 -0.0769
 4268W        W 8319   9.463   3.632  11.197 -0.1746  0.1242  0.4094
 4269W        W 8320   3.775   3.588   1.824 -0.0827  0.2326 -0.4365
 4270W        W 8321   1.143   7.264  11.569 -0.0164  0.2130  0.1340
 4271W        W 8322   8.974   8.349   4.832  0.2599  0.0824  0.3007
 4272W        W 8323   7.873   1.996   3.866  0.1616 -0.0624 -0.0952
 4273W        W 8324   8.286   8.439  11.548  0.0020 -0.4798  0.0707
 4274W        W 8325   3.339   1.246  12.080 -0.1991 -0.1732 -0.0842
 4275W        W 8326   8.689   0.292   0.201  0.1138  0.0472 -0.0777
 4276W        W 8327   8.158   1.548  13.327 -0.1906 -0.1098 -0.1800
 4277W        W 8328   9.202   2.298   0.583 -0.0487  0.1021 -0.1015
 4278W        W 8329   6.005   6.644  11.136 -0.2287 -0.1267 -0.0154
 4279W        W 8330   6.786   7.857   4.242  0.0457  0.0260  0.3637
 4280W        W 8331   4.918   8.770  10.217  0.2538 -0.0079 -0.0357
 4281W        W 8332   3.465   4.846  13.063  0.0324 -0.0042  0.0520
 4282W        W 8333   6.478   9.874   9.361  0.0261 -0.3307  0.0450
 4283W        W 8334   7.374   4.115   1.187  0.0203  0.2127  0.0573
 4284W        W 8335   1.535   8.157  10.386  0.2204  0.2027 -0.0445
 4285W        W 8336   4.446   0.876   2.392 -0.2108 -0.0803  0.1325
 4286W        W 8337   8.012   5.118   3.376 -0.0342 -0.1545  0.1179
 4287W        W 8338   4.483   2.233  11.192 -0.0511  0.1408 -0.0811
 4288W        W 8339   2.954   4.100  13.031 -0.2312  0.0061 -0.1595
 4289W        W 8340   3.393   4.354  13.172 -0.0813 -0.1118  0.4493
 4290W        W 8341   9.577   4.976  12.432 -0.0263 -0.1298 -0.3235
 4291W        W 8342   7.885   6.689   1.501  0.4064  0.0579  0.2111
 4292W        W 8343   7.566   7.677   4.752 -0.4933  0.2179 -0.2157
 4293W        W 8344   6.238   8.373   0.710  0.1088 -0.2833 -0.1174
 4294W        W 8345   4.850   6.761  13.951  0.1689 -0.2101 -0.5536
 4295W        W 8346  10.036   9.941  11.931 -0.2728  0.1361 -0.2522
 4296W        W 8347   5.906   2.813   0.945 -0.0459  0.0173  0.0709
 4297W        W 8348   7.740   6.427   0.844  0.2837 -0.1113  0.0074
 4298W        W 8349   1.083   2.874   1.901 -0.2451 -0.1562  0.0778
 4299W        W 8350   8.398   6.657  12.018 -0.0863 -0.1623  0.3079
 4300W        W 8351   7.639   6.797  11.060  0.2159 -0.1936  0.0804
 4301W        W 8352   9.131   7.685   2.037 -0.1333 -0.1207  0.2756
 4302W        W 8353   0.510   7.597   5.662  0.2160  0.0750  0.2995
 4303W        W 8354   3.440   1.749   3.145  0.1093  0.1050 -0.1053
 4304W        W 8355   0.004   2.990  10.183 -0.1711  0.1272 -0.0765
 4305W        W 8356   6.276   8.728   3.382  0.0963 -0.3552  0.1116
 4306W        W 8357   8.061   6.885  12.341  0.0314  0.3097  0.0906
 4307W        W 8358   3.815   6.653   8.615 -0.0627 -0.1638  0.1984
 4308W        W 8359   5.241   0.796   0.953  0.1729 -0.2689  0.1302
 4309W        W 8360   0.111   7.293   2.122  0.1082  0.3446 -0.2427
 4310W        W 8361   3.472   4.480   5.189 -0.0657 -0.2737  0.0026
 4311W        W 8362   6.092   4.486  12.503  0.2135 -0.1138 -0.0014
 4312W        W 8363   5.633   2.402   0.209  0.0711  0.1192  0.0642
 4313W        W 8364   8.555   2.792   1.254  0.0296 -0.1434  0.0767
 4314W        W 8365   1.627   7.263   4.832 -0.1883  0.2580 -0.0905
 4315W        W 8366   9.135   3.136   2.620 -0.0019 -0.3306 -0.1523
 4316W        W 8367   0.239   1.316  13.994 -0.1876  0.1368 -0.3075
 4317W        W 8368   5.095   2.336  11.929 -0.0271 -0.2314  0.1565
 4318W        W 8369   8.004   2.601   9.527  0.2302 -0.0755  0.0588
 4319W        W 8370   5.274   7.146   9.549 -0.1366  0.0302 -0.0495
 4320W        W 8371   7.927   5.508  13.367  0.0807  0.0522 -0.2254
 4321W        W 8372   8.153   3.707   0.170  0.2196  0.0661 -0.4125
 4322W        W 8373   3.537   8.944  11.256 -0.3774  0.0085 -0.0196
 4323W        W 8374   8.302   1.325   4.497 -0.0163  0.4948 -0.1856
 4324W        W 8375   0.999   5.900  13.983  0.1998 -0.0673 -0.0768
 4325W        W 8376   8.532   9.190   4.167  0.0036  0.2133  0.3253
 4326W        W 8377   6.142   9.159   3.008  0.2928 -0.0856 -0.2019
 4327W        W 8378   1.823   0.714  14.042 -0.2330 -0.1131 -0.1671
 4328W        W 8379   6.080   1.240  10.098 -0.1313  0.2225 -0.2163
 4329W        W 8380   3.541  10.041  12.122  0.2046  0.0078 -0.1599
 4330W        W 8381   5.163   6.045   1.346 -0.0971 -0.1522 -0.2455
 4331W        W 8382   8.889   9.446   2.921 -0.3038  0.0289 -0.0707
 4332W        W 8383   0.720   7.137   3.297  0.1444  0.0077 -0.0489
 4333W        W 8384   0.611   7.946  10.094  0.1166 -0.1311  0.2225
 4334W        W 8385   0.898   7.688  13.320  0.3717 -0.1758 -0.0614
 4335W        W 8386   9.327   5.803   0.380  0.1403 -0.0904 -0.1178
 4336W        W 8387   2.647   0.640  12.832 -0.4454 -0.0368  0.0579
 4337W        W 8388   0.892   2.929   2.345  0.2955  0.4141 -0.4591
 4338W        W 8389   1.862   1.688  12.994 -0.2381  0.3622  0.1419
 4339W        W 8390   1.990   4.221  13.786  0.0592  0.1819 -0.0972
 4340W        W 8391   5.560   4.568  13.425 -0.1642 -0.1695 -0.0458
 4341W        W 8392   8.177   3.443   3.381  0.2283 -0.0724 -0.2618
 4342W        W 8393   3.105   0.867  13.530 -0.0460  0.1526 -0.2950
 4343W        W 8394   5.372   1.009   2.204 -0.1472 -0.0153 -0.0392
 4344W        W 8395   3.627   4.287   2.168  0.1468  0.1096 -0.3985
 4345W        W 8396   4.159   0.025  13.766  0.2464 -0.0095 -0.0404
 4346W        W 8397   8.332   9.684  10.855 -0.0261 -0.2686  0.0289
 4347W        W 8398   4.899   4.500  10.958  0.0001 -0.1115 -0.1450
 4348W        W 8399   6.221   3.086   0.655  0.0409 -0.1455  0.4753
 4349W        W 8400   0.838   4.790  13.346  0.1412 -0.1487  0.0089
 4350W        W 8401   1.336   5.626   1.165  0.1069 -0.1863 -0.0750
 4351W        W 8402   3.665   5.944  10.242 -0.0498  0.0514  0.1748
 4352W        W 8403   1.567   6.292  13.579 -0.1413 -0.0589 -0.0294
 4353W        W 8404   5.640   5.912   1.915 -0.1001 -0.1610  0.0620
 4354W        W 8405   3.212   7.213  10.160  0.3644  0.0586  0.1061
 4355W        W 8406   7.338   7.304  12.304  0.3370  0.0940  0.0300
 4356W        W 8407   2.032   1.729  10.168 -0.3033  0.0454  0.1393
 4357W        W 8408   2.960   7.493  10.864  0.2416  0.0139  0.2272
 4358W        W 8409   5.630   3.316   9.512  0.3054 -0.3185 -0.1147
 4359W        W 8410   9.133   8.284   5.338  0.4777  0.2318  0.1449
 4360W        W 8411   0.303   5.567  10.884 -0.3079 -0.3561  0.1363
 4361W        W 8412   1.454   0.813  12.828 -0.0313 -0.3437 -0.0420
 4362W        W 8413   7.452   0.456   2.300 -0.0491 -0.1751 -0.2083
 4363W        W 8414   2.277   8.124   0.829 -0.0587 -0.0186 -0.2025
 4364W        W 8415   3.117   1.793   0.189 -0.1823 -0.1800 -0.1145
 4365W        W 8416   7.618   4.846   1.984 -0.3516  0.0823 -0.1200
 4366W        W 8417   1.246   7.646  13.756 -0.2144  0.1250  0.1038
 4367W        W 8418   6.598   6.948   0.024  0.0236 -0.2799 -0.1611
 4368W        W 8419   4.467   9.817  13.115 -0.1269 -0.4328 -0.0149
 4369W        W 8420   1.176   6.826   2.487  0.0564  0.0046  0.1929
 4370W        W 8421   3.216   3.385   0.846  0.4201  0.1664 -0.3251
 4371W        W 8422   3.315   9.856  12.721 -0.0612 -0.0854 -0.1580
 4372W        W 8423   1.812   2.479  10.558 -0.0392  0.1340  0.0434
 4373W        W 8424   1.118   2.310   2.105 -0.2721  0.1956  0.3015
 4374W        W 8425   3.031   6.638   4.802 -0.1419  0.0285  0.1069
 4375W        W 8426   1.487  10.040   0.317  0.0463  0.1798  0.1523
 4376W        W 8427   7.831   8.875  10.176  0.0229 -0.0075  0.1342
 4377W        W 8428   0.931   5.284   4.192  0.0536 -0.0555 -0.1891
 4378W        W 8429   7.597   6.842  12.478  0.0500  0.3333  0.3083
 4379W        W 8430   4.779   3.647   4.016  0.0946  0.1155  0.2262
 4380W        W 8431   3.990   1.935  14.038 -0.1308  0.1324  0.1220
 4381W        W 8432   8.903   1.984  11.015  0.1439  0.1392 -0.1001
 4382W        W 8433   2.245   4.702  10.118  0.1000 -0.0270 -0.0339
 4383W        W 8434   8.136   3.732  13.640 -0.3519 -0.2094  0.0068
 4384W        W 8435   8.475   6.624  11.091 -0.2272 -0.2100 -0.1224
 4385W        W 8436   4.228   6.002   4.136  0.3237 -0.0253  0.1104
 4386W        W 8437   2.419   4.428  10.617  0.0876  0.0449  0.0795
 4387W        W 8438   2.147   4.803   8.979  0.1010 -0.2016 -0.0533
 4388W        W 8439   3.994   6.822   4.060  0.3223  0.1105 -0.1408
 4389W        W 8440   7.086   8.325   3.343  0.0437  0.1360  0.1499
 4390W        W 8441   1.951   8.801  12.019 -0.1877  0.2748 -0.1591
 4391W        W 8442   6.692   9.960   3.443  0.0074 -0.0941 -0.2003
 4392W        W 8443   4.497   4.605   9.240  0.1479 -0.1115 -0.0282
 4393W        W 8444   8.805   2.010   9.669  0.1753  0.0136 -0.1583
 4394W        W 8445   0.898   1.415   3.943  0.4994  0.0639  0.0923
 4395W        W 8446   3.808   3.591   4.306 -0.1287  0.2833 -0.2463
 4396W        W 8447   6.968   9.123  10.619  0.3539 -0.1458  0.0353
 4397W        W 8448   4.362   2.458   0.674  0.0997 -0.0740 -0.1765
 4398W        W 8449   4.299   1.862   4.328  0.0941 -0.1536 -0.1815
 4399W        W 8450   7.764  10.164   2.701 -0.0260 -0.0788  0.2713
 4400W        W 8451   1.158   8.723   1.449 -0.4208  0.0229 -0.2433
 4401W        W 8452   6.397   6.265   3.779  0.1679 -0.1070  0.0990
 4402W        W 8453   1.114   1.990   1.652  0.0747 -0.0715 -0.1701
 4403W        W 8454  10.141   3.328   0.711  0.0908  0.0915  0.1882
 4404W        W 8455   6.639   3.915   3.027 -0.3969  0.0072 -0.0619
 4405W        W 8456   5.578   2.732  11.404  0.2963  0.0636 -0.0154
 4406W        W 8457   7.966   7.173   1.531  0.2737  0.2228 -0.2158
 4407W        W 8458   6.909   0.421   0.188 -0.1559 -0.1382 -0.0242
 4408W        W 8459   0.456   1.401  11.256 -0.1404  0.0719 -0.0332
 4409W        W 8460   3.399   3.407   1.400  0.0270  0.1944  0.1773
 4410W        W 8461   4.499   8.069   4.672 -0.2754 -0.1833 -0.0043
 4411W        W 8462   5.828   6.664  13.412  0.0439 -0.3234 -0.0426
 4412W        W 8463   7.859   6.555   3.487  0.1957  0.2321 -0.1794
 4413W        W 8464   4.670   2.670   2.799  0.3494  0.0540  0.1530
 4414W        W 8465   0.741   3.422   1.148 -0.0410 -0.0742 -0.1126
 4415W        W 8466   2.955   2.157   2.199 -0.3160  0.3972  0.3088
 4416W        W 8467   2.940   1.947   0.663 -0.1931  0.1219 -0.5402
 4417W        W 8468   7.256   2.252  11.839  0.2690 -0.0225 -0.1190
 4418W        W 8469   6.689   4.988  10.491 -0.0295 -0.1947 -0.4282
 4419W        W 8470   0.889   8.216  12.559 -0.2224 -0.0726 -0.1416
 4420W        W 8471   1.746   8.592   0.851  0.0023  0.1089 -0.2725
 4421W        W 8472   0.318   0.044   0.604  0.3554  0.1709 -0.1485
 4422W        W 8473   1.907   8.096  12.511  0.3058 -0.2249 -0.4956
 4423W        W 8474   5.116  10.158   2.813 -0.3282 -0.5527  0.5096
 4424W        W 8475   2.168   2.028  11.460  0.1261 -0.1755  0.2162
 4425W        W 8476   7.309   6.412  13.724 -0.2013 -0.3511  0.2109
 4426W        W 8477   1.849   2.859   2.123 -0.4040  0.1524 -0.0693
 4427W        W 8478   3.013   7.355   3.474  0.0062  0.0999  0.0643
 4428W        W 8479   4.292   7.895  11.667 -0.0883  0.4101  0.0951
 4429W        W 8480   9.735   1.743   2.936 -0.2197  0.0773  0.2690
 4430W        W 8481   9.528   8.261  11.877 -0.0106 -0.2315 -0.2684
 4431W        W 8482   2.741   8.818  13.229 -0.0687 -0.0452 -0.0999
 4432W        W 8483   8.487   2.500  13.490 -0.1902 -0.1288  0.4898
 4433W        W 8484   9.121   9.299   2.079 -0.1091  0.0278  0.2824
 4434W        W 8485   1.541   4.388  13.644  0.2359  0.0732  0.2219
 4435W        W 8486   0.118   1.172   3.691 -0.3615 -0.0927  0.3849
 4436W        W 8487   6.198   8.664   9.882  0.0964  0.2384 -0.0788
 4437W        W 8488   6.510   7.248   3.500  0.1878 -0.1875 -0.0547
 4438W        W 8489   6.501   8.854  10.399  0.1364 -0.1155  0.0161
 4439W        W 8490   1.748   3.406   3.082  0.2733 -0.2068  0.3118
 4440W        W 8491   5.962   6.704   2.410 -0.4508  0.2529  0.3420
 4441W        W 8492   4.311   5.181  13.202 -0.2493 -0.1200  0.0528
 4442W        W 8493   0.847   3.827   2.787 -0.0217  0.0559 -0.1875
 4443W        W 8494   3.796   4.140   0.974 -0.0484 -0.0143 -0.2314
 4444W        W 8495   8.178   2.560   3.429  0.1754 -0.3780 -0.0182
 4445W        W 8496   1.572   4.878   3.589  0.1755  0.0310 -0.0064
 4446W        W 8497   5.018   4.227   4.106  0.5075 -0.1018  0.0599
 4447W        W 8498   9.243   6.892  13.270 -0.2808 -0.0874  0.1848
 4448W        W 8499   0.122   2.671  13.394 -0.2318 -0.1623  0.0212
 4449W        W 8500   8.054   5.127  13.930  0.0910 -0.0138 -0.0602
 4450W        W 8501   6.145   1.452   1.594  0.0152  0.1271  0.3531
 4451W        W 8502   3.880   3.741   5.359  0.2010  0.2397  0.0862
 4452W        W 8503   8.963   0.555   2.069  0.3151 -0.3236 -0.0625
 4453W        W 8504   4.726   1.874  12.801 -0.1211  0.1333 -0.2190
 4454W        W 8505   4.312   0.109  11.389  0.1378  0.3159  0.0843
 4455W        W 8506   7.773   7.975  12.654  0.0661 -0.1324 -0.0082
 4456W        W 8507   2.463   4.044  13.947  0.0592  0.0864 -0.0987
 4457W        W 8508   1.325   4.607   3.047 -0.0011  0.0099 -0.0586
 4458W        W 8509   6.449   1.938   1.966  0.2858  0.1818  0.0150
 4459W        W 8510   6.159   7.167   0.255 -0.0518 -0.3591 -0.1326
 4460W        W 8511   1.531   3.844   0.633 -0.0913  0.2586  0.0518
 4461W        W 8512   9.406   9.414   1.187  0.0998  0.2342 -0.1977
 4462W        W 8513   7.357   4.662   3.750 -0.1553  0.0581  0.0879
 4463W        W 8514   2.455   7.293   3.397 -0.0576  0.1346  0.0664
 4464W        W 8515   9.776   5.082   1.605 -0.0952  0.0641 -0.1997
 4465W        W 8516   3.111   8.780  13.519  0.1278 -0.2492  0.1298
 4466W        W 8517   6.367   2.468  12.444 -0.0977 -0.0266 -0.1781
 4467W        W 8518   8.032   6.367  12.582 -0.1810 -0.3626 -0.0251
 4468W        W 8519   7.820   9.843   8.825  0.2360  0.2094 -0.2220
 4469W        W 8520   4.838   0.014  13.713  0.0537 -0.2376  0.0382
 4470W        W 8521   5.253   9.873  10.869  0.0655 -0.2909  0.1272
 4471W        W 8522   5.956   1.230  10.922  0.1703 -0.0380  0.1438
 4472W        W 8523   3.073   2.872   0.700 -0.0995 -0.5568  0.2721
 4473W        W 8524   5.288  10.133   1.341  0.2009  0.0888  0.1160
 4474W        W 8525   0.545   5.913  10.558  0.0176  0.1558  0.4088
 4475W        W 8526   8.744   0.757   3.691 -0.0810 -0.1154 -0.0203
 4476W        W 8527   6.916   9.484  11.567 -0.1250  0.0118  0.0405
 4477W        W 8528   0.592   9.900  12.254 -0.1740 -0.0548  0.1373
 4478W        W 8529   7.479   3.838   1.648 -0.1217 -0.3102 -0.2622
 4479W        W 8530   9.847   0.018  10.607 -0.0813  0.3291 -0.1205
 4480W        W 8531   4.347   4.292   0.118  0.6011  0.1568 -0.0695
 4481W        W 8532   6.796   1.545   2.569  0.2696  0.3916  0.1242
 4482W        W 8533   2.782   1.811   3.050  0.0184 -0.0401 -0.0984
 4483W        W 8534   6.602   3.262  12.699  0.1045  0.1239 -0.1379
 4484W        W 8535   0.519   7.839   0.515 -0.2278 -0.3970  0.1036
 4485W        W 8536   9.282   0.814   9.717  0.0388 -0.0019  0.3077
 4486W        W 8537   2.944   6.538   3.099 -0.2674 -0.0458 -0.1041
 4487W        W 8538   7.774   0.472  13.644 -0.0376  0.1214  0.1841
 4488W        W 8539   1.917   6.600   0.642  0.1087 -0.0595 -0.0582
 4489W        W 8540  10.150   1.246  11.217  0.2710  0.1639 -0.1805
 4490W        W 8541   4.756   9.244   4.103  0.0440 -0.2080  0.2142
 4491W        W 8542   2.440   1.066   1.752  0.0107  0.2660  0.0743
 4492W        W 8543   5.904   9.391  12.308 -0.1424 -0.1410 -0.6670
 4493W        W 8544   8.001   6.834  13.517 -0.1024 -0.1184 -0.1902
 4494W        W 8545   9.660   1.207   3.691 -0.0112 -0.2138 -0.1278
 4495W        W 8546   2.051   6.907   2.201 -0.0599  0.1406 -0.3044
 4496W        W 8547   0.455   1.088  10.446 -0.2333  0.0935 -0.0031
 4497W        W 8548   4.849   3.582   9.145 -0.1356 -0.0363  0.1023
 4498W        W 8549   0.497   1.442   1.902  0.0881  0.1830 -0.2046
 4499W        W 8550   2.951   2.688  13.369 -0.1738 -0.1223  0.0488
 4500W        W 8551   4.730   1.526  10.078  0.0711 -0.1211  0.2912
 4501W        W 8552   2.657   9.798  10.195  0.0341 -0.0287  0.0162
 4502W        W 8553   4.375   6.724  10.500 -0.0028  0.1415  0.2487
 4503W        W 8554   9.309   8.794   4.744 -0.2183  0.2644  0.0310
 4504W        W 8555   2.719   7.069   2.957  0.0643 -0.1596  0.0259
 4505W        W 8556   0.792   0.739  12.239  0.0035  0.0187  0.0742
 4506W        W 8557   8.910   6.843   3.685  0.0221 -0.0697  0.0936
 4507W        W 8558   4.563   3.136   3.366 -0.0150 -0.1602 -0.5513
 4508W        W 8559   0.110   5.088  11.309 -0.3185  0.3727  0.1650
 4509W        W 8560   5.831   4.717   1.663  0.1634  0.0306  0.0806
 4510W        W 8561   5.945   8.664   3.755  0.1930  0.0926 -0.0257
 4511W        W 8562   5.151   7.550   3.589 -0.0410  0.1520 -0.5074
 4512W        W 8563   2.493   3.085   3.725  0.2058  0.2622 -0.2007
 4513W        W 8564   1.998   4.200   2.337  0.2422 -0.0761 -0.0793
 4514W        W 8565   8.340   2.081  10.133 -0.1873  0.1509 -0.0730
 4515W        W 8566   5.347   9.098  10.311 -0.1787 -0.2404 -0.0112
 4516W        W 8567   5.186   4.917  13.369 -0.1128  0.1798  0.1314
 4517W        W 8568   9.214   1.816  10.301 -0.4045 -0.0621  0.2302
 4518W        W 8569   8.150   1.005   2.948  0.0722 -0.2297 -0.1601
 4519W        W 8570   1.912   3.050   4.935 -0.1103 -0.3186  0.1675
 4520W        W 8571   0.268   8.896   0.172  0.1076  0.3136 -0.2834
 4521W        W 8572   4.490   0.103   9.324  0.0256 -0.3163 -0.0368
 4522W        W 8573   5.292   0.768  12.066 -0.1177 -0.0386  0.0255
 4523W        W 8574   2.543   1.548  12.454  0.2405 -0.3283  0.0799
 4524W        W 8575   4.152   3.178   9.205  0.0500 -0.1876 -0.0682
 4525W        W 8576   0.117   5.134   2.877 -0.3537  0.1911 -0.0070
 4526W        W 8577   2.286   0.446   3.098 -0.1071  0.0316  0.1355
 4527W        W 8578   8.543   5.389   1.730 -0.0537  0.0565 -0.0562
 4528W        W 8579   6.607   4.246   9.565  0.0409 -0.1751  0.0860
 4529W        W 8580   6.850   6.464   9.093 -0.0604  0.3807  0.2643
 4530W        W 8581   0.489   7.902   3.907 -0.1659  0.2258 -0.0595
 4531W        W 8582   8.718   5.804   2.266  0.0811  0.0420 -0.0019
 4532W        W 8583   9.647   1.345  13.622  0.0907  0.2282 -0.1294
 4533W        W 8584   0.978   8.477  11.577  0.0576  0.0372 -0.1364
 4534W        W 8585   6.169   2.952   1.828 -0.0947  0.0607  0.0699
 4535W        W 8586   3.278   5.284  12.815 -0.0441  0.0874 -0.1323
 4536W        W 8587   0.755   5.253  11.027  0.2109 -0.1594 -0.3529
 4537W        W 8588   9.173   5.688  12.019  0.4294  0.0811 -0.0308
 4538W        W 8589   1.943   9.765   2.262  0.0072 -0.1446 -0.2289
 4539W        W 8590   4.346   2.444   4.608 -0.2816  0.3256  0.4361
 4540W        W 8591   3.371   4.804  11.537  0.3375  0.2198  0.0518
 4541W        W 8592   8.088   2.377   1.709  0.0789  0.4433 -0.0453
 4542W        W 8593   3.283   1.018   3.016 -0.1429  0.3917 -0.0747
 4543W        W 8594   0.146   4.815   3.262  0.1180  0.0433 -0.0864
 4544W        W 8595   0.607   3.971  10.414  0.1855 -0.1244  0.2045
 4545W        W 8596   9.348   5.903   2.673  0.0088  0.0400  0.0431
 4546W        W 8597   2.374   2.019   3.694  0.1128 -0.1172 -0.2149
 4547W        W 8598   9.646   1.794   0.022 -0.1307  0.0967  0.0706
 4548W        W 8599   5.360   3.795   4.681 -0.0264 -0.2588  0.2060
 4549W        W 8600  10.111   1.744  13.271  0.0590  0.0275  0.0816
 4550W        W 8601   5.289   4.195   5.050  0.1739 -0.0662 -0.2894
 4551W        W 8602   6.080   1.236  12.332 -0.0427  0.2615  0.2617
 4552W        W 8603   3.554   9.290   2.741 -0.0750  0.0949 -0.0772
 4553W        W 8604   0.597   4.005   0.707 -0.0959  0.1966  0.0396
 4554W        W 8605   6.305   6.970  12.136 -0.2589  0.0516 -0.0955
 4555W        W 8606   4.259   2.754  11.713 -0.3906  0.0094  0.0649
 4556W        W 8607   3.482   0.235   3.474 -0.0124 -0.3093  0.4025
 4557W        W 8608   8.509   5.843   9.876  0.3647 -0.0411  0.0762
 4558W        W 8609   2.151   6.504   0.177 -0.0951  0.0800  0.1213
 4559W        W 8610   0.952   9.984   4.545 -0.3855 -0.1837 -0.1131
 4560W        W 8611   9.416   8.219  13.248  0.0417 -0.0347 -0.2910
 4561W        W 8612   8.662   6.895  12.359 -0.2095  0.2761  0.2280
 4562W        W 8613   1.878   9.721  12.024  0.2493 -0.1478  0.0818
 4563W        W 8614   5.679   1.029   4.481  0.0159 -0.2736 -0.4263
 4564W        W 8615   1.109   4.453   3.549 -0.1036 -0.0065  0.3184
 4565W        W 8616   2.128   8.487   1.259  0.1076  0.0886  0.0452
 4566W        W 8617   1.576   0.241  11.419 -0.2279  0.1053  0.3449
 4567W        W 8618   6.908   9.989  13.375  0.1512  0.2030 -0.2249
 4568W        W 8619   3.233   6.064   0.425 -0.0363  0.3399 -0.0959
 4569W        W 8620   4.272  10.022  10.133 -0.0184 -0.1772 -0.1889
 4570W        W 8621   3.798   5.062  11.582 -0.2056 -0.2341 -0.2656
 4571W        W 8622   9.025   9.770  13.836  0.1596  0.2588 -0.1144
 4572W        W 8623   0.493   6.358  11.484  0.0742 -0.0343  0.3240
 4573W        W 8624   3.531   6.488  13.419  0.1705  0.3749  0.0096
 4574W        W 8625   3.148   8.826   9.869  0.3116  0.2555  0.0652
 4575W        W 8626   0.853   4.561   1.918 -0.0395 -0.0368 -0.1303
 4576W        W 8627   4.257   3.529   8.840 -0.0316  0.2578 -0.1507
 4577W        W 8628   3.407   7.046   4.719  0.1019  0.0435  0.2999
 4578W        W 8629   5.688   6.660   4.242  0.0355  0.0847  0.0476
 4579W        W 8630   1.347   3.948   1.436  0.1386 -0.0477 -0.0591
 4580W        W 8631   6.219   1.246   5.160  0.1492 -0.3004  0.2151
 4581W        W 8632   3.164   8.972  10.362 -0.1096 -0.1414 -0.0872
 4582W        W 8633   1.134   1.055   1.591  0.3171 -0.4852 -0.0704
 4583W        W 8634   0.994   9.926   3.168 -0.2422 -0.0981 -0.1297
 4584W        W 8635   9.371   5.835   2.204  0.2577  0.2208  0.1738
 4585W        W 8636   6.040   8.681  14.005  0.3824 -0.0463  0.0247
 4586W        W 8637   0.695   9.327   0.246  0.1462 -0.2352  0.0444
 4587W        W 8638   9.639   1.845   0.984 -0.0115  0.1039 -0.1528
 4588W        W 8639   4.408   3.561  10.686  0.5664  0.3169  0.3918
 4589W        W 8640   4.058   8.026   0.221  0.1064  0.0695  0.4266
 4590W        W 8641   9.533   2.327  12.100 -0.0963 -0.0460  0.0910
 4591W        W 8642   3.978   6.197   8.910 -0.1044 -0.3487  0.2092
 4592W        W 8643   0.091   1.427  12.742  0.1445  0.0205  0.0486
 4593W        W 8644   4.247  10.048   8.931 -0.3489 -0.0017  0.1219
 4594W        W 8645   6.015   3.794  10.944 -0.0874 -0.3076 -0.0279
 4595W        W 8646   7.335   2.056  13.870 -0.0328 -0.3891  0.0853
 4596W        W 8647   8.192   7.502   9.313 -0.5784 -0.0815 -0.0829
 4597W        W 8648   1.926   1.318   1.919  0.2937  0.0087 -0.0303
 4598W        W 8649   9.331   3.497   0.381  0.2282  0.1455  0.1088
 4599W        W 8650   2.472   4.172   2.825 -0.0161 -0.2861  0.0186
 4600W        W 8651   7.265   3.126  11.612  0.2139  0.3329 -0.0742
 4601W        W 8652   3.682   3.976  12.006 -0.2517 -0.1931 -0.1065
 4602W        W 8653   0.790   1.442  13.849  0.1821  0.2530 -0.0562
 4603W        W 8654   6.534   2.694  11.858 -0.0767  0.0731 -0.2949
 4604W        W 8655   3.415   1.894   0.763 -0.0152  0.2793 -0.1092
 4605W        W 8656   9.857   7.650  10.212 -0.0625 -0.1457  0.1809
 4606W        W 8657   5.061   9.555  13.898  0.1005  0.3902 -0.0793
 4607W        W 8658   1.253   5.374   3.723  0.0118 -0.0343 -0.0114
 4608W        W 8659   4.844   1.298   1.389 -0.0597  0.3302 -0.0251
 4609W        W 8660   2.479   7.742   3.639  0.0299  0.1848  0.6015
 4610W        W 8661   8.724   6.218   2.630  0.4144 -0.0160  0.0544
 4611W        W 8662   8.092   4.770   1.601 -0.0731  0.1365  0.2069
 4612W        W 8663   3.634   9.773  10.883  0.2005 -0.1610 -0.1031
 4613W        W 8664   3.907   0.558  11.067 -0.0883  0.1679 -0.0073
 4614W        W 8665   2.982   3.923   9.894  0.1453  0.1184 -0.2279
 4615W        W 8666   1.040   9.604  12.550 -0.2715 -0.2779  0.1930
 4616W        W 8667   3.005   0.976   9.312  0.0346 -0.0657 -0.0324
 4617W        W 8668   0.953   0.217  11.351 -0.3691  0.0607 -0.1373
 4618W        W 8669   4.109   1.980   2.541 -0.0513  0.0114 -0.0927
 4619W        W 8670   7.918   7.628  11.297  0.1196  0.1133  0.0540
 4620W        W 8671   0.717   8.968   1.673 -0.0148 -0.0143 -0.1769
 4621W        W 8672   2.059   3.351   1.793 -0.3114  0.2829 -0.2840
 4622W        W 8673   6.265   1.293   2.548  0.2514  0.1239 -0.1419
 4623W        W 8674   2.635   4.551   1.596  0.2991  0.1199 -0.0630
 4624W        W 8675   1.025   9.477   0.916  0.2517  0.0739 -0.1462
 4625W        W 8676  10.112   9.449   2.168  0.2613  0.0628  0.1558
 4626W        W 8677   7.037   8.140  10.070  0.1148 -0.2183  0.0565
 4627W        W 8678   1.590   3.394   4.684 -0.0310  0.3062 -0.0502
 4628W        W 8679   4.563   3.125  12.339 -0.0226 -0.1687 -0.2378
 4629W        W 8680   5.938   7.624   1.272 -0.0340  0.0913 -0.0512
 4630W        W 8681   2.083   1.414  12.578  0.2860 -0.0070  0.1912
 4631W        W 8682   0.221   8.853   5.305  0.1253  0.1059  0.0924
 4632W        W 8683   7.302   5.779   0.402  0.3636 -0.2479 -0.1720
 4633W        W 8684   0.594   4.737  12.006 -0.0764  0.3004  0.2504
 4634W        W 8685   4.713   7.440   2.734  0.3171 -0.2640  0.0221
 4635W        W 8686   3.529   1.565   3.865 -0.0614  0.0636  0.0864
 4636W        W 8687   2.628   1.804  13.568 -0.2117  0.0725  0.0075
 4637W        W 8688   6.250   9.954   3.804 -0.1539 -0.1547 -0.1378
 4638W        W 8689   3.679   7.822  13.705  0.0228 -0.0325  0.0501
 4639W        W 8690   7.474   0.421   9.620  0.1951  0.0105 -0.1779
 4640W        W 8691   6.662   2.625   9.676  0.0609 -0.0191  0.0580
 4641W        W 8692   0.323   8.090  10.486  0.1459 -0.1336 -0.0062
 4642W        W 8693   4.774   7.175   3.956 -0.0254 -0.3642  0.0287
 4643W        W 8694   9.638   8.713   1.754  0.0368  0.0807 -0.1163
 4644W        W 8695   5.000   9.336   4.611  0.1909  0.0322  0.1054
 4645W        W 8696   6.057   2.274   1.773 -0.0964 -0.0000 -0.2798
 4646W        W 8697   6.505   9.021   8.785 -0.0605 -0.1184 -0.0082
 4647W        W 8698   7.941   7.509  12.416  0.1197  0.1332  0.0831
 4648W        W 8699   8.034   8.521   2.405  0.1048 -0.2068  0.0016
 4649W        W 8700   7.418   5.827   2.129 -0.4407  0.0045  0.0689
 4650W        W 8701   2.272   1.294   1.336 -0.1265  0.2567  0.2216
 4651W        W 8702   7.565   1.327   0.613  0.2691  0.0653  0.1261
 4652W        W 8703   8.831   0.837   0.429 -0.1653 -0.1295  0.4870
 4653W        W 8704   1.801   7.633  13.547 -0.1103  0.0206  0.0991
 4654W        W 8705   3.860   9.293   4.063 -0.0800 -0.1332 -0.0523
 4655W        W 8706   8.056   4.627  12.810  0.0682 -0.1577 -0.1634
 4656W        W 8707   6.536   4.646  12.568 -0.3143  0.1919  0.1147
 4657W        W 8708   5.801   7.103   8.207  0.1711  0.3584 -0.0614
 4658W        W 8709   3.833   1.263   0.412  0.0431  0.2210  0.0575
 4659W        W 8710   8.406   8.135   2.751  0.0056 -0.2530  0.4229
 4660W        W 8711   7.935   4.985  13.486 -0.2430  0.1773 -0.0221
 4661W        W 8712   7.775   2.557   9.013 -0.2847 -0.2131  0.0036
 4662W        W 8713   5.971   2.262  12.214  0.0753  0.0769 -0.2688
 4663W        W 8714   7.849   0.743   0.003  0.0528 -0.1555  0.0010
 4664W        W 8715   0.225   7.448   9.466 -0.0238  0.0608  0.0167
 4665W        W 8716   0.971   3.875   1.107  0.0504  0.1582 -0.1594
 4666W        W 8717   6.860   1.699   3.713 -0.2732  0.1906 -0.1527
 4667W        W 8718   1.739   7.746  10.854 -0.1952 -0.2109  0.0558
 4668W        W 8719   7.267   4.374  12.461  0.1928  0.1133  0.0369
 4669W        W 8720   6.670   1.652  11.565  0.0886 -0.2928 -0.2122
 4670W        W 8721   4.014   2.583   8.997 -0.1061 -0.0202 -0.2293
 4671W        W 8722   9.874   2.988  10.865  0.1273  0.2548  0.0374
 4672W        W 8723   6.045   2.189   9.956 -0.3144  0.3669  0.0449
 4673W        W 8724   3.005   0.806   2.045  0.0001 -0.2117 -0.2951
 4674W        W 8725   2.924   1.966  12.459  0.1751 -0.2271  0.0269
 4675W        W 8726   5.418   0.344   1.674  0.0905 -0.0516 -0.0612
 4676W        W 8727   1.278   7.537   1.415 -0.0015  0.3688  0.0697
 4677W        W 8728   5.375   6.825  12.234 -0.1158 -0.4816  0.2490
 4678W        W 8729   5.635   3.040   1.803 -0.2313  0.1279 -0.0887
 4679W        W 8730   0.879   3.608  10.258 -0.0158 -0.0712  0.2059
 4680W        W 8731   9.466   8.933   2.181  0.1156 -0.0600  0.0282
 4681W        W 8732   0.372   0.479   3.059 -0.3874 -0.3564 -0.1167
 4682W        W 8733   9.531   9.968   4.259  0.1848  0.1878 -0.0999
 4683W        W 8734   2.871   1.307   1.954  0.2546 -0.2683 -0.0850
 4684W        W 8735   5.260   6.566   4.396  0.1621 -0.0967 -0.3045
 4685W        W 8736   1.912   3.327   2.626 -0.3212  0.4117  0.1457
 4686W        W 8737   3.307   9.325  13.714 -0.0956 -0.2113 -0.0503
 4687W        W 8738   7.055   3.349   3.903 -0.1262  0.2509 -0.1333
 4688W        W 8739   4.032   9.508  13.041 -0.0779  0.2514  0.3214
 4689W        W 8740   7.372   1.557   3.354 -0.0595  0.2499 -0.4575
 4690W        W 8741   8.675   8.934   8.596  0.4423  0.1935 -0.0437
 4691W        W 8742  10.066   2.166   1.758  0.1897  0.0128  0.1422
 4692W        W 8743   4.208   3.099   9.938 -0.1035  0.4078 -0.2099
 4693W        W 8744   3.410   3.939   0.031 -0.1056 -0.1108 -0.0261
 4694W        W 8745   1.448   8.207  11.695 -0.0424 -0.0636 -0.1055
 4695W        W 8746   5.232   0.645   3.815  0.0116  0.0668  0.0800
 4696W        W 8747   4.538   1.681   2.475 -0.3383  0.1623 -0.1132
 4697W        W 8748  10.077  10.051  12.951 -0.0305  0.0859  0.0703
 4698W        W 8749   1.230   4.732   2.446 -0.4313 -0.3202 -0.2847
 4699W        W 8750   9.285   8.057   2.841 -0.0918 -0.1157  0.1958
 4700W        W 8751   0.311   9.902   1.067  0.0135  0.4135 -0.0802
 4701W        W 8752   0.688   4.499   0.659  0.0016 -0.3356  0.1953
 4702W        W 8753   1.137   1.270   9.831  0.2382  0.0766  0.1584
 4703W        W 8754   4.988   6.640   2.760 -0.4302  0.0769 -0.4277
 4704W        W 8755   3.810   0.753  10.106 -0.1070  0.1707  0.2302
 4705W        W 8756   7.170   3.886  12.470  0.0786  0.1416  0.0424
 4706W        W 8757   6.423   1.377   2.086 -0.0559  0.0932 -0.1807
 4707W        W 8758   9.591   4.945  13.617  0.2002 -0.0011 -0.0265
 4708W        W 8759   0.677   6.540  11.062 -0.1205 -0.0942  0.0064
 4709W        W 8760   6.294   8.595   4.415 -0.3181  0.1535 -0.0456
 4710W        W 8761   4.984   5.005   2.016  0.1453  0.0611  0.1166
 4711W        W 8762   5.461   3.843  10.858 -0.1191  0.1376 -0.0039
 4712W        W 8763   6.880   1.099   8.783 -0.0788 -0.1551  0.1019
 4713W        W 8764   8.004   8.584  13.061 -0.0877 -0.1525 -0.4174
 4714W        W 8765   7.070   6.139   1.816 -0.1688 -0.0825 -0.1913
 4715W        W 8766   7.219   7.795   3.520 -0.1977 -0.3066 -0.0268
 4716W        W 8767   6.232   7.462   3.949 -0.0315  0.2880 -0.2465
 4717W        W 8768   6.139   4.427   9.343  0.1690  0.1256 -0.0731
 4718W        W 8769   7.952   3.003  11.038 -0.0596 -0.0977  0.1800
 4719W        W 8770   1.817   0.438   3.072 -0.0368  0.4001  0.0854
 4720W        W 8771   1.757   0.927  12.427  0.0017  0.2981  0.0807
 4721W        W 8772   7.337   3.761  13.104  0.0894  0.2133 -0.1382
 4722W        W 8773   5.832   6.790  12.122  0.1462  0.2227  0.1472
 4723W        W 8774   2.904   8.566   2.863  0.2051  0.0935  0.3272
 4724W        W 8775   2.936   4.908   2.644 -0.2979  0.1969  0.1245
 4725W        W 8776   0.778   4.814  12.611 -0.3342 -0.0047 -0.0322
 4726W        W 8777   9.898   5.527   1.561  0.1782 -0.0051  0.0290
 4727W        W 8778   5.215   5.719   3.861  0.0327 -0.2308  0.3547
 4728W        W 8779   8.991   1.430   2.193  0.1792  0.0843  0.0329
 4729W        W 8780   3.217   9.814  13.879 -0.2120 -0.0360  0.2105
 4730W        W 8781   6.499   5.106  11.274 -0.1071 -0.1247 -0.0707
 4731W        W 8782   9.721   0.249   5.074  0.1545  0.2563  0.1928
 4732W        W 8783   5.624   3.748   3.504  0.2032 -0.0826  0.1149
 4733W        W 8784   1.069   9.605   9.884 -0.0659 -0.0211 -0.4107
 4734W        W 8785   0.459   3.840   1.187  0.1113  0.0424 -0.2187
 4735W        W 8786   0.156   8.360   5.172 -0.0086  0.0083 -0.2898
 4736W        W 8787   9.814   5.775   0.646 -0.1037 -0.1114  0.0738
 4737W        W 8788   0.585   7.311   0.662  0.0751 -0.0853 -0.2703
 4738W        W 8789   1.701   5.889   2.629 -0.0944  0.1668 -0.2898
 4739W        W 8790   2.535   4.847  13.517 -0.0303 -0.2054 -0.1200
 4740W        W 8791   5.808   4.907   9.884  0.0006  0.1606 -0.0165
 4741W        W 8792   5.761   2.334   0.673 -0.0737 -0.1513 -0.0776
 4742W        W 8793   7.503   2.035  12.662  0.0476  0.2833  0.0587
 4743W        W 8794   9.605   0.782   2.119 -0.0237 -0.0122 -0.2532
 4744W        W 8795   5.035   8.483   4.584 -0.0604  0.0682 -0.1830
 4745W        W 8796   1.167   7.861   9.636  0.2265  0.0614  0.1224
 4746W        W 8797   7.782   3.831   0.984 -0.2999 -0.3250  0.1598
 4747W        W 8798   2.713   5.981   3.104 -0.0447 -0.1866 -0.0295
 4748W        W 8799   2.581   3.545   2.017 -0.2778 -0.0642  0.2799
 4749W        W 8800   4.000   3.924   9.854  0.0749 -0.1083  0.1216
 4750W        W 8801   0.659   3.800   3.783 -0.1501 -0.2391  0.1119
 4751W        W 8802   4.025   9.755  10.495  0.0999 -0.2075  0.1477
 4752W        W 8803   6.506   2.579   1.743 -0.2378 -0.2243  0.1494
 4753W        W 8804   5.247   0.474  12.965 -0.0916 -0.1835  0.1780
 4754W        W 8805   6.911   8.892  11.516  0.2866 -0.4769  0.2023
 4755W        W 8806   6.028   7.310   3.228 -0.1100 -0.0633  0.0730
 4756W        W 8807   5.279   0.822   9.785  0.2234 -0.0985 -0.1480
 4757W        W 8808   3.969   7.981  12.805 -0.0269 -0.3003  0.2066
 4758W        W 8809   0.395   5.565   0.264  0.1510  0.3586  0.2292
 4759W        W 8810   8.545   4.037   2.229  0.0945 -0.1694  0.3268
 4760W        W 8811   7.680   9.754   2.968 -0.2222 -0.0294  0.0165
 4761W        W 8812   9.533   6.031  13.420 -0.0013 -0.1411 -0.1084
 4762W        W 8813   6.329   1.762   9.739 -0.0905  0.2369 -0.1162
 4763W        W 8814   8.452   4.190  12.828  0.0897 -0.3102 -0.1028
 4764W        W 8815   3.803   4.595  13.327  0.0214  0.0418  0.2413
 4765W        W 8816   3.877   7.010   3.559 -0.0801  0.1947  0.1354
 4766W        W 8817  10.129   2.223   0.798  0.1814  0.1925  0.1940
 4767W        W 8818   5.671   9.122   8.579  0.2043  0.0026 -0.1767
 4768W        W 8819   2.315   9.269  10.059  0.1613 -0.1095  0.1269
 4769W        W 8820   5.078   6.431  10.211  0.4036  0.1426 -0.0745
 4770W        W 8821  10.034   0.802  13.205  0.0042  0.0115 -0.0063
 4771W        W 8822   8.371   8.721  13.412  0.3827 -0.2866 -0.0712
 4772W        W 8823   4.458   3.083   0.433 -0.3066 -0.0303 -0.1083
 4773W        W 8824   3.978   2.592  11.235  0.0982  0.2902 -0.2002
 4774W        W 8825   5.094   7.032   3.596 -0.2611  0.1775  0.2993
 4775W        W 8826   0.807   8.401  10.888 -0.3930  0.0678 -0.2977
 4776W        W 8827   4.379   6.720   2.866 -0.0196  0.1444  0.2749
 4777W        W 8828   8.562   4.045  11.462  0.2404  0.0065  0.1036
 4778W        W 8829   8.288   3.101  12.360  0.0015  0.1531 -0.2620
 4779W        W 8830   2.936   7.361  13.579  0.1990  0.0031  0.2159
 4780W        W 8831   5.041   2.760  12.227 -0.2568 -0.0222  0.0094
 4781W        W 8832   4.846   4.082   4.847  0.4273 -0.3123  0.1581
 4782W        W 8833   9.572   1.984  13.048 -0.1729  0.1362  0.1241
 4783W        W 8834   0.334   9.514   1.553 -0.1253 -0.1287  0.2226
 4784W        W 8835   6.453   4.125  12.716 -0.3531 -0.0289  0.1633
 4785W        W 8836   5.644   1.257   1.662 -0.1059 -0.0280 -0.2708
 4786W        W 8837   6.946   0.127  12.992 -0.0682  0.1331  0.2351
 4787W        W 8838  10.088   9.180  11.934 -0.2132  0.0728  0.1411
 4788W        W 8839   0.670   3.041  10.303  0.1211  0.4157  0.1936
 4789W        W 8840   7.756   3.248   1.138 -0.0914  0.0616 -0.1566
 4790W        W 8841   8.930   8.926   0.911  0.2696 -0.2117 -0.0720
 4791W        W 8842   1.003   9.328  10.653 -0.2417 -0.1284 -0.2590
 4792W        W 8843   4.221   4.711   2.492 -0.0997  0.2033  0.0037
 4793W        W 8844   6.611   7.101   1.085 -0.2404  0.2422 -0.1478
 4794W        W 8845   1.680   9.190  11.229  0.1502 -0.0135 -0.1034
 4795W        W 8846   7.933   5.369   2.154  0.1916  0.4295 -0.1041
 4796W        W 8847  10.144   5.465   3.306  0.1086  0.1707  0.0197
 4797W        W 8848   4.919   6.013  11.483  0.0835 -0.1083 -0.0543
 4798W        W 8849   9.810   2.701  13.392 -0.0253  0.1111 -0.2278
 4799W        W 8850   2.897   1.786  10.454  0.1620 -0.3324  0.0707
 4800W        W 8851   9.609   9.068  10.171 -0.2002  0.3954 -0.0906
 4801W        W 8852   6.494   5.394  12.101 -0.1379  0.3131  0.1344
 4802W        W 8853   2.316   8.547   9.173  0.1368 -0.0010  0.0581
 4803W        W 8854   8.647   1.757  12.978 -0.0294  0.0944 -0.0435
 4804W        W 8855   8.205   2.658  13.054 -0.2468 -0.0170 -0.1196
 4805W        W 8856   6.807   2.930   1.372 -0.0136 -0.2778 -0.5479
 4806W        W 8857   7.225   5.759  11.392  0.2684 -0.1298 -0.0474
 4807W        W 8858   4.826   8.265   5.600 -0.3352  0.0262 -0.0927
 4808W        W 8859   6.110   2.034   0.446  0.2036  0.0193  0.2581
 4809W        W 8860   7.953   4.522  11.538 -0.2516 -0.1175 -0.2965
 4810W        W 8861   4.443   6.145  13.178  0.2284 -0.0628  0.0067
 4811W        W 8862   7.680   8.841   1.472 -0.2226  0.1313 -0.0697
 4812W        W 8863   2.769   3.241   1.078  0.1701  0.0115 -0.1208
 4813W        W 8864   9.272   4.477  10.698 -0.0270 -0.2907 -0.0659
 4814W        W 8865   2.849   9.169   1.171  0.0077 -0.0436 -0.0616
 4815W        W 8866  10.029   4.792  10.961 -0.1941 -0.0825 -0.0734
 4816W        W 8867   2.244   9.102   3.320 -0.0086  0.2691  0.1063
 4817W        W 8868   3.007   3.194  10.390 -0.1284 -0.1332 -0.1157
 4818W        W 8869   0.571   0.008  13.683 -0.1952  0.0735  0.4312
 4819W        W 8870   8.168   9.084  12.190  0.0603  0.2913 -0.1697
 4820W        W 8871   5.786   7.551  13.659  0.1904 -0.0424 -0.2973
 4821W        W 8872   3.528   5.760   0.720  0.2694  0.2226  0.0620
 4822W        W 8873   3.361   9.495   0.218  0.2024 -0.1259 -0.0533
 4823W        W 8874   0.806   1.030   0.632  0.3050 -0.1582  0.2675
 4824W        W 8875   4.017   1.099  10.497  0.0528 -0.5495 -0.0648
 4825W        W 8876   1.289   5.834   3.601 -0.2589 -0.2313  0.3651
 4826W        W 8877   0.735   5.539  11.934 -0.0505  0.0208  0.1907
 4827W        W 8878   2.610  10.151  11.080  0.1589  0.0277  0.0914
 4828W        W 8879   8.710   2.056   3.976  0.1442 -0.4374 -0.1400
 4829W        W 8880   1.434   0.282   3.988  0.2006  0.1670  0.1438
 4830W        W 8881   4.709   0.383   0.887  0.0728 -0.3485 -0.1395
 4831W        W 8882   5.743   1.235   4.936  0.0715  0.1467 -0.2363
 4832W        W 8883   8.752   5.955  12.856  0.0352  0.0272  0.0640
 4833W        W 8884   4.256   3.819   0.197  0.2735  0.1745 -0.0318
 4834W        W 8885   0.080   6.780  12.192 -0.3172 -0.0463 -0.0820
 4835W        W 8886   2.355   4.748   4.024 -0.3237 -0.0238 -0.0566
 4836W        W 8887   3.853   9.256  12.652  0.1157  0.1911 -0.1428
 4837W        W 8888   6.787   3.996   2.479 -0.1821  0.0076 -0.1958
 4838W        W 8889   8.893   8.682  11.158 -0.0636  0.0753  0.0043
 4839W        W 8890   1.080   0.090   2.724  0.1520 -0.0917  0.0566
 4840W        W 8891   8.188   4.708  12.309 -0.1424 -0.2667 -0.1911
 4841W        W 8892   3.956   5.893   1.934 -0.2022  0.1133  0.3500
 4842W        W 8893   0.686   4.883   1.021  0.1431 -0.3387  0.2092
 4843W        W 8894   8.965   3.957  12.893 -0.1032 -0.0081  0.1220
 4844W        W 8895   5.800   9.437  11.840  0.0397 -0.0701  0.1903
 4845W        W 8896   7.530   8.140   3.178 -0.1827  0.1224 -0.0399
 4846W        W 8897   5.139   1.509  12.726 -0.4263  0.0291 -0.4232
 4847W        W 8898   0.876   8.941   3.152 -0.0153 -0.1840 -0.1756
 4848W        W 8899   2.842   1.121   4.356 -0.0411 -0.6541  0.0207
 4849W        W 8900   3.194   1.527  12.462  0.1070 -0.1664 -0.0665
 4850W        W 8901   8.990   6.355  13.348  0.1743 -0.1696 -0.0911
 4851W        W 8902   4.678   9.082   3.625 -0.0711  0.1570 -0.0055
 4852W        W 8903  10.020   7.502  14.013  0.1395 -0.0707 -0.1581
 4853W        W 8904   5.869   5.461   1.173 -0.0463  0.1959 -0.0612
 4854W        W 8905   6.853   4.069   0.329 -0.2069  0.1571  0.1644
 4855W        W 8906   7.799   4.308  10.138 -0.0873 -0.0774 -0.0709
 4856W        W 8907   0.084   9.150  13.643  0.0262  0.2310 -0.2010
 4857W        W 8908   5.271   9.974  10.351 -0.0211  0.0032 -0.4202
 4858W        W 8909   5.890   5.182   2.724 -0.0490  0.4084  0.1420
 4859W        W 8910   8.650   0.397   1.647  0.1086  0.1461  0.3288
 4860W        W 8911   1.804   1.117  10.691 -0.1186  0.2674  0.1515
 4861W        W 8912   6.326   1.898  12.074 -0.1615  0.2542 -0.4501
 4862W        W 8913   6.882   1.048  13.011  0.0627  0.2040 -0.1049
 4863W        W 8914   7.051   1.351  11.408  0.0252 -0.0988 -0.0413
 4864W        W 8915   8.032   0.112  12.075  0.1336  0.1959 -0.1258
 4865W        W 8916   0.179   3.954  12.783  0.0930 -0.0249  0.2342
 4866W        W 8917   4.716   3.110  10.719 -0.2940  0.4267  0.0296
 4867W        W 8918   9.487   1.960   1.470 -0.4404  0.2196  0.0239
 4868W        W 8919   7.719   7.888   4.229 -0.0156 -0.0388 -0.2110
 4869W        W 8920   2.939   8.204   2.441 -0.3544 -0.1164  0.2465
 4870W        W 8921   2.334   1.300   4.219 -0.3782  0.0527 -0.5937
 4871W        W 8922   1.772   7.672   1.593 -0.0206  0.3776 -0.2871
 4872W        W 8923   2.284   2.578  12.720  0.2605  0.2145 -0.1709
 4873W        W 8924   9.681   2.998   1.556 -0.0463 -0.1459  0.3616
 4874W        W 8925   3.008   7.138   4.220  0.0428  0.1026  0.1361
 4875W        W 8926   5.930   0.864  12.803  0.0961  0.4300  0.0080
 4876W        W 8927   3.950   0.404  11.574  0.2379 -0.1398  0.1229
 4877W        W 8928   5.567   8.828   0.834  0.0103 -0.3262  0.3233
 4878W        W 8929   1.241   7.140   2.845  0.1412 -0.1710 -0.0639
 4879W        W 8930   9.962   0.354   3.390 -0.1733 -0.0625  0.2669
 4880W        W 8931   2.673   7.151  13.206  0.3233  0.7485  0.1593
 4881W        W 8932   1.453   8.614  13.403  0.2059  0.3282  0.0102
 4882W        W 8933   6.013   9.489   4.050  0.0430  0.0259 -0.2066
 4883W        W 8934   7.547   8.573   3.991  0.0209  0.0117 -0.0571
 4884W        W 8935   3.442   3.588  13.591 -0.3101  0.1471  0.0842
 4885W        W 8936   5.464   4.450   9.890  0.1629  0.0838  0.0617
 4886W        W 8937   6.688   1.555  10.973 -0.1261 -0.0067  0.5165
 4887W        W 8938   2.132   0.562   9.219 -0.0824  0.0628 -0.1568
 4888W        W 8939   6.106   8.095   1.266  0.1953  0.1728  0.0363
 4889W        W 8940   6.389   5.836  13.250  0.0870 -0.2419 -0.2295
 4890W        W 8941   7.126   1.218   2.806  0.0204 -0.1502 -0.1138
 4891W        W 8942   0.543   1.335   9.552 -0.0087  0.1559  0.0621
 4892W        W 8943   9.340   8.001   4.641 -0.2068 -0.0428  0.0675
 4893W        W 8944   3.674   2.162  12.979  0.1946 -0.0045  0.0711
 4894W        W 8945   8.173   7.660  12.827 -0.4821 -0.0596 -0.0901
 4895W        W 8946   0.937   6.717  11.438  0.2101 -0.3681  0.1584
 4896W        W 8947   9.195   2.296   0.059  0.0914  0.1385 -0.2750
 4897W        W 8948   2.137   1.651  13.524 -0.0302 -0.2162 -0.1105
 4898W        W 8949   8.399   7.598   9.867 -0.0851  0.0169  0.3321
 4899W        W 8950   3.717   1.552  11.059  0.2005 -0.1739 -0.3497
 4900W        W 8951  10.099   7.678   2.430 -0.0189  0.0089 -0.0401
 4901W        W 8952   3.080   3.741  10.335 -0.2327  0.0387 -0.1619
 4902W        W 8953   3.170  10.134  11.737  0.2899  0.0762  0.0514
 4903W        W 8954   7.603   7.745  11.665  0.3889 -0.1397  0.0702
 4904W        W 8955   7.205  10.010   4.252 -0.0756 -0.0854  0.2813
 4905W        W 8956   8.279   6.360   3.236 -0.2660  0.1297  0.1481
 4906W        W 8957   3.441   1.956  12.463 -0.1396  0.0184  0.1557
 4907W        W 8958   4.956   3.608   9.943  0.1538 -0.2318 -0.0555
 4908W        W 8959   2.995   4.627  10.846 -0.0270  0.1383 -0.0262
 4909W        W 8960   1.453   1.827   9.210  0.1915 -0.0572  0.2522
 4910W        W 8961   8.024   0.498   8.675  0.1168 -0.3494 -0.0951
 4911W        W 8962   8.231   8.346  12.688  0.0139  0.0123  0.0051
 4912W        W 8963   6.785   1.818  10.340  0.2934 -0.1623  0.0618
 4913W        W 8964   2.489   9.148   0.257 -0.1877 -0.0606 -0.0124
 4914W        W 8965   3.091   8.978  12.312  0.0869  0.2164 -0.4177
 4915W        W 8966   8.228   1.103   3.469 -0.2253 -0.0657 -0.0364
 4916W        W 8967   1.625   0.312   0.582  0.1815 -0.1285  0.5221
 4917W        W 8968   2.138   0.361   2.149 -0.3989  0.1752 -0.1801
 4918W        W 8969   7.193   6.563  10.799  0.2138 -0.3641 -0.1521
 4919W        W 8970   0.177   8.130   2.283  0.5646  0.0247  0.0748
 4920W        W 8971   0.836   3.896  10.879 -0.1584 -0.0694 -0.0448
 4921W        W 8972   8.092   5.565   3.573  0.0650 -0.0477  0.0730
 4922W        W 8973   4.234   0.908  12.017 -0.0726 -0.1874  0.0667
 4923W        W 8974   3.376   9.880   2.497  0.0382 -0.4277  0.2702
 4924W        W 8975   3.706   1.561  12.679  0.1744 -0.3782 -0.2320
 4925W        W 8976   7.002   8.628  10.437  0.0132 -0.1265 -0.2513
 4926W        W 8977   1.999   2.180   1.172  0.1795  0.2618 -0.0129
 4927W        W 8978   2.390   5.845   3.684  0.0812  0.0714  0.0144
 4928W        W 8979   0.728   3.916  12.545 -0.2191 -0.1716 -0.2653
 4929W        W 8980   5.697   4.350  11.619  0.0044 -0.1945 -0.0837
 4930W        W 8981   9.451   6.542  12.567 -0.1890 -0.0299  0.0357
 4931W        W 8982   8.656   1.269   3.678 -0.0706  0.1209  0.1803
 4932W        W 8983   2.754   9.797   1.337  0.1343  0.1411 -0.0762
 4933W        W 8984   0.985   8.645  13.109 -0.0895  0.3203 -0.3189
 4934W        W 8985   1.969   4.110   9.632  0.1425 -0.1719 -0.0711
 4935W        W 8986   4.916   4.503   1.159  0.1906  0.1403 -0.0154
 4936W        W 8987   4.743   0.609   3.481  0.2106 -0.0890  0.1473
 4937W        W 8988   1.789   6.609   1.206  0.2013  0.0651  0.0813
 4938W        W 8989   2.562   8.482   2.534 -0.2493 -0.2205  0.1196
 4939W        W 8990   2.056   0.844   1.962  0.0429  0.4157 -0.1855
 4940W        W 8991   2.331   2.039  11.016 -0.2336  0.0871 -0.1978
 4941W        W 8992   8.019   1.464   0.709  0.1779  0.1622 -0.2085
 4942W        W 8993   2.026   0.711  12.905 -0.0724 -0.1859  0.1200
 4943W        W 8994   2.512   9.535   4.098  0.0202  0.1700 -0.3938
 4944W        W 8995   2.095   3.665  11.325  0.1485 -0.3598 -0.0856
 4945W        W 8996   4.500   3.470  10.069 -0.0762  0.0615  0.1347
 4946W        W 8997   4.142   3.351  13.972 -0.1297  0.2077  0.2498
 4947W        W 8998   9.908   8.692  10.158  0.0474 -0.1577 -0.1176
 4948W        W 8999   0.944   6.628   3.518  0.0990 -0.0909  0.1148
 4949W        W 9000   2.245   7.678  10.682 -0.1475  0.2456  0.2119
 4950W        W 9001   9.802   5.959   2.508 -0.0909 -0.0815 -0.0389
 4951W        W 9002   6.952   7.656   0.177 -0.0184  0.1528  0.0495
 4952W        W 9003   4.849   8.024  10.045 -0.0897 -0.0688  0.1341
 4953W        W 9004   7.573   3.049  12.609 -0.1804  0.2191 -0.1721
 4954W        W 9005   6.526   6.857   4.353 -0.1403  0.0838 -0.2563
 4955W        W 9006   3.281   0.792   4.280 -0.2461  0.0523 -0.1060
 4956W        W 9007   9.594   1.025   1.046 -0.0706 -0.0341  0.4488
 4957W        W 9008   7.084   6.101  14.041 -0.0426  0.1248 -0.0905
 4958W        W 9009   2.678   1.275  10.534  0.0432 -0.2778 -0.1396
 4959W        W 9010  10.078   5.252  10.745  0.3499  0.1252 -0.0231
 4960W        W 9011   9.868   3.474   0.292  0.1923 -0.1189  0.0853
 4961W        W 9012   9.330   7.254   2.203 -0.3605  0.0889  0.0881
 4962W        W 9013   8.635   6.866   0.098 -0.1156 -0.0657 -0.0711
 4963W        W 9014   3.200   0.095   1.497 -0.0667 -0.3059  0.2549
 4964W        W 9015   9.790   1.638  12.770  0.3109  0.0130  0.0161
 4965W        W 9016   3.568   3.085  13.950 -0.1552 -0.0331 -0.2453
 4966W        W 9017   9.086   8.010   1.115 -0.0619 -0.1178 -0.0931
 4967W        W 9018   3.868   7.501  10.886  0.6116  0.1508  0.0930
 4968W        W 9019   6.773   3.749   3.696 -0.1984  0.0366 -0.0469
 4969W        W 9020   3.380   3.786   0.487 -0.0481 -0.0333 -0.1040
 4970W        W 9021   8.215   0.399  13.886  0.0274 -0.2137  0.2340
 4971W        W 9022   8.041   7.416   2.453  0.0517  0.0657 -0.1487
 4972W        W 9023   9.688   1.586   9.613 -0.3719  0.1874  0.0078
 4973W        W 9024   6.632   4.566   3.850  0.1261 -0.5410  0.1206
 4974W        W 9025  10.055   3.257  11.603  0.0337  0.1004 -0.1815
 4975W        W 9026   2.150   2.162  13.688 -0.1056  0.5282  0.2096
 4976W        W 9027   3.110   2.949  12.817  0.0490  0.1330 -0.0587
 4977W        W 9028   8.261   1.030  13.839 -0.3939 -0.2137 -0.2438
 4978W        W 9029   7.629   3.333   3.153 -0.3857  0.2018  0.1442
 4979W        W 9030   2.791   0.477   3.102 -0.1781  0.0093  0.0957
 4980W        W 9031   0.173   8.221   1.703 -0.0175  0.5262 -0.3251
 4981W        W 9032   0.395   8.335   0.535 -0.0715  0.2053  0.0365
 4982W        W 9033   3.384   5.769  11.066  0.0246 -0.0644 -0.0612
 4983W        W 9034   4.185   7.507   9.804 -0.1263 -0.0671 -0.1037
 4984W        W 9035   1.777   2.217  12.866 -0.2024  0.0517 -0.4667
 4985W        W 9036   8.751   7.307   3.745 -0.1041 -0.2109 -0.0744
 4986W        W 9037   2.518   1.115   9.582  0.1167  0.1964  0.0438
 4987W        W 9038   0.154   5.436  13.891 -0.2719 -0.0005 -0.2089
 4988W        W 9039   2.776   4.781   2.109 -0.0459  0.2888  0.1584
 4989W        W 9040   6.563   0.896  10.244 -0.0747  0.0807  0.3755
 4990W        W 9041   3.684   8.805  12.558  0.2503 -0.3342  0.0117
 4991W        W 9042   1.987   7.590   3.526  0.0405 -0.0091  0.1482
 4992W        W 9043   7.872   5.391   0.529 -0.2689 -0.2557  0.0528
 4993W        W 9044   8.013   3.979  12.706  0.0942  0.0399 -0.3751
 4994W        W 9045   4.979   5.022  10.990  0.0333  0.1136  0.3122
 4995W        W 9046   7.007   6.571   4.579 -0.0265 -0.2862 -0.3056
 4996W        W 9047   5.445   9.757  11.670 -0.0998  0.1698 -0.1293
 4997W        W 9048   7.168   4.039   3.268 -0.1837  0.2231 -0.1461
 4998W        W 9049   2.605   7.480  10.357  0.0694  0.0820 -0.2047
 4999W        W 9050   4.936   9.548   3.711 -0.1025 -0.3592 -0.1357
 5000W        W 9051   4.522   1.501  11.986 -0.0575  0.0665  0.0514
 5001W        W 9052   6.691   2.736   0.874  0.2517  0.2465 -0.0836
 5002W        W 9053   4.979   4.270   8.911  0.0032  0.1040 -0.1686
 5003W        W 9054   8.263   8.572   3.035  0.0377  0.0872  0.0117
 5004W        W 9055   6.231   5.396   3.673  0.1281 -0.1631 -0.3006
 5005W        W 9056   1.865   0.385   1.751 -0.0376  0.1385 -0.0245
 5006W        W 9057   0.273   8.586  13.087  0.0206  0.0690 -0.0009
 5007W        W 9058   6.628   3.246   1.035 -0.1476  0.1327 -0.1151
 5008W        W 9059   2.576   5.019  11.441 -0.1912  0.0234  0.0643
 5009W        W 9060   6.871   7.119  13.332 -0.0197  0.3672  0.2293
 5010W        W 9061   7.148   3.187   1.032  0.0970 -0.2161 -0.0193
 5011W        W 9062   5.212   8.619   3.175  0.0122 -0.2127  0.1543
 5012W        W 9063   7.669   4.882  11.446  0.1695 -0.2517  0.0862
 5013W        W 9064   0.190   2.972   2.383  0.1951  0.1335  0.2476
 5014W        W 9065   8.823   6.533   3.274  0.0991 -0.0612  0.0323
 5015W        W 9066   4.190   0.612   2.753  0.2959  0.0540  0.1288
 5016W        W 9067   9.262   4.367   0.029 -0.0006 -0.1660 -0.2938
 5017W        W 9068   8.856   7.805  12.094  0.2391 -0.2242 -0.0401
 5018W        W 9069   4.735  10.129  11.114 -0.4769  0.0891 -0.0697
 5019W        W 9070   5.661   3.006   4.140 -0.0696  0.1424  0.2899
 5020W        W 9071   0.445   7.475   9.913  0.2001 -0.2590  0.0724
 5021W        W 9072   7.160   3.760   4.221  0.2196  0.0136 -0.2324
 5022W        W 9073   1.134   2.085  10.001 -0.0231 -0.2017  0.3180
 5023W        W 9074   2.761   7.731   9.922  0.1295  0.0342 -0.1839
 5024W        W 9075   7.405   2.318   2.943 -0.3248 -0.0827 -0.0227
 5025W        W 9076   0.753   6.083   2.997 -0.1700  0.0545  0.0261
 5026W        W 9077   7.452   9.930   5.390 -0.1581  0.2323  0.3966
 5027W        W 9078   9.343   7.419  12.425 -0.2370  0.1340  0.0852
 5028W        W 9079   2.693   1.134   4.877  0.1266  0.2624  0.1430
 5029W        W 9080   4.553   2.645  10.826 -0.0578  0.0260 -0.3425
 5030W        W 9081   7.808   4.938   2.483  0.0583  0.0912 -0.1035
 5031W        W 9082   3.105   7.022  11.862  0.0661 -0.0482  0.3091
 5032W        W 9083   4.003   7.205   0.704 -0.0809 -0.3417 -0.0421
 5033W        W 9084   3.769   3.021  13.501 -0.1482  0.1313 -0.0517
 5034W        W 9085   4.592   7.261   1.099 -0.2923 -0.0671 -0.0064
 5035W        W 9086   5.469   5.964  11.730  0.0219  0.0382 -0.1210
 5036W        W 9087   6.682   9.154   1.676 -0.1802  0.5946  0.0517
 5037W        W 9088   5.639   9.122  13.508  0.1603 -0.2584 -0.0366
 5038W        W 9089   0.946   8.026  11.320  0.1206 -0.1763 -0.1831
 5039W        W 9090   3.654   4.332  10.783  0.1099  0.1103  0.0988
 5040W        W 9091   9.492   8.379  10.135 -0.2357 -0.4357  0.0678
 5041W        W 9092   7.694   0.233   0.036  0.0552  0.1735  0.2996
 5042W        W 9093   4.720   4.713  11.573 -0.0425  0.0724 -0.0476
 5043W        W 9094   7.787   1.155   1.033  0.0195 -0.0088 -0.1794
 5044W        W 9095   6.947   8.356  12.629 -0.1152  0.0858  0.0990
 5045W        W 9096   0.662   4.788   2.350 -0.0537  0.0576 -0.0884
 5046W        W 9097   8.505   9.827   2.351 -0.1534 -0.1557  0.0439
 5047W        W 9098   0.345   8.232  12.663 -0.6165 -0.0092 -0.2902
 5048W        W 9099   4.495   2.135   8.916  0.2691 -0.0974  0.3445
 5049W        W 9100   2.012   7.647   5.070  0.1392  0.2220 -0.2003
 5050W        W 9101   5.394   0.816  13.410  0.2525  0.0624  0.0243
 5051W        W 9102   1.899   6.542  13.266  0.1818 -0.0472  0.2685
 5052W        W 9103   0.927   2.418  13.876  0.1391  0.2872 -0.1742
 5053W        W 9104   8.623   5.156  13.959  0.1520 -0.3240 -0.0910
 5054W        W 9105   9.766   2.347   0.222 -0.3777  0.0508  0.1921
 5055W        W 9106   9.355   9.848   1.897  0.1523 -0.2146 -0.0458
 5056W        W 9107   4.198   8.760  12.450 -0.0592  0.2398 -0.0084
 5057W        W 9108   7.913   9.451  13.031  0.0116  0.2339  0.0730
 5058W        W 9109   0.012   0.977  10.682 -0.1927  0.0245  0.0502
 5059W        W 9110   7.552   7.768  12.270 -0.0959 -0.1949 -0.0462
 5060W        W 9111  10.131   9.101   0.519 -0.1911 -0.0653 -0.0984
 5061W        W 9112   6.177   9.046   4.223  0.0324  0.1344  0.0019
 5062W        W 9113   7.434   9.078   9.979  0.2962 -0.1279  0.1756
 5063W        W 9114   0.989   8.587   4.033 -0.0087  0.3082 -0.0617
 5064W        W 9115   4.607   3.695   0.649  0.0959  0.1138  0.1680
 5065W        W 9116   6.348   6.891   3.876  0.2103 -0.0039  0.0223
 5066W        W 9117   6.156   5.096  12.346  0.3082 -0.1926 -0.2943
 5067W        W 9118   6.939   7.454   1.348 -0.0494  0.0749 -0.0297
 5068W        W 9119   8.210   4.921   2.064 -0.2003 -0.1065  0.3844
 5069W        W 9120   4.290   7.147   1.555  0.4297 -0.0176 -0.1566
 5070W        W 9121   7.098   0.744   2.537 -0.1702 -0.0406  0.0477
 5071W        W 9122   0.675   8.471  10.070 -0.0710  0.1372  0.3515
 5072W        W 9123   3.254   6.984   2.568  0.2156 -0.2180  0.2141
 5073W        W 9124   2.042   3.820   2.785 -0.1347  0.0568 -0.0517
 5074W        W 9125   3.556   2.037  11.121 -0.2478  0.3172 -0.0320
 5075W        W 9126   5.303   0.303   4.588  0.4199 -0.4815  0.1379
 5076W        W 9127   5.280   3.775  10.291  0.2483  0.0305  0.0429
 5077W        W 9128   0.239   7.458  11.313 -0.1551 -0.0224  0.3298
 5078W        W 9129   0.577   1.931   3.310 -0.0185  0.0748 -0.1144
 5079W        W 9130   7.486   9.293   1.518  0.3709  0.2851 -0.1537
 5080W        W 9131   5.575   8.971   1.535 -0.0167 -0.2814 -0.3311
 5081W        W 9132   5.877   9.264  10.520  0.1551 -0.0528  0.0473
 5082W        W 9133   4.993   0.931  11.603 -0.0006 -0.0099 -0.1235
 5083W        W 9134   9.847   7.612   5.384 -0.1028 -0.1605 -0.0302
 5084W        W 9135   7.596   6.481  11.603  0.1095  0.0748 -0.0006
 5085W        W 9136   1.436   9.023  12.448  0.4045  0.1074  0.1366
 5086W        W 9137   2.444   5.018   2.759  0.2114  0.2308  0.1364
 5087W        W 9138   5.249   6.138   4.169 -0.2897 -0.0011 -0.2672
 5088W        W 9139   6.917   0.699   0.667 -0.1472 -0.0697 -0.3727
 5089W        W 9140   8.537   2.146  10.641  0.2406  0.0452  0.2590
 5090W        W 9141   5.854   1.627  12.192 -0.0738  0.2899  0.0581
 5091W        W 9142   2.702   2.241  11.467 -0.1570  0.0550  0.2566
 5092W        W 9143   8.409   9.165   1.079 -0.3281 -0.0864 -0.0614
 5093W        W 9144   4.213   7.979   1.086 -0.2533 -0.1570  0.0553
 5094W        W 9145   3.266   5.729   2.570 -0.1826  0.2379  0.1640
 5095W        W 9146   2.892   2.126   8.445 -0.1104 -0.1181  0.0295
 5096W        W 9147   8.887  10.021   3.922  0.0646 -0.2400  0.1944
 5097W        W 9148   9.771   4.614   0.882 -0.0426 -0.1827  0.2122
 5098W        W 9149   4.391   5.098   9.364 -0.0203 -0.0211 -0.3379
 5099W        W 9150   3.302   2.211   5.473 -0.1080 -0.0217 -0.3379
 5100W        W 9151   5.253   2.609  12.690  0.2281  0.1656 -0.1516
 5101W        W 9152   8.161   7.805   4.061 -0.3324 -0.3533 -0.0652
 5102W        W 9153   8.494   0.230  11.014 -0.0740  0.1470 -0.0277
 5103W        W 9154  10.067   2.634  13.959  0.3888 -0.0831 -0.1806
 5104W        W 9155   5.059   8.650  12.606 -0.0243 -0.2973  0.0849
 5105W        W 9156   3.803   0.883   3.159 -0.0565 -0.0985  0.0302
 5106W        W 9157   0.951   1.342  11.069 -0.0719 -0.0771 -0.4262
 5107W        W 9158   0.166   1.397  11.676  0.1909  0.0526 -0.2131
 5108W        W 9159   5.671   3.362  12.442 -0.0263  0.1531  0.0889
 5109W        W 9160   5.667   3.467   3.940  0.0519 -0.1672 -0.0567
 5110W        W 9161   4.652   1.038   4.516  0.1702  0.0252 -0.0813
 5111W        W 9162   1.601   5.855   3.124 -0.4563  0.1121  0.0234
 5112W        W 9163   5.544   8.826  13.882 -0.1161  0.1544  0.0980
 5113W        W 9164   5.417   3.795   2.270 -0.1556 -0.1755  0.0306
 5114W        W 9165   4.001   4.046   1.945  0.2090 -0.0411  0.2061
 5115W        W 9166   2.895   8.329   0.168  0.2327 -0.3756  0.1043
 5116W        W 9167   2.064   9.189   1.962  0.2787 -0.2638 -0.2796
 5117W        W 9168   0.039   2.831   3.006  0.1404  0.0737  0.1816
 5118W        W 9169   0.889   8.506   2.058  0.3868 -0.0046 -0.0432
 5119W        W 9170   1.626   2.619   1.355 -0.2773 -0.1333  0.3242
 5120W        W 9171   8.646   2.354   1.737 -0.1879 -0.0752  0.1711
 5121W        W 9172   8.581   5.353   0.364  0.0550 -0.1423  0.0446
 5122W        W 9173   9.143   3.054  11.197  0.1901  0.1247  0.0077
 5123W        W 9174   5.921   7.895   0.817 -0.2288  0.1236 -0.0194
 5124W        W 9175  10.040   7.816  13.619 -0.1050  0.1869 -0.1390
 5125W        W 9176   9.290   0.038  10.594 -0.1093  0.1544 -0.0643
 5126W        W 9177   8.689   1.921  11.972  0.0375 -0.6592  0.2906
 5127W        W 9178   3.755   4.506   2.635 -0.1180 -0.1673  0.1316
 5128W        W 9179   9.882   8.572   4.033 -0.0340 -0.0331 -0.2961
 5129W        W 9180   0.619   2.017   2.743 -0.1919  0.1290  0.1862
 5130W        W 9181   2.524   6.282  10.780  0.1457  0.0218 -0.1107
 5131W        W 9182   2.735   0.594   4.567 -0.0396  0.3085  0.0893
 5132W        W 9183   5.626   1.220  12.666 -0.2138 -0.3900 -0.1307
 5133W        W 9184   9.696   1.643   3.433  0.3733 -0.2125  0.1165
 5134W        W 9185   3.464   0.782   3.531  0.0523 -0.2517  0.0871
 5135W        W 9186   7.111   0.135   3.219 -0.2414  0.1217 -0.0296
 5136W        W 9187   9.979   0.701   3.760  0.2643  0.0773 -0.1922
 5137W        W 9188   4.896   0.974   3.056  0.0424 -0.2646 -0.1135
 5138W        W 9189   2.360   8.429  13.390  0.0133  0.1137 -0.2357
 5139W        W 9190   8.647   9.562   1.396  0.0476  0.0930 -0.1586
 5140W        W 9191   6.549   6.595   9.967  0.0456  0.1097  0.0696
 5141W        W 9192   5.183   8.163   3.553 -0.0643 -0.2155  0.1034
 5142W        W 9193   2.363   6.041  12.533 -0.0566  0.1964 -0.1045
 5143W        W 9194   0.743   7.579  11.269  0.1402 -0.0750 -0.0455
 5144W        W 9195   4.295   9.597   1.934 -0.1063 -0.1696 -0.2228
 5145W        W 9196   4.428   2.372   9.941 -0.2640  0.1057  0.0288
 5146W        W 9197   3.215   1.675   9.890  0.2664  0.0228  0.0591
 5147W        W 9198   8.973   0.216   1.112  0.1287 -0.2494  0.2126
 5148W        W 9199   4.822   3.088   5.172  0.0427 -0.2631  0.0564
 5149W        W 9200   9.497   8.479  11.087  0.0517  0.1720  0.2317
 5150W        W 9201   8.536   4.691   2.968  0.0354 -0.2159 -0.0094
 5151W        W 9202   8.617   6.400  11.560 -0.3704 -0.0639  0.0382
 5152W        W 9203   6.269   3.729   1.165 -0.0816  0.3473 -0.3143
 5153W        W 9204   3.273   3.073  10.032 -0.2591 -0.0257  0.2381
 5154W        W 9205   2.872   4.347   3.889  0.0380  0.2890 -0.1789
 5155W        W 9206   6.572   2.502  13.914  0.1822  0.0269 -0.1314
 5156W        W 9207   1.436   6.777   0.647 -0.1991  0.0599 -0.0315
 5157W        W 9208   9.894   9.995   3.850  0.1631  0.0437  0.3687
 5158W        W 9209   7.605   1.338  13.290 -0.0121 -0.1682 -0.0454
 5159W        W 9210   1.605   9.251   0.047  0.3119 -0.3178 -0.3866
 5160W        W 9211   0.587   0.992   1.618  0.1917  0.0099  0.0396
 5161W        W 9212   5.471   8.729   4.692 -0.1224  0.0402  0.2055
 5162W        W 9213   7.875   2.358   3.085  0.0137  0.0050 -0.2894
 5163W        W 9214   2.003   1.959   4.145 -0.0434  0.1880  0.0127
 5164W        W 9215   3.178   3.692   1.762  0.1612 -0.4504 -0.0249
 5165W        W 9216   5.423   4.336  10.954 -0.0552  0.1496 -0.0582
 5166W        W 9217   9.549   4.494  10.308  0.2680  0.0426  0.0789
 5167W        W 9218   4.551   8.630  12.143  0.0791  0.0178 -0.0859
 5168W        W 9219   2.323   6.353   1.301  0.0587  0.0545 -0.1614
 5169W        W 9220   6.015   8.338   4.792  0.0402  0.0213 -0.0783
 5170W        W 9221   7.681   0.621  10.479  0.0885  0.1684 -0.0905
 5171W        W 9222   0.422   0.407  11.474  0.2171  0.0113 -0.3562
 5172W        W 9223   8.885   5.743   2.788  0.0871  0.0716 -0.2945
 5173W        W 9224   2.016   6.565  11.606 -0.1694  0.3785  0.0884
 5174W        W 9225   3.657   1.189   9.427 -0.0072  0.4349  0.3266
 5175W        W 9226   1.298   0.571  11.113  0.3148  0.1198 -0.1714
 5176W        W 9227   2.458   1.291  13.721  0.0378 -0.1493  0.0607
 5177W        W 9228   5.006   6.079   8.237 -0.0072 -0.0183 -0.0370
 5178W        W 9229   3.692   5.401  10.860  0.1480 -0.0695  0.5391
 5179W        W 9230   6.940   6.481  12.749 -0.0692 -0.0855 -0.3547
 5180W        W 9231   4.445   4.807  12.914 -0.0549  0.0966  0.5023
 5181W        W 9232   4.386   7.580  12.947  0.3963  0.2254 -0.0773
 5182W        W 9233   7.558   7.212   0.699  0.3078 -0.1463 -0.2105
 5183W        W 9234   0.032   9.628   8.969 -0.3506 -0.1982 -0.0768
 5184W        W 9235   7.223  10.109   8.832  0.1004  0.2205  0.0755
 5185W        W 9236   8.371   2.822   1.738  0.0630  0.0044  0.1557
 5186W        W 9237   9.237   1.617   9.856  0.2010  0.0855  0.1884
 5187W        W 9238   7.535   2.648   4.392 -0.1999  0.0935 -0.0645
 5188W        W 9239   2.015   4.624   4.519 -0.0494  0.1766  0.0656
 5189W        W 9240   7.996   0.988   0.595 -0.2746  0.0152 -0.1106
 5190W        W 9241   2.847   9.142  12.802  0.3371  0.1482  0.3217
 5191W        W 9242   5.467   8.992   9.846  0.0681  0.1541  0.1478
 5192W        W 9243   1.860   7.031   0.874  0.0831  0.1731 -0.2940
 5193W        W 9244   7.453   6.860   9.801 -0.3362  0.0359 -0.0820
 5194W        W 9245   7.469   3.611  12.217  0.2039 -0.2381 -0.1857
 5195W        W 9246   5.057   8.247   1.494 -0.0094  0.0797  0.1799
 5196W        W 9247   2.555   6.468   4.714 -0.3002 -0.5075  0.3002
 5197W        W 9248   1.385   8.305  12.461 -0.3391  0.0968  0.1600
 5198W        W 9249   5.403   1.274   0.723  0.0361  0.2349  0.1835
 5199W        W 9250   9.986   4.096  13.561  0.3352  0.0124  0.0991
 5200W        W 9251   5.631   7.791   3.414  0.0821  0.2781  0.3024
 5201W        W 9252   5.019   1.356   8.802  0.1609  0.1507  0.2060
 5202W        W 9253   7.454   6.991   2.364  0.2199  0.0331  0.1102
 5203W        W 9254   3.475   0.299  11.402  0.2440 -0.0903  0.2110
 5204W        W 9255   1.082   2.665  11.097  0.2456  0.0071 -0.2663
 5205W        W 9256   9.211   7.628   3.992  0.2046  0.0794 -0.1712
 5206W        W 9257   6.320   7.159  10.698  0.0328 -0.0294 -0.1805
 5207W        W 9258   7.388   8.116   4.792 -0.1941  0.2184 -0.2239
 5208W        W 9259   3.404   4.932   3.426  0.0888  0.0715 -0.2372
 5209W        W 9260   3.447   0.279   1.110 -0.1129  0.2718 -0.1585
 5210W        W 9261   6.051   6.297   3.223 -0.0505 -0.0559 -0.2306
 5211W        W 9262   4.257   9.509  11.772  0.0193  0.2160 -0.4435
 5212W        W 9263   2.531   2.486   9.898  0.2585 -0.1228 -0.1481
 5213W        W 9264   2.185   2.090  10.478  0.1932 -0.0196  0.0119
 5214W        W 9265   8.741   8.238  11.268 -0.0199  0.0060 -0.0547
 5215W        W 9266   9.433   3.368  12.229  0.0875 -0.1361  0.1366
 5216W        W 9267   0.657   3.252   0.272  0.1147  0.0613  0.2543
 5217W        W 9268   5.975   2.655  13.829 -0.1151 -0.0281  0.1468
 5218W        W 9269   6.468   7.716  10.860 -0.1567 -0.0636  0.0033
 5219W        W 9270   2.208   3.773   0.428  0.1685  0.1607  0.0681
 5220W        W 9271   1.800   2.426   0.746 -0.0275 -0.0940  0.2024
 5221W        W 9272   1.015   2.136   0.258 -0.1095 -0.1382  0.0882
 5222W        W 9273   0.961   1.939  13.021  0.0190 -0.2925  0.0630
 5223W        W 9274   4.013   3.652  12.208  0.1971 -0.0238 -0.2919
 5224W        W 9275   9.839   8.278   1.582 -0.0037  0.1788 -0.0127
 5225W        W 9276   1.549   5.697  12.110  0.4631 -0.1695  0.2236
 5226W        W 9277   3.818   0.866   0.141 -0.2430  0.2409  0.0913
 5227W        W 9278   9.930   7.982  11.990  0.1352  0.0596  0.1895
 5228W        W 9279  10.055   7.072   9.554  0.0167 -0.0232 -0.0098
 5229W        W 9280   9.634   1.016   5.214 -0.0782  0.3726  0.1650
 5230W        W 9281   9.920   6.717   2.183  0.1398 -0.0847  0.0016
 5231W        W 9282   6.984   4.166   0.922  0.1008 -0.0244  0.0686
 5232W        W 9283   0.795   5.751   1.188 -0.5504 -0.2657 -0.2543
 5233W        W 9284   1.509   9.673  11.164 -0.0519  0.1916 -0.0545
 5234W        W 9285   7.032   6.361   1.355 -0.2753  0.1587  0.1948
 5235W        W 9286   0.847   3.643  12.174  0.0571  0.4018  0.0353
 5236W        W 9287   4.629   2.794   0.995 -0.1636  0.3088 -0.2477
 5237W        W 9288   1.086   9.059   4.864 -0.1175 -0.2567  0.1211
 5238W        W 9289   1.220   1.353   1.126  0.1588  0.1591 -0.0503
 5239W        W 9290   5.077   1.698  10.843  0.2240 -0.0447 -0.0577
 5240W        W 9291   9.130   4.215  12.392  0.1012  0.2556 -0.1291
 5241W        W 9292   4.101   5.038   0.568  0.1114  0.0834  0.2266
 5242W        W 9293  10.099   1.638   3.822 -0.1741  0.2033  0.1284
 5243W        W 9294   8.999   1.898   0.840  0.1719  0.0245 -0.2526
 5244W        W 9295   3.932   1.315  13.505  0.3284 -0.0247  0.1705
 5245W        W 9296   9.487   7.308   5.095 -0.0172 -0.2282 -0.0891
 5246W        W 9297   4.807   2.390  10.380  0.4065  0.1448  0.3686
 5247W        W 9298   0.771   7.322   2.783 -0.1364  0.1614 -0.0876
 5248W        W 9299   7.906   3.857  12.230 -0.1197  0.0933 -0.1518
 5249W        W 9300   0.052   8.317   2.716  0.0238  0.4437 -0.3216
 5250W        W 9301   6.394   9.525   9.036  0.1943  0.1152  0.2180
 5251W        W 9302   1.990   4.654   1.765 -0.0548  0.0575  0.1362
 5252W        W 9303   2.623   9.065  11.559 -0.1179 -0.1744  0.0118
 5253W        W 9304   9.244   0.651   1.153 -0.1814 -0.1068 -0.0373
 5254W        W 9305   2.322   7.189   0.928 -0.0170  0.2112  0.1573
 5255W        W 9306   9.784   9.563   4.116 -0.1759  0.0599 -0.0501
 5256W        W 9307   0.283   1.455  12.255 -0.0661  0.3810  0.1154
 5257W        W 9308   7.609   3.327  11.222 -0.0061  0.0682  0.0647
 5258W        W 9309   4.074   8.455  11.955 -0.0649 -0.2304 -0.1891
 5259W        W 9310   2.198   1.693   0.981 -0.0854  0.3005 -0.3827
 5260W        W 9311   0.138   9.002  11.513  0.1983 -0.1801 -0.2790
 5261W        W 9312   2.755   1.353  13.317 -0.1259 -0.1884 -0.0387
 5262W        W 9313   1.753   4.326  10.007 -0.0453  0.1322  0.1778
 5263W        W 9314   2.870   2.829  11.444  0.0472  0.2281 -0.2957
 5264W        W 9315   3.886   1.620   4.738 -0.2731  0.3626  0.0257
 5265W        W 9316   5.631   6.844   3.707  0.3106 -0.0225  0.0009
 5266W        W 9317   5.266   3.681   3.145 -0.1037 -0.0117  0.2018
 5267W        W 9318   0.970   1.138   2.062 -0.2625 -0.1740  0.2798
 5268W        W 9319   1.539   1.738   4.998 -0.0463 -0.1380 -0.0882
 5269W        W 9320   2.222   8.753  11.633 -0.1811 -0.0665 -0.0036
 5270W        W 9321   6.717   0.923   0.275  0.0911  0.0892  0.0722
 5271W        W 9322   3.804   6.907  13.591  0.1839 -0.0092  0.1238
 5272W        W 9323   6.144   4.044   2.782 -0.1930  0.0298 -0.0085
 5273W        W 9324   9.813   3.653   2.701  0.1728  0.0886 -0.3615
 5274W        W 9325   6.623   2.196   9.861  0.0865  0.3053 -0.1930
 5275W        W 9326   8.996   7.251   1.230 -0.2363  0.3245 -0.1299
 5276W        W 9327   1.260   2.467  10.433 -0.1114  0.0753  0.2729
 5277W        W 9328   1.414   7.508   4.407 -0.3001 -0.0083  0.1661
 5278W        W 9329   4.933   5.163  10.140 -0.5546  0.2072 -0.0103
 5279W        W 9330   2.883   5.630   0.839 -0.0477  0.1359  0.1119
 5280W        W 9331   9.085   8.997  12.800  0.0422 -0.0916 -0.2924
 5281W        W 9332   8.801   2.785   2.770 -0.0089  0.0026 -0.0836
 5282W        W 9333   4.523   8.017  10.459 -0.2846 -0.0601  0.1854
 5283W        W 9334   3.099   1.425   2.885  0.0080  0.0247 -0.1610
 5284W        W 9335   7.259   0.323   1.199  0.2216  0.0612 -0.2374
 5285W        W 9336   5.303   3.117  12.673 -0.0009  0.2211  0.2336
 5286W        W 9337   3.833   2.105   1.014 -0.1394  0.3669 -0.1492
 5287W        W 9338   7.005   4.897   1.866 -0.0137 -0.0202  0.1128
 5288W        W 9339   7.409   6.018   3.173 -0.3629 -0.0136  0.0548
 5289W        W 9340   1.538   8.109  13.673  0.1048  0.0038 -0.0824
 5290W        W 9341   8.815   5.928  12.366  0.2363  0.0523 -0.3354
 5291W        W 9342   6.190   1.599   2.892  0.0375  0.0071 -0.2205
 5292W        W 9343   4.807   2.583   1.507 -0.1155 -0.1987  0.1206
 5293W        W 9344   8.171   6.239  13.403  0.0232  0.1472  0.0797
 5294W        W 9345   0.638  10.131   9.218 -0.2630  0.0295  0.1297
 5295W        W 9346   1.714   0.610   1.092 -0.0080  0.2538 -0.1695
 5296W        W 9347   9.197   9.954   9.941  0.1846 -0.3061 -0.2110
 5297W        W 9348   2.561   2.270  12.231 -0.0163  0.1283  0.4377
 5298W        W 9349   3.196   9.442   2.395  0.0554  0.0083 -0.0622
 5299W        W 9350   4.761   0.845  12.027 -0.3442  0.0903 -0.1143
 5300W        W 9351   2.245   4.374  12.278  0.3410 -0.0865 -0.1333
 5301W        W 9352   4.686   7.356   3.468  0.2208  0.2266 -0.1039
 5302W        W 9353   2.547   8.836   4.553  0.1126  0.1080  0.0162
 5303W        W 9354   4.243   9.834   0.055 -0.1225 -0.0447  0.1548
 5304W        W 9355   2.691   8.832  12.029  0.0195  0.2712  0.0144
 5305W        W 9356   0.914   6.192   4.768 -0.0245 -0.0579  0.2959
 5306W        W 9357   9.012   8.145  13.717 -0.0131  0.1440 -0.0945
 5307W        W 9358   5.218   4.251   4.550  0.1394 -0.6230 -0.1140
 5308W        W 9359   1.859   1.605   0.369 -0.2243 -0.1170 -0.1676
 5309W        W 9360   0.628   2.023   3.963  0.0765  0.1827  0.2161
 5310W        W 9361   0.989   1.877   9.029 -0.0513  0.1568  0.2661
 5311W        W 9362   3.494   5.152  10.408  0.0679 -0.0426 -0.1753
 5312W        W 9363   5.216   4.506   9.454 -0.2639 -0.1036 -0.2180
 5313W        W 9364   5.987   0.070   3.447 -0.1234 -0.0611  0.1877
 5314W        W 9365   3.101   9.606  11.026  0.0990 -0.1276 -0.0612
 5315W        W 9366   7.243   8.743  12.202 -0.3388 -0.1265 -0.2222
 5316W        W 9367   5.501   2.416  10.497 -0.2172  0.0635  0.5754
 5317W        W 9368   9.393   3.406   1.097  0.3415 -0.0921  0.1852
 5318W        W 9369   3.377   7.038   0.386 -0.1049  0.2345 -0.2303
 5319W        W 9370   0.668   8.948  11.443  0.0427  0.0976 -0.1132
 5320W        W 9371   1.003   1.844   3.624  0.1884  0.0832 -0.0943
 5321W        W 9372   9.086   2.229   2.784 -0.0917  0.2986 -0.0507
 5322W        W 9373   1.755   8.456   4.492  0.1955  0.1728 -0.2086
 5323W        W 9374   2.364   3.725   1.363  0.3942  0.1055  0.0469
 5324W        W 9375   3.314   9.254   4.240 -0.2520  0.1463  0.0141
 5325W        W 9376   1.100   4.362  13.303 -0.3214 -0.0764  0.2861
 5326W        W 9377   2.999   6.010  10.770  0.0439  0.1489  0.0043
 5327W        W 9378   8.657   6.286   1.262  0.1502  0.0545  0.3076
 5328W        W 9379   2.190   0.003  11.462 -0.4083  0.0040 -0.0607
 5329W        W 9380   4.111   1.437  11.374 -0.2472  0.1957  0.1870
 5330W        W 9381   1.254   2.494   9.709  0.3703 -0.2022 -0.1306
 5331W        W 9382   4.496   7.361   2.252  0.1821 -0.3176  0.2231
 5332W        W 9383   3.526   7.988   4.581 -0.1255 -0.0389  0.4723
 5333W        W 9384   2.019   0.345  13.719  0.1532  0.2805  0.0981
 5334W        W 9385   1.551   3.694  12.781 -0.1456  0.0532  0.1474
 5335W        W 9386   2.267   3.177   2.261 -0.3150  0.0881  0.0733
 5336W        W 9387   6.195   7.401  11.158  0.2240 -0.2614  0.2316
 5337W        W 9388   1.339   9.053   1.147  0.0673  0.0929  0.4785
 5338W        W 9389   4.122   8.941   3.341  0.0072  0.1010 -0.0782
 5339W        W 9390   3.249   6.569   0.647  0.0376 -0.0123 -0.1182
 5340W        W 9391   4.165   7.718   0.642 -0.2236  0.1931 -0.1083
 5341W        W 9392   2.887   5.579  13.035  0.1742 -0.1582  0.0003
 5342W        W 9393   2.299   0.941  12.485 -0.0491 -0.0350  0.2451
 5343W        W 9394   1.978   1.156  11.348 -0.1167 -0.0493  0.0004
 5344W        W 9395   8.815   4.140   1.719 -0.4208 -0.0347  0.0475
 5345W        W 9396   0.158   0.016   9.646  0.0641 -0.1394  0.3773
 5346W        W 9397   9.744   6.774   3.448 -0.0694 -0.2435  0.0600
 5347W        W 9398   1.992   4.220  11.352  0.1650  0.0522  0.2739
 5348W        W 9399   0.941  10.123   5.304 -0.0074 -0.0523  0.1956
 5349W        W 9400   3.572   9.482  11.274 -0.1296 -0.0490  0.0766
 5350W        W 9401   1.555   9.532   4.295 -0.0098  0.0361 -0.0371
 5351W        W 9402   3.981   3.502  11.480 -0.1037 -0.1503 -0.3279
 5352W        W 9403   3.008   7.704   2.555 -0.2150  0.2422 -0.2607
 5353W        W 9404   7.477   4.576  10.609 -0.1229  0.1258 -0.1089
 5354W        W 9405   7.855   4.602  11.019  0.1832 -0.1578  0.1664
 5355W        W 9406   4.900   4.848   9.035  0.2659  0.1509  0.1601
 5356W        W 9407   8.931   3.573   0.684  0.0927 -0.0408  0.0777
 5357W        W 9408   5.590   9.483   9.867  0.1192 -0.0079  0.3859
 5358W        W 9409   9.920   2.417   9.199 -0.0501  0.1784 -0.3118
 5359W        W 9410   0.638   8.416   5.235 -0.4589 -0.0404  0.0942
 5360W        W 9411   6.518   2.612   3.717  0.1742  0.0834 -0.0593
 5361W        W 9412   2.302   6.790  13.315  0.0212 -0.0153  0.1946
 5362W        W 9413   3.557   9.839   4.718 -0.0165  0.1445 -0.2934
 5363W        W 9414   4.371   9.820  12.183 -0.1548  0.2165  0.2331
 5364W        W 9415   4.129   0.998   4.425  0.0687  0.1794  0.2505
 5365W        W 9416   0.344   4.499   2.118  0.1468 -0.3957  0.0431
 5366W        W 9417   6.235   1.742  10.252 -0.0343 -0.1319 -0.0828
 5367W        W 9418   8.810   1.173  11.619  0.0422 -0.1618  0.1389
 5368W        W 9419   8.663   1.676  11.533  0.0461 -0.1538  0.0379
 5369W        W 9420   6.604   4.352  11.303  0.0366 -0.1729 -0.0237
 5370W        W 9421   5.085   2.477   0.142 -0.1010  0.2278 -0.1429
 5371W        W 9422   5.949   0.720   8.886 -0.0738 -0.0849  0.0187
 5372W        W 9423   4.583   5.435   0.422  0.0278  0.3870  0.0619
 5373W        W 9424   9.306   1.393  12.362 -0.0881  0.0407 -0.0476
 5374W        W 9425   1.374   6.958   2.021 -0.2146  0.1653  0.0995
 5375W        W 9426   3.892   5.042   9.718  0.1985 -0.0529 -0.0747
 5376W        W 9427   3.995   8.158   8.556 -0.2694  0.3378  0.0384
 5377W        W 9428   4.672   3.386  11.126 -0.0292 -0.2233  0.1263
 5378W        W 9429   8.712   4.672  13.962  0.3865 -0.4417  0.3545
 5379W        W 9430   9.121   9.327  11.513  0.3186  0.0693 -0.0924
 5380W        W 9431   3.253   5.395   1.573 -0.0936 -0.2744 -0.0972
 5381W        W 9432   4.335   2.399  13.846  0.0366 -0.0423  0.2670
 5382W        W 9433   1.363   5.744   9.978 -0.2445  0.2614 -0.0340
 5383W        W 9434   7.786   3.522  11.805  0.1921 -0.3033  0.2242
 5384W        W 9435   0.796   0.081   0.435  0.0515  0.3460 -0.2390
 5385W        W 9436   8.059   6.997   9.162 -0.0750  0.0619  0.0131
 5386W        W 9437   1.187   4.830   1.105 -0.0960  0.3098  0.0935
 5387W        W 9438   4.596   3.442   0.103  0.1525  0.1389  0.0115
 5388W        W 9439  10.010   8.990  12.907 -0.0406 -0.2040 -0.1836
 5389W        W 9440   2.881   4.631   1.163  0.2350 -0.1510 -0.1961
 5390W        W 9441   7.318   1.026  12.838 -0.1425 -0.1571  0.0824
 5391W        W 9442   3.772   5.377  13.020 -0.1541 -0.0192 -0.1213
 5392W        W 9443   3.049   4.472   2.910 -0.3603 -0.1968  0.1523
 5393W        W 9444   6.006   0.318  13.886  0.0250  0.0083  0.0123
 5394W        W 9445   2.161   3.807   3.454  0.0507 -0.1121 -0.2693
 5395W        W 9446   4.349   2.074   0.266 -0.0298  0.1066 -0.0545
 5396W        W 9447   1.259   7.059   4.557  0.1358 -0.0493 -0.0090
 5397W        W 9448   3.908   9.475   4.539 -0.1945 -0.1314 -0.0593
 5398W        W 9449   4.648   9.724   2.322 -0.2321 -0.0182  0.2047
 5399W        W 9450   6.948   4.740  12.185  0.1145  0.2574 -0.1622
 5400W        W 9451   2.359   8.506  10.576 -0.0095 -0.4855  0.2943
 5401W        W 9452   9.733   0.715  13.622  0.0893 -0.0189 -0.1191
 5402W        W 9453   5.841   6.683   0.968  0.2012 -0.0116 -0.0016
 5403W        W 9454   8.830   1.277  12.219  0.2157  0.1441  0.2642
 5404W        W 9455   3.144   6.374   3.667  0.1767 -0.1707 -0.0491
 5405W        W 9456   1.450   2.276  13.829 -0.3088  0.1313 -0.3227
 5406W        W 9457   2.569   0.182  13.540 -0.1789 -0.1646 -0.1089
 5407W        W 9458   3.713   3.918  10.413 -0.0583  0.3464  0.0009
 5408W        W 9459   6.459   3.293   1.512  0.1675 -0.0391  0.0036
 5409W        W 9460   8.010   1.507  13.781 -0.2875 -0.3264  0.2556
 5410W        W 9461   5.849   2.291  11.419 -0.0354  0.0380 -0.1932
 5411W        W 9462   2.476   0.391   9.773 -0.1130  0.2424  0.1012
 5412W        W 9463   3.020   0.224   4.062  0.0862 -0.0983  0.1752
 5413W        W 9464   2.248   1.586   0.086  0.2008  0.1576 -0.2128
 5414W        W 9465   0.063   6.458   1.357  0.0131 -0.0825 -0.0800
 5415W        W 9466   8.988   9.122   4.375 -0.1424  0.1686 -0.1943
 5416W        W 9467   6.732   5.337   9.593  0.2986 -0.3359 -0.0401
 5417W        W 9468   8.538   4.530   1.901  0.1184  0.0143  0.0842
 5418W        W 9469   3.135   2.051   2.808 -0.1562  0.1177 -0.0265
 5419W        W 9470   9.856  10.164   2.981  0.1315 -0.4549  0.0961
 5420W        W 9471  10.131   7.571  12.988 -0.2837  0.0612  0.1588
 5421W        W 9472   6.675   3.759  12.503  0.2463 -0.2875 -0.0068
 5422W        W 9473   7.554   6.787   4.422 -0.2289  0.0031  0.2696
 5423W        W 9474   3.709   6.849   2.153 -0.1267  0.2726 -0.1993
 5424W        W 9475   5.233   6.583  10.720 -0.0985  0.1831  0.0051
 5425W        W 9476   2.975   7.461   4.796 -0.2312  0.3313  0.1441
 5426W        W 9477   5.268   4.154  12.319 -0.1947  0.1228  0.2687
 5427W        W 9478   6.837   4.341  13.359 -0.0933 -0.0183 -0.0624
 5428W        W 9479   4.604   8.589  12.787 -0.4809 -0.0059  0.0966
 5429W        W 9480   3.894   0.570   3.574  0.3506 -0.1124 -0.0888
 5430W        W 9481   2.726   5.350   0.441  0.0455  0.1556  0.0086
 5431W        W 9482   2.156   3.094  12.715  0.2216 -0.2958 -0.2002
 5432W        W 9483   2.027   6.158   1.620  0.2000 -0.2782  0.3356
 5433W        W 9484   8.081   9.437   2.320  0.1813  0.0173  0.2020
 5434W        W 9485   1.539   0.035  13.302  0.2941  0.1162 -0.0467
 5435W        W 9486   5.686   4.776   2.914 -0.1586 -0.4475 -0.0801
 5436W        W 9487   5.791   4.984  13.864  0.2246  0.0488 -0.0268
 5437W        W 9488   1.593   9.713   3.146  0.3361  0.0920 -0.3127
 5438W        W 9489   8.873   4.471  12.961 -0.0008 -0.0753 -0.1180
 5439W        W 9490   8.716   6.666   4.228 -0.0841 -0.1189 -0.3459
 5440W        W 9491   4.387   3.005   1.869 -0.2434  0.1380  0.1237
 5441W        W 9492   4.274   4.229  13.448 -0.0674 -0.0452 -0.1206
 5442W        W 9493   7.882   7.436  13.598  0.0121  0.2201 -0.0595
 5443W        W 9494   3.228   6.134   3.195 -0.0038  0.1665  0.2320
 5444W        W 9495   1.764   4.825  10.773  0.2342 -0.2651 -0.1956
 5445W        W 9496   9.274   8.657  11.648 -0.0582 -0.0303  0.1070
 5446W        W 9497   7.064   8.394   1.561 -0.1349 -0.1056 -0.3593
 5447W        W 9498   0.446   6.487   3.815  0.0908 -0.1003  0.2592
 5448W        W 9499   6.902   2.831   1.950 -0.1238  0.1794  0.0720
 5449W        W 9500   2.757   6.634   2.684  0.2985  0.1732  0.2777
 5450W        W 9501   9.037   0.569  12.133  0.0683 -0.1601  0.1473
 5451W        W 9502   3.155   5.715  13.568  0.6218 -0.1210 -0.1168
 5452W        W 9503   7.947   2.901   3.652 -0.2377 -0.0236 -0.1027
 5453W        W 9504   6.374   8.742   1.635  0.2448  0.3905 -0.2382
 5454W        W 9505   2.305   4.831   2.295  0.0251  0.0576  0.4625
 5455W        W 9506   1.902   7.035  12.217 -0.1978 -0.0911  0.2461
 5456W        W 9507   7.028   9.732   3.699  0.1826  0.1131 -0.1754
 5457W        W 9508   8.258   6.284   9.909  0.2087 -0.2322 -0.0221
 5458W        W 9509   4.154   5.358   1.120 -0.0851 -0.0959  0.2065
 5459W        W 9510   5.078   4.162  12.909 -0.3084 -0.0576  0.3026
 5460W        W 9511   9.671   7.051   4.154 -0.1236 -0.0514  0.1117
 5461W        W 9512   0.653   7.794  10.852 -0.0371  0.1344 -0.0454
 5462W        W 9513   1.276   8.964  10.938 -0.0764 -0.1079  0.1587
 5463W        W 9514   6.491   2.750   2.231  0.1544  0.0528  0.1685
 5464W        W 9515   4.463   8.176   1.607 -0.0361 -0.1256  0.1468
 5465W        W 9516   7.204   1.398   3.857 -0.0584  0.0928 -0.0284
 5466W        W 9517   2.898   9.238   9.992 -0.0737  0.0019  0.2874
 5467W        W 9518   0.021   7.466   1.674 -0.3385 -0.0327 -0.2380
 5468W        W 9519   4.985   0.645   4.347 -0.2534  0.2366 -0.2507
 5469W        W 9520   6.220   2.611   0.201 -0.0205  0.0844 -0.0618
 5470W        W 9521   7.013   7.529   9.775 -0.0146 -0.4323  0.4178
 5471W        W 9522   3.419   2.546   5.004  0.1037 -0.0042 -0.2594
 5472W        W 9523   4.454   9.920   3.236 -0.0570 -0.0409 -0.0517
 5473W        W 9524   0.668   4.834   1.501  0.0410  0.1794  0.1074
 5474W        W 9525   6.477   9.543  13.284 -0.2300  0.0448 -0.2387
 5475W        W 9526   6.015   2.574   3.522  0.1623  0.0549 -0.0510
 5476W        W 9527   3.160   9.075   4.758 -0.2107 -0.0833 -0.4198
 5477W        W 9528   1.533   2.134   2.875 -0.0201 -0.0596 -0.3905
 5478W        W 9529   6.206   2.329   2.338  0.1644 -0.2811 -0.0416
 5479W        W 9530   5.106   2.933  13.106  0.3434  0.2246  0.0790
 5480W        W 9531   4.713   0.441  12.801 -0.0343 -0.0373 -0.0678
 5481W        W 9532   7.988   8.486  11.992 -0.0545 -0.4497  0.2573
 5482W        W 9533   3.882   4.460   4.662  0.0058 -0.4426 -0.0089
 5483W        W 9534   9.333   2.653   9.852  0.0721 -0.0961 -0.2936
 5484W        W 9535   8.950   7.629   0.827 -0.0300  0.1551  0.0873
 5485W        W 9536   7.973   8.876   0.007  0.0556  0.0209  0.1142
 5486W        W 9537   5.834   7.700   9.078  0.0218  0.0097  0.0815
 5487W        W 9538   2.231   8.014   1.303 -0.0060 -0.0806  0.0559
 5488W        W 9539   9.377   5.207   3.379 -0.0705 -0.0436  0.3762
 5489W        W 9540   7.294   8.047  10.616 -0.1380 -0.1095  0.5308
 5490W        W 9541   8.464   6.419   0.154  0.0524  0.1660 -0.1354
 5491W        W 9542   6.631   2.989  11.384  0.0238 -0.2791  0.0670
 5492W        W 9543   8.559   4.418  12.073  0.1793  0.1643  0.0791
 5493W        W 9544   2.271   8.389   4.493 -0.0598  0.2328  0.0181
 5494W        W 9545   0.565   2.308   0.367 -0.2765 -0.0136 -0.0081
 5495W        W 9546   1.011   2.780   9.228  0.3994  0.1057 -0.2584
 5496W        W 9547   0.935   2.593  10.088  0.0771  0.3636 -0.0253
 5497W        W 9548   2.347   3.332  12.099  0.1025  0.0964 -0.2666
 5498W        W 9549   4.548   0.432  13.622 -0.1094 -0.2080 -0.0350
 5499W        W 9550   1.884   4.130   3.681 -0.1994 -0.3318  0.2530
 5500W        W 9551   2.050   5.516  10.847  0.1145 -0.0607  0.0382
 5501W        W 9552   3.632   8.857   9.799 -0.1227 -0.3476  0.0348
 5502W        W 9553   5.707   7.697  10.200  0.1036 -0.4152 -0.0125
 5503W        W 9554   7.432   4.927  13.310 -0.2910 -0.1354  0.1772
 5504W        W 9555   6.323   1.067   3.329 -0.3364 -0.2577  0.0120
 5505W        W 9556   0.248   4.668   1.027  0.1131 -0.0765  0.3000
 5506W        W 9557   2.666   1.767   2.059 -0.0166 -0.0702 -0.0610
 5507W        W 9558   2.638   9.028   4.072 -0.0866  0.0943  0.4799
 5508W        W 9559   5.007   6.580  12.414  0.4778  0.0981 -0.0945
 5509W        W 9560   2.863   0.021   1.896  0.0325  0.1431 -0.1595
 5510W        W 9561   1.658   9.910  10.673  0.0120  0.0864  0.1192
 5511W        W 9562   4.273   0.632   3.249  0.2984  0.0284  0.2526
 5512W        W 9563   0.328   6.190   3.450  0.4129 -0.3470 -0.1113
 5513W        W 9564   3.620   8.104   2.720 -0.2240 -0.0768  0.0664
 5514W        W 9565   8.072   3.964   0.616  0.0564 -0.0315  0.3341
 5515W        W 9566   9.050   9.668   9.341  0.1211  0.0367 -0.0736
 5516W        W 9567   7.485   8.154   3.665  0.0544  0.3178 -0.2773
 5517W        W 9568   3.991   6.649   9.095  0.1755 -0.2290  0.0969
 5518W        W 9569   4.386   9.241  12.743 -0.3669 -0.0466  0.3957
 5519W        W 9570   1.781   2.719  12.621  0.0984 -0.0226  0.1996
 5520W        W 9571   2.616   0.121   3.731 -0.1303  0.1099  0.1087
 5521W        W 9572   9.228   0.508   3.394 -0.2823  0.2324  0.1183
 5522W        W 9573   6.073   5.626   2.676 -0.0720  0.1819 -0.3488
 5523W        W 9574   1.641   5.471   4.750 -0.1466  0.1773  0.0555
 5524W        W 9575   2.186   5.652   4.482  0.1188 -0.0558  0.1458
 5525W        W 9576   1.360   6.578   2.897 -0.0529 -0.0248 -0.3256
 5526W        W 9577   3.031   9.166   8.948  0.3547 -0.0679  0.0380
 5527W        W 9578   0.014   6.009   3.071 -0.0942 -0.0418  0.1017
 5528W        W 9579   4.607   1.095  10.405 -0.4328 -0.1351  0.0159
 5529W        W 9580   1.807   0.827  11.645 -0.1987 -0.0356 -0.3146
 5530W        W 9581   6.259   7.220   9.468  0.0755  0.1147  0.0714
 5531W        W 9582  10.042   4.672  12.439 -0.0700  0.1312  0.2720
 5532W        W 9583   7.688   2.414   3.575 -0.2071  0.3232 -0.0316
 5533W        W 9584   6.112   6.222   2.632 -0.0046  0.1693  0.0275
 5534W        W 9585   9.323   4.723   3.475  0.1214 -0.1550  0.0845
 5535W        W 9586   1.013  10.061  10.108 -0.1246  0.0131  0.1819
 5536W        W 9587   2.690   4.144  10.350  0.2373  0.1406  0.3187
 5537W        W 9588   6.771   0.922   2.030 -0.0565 -0.0945  0.0418
 5538W        W 9589   4.581   4.655   8.708 -0.1179 -0.1893  0.1325
 5539W        W 9590   0.351   0.703  13.039  0.2966  0.0597  0.0488
 5540W        W 9591  10.037   9.611   2.608  0.0278 -0.0748  0.1550
 5541W        W 9592   0.757   5.127   0.570  0.1614  0.0824  0.1094
 5542W        W 9593   2.904   7.229   9.746 -0.1734  0.1936  0.0883
 5543W        W 9594   2.507   0.332   1.154 -0.2765 -0.2165  0.2946
 5544W        W 9595   7.222   9.036   4.180  0.4078  0.0703 -0.0502
 5545W        W 9596   5.503  10.072   3.448  0.0779 -0.0371  0.0463
 5546W        W 9597   3.589   8.650  11.756  0.0933  0.2097  0.5385
 5547W        W 9598   8.462   5.661  13.744 -0.0754 -0.0908 -0.2639
 5548W        W 9599   5.161   7.164   2.630 -0.2015 -0.0967  0.1215
 5549W        W 9600   2.792   1.636   1.048  0.0292 -0.0400  0.3064
 5550W        W 9601   8.598   6.224  12.041 -0.1756 -0.0853 -0.1363
 5551W        W 9602   5.691   3.482  12.991  0.1190 -0.0994  0.1216
 5552W        W 9603   3.452   8.550   2.829  0.0399 -0.1446 -0.0614
 5553W        W 9604   0.487   3.117  13.132 -0.2726 -0.0064  0.2306
 5554W        W 9605   8.085   2.663   4.606  0.1471 -0.1320 -0.1379
 5555W        W 9606   8.006   1.679   1.238  0.2723 -0.0623 -0.2100
 5556W        W 9607   5.989   4.091  12.826 -0.0322  0.0243 -0.0374
 5557W        W 9608   5.842  10.009  13.964 -0.0000 -0.3909 -0.1556
 5558W        W 9609   5.687   5.800   9.824  0.1274  0.3307  0.1022
 5559W        W 9610   3.833   7.415   9.512  0.0785 -0.0608  0.0599
 5560W        W 9611   4.361   0.334   0.495 -0.1218 -0.3476 -0.1275
 5561W        W 9612   0.710   1.829  10.905  0.0627  0.0024 -0.0549
 5562W        W 9613   8.330   2.501   2.195 -0.0805 -0.1501 -0.1043
 5563W        W 9614   8.602   0.488   0.672  0.1233 -0.1332 -0.3614
 5564W        W 9615   1.188   5.913   1.668 -0.2937 -0.3450  0.3028
 5565W        W 9616   8.955   8.367  10.584 -0.3977  0.0661  0.1200
 5566W        W 9617   1.229   6.263   4.421 -0.1496  0.0973  0.4021
 5567W        W 9618   7.163   4.233   3.803 -0.0487  0.1664  0.1996
 5568W        W 9619   7.082   5.601  13.874 -0.2100 -0.0637  0.0212
 5569W        W 9620   9.665   1.276   2.592  0.1477  0.1656  0.4094
 5570W        W 9621   3.818   9.080   0.864  0.0779  0.0736 -0.1832
 5571W        W 9622   5.462   6.707   2.400 -0.0938 -0.0030  0.0840
 5572W        W 9623   5.216   6.221  11.072 -0.1198 -0.0912 -0.0465
 5573W        W 9624   7.920   6.990   3.686 -0.2937 -0.1416  0.0117
 5574W        W 9625   4.174   8.347   1.953  0.0797  0.0477 -0.4603
 5575W        W 9626   3.874   6.481  12.337  0.1292 -0.3655 -0.2146
 5576W        W 9627   3.176   5.139  10.786  0.0919 -0.0375 -0.0087
 5577W        W 9628   1.366   1.364  13.028 -0.0445  0.2920  0.1017
 5578W        W 9629   2.491   3.888  13.030  0.1435 -0.0364  0.0809
 5579W        W 9630   8.276   1.215  12.421 -0.0569 -0.0618 -0.0828
 5580W        W 9631   5.367   5.254   0.599 -0.1396 -0.1624  0.2097
 5581W        W 9632   8.655   0.752  13.996 -0.0971  0.0468  0.0342
 5582W        W 9633   8.290   3.588   1.982 -0.0514  0.1150  0.1931
 5583W        W 9634   4.810   5.372  11.380  0.2014 -0.1846  0.2529
 5584W        W 9635   8.350   9.552  12.683  0.2074 -0.2288 -0.4133
 5585W        W 9636   1.999   7.925   3.148 -0.1474  0.2197  0.5967
 5586W        W 9637   5.005   1.502   3.205 -0.2916  0.1363 -0.2225
 5587W        W 9638   7.617   2.687   1.009 -0.0251 -0.4876 -0.0265
 5588W        W 9639   5.123   8.700  13.608  0.1603  0.2179  0.1094
 5589W        W 9640   4.446   6.943   4.312 -0.0580 -0.1157  0.1492
 5590W        W 9641   0.864   5.325  13.322 -0.0205  0.2367  0.0293
 5591W        W 9642   6.981   3.282  13.265  0.0657  0.1837  0.1076
 5592W        W 9643   6.280   9.452   1.932  0.2314  0.2008  0.4741
 5593W        W 9644  10.016   2.182   4.280  0.2467  0.2359 -0.2020
 5594W        W 9645   4.244   9.151   4.344 -0.1029 -0.4673 -0.0466
 5595W        W 9646   9.218   9.480  12.027  0.2244  0.1924  0.1273
 5596W        W 9647   4.808   4.591   0.194  0.0581  0.1231  0.2966
 5597W        W 9648   5.460   9.528   2.173 -0.0775 -0.1638  0.1662
 5598W        W 9649   8.472   9.177   2.992 -0.2296 -0.5148  0.0397
 5599W        W 9650   8.716   5.491  12.142 -0.0947  0.0945  0.3995
 5600W        W 9651   4.829   2.857  12.651 -0.1767 -0.0672 -0.3836
 5601W        W 9652   5.407   0.842   0.458 -0.1898 -0.1870  0.2021
 5602W        W 9653   8.014   7.450  10.285  0.2171 -0.1995  0.0688
 5603W        W 9654   0.885   6.636  13.043 -0.3088  0.0655 -0.1016
 5604W        W 9655   5.072   6.560   1.176 -0.0171  0.2756  0.3217
 5605W        W 9656   5.652   8.492  13.534 -0.1586  0.0888  0.0411
 5606W        W 9657   6.406   1.084   9.762 -0.0911  0.0093  0.4057
 5607W        W 9658   4.048   7.491   3.516  0.0438 -0.1100 -0.0664
 5608W        W 9659   1.454   3.079   2.799  0.0201  0.2426  0.4018
 5609W        W 9660   5.037   1.013  12.433 -0.3993 -0.1480  0.0321
 5610W        W 9661  10.049   9.128  12.439 -0.1055  0.3785 -0.0743
 5611W        W 9662   8.050   7.996  12.250 -0.1418 -0.3043 -0.0961
 5612W        W 9663   3.613   3.966   2.730  0.0948 -0.1613  0.1142
 5613W        W 9664   2.715  10.062   4.139 -0.4815  0.1308  0.2190
 5614W        W 9665   5.483   7.046   4.517 -0.1956  0.0893  0.3234
 5615W        W 9666   1.904   7.489   9.881 -0.0854 -0.0486  0.0405
 5616W        W 9667   2.692   9.305  12.297 -0.0232  0.0529 -0.3764
 5617W        W 9668   0.074   1.847   2.617  0.0215 -0.2376 -0.3244
 5618W        W 9669   3.753   2.916  12.776 -0.1993 -0.0500 -0.1148
 5619W        W 9670   6.697   5.980  11.522  0.1261 -0.0425  0.0249
 5620W        W 9671   0.494   2.163  12.663 -0.0607  0.5144 -0.0121
 5621W        W 9672   4.773   3.575   1.784  0.1657 -0.0410  0.2965
 5622W        W 9673   4.955   4.503   1.678 -0.3980 -0.0122  0.0763
 5623W        W 9674   6.524   6.330   1.597 -0.2041 -0.1723  0.2661
 5624W        W 9675   2.628   5.789   2.055  0.3698  0.0795  0.3019
 5625W        W 9676   2.824   2.087  11.887 -0.4768 -0.1158 -0.0705
 5626W        W 9677   2.726   4.468   2.507  0.0355  0.2221  0.0041
 5627W        W 9678   5.518   0.216  10.387  0.2620  0.2111  0.1361
 5628W        W 9679   1.286   0.504   2.986 -0.2405  0.2200 -0.0888
 5629W        W 9680   2.470   1.793   1.394 -0.1729  0.4487  0.1014
 5630W        W 9681   2.690   7.543   2.094 -0.0090  0.0008  0.2892
 5631W        W 9682   4.996   6.849   2.160 -0.2470 -0.0198  0.2634
 5632W        W 9683   9.821   9.684  10.867  0.1170  0.0802 -0.0097
 5633W        W 9684   1.257   6.327   3.767  0.2138 -0.2334 -0.1474
 5634W        W 9685   8.408   0.203   4.441  0.0248 -0.2654 -0.3328
 5635W        W 9686   0.011   8.052   1.251  0.2913 -0.4282 -0.3316
 5636W        W 9687   4.600   0.182   3.074 -0.4410  0.0292  0.2908
 5637W        W 9688   3.266   2.492   8.448 -0.1123 -0.2041 -0.0178
 5638W        W 9689   9.949   6.363   1.808 -0.1964  0.0983  0.4195
 5639W        W 9690   7.736   1.247   4.517  0.0197 -0.3668  0.0206
 5640W        W 9691   2.717   3.859  12.558 -0.3346 -0.4519 -0.2713
 5641W        W 9692   7.119   3.597  11.137 -0.0366 -0.4053 -0.2580
 5642W        W 9693   6.652   3.265   1.949 -0.0180  0.0678  0.0103
 5643W        W 9694   9.577   1.472  10.238  0.1569  0.2564 -0.2653
 5644W        W 9695   0.082   4.046  10.484  0.4501  0.0898 -0.1227
 5645W        W 9696   5.179   9.129  12.633 -0.0883  0.1415 -0.1244
 5646W        W 9697   6.709   4.071   4.091  0.0922 -0.1566  0.1460
 5647W        W 9698   1.881   8.015   9.932  0.0060 -0.1201 -0.0646
 5648W        W 9699   2.140   6.905   9.443  0.0433 -0.2158 -0.0120
 5649W        W 9700   5.598   5.776  13.860 -0.1248 -0.0616 -0.1971
 5650W        W 9701   7.816   2.762  12.205 -0.0422 -0.0615  0.1292
 5651W        W 9702   0.769   9.919   0.863  0.3627  0.0401 -0.0785
 5652W        W 9703   7.592   9.700   0.609 -0.3308  0.1098 -0.1259
 5653W        W 9704   3.817   2.546  13.271 -0.0552 -0.0215 -0.2600
 5654W        W 9705   7.061   9.415   9.781 -0.2326 -0.0395 -0.0660
 5655W        W 9706   8.477   7.991  10.840 -0.2069 -0.1777 -0.0473
 5656W        W 9707   7.375   9.567  11.236  0.0748 -0.1069  0.0186
 5657W        W 9708   4.033   3.328   3.792 -0.1267 -0.1502  0.0394
 5658W        W 9709   8.626   0.438   4.068  0.2272 -0.1922  0.5022
 5659W        W 9710   5.650   4.192   9.341 -0.1661 -0.3125  0.0753
 5660W        W 9711   6.366   1.415  11.953  0.1670 -0.0499  0.2093
 5661W        W 9712   8.582   1.178   0.758 -0.2359  0.1718 -0.0118
 5662W        W 9713   2.431   2.151   0.853  0.0145  0.0456 -0.0040
 5663W        W 9714   6.492   9.260  10.699  0.0240  0.2480 -0.0650
 5664W        W 9715   3.173   3.001   1.191 -0.0147 -0.0399 -0.1827
 5665W        W 9716   1.709   6.746   4.871 -0.0977 -0.0576  0.1549
 5666W        W 9717   8.298   8.085  10.053  0.1251 -0.0214 -0.0830
 5667W        W 9718   6.423   3.750   0.155 -0.1006 -0.0498 -0.1070
 5668W        W 9719   9.346   7.573   3.015 -0.0830  0.1697 -0.3093
 5669W        W 9720   6.163   4.440   4.908  0.2046 -0.3112 -0.0665
 5670W        W 9721   0.647   5.698  13.057  0.1201 -0.4327 -0.2525
 5671W        W 9722  10.008   8.828  13.353  0.1114 -0.2545  0.1883
 5672W        W 9723   5.118   1.291   1.805 -0.0508 -0.2768 -0.2551
 5673W        W 9724   0.728   8.361  13.661 -0.2329 -0.2158  0.0162
 5674W        W 9725   8.590   9.439   4.589  0.0421  0.2105 -0.0827
 5675W        W 9726   7.293   1.747  10.193 -0.0988  0.1367 -0.1788
 5676W        W 9727   8.007   2.773   1.306 -0.4275  0.0566 -0.2160
 5677W        W 9728   5.804   0.979   3.944 -0.0396  0.1219 -0.2520
 5678W        W 9729   9.141   0.516  14.042  0.1651  0.0537  0.2700
 5679W        W 9730   3.217   8.146  11.021  0.3409  0.1085 -0.2622
 5680W        W 9731   0.831   2.449  12.998  0.2245  0.0690  0.2648
 5681W        W 9732   0.126   5.387   1.893 -0.3619 -0.2538  0.1657
 5682W        W 9733   2.462   0.328   4.199  0.0476  0.0797 -0.1266
 5683W        W 9734   4.593   5.157  10.532  0.1748 -0.1256 -0.2668
 5684W        W 9735   4.041   7.181   1.978  0.0089 -0.0711  0.1802
 5685W        W 9736   4.709   5.980   2.474 -0.0045 -0.1006 -0.2432
 5686W        W 9737   9.114   8.557   4.286  0.2126  0.1515  0.0740
 5687W        W 9738   6.690   2.325   3.370  0.3161 -0.0355  0.0744
 5688W        W 9739   8.456   0.355  12.617 -0.2779 -0.0560  0.0161
 5689W        W 9740   2.027   4.617  12.738 -0.3097 -0.0492  0.2885
 5690W        W 9741   0.984   1.996  10.452 -0.1320 -0.3137  0.0823
 5691W        W 9742   3.974   5.067   0.106  0.2426  0.0698 -0.0083
 5692W        W 9743   8.251   1.902   1.588 -0.1004  0.3061 -0.0478
 5693W        W 9744   0.814   0.512   0.907  0.3339 -0.0841 -0.1634
 5694W        W 9745   8.330   4.739  11.765 -0.0928 -0.3266 -0.4136
 5695W        W 9746   2.818   8.514  13.774 -0.0490  0.0576 -0.0574
 5696W        W 9747   0.940   1.209   4.403  0.4322  0.0240 -0.1424
 5697W        W 9748   9.288   5.461  10.160 -0.0079 -0.2541 -0.1172
 5698W        W 9749   3.186   8.606   2.379  0.0561 -0.1007 -0.0212
 5699W        W 9750   5.084   7.244   1.258 -0.0237  0.1146 -0.0085
 5700W        W 9751   7.333   1.067   3.558  0.1951  0.0161 -0.1535
 5701W        W 9752   8.888   4.170  11.790 -0.2305 -0.0676 -0.3875
 5702W        W 9753   4.588   2.050   3.041 -0.2792 -0.2323 -0.0954
 5703W        W 9754   2.499   0.729   2.119  0.0237 -0.0362 -0.2877
 5704W        W 9755   7.982   2.381  11.855  0.2987  0.0824  0.0559
 5705W        W 9756   0.393   1.861   0.583  0.1734  0.0271  0.0223
 5706W        W 9757   9.507   8.057  13.735 -0.1095 -0.0574  0.0288
 5707W        W 9758   1.486   2.609   3.086 -0.0457 -0.3251 -0.0798
 5708W        W 9759   7.239   7.981   2.495 -0.1447  0.1712 -0.0196
 5709W        W 9760   3.166   1.344  10.354 -0.1895 -0.1189 -0.2688
 5710W        W 9761   3.971   8.428   9.808  0.0997  0.1938  0.2589
 5711W        W 9762   7.192   3.513   9.749  0.2265  0.0744  0.1768
 5712W        W 9763   3.662   5.859   0.202 -0.1675  0.0746  0.1586
 5713W        W 9764   6.815   2.154   4.640 -0.0332 -0.0041  0.2569
 5714W        W 9765   5.630   4.129   3.744 -0.1299 -0.4118 -0.0284
 5715W        W 9766   9.835   5.338  13.832  0.5351  0.1364  0.1564
 5716W        W 9767   5.748   5.886   1.421  0.0260 -0.1186 -0.1449
 5717W        W 9768   8.791   1.713  10.550  0.0462 -0.0477  0.0709
 5718W        W 9769   2.790   5.688   0.037  0.1446 -0.0189 -0.1994
 5719W        W 9770   9.555   4.842  11.922  0.2240  0.0136 -0.3449
 5720W        W 9771   1.796   5.593   2.224  0.1298 -0.0318 -0.3199
 5721W        W 9772   9.814   6.760  11.808  0.0820  0.0511  0.0977
 5722W        W 9773   0.327   3.236  11.054  0.0340  0.5517 -0.3162
 5723W        W 9774   7.468  10.096   9.342  0.2031 -0.1398  0.1968
 5724W        W 9775   4.164   2.425   3.748 -0.2218  0.2149  0.1704
 5725W        W 9776   0.291   3.967   2.058  0.1056 -0.2272 -0.0731
 5726W        W 9777   4.164   4.309  10.521 -0.0476 -0.1559 -0.2162
 5727W        W 9778   9.105   1.831  13.243  0.0554 -0.0726 -0.3902
 5728W        W 9779   4.246   8.841  13.025 -0.1482  0.0941 -0.1288
 5729W        W 9780   2.470   6.984   1.878 -0.2198  0.1359  0.0776
 5730W        W 9781   9.636   7.575  13.650  0.2084  0.1336  0.4139
 5731W        W 9782   9.419   5.621  13.776 -0.2052  0.1992 -0.1032
 5732W        W 9783   6.338   6.691   1.213  0.2564 -0.1425 -0.0047
 5733W        W 9784   6.984   8.632   3.774 -0.2990  0.1798  0.0509
 5734W        W 9785   0.841   6.945   1.991 -0.2562 -0.1586  0.0209
 5735W        W 9786   7.246   4.879   2.370  0.2158  0.1855  0.3991
 5736W        W 9787   2.270   9.105   4.880  0.0348  0.1113  0.3484
 5737W        W 9788   5.061   3.136  10.248  0.1372  0.1663 -0.1528
 5738W        W 9789   0.430   0.065  10.237  0.2755 -0.0461 -0.2148
 5739W        W 9790   0.737   5.258  12.795 -0.0869  0.2020  0.0424
 5740W        W 9791   6.611   9.821  11.439  0.2031 -0.1142  0.0007
 5741W        W 9792   4.695   5.845   1.718 -0.1925  0.0500  0.0700
 5742W        W 9793   9.325   5.284  13.359  0.2880  0.3699  0.0264
 5743W        W 9794   4.604   9.205  11.992 -0.0620 -0.0882  0.4009
 5744W        W 9795   5.000   2.363   1.922 -0.1208  0.1178  0.0500
 5745W        W 9796   9.237   6.098  12.721 -0.0389 -0.0338  0.5423
 5746W        W 9797   4.514   0.822  12.448  0.2244  0.2242 -0.0038
 5747W        W 9798   8.082   9.329   4.400  0.1712 -0.0398 -0.0969
 5748W        W 9799   3.160   9.766  10.062 -0.1577  0.1128  0.1265
 5749W        W 9800   2.767   3.690   9.068 -0.1400  0.0883 -0.0684
 5750W        W 9801   9.175   8.783  10.775  0.0786 -0.1068  0.2041
 5751W        W 9802   5.754   2.551   2.112 -0.1985 -0.0062 -0.1086
 5752W        W 9803   3.015   5.498   4.926  0.0867 -0.0289  0.2420
 5753W        W 9804   0.332   0.882  12.403 -0.0081  0.5605  0.0868
 5754W        W 9805   9.919   4.322  11.839 -0.3548  0.1187 -0.2171
 5755W        W 9806   4.763   0.464   2.112  0.1909 -0.0935 -0.3179
 5756W        W 9807   6.800   3.783  13.469 -0.0443 -0.4331  0.0375
 5757W        W 9808   4.484   7.809   2.431  0.0847  0.1516  0.1174
 5758W        W 9809   0.460   9.167  11.919 -0.0244 -0.0660  0.1490
 5759W        W 9810   0.402   5.480   4.106  0.1904  0.2272  0.1528
 5760W        W 9811   6.757   4.317   3.441 -0.0980  0.0046  0.0531
 5761W        W 9812   3.768   9.745   2.188  0.2081 -0.0759 -0.2441
 5762W        W 9813   1.499   4.245  11.484 -0.0076  0.0942 -0.0995
 5763W        W 9814   4.696   5.198   5.370  0.2436  0.0750 -0.2701
 5764W        W 9815   5.419   3.373   9.958  0.1708 -0.1702 -0.2562
 5765W        W 9816   6.151   8.818  10.808  0.0907  0.2268  0.0450
 5766W        W 9817   6.269   6.863   1.635  0.0408 -0.3510  0.2056
 5767W        W 9818   9.642   3.081  11.847 -0.0842 -0.1073  0.3278
 5768W        W 9819   8.458   1.505  12.038  0.1941 -0.0444 -0.4299
 5769W        W 9820   3.270   7.569   9.836 -0.5101  0.0121 -0.1306
 5770W        W 9821   3.747   8.451   0.377  0.1172  0.1540  0.0197
 5771W        W 9822   0.043   3.328   1.602  0.3113  0.0130 -0.3147
 5772W        W 9823   1.424   8.349   1.184  0.0053  0.0156 -0.3247
 5773W        W 9824   7.501   5.983   2.603 -0.3156 -0.1965  0.0692
 5774W        W 9825   0.952   8.491   4.839  0.1113  0.1403 -0.0485
 5775W        W 9826   4.814   5.534   3.493 -0.2446 -0.0576  0.0503
 5776W        W 9827   3.560  10.088  10.425 -0.3472 -0.0741  0.2918
 5777W        W 9828   0.820   0.544  11.754  0.1419 -0.0424 -0.3455
 5778W        W 9829  10.086   7.923   0.377  0.0378  0.3099  0.2828
 5779W        W 9830   5.455   5.449  10.109  0.0648  0.2760  0.2146
 5780W        W 9831   7.231   5.672   1.651 -0.1423  0.1902  0.1292
 5781W        W 9832   9.658   0.006  12.144  0.3364  0.2750  0.3052
 5782W        W 9833   9.052   0.759   4.146 -0.1334  0.1277 -0.1015
 5783W        W 9834   5.797   4.369   1.155  0.0362  0.1937 -0.2759
 5784W        W 9835   5.237   7.870  10.340 -0.0452  0.3255 -0.2579
 5785W        W 9836   8.135   3.346  10.164 -0.1143  0.2021  0.2033
 5786W        W 9837   2.221   1.172  13.274  0.1434 -0.4215  0.1378
 5787W        W 9838   5.122   9.779   2.491  0.1008 -0.2396  0.1942
 5788W        W 9839   8.139   5.992  12.912 -0.0712 -0.1462  0.1180
 5789W        W 9840   3.859   9.702   2.700  0.5086  0.1205 -0.0331
 5790W        W 9841   9.153   9.866  13.152  0.0305 -0.1219  0.0784
 5791W        W 9842   9.630   6.296   2.184  0.0509 -0.0323 -0.0753
 5792W        W 9843   9.722   5.992  12.668 -0.0369  0.3051  0.2573
 5793W        W 9844   2.309   5.255   5.166  0.1580  0.0384 -0.0704
 5794W        W 9845   6.564   1.066  12.179  0.4743  0.1149  0.1011
 5795W        W 9846   9.925   2.110   3.428  0.1936 -0.0334  0.1309
 5796W        W 9847  10.002   3.139  13.194  0.2696  0.0880  0.1356
 5797W        W 9848   5.411   7.069  10.670  0.0000  0.1403 -0.0460
 5798W        W 9849   1.172   9.110  13.189  0.0607  0.4848 -0.0757
 5799W        W 9850   0.379   3.031   0.569  0.0892  0.1106 -0.1051
 5800W        W 9851   3.745   6.484  12.884  0.1007 -0.0163 -0.0127
 5801W        W 9852   1.762   4.802  10.267  0.1292 -0.1821 -0.1565
 5802W        W 9853   1.274   4.148  10.980  0.0405  0.0032 -0.0157
 5803W        W 9854   6.219   6.597   0.343  0.1336  0.3140 -0.0054
 5804W        W 9855   8.458   9.957  11.289 -0.0038  0.1374  0.2711
 5805W        W 9856   9.379   6.552  13.713 -0.0200  0.1102  0.0408
 5806W        W 9857   7.103   6.143  10.376 -0.3205 -0.4068  0.1192
 5807W        W 9858   1.048   4.571  13.753  0.2050 -0.2704 -0.0792
 5808W        W 9859   4.645   9.745   1.033  0.0506 -0.1679  0.1476
 5809W        W 9860   9.412   7.869  12.159 -0.1896  0.0896 -0.1696
 5810W        W 9861   1.094   3.487  11.619 -0.0377  0.0254  0.2604
 5811W        W 9862   8.826   1.189   2.689 -0.0356  0.0179  0.2645
 5812W        W 9863   4.753   5.326   0.905  0.0713 -0.1339 -0.1654
 5813W        W 9864   1.048   6.239  13.273  0.2329 -0.0334 -0.0728
 5814W        W 9865   5.553   6.867  13.073 -0.0715 -0.3461  0.1716
 5815W        W 9866   0.898  10.038  14.030  0.1607  0.1493 -0.0874
 5816W        W 9867   2.550   4.973   9.776 -0.1827  0.1497  0.0149
 5817W        W 9868   6.634   9.653   1.589  0.0252 -0.3571 -0.2565
 5818W        W 9869   3.841   3.717   0.771  0.0133 -0.2218  0.1567
 5819W        W 9870   8.190   7.703   2.918 -0.0591 -0.1686 -0.1616
 5820W        W 9871   3.369   0.142  10.899 -0.0276 -0.1064  0.0808
 5821W        W 9872   3.254   6.526   1.151  0.0799  0.1347 -0.1748
 5822W        W 9873   8.789   8.578  13.738  0.1146 -0.2317  0.0987
 5823W        W 9874   7.365   9.881   3.322  0.0590 -0.2528 -0.3204
 5824W        W 9875   9.979   7.270  10.597 -0.2952  0.3048  0.1095
 5825W        W 9876  10.114   9.071   2.763  0.1549 -0.0640  0.1473
 5826W        W 9877   0.618   8.247   2.461 -0.0382 -0.0164  0.0522
 5827W        W 9878   7.206   4.465   1.972  0.0153 -0.1867  0.0452
 5828W        W 9879   3.330   2.387   4.539 -0.0221  0.3378  0.1410
 5829W        W 9880   8.836   2.155  10.255  0.1003 -0.0305 -0.1948
 5830W        W 9881   2.815   3.067   4.206 -0.0480 -0.5625 -0.0474
 5831W        W 9882   8.211   0.580   1.747  0.0302 -0.3755 -0.1658
 5832W        W 9883   3.964   1.581   1.445  0.0834  0.1378  0.0875
 5833W        W 9884   3.496  10.034  13.142 -0.0859  0.4208  0.1116
 5834W        W 9885   8.141   1.070  13.205  0.0653 -0.1940 -0.0998
 5835W        W 9886   4.625   3.569   9.585 -0.0414 -0.0533  0.5318
 5836W        W 9887   3.971   5.771  10.652  0.3654  0.3611  0.2121
 5837W        W 9888   6.070   5.991   2.195 -0.0411 -0.1644  0.0550
 5838W        W 9889   9.934   7.953   4.526  0.0239  0.0684 -0.0191
 5839W        W 9890   9.912   2.282  11.300  0.4359 -0.2008 -0.1404
 5840W        W 9891   0.172   2.334  11.509  0.0037 -0.1971  0.1434
 5841W        W 9892   6.361   5.866   3.068 -0.1234  0.0984 -0.3233
 5842W        W 9893   0.336   7.359  10.787  0.2855  0.0917  0.2731
 5843W        W 9894   2.890   4.789   4.327  0.3064 -0.1442  0.1253
 5844W        W 9895   4.931   6.771  11.845  0.1675  0.1794 -0.0972
 5845W        W 9896   9.771   0.090   9.733  0.0648  0.0168  0.1551
 5846W        W 9897   8.077   8.300   1.270  0.0414 -0.2434  0.0700
 5847W        W 9898   5.645   8.266   3.832  0.1982  0.1382 -0.1846
 5848W        W 9899   0.320   1.182   3.165 -0.2526  0.2012  0.1221
 5849W        W 9900   3.178   7.062  11.094  0.1972  0.2431  0.1289
 5850W        W 9901   4.708   8.331  13.919 -0.0622 -0.1507 -0.0091
 5851W        W 9902   1.120   8.040   1.488  0.1672 -0.0074 -0.0173
 5852W        W 9903   6.250   7.878  10.319 -0.0973  0.0600 -0.1535
 5853W        W 9904   2.649   3.172  13.395 -0.2141 -0.0040 -0.0321
 5854W        W 9905   1.037   1.051  12.753  0.2030 -0.0148 -0.0631
 5855W        W 9906   7.168   3.857   2.770 -0.0435  0.1638  0.1618
 5856W        W 9907   9.024   3.704  10.813 -0.1855 -0.1124  0.0082
 5857W        W 9908   9.624   8.755  12.607 -0.1177 -0.1618 -0.3751
 5858W        W 9909   0.417   1.628   2.943 -0.1461  0.1328  0.0235
 5859W        W 9910   4.861   4.571  13.260 -0.2723 -0.2013  0.4661
 5860W        W 9911   2.385   6.235  12.063  0.1027  0.0179  0.1064
 5861W        W 9912   9.764   7.873  13.132  0.1140  0.0383  0.2616
 5862W        W 9913   0.366   1.574  13.561  0.0914 -0.1079  0.2606
 5863W        W 9914   3.422   6.623  11.928 -0.2261 -0.0361 -0.1256
 5864W        W 9915  10.024   6.391   2.720 -0.2490  0.1302  0.2287
 5865W        W 9916   1.785   4.689   3.084  0.0610 -0.0032  0.2086
 5866W        W 9917   7.124   2.499   1.158 -0.0437 -0.0548  0.0855
 5867W        W 9918   5.241   5.635   4.490 -0.0582  0.0876  0.1439
 5868W        W 9919   0.556   5.794  12.472  0.0244  0.1435  0.1493
 5869W        W 9920   8.820   2.672   0.476 -0.1288 -0.1714  0.1538
 5870W        W 9921   6.435   8.969   9.285 -0.1258 -0.4788 -0.1437
 5871W        W 9922   1.650   1.512   2.334  0.1101 -0.3528  0.1651
 5872W        W 9923   2.166  10.061  13.745 -0.0619 -0.1048  0.2097
 5873W        W 9924   0.787  10.157  10.625  0.1695 -0.2455  0.1226
 5874W        W 9925   5.099   7.398   3.144 -0.3698 -0.1731  0.2801
 5875W        W 9926   7.706   1.785  14.051 -0.0625 -0.0208  0.1206
 5876W        W 9927   5.257  10.012   0.414 -0.0071 -0.0968  0.0448
 5877W        W 9928   7.983   8.928   0.994 -0.0985 -0.0545  0.1625
 5878W        W 9929   5.327   2.599   0.663 -0.0171  0.0383  0.2337
 5879W        W 9930   1.298   5.206   4.514 -0.2884  0.3055 -0.0483
 5880W        W 9931   2.201   3.588   9.606  0.0303 -0.2561  0.0077
 5881W        W 9932   1.283   2.842   4.053 -0.2365 -0.0944 -0.2005
 5882W        W 9933   5.248   2.363   4.265 -0.0250 -0.0528  0.0015
 5883W        W 9934   8.399   6.855  12.798  0.1839 -0.0995  0.0362
 5884W        W 9935   1.371   1.168   4.184 -0.0171  0.0509 -0.1436
 5885W        W 9936   3.571   5.508  13.848  0.1936  0.2303  0.0158
 5886W        W 9937   3.301   4.856  12.542 -0.0182  0.0621 -0.0845
 5887W        W 9938   1.988   9.594   4.035  0.2291 -0.0836  0.1295
 5888W        W 9939   7.466   5.088  13.766 -0.0253  0.1595 -0.0361
 5889W        W 9940   9.595   3.065   0.126  0.2454  0.0194 -0.0792
 5890W        W 9941   9.241   0.819  13.602 -0.1161 -0.0210  0.1730
 5891W        W 9942   4.082   5.095   2.229  0.2802  0.1622 -0.0742
 5892W        W 9943   6.122   9.411   9.462  0.4366 -0.0037  0.1964
 5893W        W 9944   5.725   0.690   1.939  0.1626  0.0827 -0.4691
 5894W        W 9945   3.451   2.563   9.938 -0.3285  0.2991  0.0917
 5895W        W 9946   0.903   8.809   9.279 -0.0748  0.0621 -0.1100
 5896W        W 9947   9.701   9.656  10.349  0.0798  0.3742 -0.2199
 5897W        W 9948   9.860   5.050   2.640 -0.1149  0.2404  0.0716
 5898W        W 9949   2.098   3.693   2.253  0.2198 -0.0217 -0.1970
 5899W        W 9950   6.112   7.860  12.780  0.0209 -0.0644  0.0602
 5900W        W 9951   6.177   3.373   9.673  0.1485 -0.1356 -0.5056
 5901W        W 9952   0.876   2.942   3.738  0.1324 -0.0669  0.0583
 5902W        W 9953   0.524   8.194   4.774  0.1166  0.0255  0.1934
 5903W        W 9954   4.658   8.674   3.914  0.0281  0.2455 -0.1058
 5904W        W 9955   6.740   7.955   2.704 -0.1701  0.0847  0.0195
 5905W        W 9956   8.485  10.146   1.030 -0.0968 -0.1292  0.4218
 5906W        W 9957   8.985   9.862  10.421  0.2384 -0.3487 -0.0141
 5907W        W 9958   7.027   9.114   0.066 -0.2134  0.1066 -0.0602
 5908W        W 9959   1.710   6.078   3.578  0.0927 -0.3202 -0.1773
 5909W        W 9960   2.619   5.911  11.084  0.0201  0.1305  0.4136
 5910W        W 9961   4.643   6.291   2.908 -0.0551  0.3121 -0.0481
 5911W        W 9962   0.639   8.949   2.251  0.0843 -0.1544  0.0709
 5912W        W 9963   6.688   3.286   3.596  0.1358 -0.0793 -0.1929
 5913W        W 9964   7.444   8.915  10.477 -0.1628 -0.1197  0.2174
 5914W        W 9965   8.799   9.053  13.192 -0.0449 -0.1185  0.1933
 5915W        W 9966   2.805   1.142  12.457 -0.3263 -0.2700  0.2020
 5916W        W 9967   8.946   0.341  10.784  0.3566 -0.1529 -0.0709
 5917W        W 9968   7.840   9.193  11.569  0.3603  0.0112 -0.0222
 5918W        W 9969   3.682   1.418   2.886 -0.0237  0.1230 -0.0894
 5919W        W 9970   2.311   2.432  11.791  0.1837  0.2057  0.0367
 5920W        W 9971   2.591   1.537   5.180  0.0924 -0.3443  0.0268
 5921W        W 9972  10.122   3.273  13.988  0.4245  0.1783 -0.3835
 5922W        W 9973   9.233   9.761   4.812 -0.1056 -0.2499  0.2251
 5923W        W 9974   7.482   1.060  10.516  0.0582 -0.3151  0.0868
 5924W        W 9975   4.012   1.979   3.935 -0.0449  0.1806  0.1714
 5925W        W 9976   5.836   0.765  12.291  0.1735 -0.0859  0.0209
 5926W        W 9977   7.066   3.480  12.744 -0.0465 -0.0774  0.1610
 5927W        W 9978   4.890   5.303   3.026  0.0074 -0.0317  0.3026
 5928W        W 9979   8.615   5.996   3.102  0.2057 -0.1556  0.1468
 5929W        W 9980   5.226   6.720  13.624 -0.3189 -0.0402  0.3066
 5930W        W 9981   9.939   0.828   1.382  0.3720  0.2371 -0.1047
 5931W        W 9982   2.433   9.475   2.187  0.0003 -0.1922  0.0896
 5932W        W 9983   6.683   8.227  11.662 -0.1416 -0.0193 -0.2064
 5933W        W 9984   1.146   2.649  12.390 -0.3491 -0.1409  0.1964
 5934W        W 9985   1.000   1.282   2.868 -0.0610 -0.2339  0.0817
 5935W        W 9986   1.645   0.053  13.902 -0.0025  0.1440 -0.0018
 5936W        W 9987   4.819   9.779   2.944  0.3517 -0.0723  0.0574
 5937W        W 9988   0.357   6.978   2.932  0.0241 -0.0482 -0.0837
 5938W        W 9989   3.995   4.923   4.396 -0.0326 -0.0771  0.0060
 5939W        W 9990   6.308  10.126  11.731  0.0254 -0.1249 -0.2123
 5940W        W 9991   4.288   6.631  13.163 -0.0148  0.0087 -0.1052
 5941W        W 9992   0.974   1.801   2.998 -0.2154  0.1691 -0.3526
 5942W        W 9993   3.540   7.634  12.949  0.0884 -0.1051 -0.0537
 5943W        W 9994   1.999   2.383   3.928  0.1254  0.1414  0.3662
 5944W        W 9995   6.418   0.699   1.494 -0.1329  0.1310 -0.2100
 5945W        W 9996   8.021   1.730   2.491  0.7470 -0.1648  0.0824
 5946W        W 9997   4.652   6.884  13.439 -0.0117  0.4009  0.1977
 5947W        W 9998   3.852   1.078  10.958  0.1838  0.3079 -0.2186
 5948W        W 9999   3.808   6.234   1.595 -0.0733 -0.2068 -0.1079
 5949W        W10000   0.278   6.321   4.260 -0.0045 -0.1084  0.0198
 5950W        W10001   1.999   9.539   3.483  0.3072 -0.2480  0.1302
 5951W        W10002   4.497   4.334  11.287  0.0078  0.0148 -0.2316
 5952W        W10003   2.287   8.820   1.696 -0.0019  0.1514  0.0781
 5953W        W10004   5.051   1.278   9.828  0.0993 -0.1729  0.2371
 5954W        W10005   1.938   2.409   3.230  0.0023  0.0787  0.4205
 5955W        W10006   8.291   2.021  11.591 -0.3954  0.2334  0.0643
 5956W        W10007   9.450   1.773  11.615 -0.0537 -0.0169 -0.1842
 5957W        W10008   2.520   6.557  13.923 -0.2797  0.0490  0.0933
 5958W        W10009   8.112   9.722   2.762 -0.0538  0.0515 -0.1395
 5959W        W10010   2.306   5.716   9.006 -0.2502 -0.2218 -0.0231
 5960W        W10011   3.269   2.939   8.645 -0.1368  0.0035  0.0245
 5961W        W10012   4.128   1.523   3.761 -0.1453  0.1309  0.1478
 5962W        W10013   8.783   9.357  10.046  0.3069 -0.0007 -0.1334
 5963W        W10014   8.721   8.023   5.114 -0.0513 -0.3183  0.2957
 5964W        W10015   3.287   3.876  12.467 -0.1445 -0.0253 -0.0126
 5965W        W10016   0.537   7.445   4.067 -0.1051  0.0093  0.2202
 5966W        W10017   3.139   2.823  10.919 -0.2828 -0.3577  0.4530
 5967W        W10018   6.151   0.955  11.830 -0.0736  0.2684  0.3018
 5968W        W10019   7.034   1.637  12.422  0.0639 -0.2008  0.0120
 5969W        W10020  10.111   1.668  13.806 -0.0112  0.1580  0.2656
 5970W        W10021   4.965   1.168   0.435 -0.0137  0.1518 -0.1192
 5971W        W10022   6.029   7.856  10.980  0.1864  0.1822  0.2125
 5972W        W10023   6.658   6.966   2.537  0.0314 -0.2515  0.1277
 5973W        W10024   2.292   9.615  14.014 -0.1929  0.1041 -0.2079
 5974W        W10025   0.551   1.301   0.331 -0.0946 -0.3333 -0.1354
 5975W        W10026   2.640   4.229  11.998 -0.0952 -0.1259 -0.4352
 5976W        W10027   1.444   1.876  13.023 -0.0998 -0.2995 -0.0374
 5977W        W10028   3.892   0.300   3.059 -0.3145 -0.3106 -0.1210
 5978W        W10029   5.780   3.725   2.934  0.0406 -0.2844 -0.1488
 5979W        W10030   4.763   9.749  10.092  0.3065  0.1660 -0.0065
 5980W        W10031   7.327   0.816  12.306 -0.0034  0.1040 -0.0772
 5981W        W10032   6.106   6.745   3.364  0.0258 -0.1743 -0.2868
 5982W        W10033   4.857   6.988   5.063 -0.3164 -0.0710 -0.2465
 5983W        W10034   3.491   3.870   9.980 -0.0958  0.0366  0.0193
 5984W        W10035   1.178   2.544   4.529 -0.0436  0.3111 -0.0327
 5985W        W10036   1.078   9.046   9.910 -0.1336  0.2019  0.1863
 5986W        W10037   5.821   2.203   4.152 -0.0878 -0.0036 -0.3328
 5987W        W10038   1.563   7.260  11.296 -0.1605  0.0815  0.2048
 5988W        W10039   6.533   5.723   5.555  0.0227 -0.0871  0.2568
 5989W        W10040   9.621   9.502   2.092  0.2811 -0.1565  0.1312
 5990W        W10041  10.138   2.965   1.929 -0.1700  0.0603  0.2366
 5991W        W10042   7.583   0.528   3.744  0.0262  0.1012 -0.1614
 5992W        W10043   5.712   0.645  10.705  0.0000 -0.0570 -0.2033
 5993W        W10044   2.672   7.674   9.448 -0.1433 -0.1992  0.0769
 5994W        W10045   2.792   9.704  11.898 -0.1944 -0.2432  0.4323
 5995W        W10046   6.213   1.493  11.300 -0.2899 -0.0110  0.0450
 5996W        W10047   9.902   1.305  14.039 -0.3689  0.3903  0.1224
 5997W        W10048   4.270   7.188   2.714 -0.0400 -0.1784  0.1002
 5998W        W10049   8.042   9.454   0.765 -0.0921 -0.2948  0.1877
 5999W        W10050   1.376   3.229  13.486  0.1183  0.2047  0.4122
 6000W        W10051  10.027   0.742   0.045  0.0728 -0.0216 -0.2466
 6001W        W10052   0.262   2.319   9.516  0.1266 -0.3569 -0.1752
 6002W        W10053   5.567   6.345   1.632  0.3282 -0.1063  0.5376
 6003W        W10054   0.004   0.270   4.086 -0.0765 -0.0786  0.0758
 6004W        W10055   1.359   5.221  10.135 -0.1541  0.1911 -0.4182
 6005W        W10056   6.027   7.709   2.711 -0.1559  0.4230 -0.1528
 6006W        W10057   8.656   4.634  12.534  0.3123 -0.0921 -0.2448
 6007W        W10058   4.626   3.184   2.280 -0.0664 -0.0398 -0.1501
 6008W        W10059   8.294   8.562  13.883 -0.1695 -0.2731  0.0243
 6009W        W10060   8.390   2.940  10.525 -0.2011  0.0964 -0.2918
 6010W        W10061   3.460   4.419   1.244 -0.1242  0.0572  0.0419
 6011W        W10062   5.220   3.342  13.953  0.0292  0.2305 -0.0455
 6012W        W10063   8.078   6.568  13.050  0.2752 -0.0522  0.1805
 6013W        W10064   5.239   9.192   8.371 -0.0232  0.1417 -0.4127
 6014W        W10065   5.645   2.011  11.888  0.0520  0.2855  0.1306
 6015W        W10066   1.752   0.955  10.159  0.0958 -0.1542  0.0827
 6016W        W10067   5.981   0.542   1.358  0.1622 -0.1295 -0.1512
 6017W        W10068   9.523   9.204   1.663  0.2215  0.1290 -0.0536
 6018W        W10069   4.292   6.280  10.742  0.1678  0.1902  0.0071
 6019W        W10070   9.537   2.927   2.337  0.1322  0.4319  0.2111
 6020W        W10071   3.906   9.951   0.471 -0.1385 -0.2231 -0.0738
 6021W        W10072   2.975   4.400  12.379 -0.0364 -0.1569  0.1264
 6022W        W10073   5.206   7.634   1.690 -0.0664  0.2113 -0.0770
 6023W        W10074   7.692   5.943  12.693 -0.0037 -0.1206 -0.0432
 6024W        W10075   4.629   2.049  11.941 -0.0580  0.3059 -0.1144
 6025W        W10076   8.671   7.659   1.305 -0.0495  0.0279 -0.2612
 6026W        W10077   3.795   2.918  11.557  0.1381  0.0600 -0.4289
 6027W        W10078   8.577   5.029  11.390 -0.2042  0.0142  0.1743
 6028W        W10079   3.637   8.460   2.334  0.0681 -0.4233  0.2791
 6029W        W10080   2.491   0.173  14.044  0.0908  0.0896  0.2258
 6030W        W10081   4.074   2.699   4.257 -0.0158  0.1761  0.0053
 6031W        W10082   7.412   0.826   1.490  0.2157 -0.0886  0.1997
 6032W        W10083   6.530  10.146   2.477  0.1327 -0.1401 -0.1625
 6033W        W10084  10.105  10.035   3.422 -0.1478  0.0334 -0.1401
 6034W        W10085   3.114   0.856   4.853  0.0843  0.0527 -0.0843
 6035W        W10086   7.438   5.091   2.839  0.1184  0.0527 -0.0851
 6036W        W10087   3.044   5.870   1.770 -0.0735  0.0466 -0.0625
 6037W        W10088   3.090   7.397   9.273 -0.0321  0.2688  0.0969
 6038W        W10089   0.864   3.131  12.238  0.1848  0.1547 -0.2882
 6039W        W10090   2.948   6.751   5.440  0.1843  0.0736 -0.2571
 6040W        W10091   3.733   2.528   9.385 -0.1509  0.2219 -0.3498
 6041W        W10092   5.531   0.449   3.347  0.2610 -0.0667 -0.0944
 6042W        W10093   6.017   7.645   0.325  0.1227  0.1044  0.1637
 6043W        W10094   6.375   4.022  12.191 -0.1732  0.0906 -0.1733
 6044W        W10095   2.116   0.168   3.440 -0.0097  0.0778  0.2724
 6045W        W10096   0.760   2.760   0.109 -0.3146 -0.1293 -0.1192
 6046W        W10097   5.157   8.590   0.044 -0.1718  0.0812  0.1521
 6047W        W10098   6.478   5.286  10.848  0.2391  0.3968  0.3541
 6048W        W10099   5.500   8.336   4.321  0.1296  0.1461  0.2075
 6049W        W10100   9.834   7.439   0.436  0.0410 -0.0450 -0.0071
 6050W        W10101   0.867   0.597   1.498 -0.1358 -0.0732  0.1259
 6051W        W10102   9.243   9.278   9.846  0.1278 -0.2727 -0.0413
 6052W        W10103   9.394   3.480   2.968  0.0784  0.2447 -0.2475
 6053W        W10104   6.068   2.725  11.106 -0.0291  0.0498  0.2440
 6054W        W10105   8.136   7.492   0.513 -0.0117 -0.1250 -0.0306
 6055W        W10106   0.083   1.705   2.004  0.0058  0.0759  0.1537
 6056W        W10107   4.352   5.593   2.112 -0.1980  0.3932 -0.0266
 6057W        W10108   5.042   9.767   4.388  0.0298  0.0449  0.0763
 6058W        W10109   5.301   5.143   9.282 -0.1576 -0.1775  0.3522
 6059W        W10110   0.184   8.218  12.054 -0.2240 -0.1999 -0.2599
 6060W        W10111   8.548   8.168  13.910 -0.1865  0.3379  0.0226
 6061W        W10112   2.712   4.750  10.405  0.0040 -0.0584  0.1452
 6062W        W10113   2.361   6.775   3.717  0.0313  0.2803 -0.2800
 6063W        W10114   5.346   6.426  13.241  0.5330 -0.0062  0.0445
 6064W        W10115   1.136   0.187   0.764 -0.0810 -0.1371 -0.1959
 6065W        W10116   4.905   3.179  11.557 -0.0677 -0.0832  0.3693
 6066W        W10117   4.472   4.562   2.077 -0.1435 -0.1521  0.1647
 6067W        W10118   5.107   2.514   8.513  0.2093  0.1884  0.0498
 6068W        W10119   3.484   7.303  13.503 -0.0588 -0.1269  0.0049
 6069W        W10120   1.310   3.711  13.308  0.0877 -0.1786  0.1945
 6070W        W10121   3.017   5.052  10.104 -0.0625  0.4390 -0.3406
 6071W        W10122   4.875   0.473  10.222 -0.2519 -0.1840 -0.1615
 6072W        W10123   0.214   5.552  12.142  0.1189 -0.2277  0.1733
 6073W        W10124   7.727   5.995  13.228 -0.0976 -0.0205  0.0848
 6074W        W10125   0.394   6.853   2.133  0.2676 -0.0391 -0.1487
 6075W        W10126   5.127   9.358  13.428 -0.0535  0.2458  0.0842
 6076W        W10127   3.462   8.628   4.569 -0.0276 -0.3188  0.0205
 6077W        W10128   0.808   6.238   1.762  0.0175 -0.0225 -0.1017
 6078W        W10129   1.493   2.686  10.853 -0.0703  0.2138 -0.2831
 6079W        W10130   5.324   3.391   4.386  0.1655  0.0806  0.3234
 6080W        W10131   2.982   7.304  12.266 -0.2539  0.2158  0.2495
 6081W        W10132   4.392   9.526   0.450 -0.1843  0.1014 -0.0604
 6082W        W10133   3.800   7.726   5.606  0.0908 -0.1427 -0.3322
 6083W        W10134   6.753   7.977  13.805  0.2020  0.1536 -0.0544
 6084W        W10135   1.670   4.780   0.971  0.1505  0.1388 -0.0094
 6085W        W10136   7.084   4.756   4.758 -0.0804 -0.0161  0.1161
 6086W        W10137   9.950   0.268   4.559  0.0872  0.0672  0.0619
 6087W        W10138   1.521   5.203   1.330 -0.1077  0.0075  0.2457
 6088W        W10139   0.333   0.890  11.506  0.4090  0.0093  0.2092
 6089W        W10140   8.367   1.114  11.347 -0.0395  0.0102 -0.1372
 6090W        W10141   7.618   6.989  10.262  0.2059 -0.3179 -0.4548
 6091W        W10142   3.765   6.994  10.999  0.0215  0.2380  0.0741
 6092W        W10143   8.172   0.165  13.399 -0.1030 -0.1242  0.0230
 6093W        W10144   2.548   9.308  13.179  0.0326 -0.0753 -0.1624
 6094W        W10145   3.320   0.381   1.922 -0.1511  0.1999  0.1831
 6095W        W10146   5.312   2.096   0.481 -0.0999  0.0855  0.0543
 6096W        W10147   5.758   5.297  13.487 -0.2248 -0.3473 -0.0150
 6097W        W10148   4.703   4.099   0.376  0.0973 -0.0459  0.0131
 6098W        W10149   2.587   8.822  10.012  0.3448 -0.2388 -0.1158
 6099W        W10150   5.576   9.772   1.434 -0.4801  0.2878 -0.0928
 6100W        W10151   6.484   9.454   3.881 -0.1049  0.3070  0.1383
 6101W        W10152   9.441   4.326   3.172  0.0549  0.0527  0.0133
 6102W        W10153   6.280   8.330   2.083 -0.1410 -0.0464  0.0024
 6103W        W10154   9.569   8.804  12.096  0.0993  0.1327  0.2630
 6104W        W10155   6.557   5.947  10.746 -0.3882  0.0090  0.2719
 6105W        W10156   5.807   0.509   0.702 -0.0155 -0.0669  0.0085
 6106W        W10157   2.709   6.336  10.006  0.0572 -0.1569 -0.1452
 6107W        W10158   2.444   2.448  13.992  0.6512  0.1301 -0.1504
 6108W        W10159   1.559   8.651  13.911 -0.4512 -0.1819 -0.0402
 6109W        W10160   2.632   5.162  13.971  0.1616  0.2237  0.1765
 6110W        W10161   9.197   7.604  12.923  0.0402  0.2749  0.1057
 6111W        W10162   3.931   4.417   1.442 -0.0398 -0.0245 -0.0151
 6112W        W10163   1.068   6.670   1.637  0.0918  0.2680 -0.2066
 6113W        W10164   8.235   5.730  11.482  0.3409 -0.1151  0.3769
 6114W        W10165   4.734   6.236   0.020  0.0750 -0.1114 -0.0716
 6115W        W10166   3.058   6.742  10.067 -0.2653 -0.2880 -0.0827
 6116W        W10167   6.723   7.913   3.344 -0.3626  0.0315 -0.0416
 6117W        W10168   1.626   1.918  11.363  0.0108 -0.2461 -0.3964
 6118W        W10169   7.713   2.762  13.085  0.0527  0.1559 -0.1421
 6119W        W10170   0.135   7.720  12.185  0.2824  0.4699  0.1923
 6120W        W10171   5.740   4.018  10.170 -0.0499  0.1293 -0.1674
 6121W        W10172   4.232   0.163  12.735  0.1175  0.3898 -0.0641
 6122W        W10173   1.204   7.426   3.327 -0.0211  0.1284  0.0970
 6123W        W10174  10.077   8.703   3.079  0.0717 -0.0304 -0.2520
 6124W        W10175   5.220   7.027   4.070 -0.0432 -0.1291 -0.2978
 6125W        W10176   4.047   0.598  12.533  0.1515 -0.0187  0.0359
 6126W        W10177   1.453   2.781  13.160  0.1225 -0.1917 -0.4283
 6127W        W10178   0.432   1.793  13.093  0.1668  0.1613 -0.1835
 6128W        W10179   7.866   8.257   2.815 -0.1142 -0.2833  0.0770
 6129W        W10180   0.210   3.473   2.067 -0.1271  0.3676 -0.1868
 6130W        W10181   0.342   9.436   2.785  0.0094 -0.0409  0.2093
 6131W        W10182   6.292   9.281  10.225 -0.1642 -0.2866 -0.0506
 6132W        W10183   7.791   2.226   4.329 -0.2521  0.1076 -0.2684
 6133W        W10184   9.426   9.381   3.049 -0.0393 -0.0346  0.0672
 6134W        W10185   4.058   8.255   9.031 -0.1451  0.2409  0.0766
 6135W        W10186   6.462   9.014   4.615  0.0088 -0.0899 -0.1999
 6136W        W10187   7.813   9.810  12.012  0.2091 -0.1166  0.0293
 6137W        W10188   9.827   7.377  11.121 -0.1904  0.1908 -0.0474
 6138W        W10189   7.211   1.265   4.344  0.1768 -0.1841 -0.1804
 6139W        W10190   3.920   2.786  10.723  0.0679  0.2832  0.2541
 6140W        W10191   2.940   0.427  10.794  0.0404  0.1874 -0.0537
 6141W        W10192   8.799   6.867  10.228  0.2773 -0.0364  0.3427
 6142W        W10193   7.391   0.196   5.556  0.3037 -0.1131  0.0679
 6143W        W10194   6.101   9.642  13.674  0.0239 -0.0074  0.6010
 6144W        W10195   4.173   9.005   3.849  0.2163 -0.2377  0.0653
 6145W        W10196   9.857   2.662  11.664 -0.0789  0.0170 -0.0352
 6146W        W10197   3.882   7.992   3.548 -0.1483 -0.0418  0.0231
 6147W        W10198   3.048   9.553   9.624 -0.0557 -0.0020 -0.2349
 6148W        W10199   3.498   3.678  11.586 -0.0613  0.1778 -0.1186
 6149W        W10200   1.380   1.785   3.270 -0.1493  0.0385 -0.1939
 6150W        W10201   5.674   5.290   9.636 -0.1970 -0.2864  0.0614
 6151W        W10202   0.696   5.769   1.745  0.1317 -0.0137 -0.3398
 6152W        W10203   8.231   0.061   2.484 -0.1625 -0.0338 -0.3999
 6153W        W10204   8.751   1.357  12.684 -0.0415 -0.2452  0.0692
 6154W        W10205   9.114   5.189  13.875  0.0114  0.2994 -0.1679
 6155W        W10206   1.556   4.714   1.492  0.2492  0.1115  0.0747
 6156W        W10207   9.976   8.529  11.867  0.0345 -0.0440  0.0966
 6157W        W10208   3.310   0.494   3.072 -0.1020 -0.2214 -0.1355
 6158W        W10209   4.934   7.720  13.414 -0.3688  0.0251  0.0999
 6159W        W10210  10.051   4.872  11.964  0.2241 -0.1090 -0.0715
 6160W        W10211   4.320   9.483   3.927 -0.1590 -0.1494 -0.1789
 6161W        W10212   9.203   6.193   0.748  0.1843  0.2249  0.2649
 6162W        W10213   3.213   4.419   4.276  0.0197 -0.0539 -0.4977
 6163W        W10214   8.958   2.473   1.389 -0.0949  0.3576  0.0128
 6164W        W10215   2.725   5.956   9.062 -0.2126 -0.2244 -0.0106
 6165W        W10216   8.346   9.859  11.795 -0.0377 -0.0754  0.0048
 6166W        W10217   7.335   1.558  10.702 -0.1353  0.0735  0.2130
 6167W        W10218   7.390   9.234   3.728  0.0222  0.0434  0.1687
 6168W        W10219   7.311   4.196  10.223 -0.1614  0.3390  0.2443
 6169W        W10220   5.751   2.304  13.516  0.1631  0.0532  0.1026
 6170W        W10221   3.291   2.089   4.109  0.1979  0.4066  0.3180
 6171W        W10222   8.014   3.538   2.405  0.2077  0.0395 -0.1128
 6172W        W10223   8.922   9.482  13.441  0.0018  0.1124  0.1067
 6173W        W10224   7.666   7.709   0.643  0.0026 -0.1213  0.3264
 6174W        W10225   1.613   8.511   2.706  0.0197  0.0721 -0.2575
 6175W        W10226   4.560   8.802  13.388  0.3887 -0.1622 -0.1671
 6176W        W10227   5.987   8.136   0.269 -0.0485 -0.1355  0.0968
 6177W        W10228   4.220   4.263   9.529 -0.0976  0.2512 -0.0820
 6178W        W10229   6.140   2.812   2.674  0.0239 -0.1573  0.1126
 6179W        W10230   3.927   5.564   5.122  0.1814 -0.1756 -0.1173
 6180W        W10231   5.303   6.499   3.829  0.2465  0.0018  0.0247
 6181W        W10232   1.272   9.436   0.476 -0.0155  0.0404  0.1528
 6182W        W10233   1.388   1.513  13.731  0.2436 -0.1021 -0.2382
 6183W        W10234   6.215   0.746   8.427  0.1405  0.0903 -0.1204
 6184W        W10235   0.726   9.810  11.655  0.0838 -0.0843 -0.1482
 6185W        W10236   5.994   2.652  13.151  0.1311 -0.0836 -0.1514
 6186W        W10237  10.001   0.741  10.237 -0.1481  0.1993 -0.3122
 6187W        W10238   2.255   5.169   0.568 -0.0444  0.0988  0.0305
 6188W        W10239   5.605   5.755   9.333  0.1093  0.2807 -0.0214
 6189W        W10240   9.857   6.608   0.015  0.0904 -0.0836 -0.0956
 6190W        W10241   1.959   3.166   4.442  0.2137  0.1068 -0.1638
 6191W        W10242   1.663   0.071   2.094  0.1205  0.2069 -0.2432
 6192W        W10243   3.724   0.836  11.886 -0.0573 -0.0725  0.1406
 6193W        W10244   4.891   0.925   2.179  0.0670 -0.1058 -0.0544
 6194W        W10245   4.788   5.777   9.452 -0.0824 -0.0718 -0.3818
 6195W        W10246   5.949   7.176  13.365 -0.1493 -0.1553  0.0391
 6196W        W10247   3.946   8.679   5.369 -0.0473  0.1294 -0.2938
 6197W        W10248   9.289   9.748   6.074 -0.5340 -0.0640 -0.2283
 6198W        W10249   5.805   5.395  10.477 -0.1269 -0.0660  0.1126
 6199W        W10250   1.457   4.219  12.799  0.2450 -0.0708 -0.0121
 6200W        W10251   6.680   4.812   3.198  0.0511 -0.1039  0.3382
 6201W        W10252   0.528   4.260  13.057 -0.3145 -0.3578  0.0653
 6202W        W10253   0.069   1.981  12.783 -0.0433  0.0491 -0.2961
 6203W        W10254   2.690   6.325   5.154  0.0552 -0.1867  0.3455
 6204W        W10255   0.056   5.962   1.835 -0.2153  0.1302 -0.4617
 6205W        W10256   0.851   4.230   0.057  0.2416 -0.1763 -0.0580
 6206W        W10257   0.844   8.542   0.563 -0.2282  0.3387  0.0127
 6207W        W10258   2.372   8.926  10.856  0.0168  0.3578 -0.0845
 6208W        W10259   1.015   7.284   4.196 -0.2686  0.1259  0.0103
 6209W        W10260   3.907   9.400   0.295  0.0578  0.0062  0.0239
 6210W        W10261   5.438   9.011   2.221  0.2137 -0.1198  0.1614
 6211W        W10262   7.886   1.618  11.968 -0.2026  0.3250 -0.0269
 6212W        W10263   0.311   4.883  12.388 -0.0320 -0.0140  0.0637
 6213W        W10264   2.123   8.651   2.546 -0.1579 -0.0638 -0.0999
 6214W        W10265   5.756   0.227   2.091  0.1885 -0.1647 -0.0966
 6215W        W10266   3.422   1.139   1.903  0.0893 -0.0648  0.3663
 6216W        W10267   5.655   6.261   2.275  0.0711 -0.1866 -0.0124
 6217W        W10268   5.456   7.800   4.537 -0.0101 -0.2728  0.0183
 6218W        W10269   5.707   8.553   2.246 -0.1560  0.0811 -0.4499
 6219W        W10270   1.729   9.961   2.656  0.0231  0.0776  0.1986
 6220W        W10271   3.662   4.820   2.151 -0.0743  0.0920  0.1253
 6221W        W10272   2.957   4.507  13.358  0.0025 -0.2197 -0.1021
 6222W        W10273   4.729   0.934  12.871  0.2055 -0.0219 -0.2132
 6223W        W10274   2.991   0.244  11.226 -0.0033 -0.0424 -0.0123
 6224W        W10275   3.915   2.434   9.855 -0.1554 -0.0116  0.0932
 6225W        W10276   4.851   1.802   1.245  0.0698  0.0541 -0.0130
 6226W        W10277   8.161   0.416  10.633 -0.4545 -0.0643 -0.0864
 6227W        W10278   1.835   6.451  10.605 -0.1486  0.2720 -0.1305
 6228W        W10279   5.585   5.973   4.612  0.2976  0.1286 -0.4448
 6229W        W10280   3.028   2.066  13.814  0.0457  0.2241 -0.0256
 6230W        W10281   0.116   7.657   0.820  0.4725  0.2585 -0.0988
 6231W        W10282   6.996   7.165   2.245 -0.2749 -0.0881  0.1425
 6232W        W10283   5.119   0.368   0.121 -0.2200  0.2911  0.0375
 6233W        W10284   3.866   5.424  10.179  0.1545  0.4554  0.1130
 6234W        W10285   7.496   0.250  12.995  0.0410 -0.0496  0.2642
 6235W        W10286   2.882   9.629  12.893 -0.1025 -0.1272 -0.0958
 6236W        W10287   6.487   0.261  14.022  0.1889  0.0609  0.1118
 6237W        W10288   7.990   4.823   2.971 -0.1372 -0.3701  0.0189
 6238W        W10289   1.198   0.749   2.449 -0.1260  0.1981 -0.1332
 6239W        W10290   6.331   0.297   3.710 -0.2225  0.4157  0.0096
 6240W        W10291   1.596   0.796   3.298 -0.2119  0.1142 -0.1984
 6241W        W10292  10.060   0.817   0.873 -0.3552 -0.2686 -0.0966
 6242W        W10293   2.090   5.961  10.570 -0.2584 -0.1223 -0.1518
 6243W        W10294   3.996   5.671   3.712  0.2932 -0.1297 -0.4879
 6244W        W10295   2.143   6.462   9.715 -0.1687  0.0070 -0.0297
 6245W        W10296   1.224   1.570  12.103 -0.1238 -0.0133 -0.1484
 6246W        W10297   5.296   5.970  10.148 -0.2164 -0.0133 -0.3848
 6247W        W10298   6.742   1.890  13.343 -0.1748  0.0211  0.0136
 6248W        W10299   7.477   9.350   2.308  0.0593  0.0897  0.1004
 6249W        W10300   4.335   8.971   0.452 -0.1283 -0.1220  0.0492
 6250W        W10301   8.583   0.926  12.005  0.0007  0.0507  0.1435
 6251W        W10302   5.433   9.171   4.913  0.1093 -0.0121 -0.3954
 6252W        W10303   4.779   5.351   9.154  0.0931  0.1990  0.2113
 6253W        W10304   1.832   3.521   8.712  0.0821 -0.2157 -0.3992
 6254W        W10305   0.031   5.361   0.731  0.0151 -0.0822  0.0645
 6255W        W10306   5.833   3.417  11.988 -0.0259  0.2655 -0.1945
 6256W        W10307   9.752   3.111   2.810  0.0359 -0.0962 -0.1213
 6257W        W10308   5.156   3.918   0.530 -0.1439 -0.2515  0.0842
 6258W        W10309   4.539   9.782  11.487 -0.1037  0.2711  0.0313
 6259W        W10310   1.089  10.087  12.299  0.1102  0.0770 -0.1017
 6260W        W10311   2.631   3.467  12.845 -0.0193  0.0354  0.0100
 6261W        W10312   5.275   0.512   9.414  0.0167  0.1600  0.1333
 6262W        W10313   8.339   7.154  12.030  0.1085  0.4554  0.0452
 6263W        W10314   6.576   9.716  11.949  0.1176  0.1399 -0.0781
 6264W        W10315   3.163   5.214   4.457  0.0849  0.1330 -0.0365
 6265W        W10316   4.010   7.509   1.100 -0.2923 -0.1464 -0.1892
 6266W        W10317   4.711   8.568   8.875  0.2348  0.0259 -0.1441
 6267W        W10318   1.004   9.381  13.567 -0.0271  0.0799 -0.0218
 6268W        W10319   3.224   1.694   2.085  0.1336  0.3187  0.1689
 6269W        W10320   4.670   4.084   3.786 -0.0643  0.1350 -0.0145
 6270W        W10321   1.659   0.844  11.135 -0.2138 -0.2669 -0.2239
 6271W        W10322   0.272   5.806  11.596  0.1274 -0.1205  0.2697
 6272W        W10323   2.046   8.112   3.600 -0.1546  0.3203  0.1186
 6273W        W10324   7.540   6.356  12.451  0.1117 -0.0763 -0.0910
 6274W        W10325   0.659   9.737   4.244  0.1020 -0.3419  0.1379
 6275W        W10326   1.715   8.295   3.134 -0.3707  0.0216  0.0862
 6276W        W10327   2.159   2.739  10.200  0.0642 -0.1383  0.2103
 6277W        W10328   3.517   6.659   2.831 -0.0429  0.3074 -0.2456
 6278W        W10329   3.853   2.126   0.526 -0.1519  0.4050 -0.4004
 6279W        W10330   0.874   9.845  11.211  0.0335  0.2253  0.2061
 6280W        W10331   1.329   9.490  10.255 -0.2184  0.1699 -0.2020
 6281W        W10332   1.187   5.055  12.463  0.0742  0.0009 -0.2306
 6282W        W10333   5.844   6.875   2.891  0.0693  0.0622  0.2485
 6283W        W10334   6.534   8.695  11.852  0.0015  0.0915  0.0682
 6284W        W10335   7.742   8.766   2.999 -0.2306  0.1797 -0.0133
 6285W        W10336   7.391   7.481   1.123 -0.1800  0.0784 -0.2653
 6286W        W10337   4.971   9.513  11.522 -0.0680  0.2964  0.0617
 6287W        W10338   8.784   9.485  12.925  0.3550  0.0293 -0.1398
 6288W        W10339   7.256   2.251  11.334  0.1362  0.0868  0.0407
 6289W        W10340   6.772   8.754  12.928 -0.4170  0.1210 -0.0779
 6290W        W10341   4.858   2.044   0.119 -0.1173 -0.1115 -0.1467
 6291W        W10342   0.888   6.877   0.868  0.0854  0.2150  0.2431
 6292W        W10343   5.623   9.485  11.302  0.0637  0.1389 -0.0533
 6293W        W10344   5.106   8.549   1.101 -0.2139  0.0397  0.1886
 6294W        W10345   3.438   9.286   9.995  0.0168  0.0473  0.0151
 6295W        W10346   7.272   0.361  12.441 -0.0176  0.2458 -0.2452
 6296W        W10347   4.834   7.065   0.349 -0.3691 -0.1469  0.2551
 6297W        W10348   2.749   3.123   2.322  0.0121 -0.0816  0.0337
 6298W        W10349   5.275   6.583   0.206  0.0062 -0.0264 -0.0313
 6299W        W10350   8.040   0.403   4.123  0.0306 -0.1019 -0.1839
 6300W        W10351   7.395   7.157   5.382 -0.1669 -0.0242 -0.1131
 6301W        W10352   5.373   2.612   2.918  0.2715 -0.0587  0.0877
 6302W        W10353   2.192   4.162   1.362  0.0485  0.0108  0.1483
 6303W        W10354   7.486   5.625  12.946  0.1430  0.1859  0.1457
 6304W        W10355   9.978   1.206  12.360 -0.2596 -0.1808  0.2206
 6305W        W10356   2.805   8.657  10.415  0.1140 -0.0001 -0.2123
 6306W        W10357   6.594   0.291  10.684  0.1883  0.0686 -0.0316
 6307W        W10358   6.772   7.348  11.956 -0.1826 -0.2921 -0.2214
 6308W        W10359   9.634   1.939  10.546 -0.1854 -0.1612 -0.2825
 6309W        W10360   6.886   7.105  12.480  0.2876 -0.1236 -0.1516
 6310W        W10361   5.564   9.570  10.340  0.2283 -0.1919 -0.0522
 6311W        W10362   5.350   2.446   9.549  0.2409 -0.5300 -0.1941
 6312W        W10363   2.216   6.326   3.877 -0.1026  0.1288  0.0715
 6313W        W10364   7.511   4.666  12.800 -0.0610  0.1453 -0.0838
 6314W        W10365   7.713   6.020   9.050 -0.0808 -0.2345 -0.1556
 6315W        W10366   7.161   9.878   0.457  0.0370 -0.0118  0.1195
 6316W        W10367   4.869   2.469   4.575  0.0302 -0.0792  0.0187
 6317W        W10368   8.035   6.541   4.571 -0.2823 -0.0785  0.4483
 6318W        W10369   0.944   8.209   1.010  0.1110  0.0556  0.1304
 6319W        W10370   4.203   7.228  11.070  0.3472  0.1151 -0.1881
 6320W        W10371   8.614   3.254   1.515  0.3698 -0.0704 -0.2935
 6321W        W10372   9.313   5.616   3.086 -0.1835  0.0941 -0.0471
 6322W        W10373   7.431   7.909   9.768  0.0712  0.0851 -0.0727
 6323W        W10374   8.212   1.580   0.197 -0.1633 -0.1958  0.2269
 6324W        W10375   0.409   0.970   5.018  0.1287  0.0006  0.1417
 6325W        W10376   0.499   2.943   2.793  0.1630  0.0399 -0.1554
 6326W        W10377   2.242   5.215  11.810  0.0439  0.0580  0.0273
 6327W        W10378   8.125   3.483  12.699 -0.3453  0.0423 -0.1530
 6328W        W10379   0.956   5.113   1.996  0.4318  0.0988  0.0708
 6329W        W10380   4.562   0.221   0.036  0.0417 -0.0409  0.1533
 6330W        W10381   0.474   4.011  11.259 -0.1009 -0.1414  0.2367
 6331W        W10382   6.964   2.916  10.539  0.0217 -0.0144 -0.2503
 6332W        W10383   1.495   0.326   2.584 -0.2891  0.1798 -0.0362
 6333W        W10384   4.163   3.839   9.209 -0.2427  0.0746  0.4225
 6334W        W10385   7.905   5.746  10.717  0.3543  0.0001  0.1674
 6335W        W10386   5.827   1.413  10.485  0.4880 -0.0578 -0.1924
 6336W        W10387   5.169   8.069   9.431  0.2260 -0.2298 -0.1528
 6337W        W10388   5.737   7.956  11.901 -0.2300  0.2187 -0.4626
 6338W        W10389   6.622   6.960  10.304 -0.1358 -0.0549 -0.1602
 6339W        W10390   6.721   3.362   3.033 -0.1549  0.2503  0.0582
 6340W        W10391   8.990   4.416   3.118 -0.0778 -0.1263  0.1782
 6341W        W10392   3.856   6.190   4.542 -0.1246 -0.0798 -0.1174
 6342W        W10393   0.798   6.893  10.750  0.0323 -0.0313  0.2884
 6343W        W10394   3.747   1.358  13.952  0.2583  0.0389 -0.1083
 6344W        W10395   3.430   2.614   2.936 -0.0613  0.3409 -0.2225
 6345W        W10396   7.090   8.997   2.174 -0.3297  0.0953 -0.0274
 6346W        W10397   8.795   8.521  11.668 -0.0255  0.0751 -0.1989
 6347W        W10398   2.739   2.825  13.789  0.0485  0.0935  0.3342
 6348W        W10399   4.618   3.266   0.892 -0.0113 -0.1190 -0.0437
 6349W        W10400   1.932   8.304  11.503  0.0530 -0.2402  0.1734
 6350W        W10401   2.811   9.269   4.446 -0.3930  0.1542 -0.0442
 6351W        W10402   4.112   3.454   9.635  0.0192 -0.0531 -0.1946
 6352W        W10403   1.628   0.474   8.949  0.0694  0.3069 -0.0235
 6353W        W10404   1.022   0.677  13.652 -0.2031 -0.1478  0.1501
 6354W        W10405   7.384   0.443   0.399  0.1946  0.2665  0.2282
 6355W        W10406   2.055   5.148   0.990 -0.1413 -0.2328  0.2425
 6356W        W10407   8.547   6.153  13.755  0.2241 -0.2103 -0.1621
 6357W        W10408   5.202   7.593   9.867 -0.2472  0.0000  0.0598
 6358W        W10409   1.141   4.059  13.759  0.0496 -0.4747  0.0188
 6359W        W10410   4.974   2.146  13.667  0.0483 -0.4310 -0.0434
 6360W        W10411   9.095   5.408   2.541 -0.0901 -0.0142  0.2040
 6361W        W10412   2.252   6.356  10.294  0.0189 -0.1751  0.0954
 6362W        W10413   2.323   7.875   4.553  0.2169  0.0292  0.0384
 6363W        W10414   2.945   3.247   1.703 -0.2762  0.0921 -0.4968
 6364W        W10415   5.990   0.885  11.311 -0.0115 -0.2821 -0.1695
 6365W        W10416   0.187   4.429  12.114 -0.0010  0.0273  0.1149
 6366W        W10417   6.247   4.559   1.383  0.0309 -0.1841  0.2948
 6367W        W10418   7.440   6.741   2.820 -0.1450  0.2129 -0.3148
 6368W        W10419   3.899   9.951  12.803  0.0283  0.0770 -0.1020
 6369W        W10420   0.163   6.555   5.106  0.1661  0.4283  0.0247
 6370W        W10421   6.204   9.101  12.051 -0.0725  0.1633 -0.1493
 6371W        W10422   9.858   2.308   1.203  0.3744  0.0349  0.2090
 6372W        W10423   2.815   1.608   9.575 -0.1057 -0.2581 -0.0793
 6373W        W10424   4.526   7.357  12.046  0.0443  0.2566  0.0346
 6374W        W10425   9.489   2.684  13.861  0.0559  0.1427  0.0439
 6375W        W10426   2.500   9.943   8.985  0.1100  0.0047 -0.1213
 6376W        W10427   4.500   1.196  11.581 -0.0954  0.1200  0.2364
 6377W        W10428   5.286   2.053   3.264  0.0957  0.3182 -0.0780
 6378W        W10429   1.888   4.540   0.095  0.2981 -0.1878 -0.0281
 6379W        W10430   1.104   9.946   1.777 -0.1727  0.0923  0.1622
 6380W        W10431   7.398   3.625   1.212 -0.1972  0.1026 -0.3327
 6381W        W10432   3.572   6.702   1.532  0.0048  0.1982 -0.0837
 6382W        W10433   8.280   1.378  10.039 -0.0080 -0.3025 -0.2950
 6383W        W10434   0.001   6.284   3.888  0.0328 -0.0869  0.1531
 6384W        W10435   1.922   7.379  11.845  0.1618  0.2671 -0.0593
 6385W        W10436   5.972   5.422   9.993 -0.3829 -0.3187 -0.2995
 6386W        W10437   7.346   8.736   9.306 -0.0360  0.3152  0.4737
 6387W        W10438   1.017   0.580   4.093 -0.1879  0.0301 -0.0356
 6388W        W10439   9.267   3.419  11.675 -0.0673  0.1651 -0.1324
 6389W        W10440   6.529   0.201   9.472 -0.5073 -0.2642 -0.1966
 6390W        W10441   0.667   2.399   3.068 -0.0130 -0.1803  0.0030
 6391W        W10442   8.967   1.356   0.482  0.1910  0.1288  0.1108
 6392W        W10443   0.928   6.014  12.772  0.4041 -0.1692 -0.1053
 6393W        W10444   7.559   6.196   1.759  0.1497 -0.1351 -0.3633
 6394W        W10445   4.773   8.241  12.443 -0.1187 -0.1752  0.1954
 6395W        W10446   4.137   5.427   1.616 -0.2375 -0.0214 -0.0837
 6396W        W10447   5.253   6.659   9.355 -0.0683 -0.0883 -0.0463
 6397W        W10448   6.143   2.570   4.010 -0.2662 -0.0639  0.1180
 6398W        W10449   9.688   1.391  11.939  0.3078 -0.2697 -0.0240
 6399W        W10450   8.278   0.621   0.250 -0.0928 -0.1471 -0.1369
 6400W        W10451   3.342   0.658   0.819 -0.1381  0.0317 -0.3271
 6401W        W10452   3.073   6.219  11.259 -0.1110 -0.3593  0.1976
 6402W        W10453   4.895   2.391   3.197 -0.0652  0.1015  0.1214
 6403W        W10454   1.895   7.699  12.273  0.4045  0.1950  0.0100
 6404W        W10455   7.241   6.965  12.836  0.0982  0.1804 -0.0249
 6405W        W10456   2.761   8.486   4.760 -0.2528 -0.1391 -0.0041
 6406W        W10457   1.331   4.390   1.823 -0.3091 -0.1686 -0.2056
 6407W        W10458   9.068   8.274  11.998  0.2049  0.0056  0.2131
 6408W        W10459   2.467   9.933   3.295 -0.1373  0.0789  0.0475
 6409W        W10460   0.103   1.045   9.808 -0.3078  0.0766 -0.2928
 6410W        W10461   3.242   2.380  12.120  0.0375  0.0232  0.0117
 6411W        W10462   3.871   4.791  10.630  0.0585 -0.1799 -0.0393
 6412W        W10463   6.788   0.296   2.803 -0.0115 -0.0253 -0.2289
 6413W        W10464   9.592   9.661  13.093  0.3186  0.3122  0.3425
 6414W        W10465   4.972   9.027  11.679  0.2133  0.0289 -0.1111
 6415W        W10466   4.309   3.828   1.009 -0.0025 -0.1921 -0.4304
 6416W        W10467   6.948   9.003   9.535  0.1987  0.1884  0.0694
 6417W        W10468   5.180   1.993   9.313 -0.0012  0.1137  0.2510
 6418W        W10469   9.070   0.294   2.765 -0.1517 -0.2277  0.0378
 6419W        W10470   5.822   2.857   3.113  0.2587 -0.1338 -0.1476
 6420W        W10471   3.094   7.576  12.649 -0.2909 -0.2099 -0.0121
 6421W        W10472   4.788   9.952  10.586  0.3118 -0.1829  0.0052
 6422W        W10473   0.740   9.974  12.737 -0.0827  0.3562  0.0761
 6423W        W10474   0.171   5.956   0.516  0.1311 -0.1216 -0.1755
 6424W        W10475   3.221   3.902   4.113  0.1637  0.2892  0.1306
 6425W        W10476   6.480   8.431   1.211  0.0929 -0.0652  0.2313
 6426W        W10477   2.507   7.837  13.196 -0.1339 -0.0871 -0.1535
 6427W        W10478   6.159   4.949   3.109  0.1570  0.0260  0.1771
 6428W        W10479   4.541   5.060   4.396  0.2054 -0.2129 -0.0951
 6429W        W10480   7.262   2.571   3.331  0.1732  0.2230 -0.2018
 6430W        W10481   8.799   8.781   4.662  0.2221 -0.1568 -0.0758
 6431W        W10482   6.182   6.502   4.173  0.3443  0.1049  0.0625
 6432W        W10483   6.568   2.477   2.662  0.0810 -0.2071  0.1611
 6433W        W10484   9.375   2.395  13.499 -0.0295  0.1136  0.0857
 6434W        W10485   2.030   3.190   0.584  0.2081 -0.2943 -0.0008
 6435W        W10486   3.724   5.731  12.700 -0.0168 -0.2153 -0.0410
 6436W        W10487   2.926   0.003   1.011 -0.2590  0.0912  0.1407
 6437W        W10488   6.328   6.816   9.087 -0.3691  0.1443 -0.2822
 6438W        W10489   3.797   3.126   4.161  0.3128  0.1407 -0.2081
 6439W        W10490   4.582   2.269   1.120  0.0025 -0.2517 -0.3473
 6440W        W10491   6.127   4.276  11.881  0.0046  0.3237 -0.2771
 6441W        W10492   8.729   3.568   2.259  0.3989  0.1510 -0.0385
 6442W        W10493   5.243   5.483  13.346  0.0461  0.3279 -0.0021
 6443W        W10494   3.861   6.319   2.137  0.0256 -0.1502  0.0181
 6444W        W10495   7.130   8.774   2.970  0.1570  0.0869  0.2556
 6445W        W10496   3.995   9.726  11.255 -0.2972  0.1162 -0.3933
 6446W        W10497   7.746   0.760  13.187 -0.1702 -0.3591 -0.1264
 6447W        W10498   3.360   4.182  13.623  0.1300  0.2076 -0.1890
 6448W        W10499   0.058   5.030  10.368  0.1296  0.0217 -0.1677
 6449W        W10500   0.548   9.833   9.814  0.1729  0.0649  0.1377
 6450W        W10501   9.225   3.014   3.085  0.4056  0.1243  0.0538
 6451W        W10502   0.232   2.317   1.306  0.0633 -0.0197 -0.2399
 6452W        W10503   9.286   1.603  10.788 -0.1091 -0.3118 -0.1635
 6453W        W10504   8.226   6.345   2.746  0.1065  0.2752 -0.0951
 6454W        W10505   0.221   2.479  10.024 -0.0808  0.0519  0.0253
 6455W        W10506   1.206   7.695   5.420  0.0745 -0.1709  0.1019
 6456W        W10507   5.147   2.118   1.517 -0.3750 -0.0276  0.0379
 6457W        W10508   6.277   4.761   0.847  0.1549  0.2546 -0.0077
 6458W        W10509   3.952   4.387  12.197 -0.1175  0.3358 -0.1529
 6459W        W10510   1.475   1.462   1.573  0.1271 -0.0465 -0.1090
 6460W        W10511   3.728   2.266  11.516  0.1080  0.1522 -0.1386
 6461W        W10512   6.673   9.292   3.029  0.1790 -0.1242 -0.0317
 6462W        W10513   7.506   2.399  13.525 -0.4432 -0.0317 -0.4532
 6463W        W10514   8.063   7.104  11.216  0.0899  0.3948 -0.3836
 6464W        W10515   4.705   6.730   8.960  0.2203  0.1151  0.4080
 6465W        W10516   4.825   7.861   3.332  0.2378  0.1971  0.3914
 6466W        W10517   2.646   6.225   2.413 -0.2204 -0.1053  0.1769
 6467W        W10518   7.220   7.079   0.288 -0.2871 -0.0165 -0.0143
 6468W        W10519   0.933   9.068   0.628  0.2246  0.0793  0.4939
 6469W        W10520   0.498   0.407   4.135  0.1812  0.2568  0.1297
 6470W        W10521   9.365   2.802  11.581 -0.0815 -0.0050  0.1627
 6471W        W10522   8.228   7.825  13.772  0.0722 -0.1250 -0.3438
 6472W        W10523   3.877   3.274  10.594 -0.0454 -0.1902  0.3264
 6473W        W10524   9.277   8.445   0.957 -0.2524  0.0195 -0.1957
 6474W        W10525   7.804   0.511   1.411 -0.0671 -0.2316  0.1827
 6475W        W10526   5.153   1.670   0.386  0.0496  0.0922 -0.1816
 6476W        W10527   5.768   1.627   4.491  0.0824 -0.0303 -0.3236
 6477W        W10528   1.280   8.750   0.761 -0.5859  0.0668  0.3375
 6478W        W10529   3.915   7.438  12.679 -0.0472 -0.2934 -0.1477
 6479W        W10530   3.665   9.622   3.162 -0.0101 -0.3910  0.2595
 6480W        W10531   5.070   5.246   2.455  0.2198  0.2473 -0.1175
 6481W        W10532   6.675   3.521   4.942 -0.1170 -0.3448 -0.2368
 6482W        W10533   9.078   9.459   1.568 -0.2467 -0.3440  0.0596
 6483W        W10534   5.581   7.947   2.866 -0.2205 -0.1949  0.1012
 6484W        W10535   3.614   9.863   9.607 -0.1435  0.2775  0.0955
 6485W        W10536   7.902   0.182   9.522 -0.0281  0.1162 -0.0502
 6486W        W10537   7.932   9.734   1.540 -0.0315  0.1053  0.1486
 6487W        W10538   5.119   5.091  12.568 -0.1696 -0.1793  0.0832
 6488W        W10539   6.872   1.995   1.553  0.1099 -0.4167  0.3238
 6489W        W10540   6.971   5.425  10.625  0.1902  0.2141 -0.1577
 6490W        W10541   7.474   8.823   2.531  0.1651  0.1589  0.3405
 6491W        W10542   1.767   6.779  12.658  0.5747 -0.3689  0.2546
 6492W        W10543   3.975   6.211   9.412  0.1441  0.0768 -0.2094
 6493W        W10544   8.224   4.092   1.066 -0.0480 -0.0936  0.0036
 6494W        W10545   6.744   4.873  11.729 -0.0384  0.2688  0.0793
 6495W        W10546   2.035   0.060  13.297 -0.1588  0.5242  0.0406
 6496W        W10547   9.533   7.799   9.486  0.0432 -0.2801  0.0834
 6497W        W10548   7.388   2.756  13.977 -0.5693  0.2502  0.0908
 6498W        W10549   3.956   9.324   2.379 -0.0324  0.0336 -0.1775
 6499W        W10550   5.644   6.485   4.725 -0.1467  0.1431  0.0712
 6500W        W10551   6.273   3.141  11.911  0.0228 -0.0032  0.0405
 6501W        W10552   6.210   4.724   2.168 -0.0422 -0.1181 -0.1623
 6502W        W10553   3.209   7.452   2.142  0.0392  0.3003  0.1221
 6503W        W10554   1.190   5.111  11.100  0.0392 -0.0899 -0.3120
 6504W        W10555   9.780   8.482   3.418  0.0920  0.0959 -0.3083
 6505W        W10556   7.247   7.160   9.435 -0.0971 -0.0879 -0.3929
 6506W        W10557   7.495   3.217   0.665  0.3799 -0.2092  0.1049
 6507W        W10558   5.450   1.283   0.140  0.3564 -0.0890  0.1179
 6508W        W10559   7.953   4.326   1.446  0.1425 -0.4582  0.5079
 6509W        W10560   2.102   7.117   0.456  0.1297 -0.3962 -0.1657
 6510W        W10561   8.175   9.820   3.234  0.1845 -0.1417  0.2086
 6511W        W10562   8.640   5.309   2.832 -0.1192  0.2454 -0.0543
 6512W        W10563   6.047   9.346   5.007  0.0855 -0.0943 -0.0788
 6513W        W10564   1.082   9.545   3.983 -0.0727  0.1012  0.2500
 6514W        W10565   1.617   9.288   2.197 -0.1074 -0.1129 -0.2996
 6515W        W10566   3.576   3.286   4.643  0.0175 -0.0133 -0.2114
 6516W        W10567   1.816   3.675  13.176  0.1676 -0.0587  0.2026
 6517W        W10568   3.059   1.870   4.647 -0.1394  0.0446 -0.0107
 6518W        W10569   1.046   1.648  13.417  0.1274 -0.0709  0.0685
 6519W        W10570   8.782  10.014  12.770 -0.0223 -0.1140  0.0893
 6520W        W10571   8.029   9.714  10.337 -0.2282 -0.2463  0.1296
 6521W        W10572   5.234   2.852   4.327  0.1986 -0.6193  0.1321
 6522W        W10573   8.845   2.211  13.733  0.1897 -0.2624  0.3277
 6523W        W10574   7.476   3.554  13.487  0.2598  0.1531 -0.1879
 6524W        W10575   0.785   8.159   3.343  0.2812 -0.1273  0.1294
 6525W        W10576   8.237   1.696  10.516 -0.0369 -0.1772  0.0118
 6526W        W10577   3.382   4.750  13.571  0.0787 -0.1414  0.2147
 6527W        W10578   1.862   3.542  11.998  0.0437 -0.3448  0.1537
 6528W        W10579   0.774   9.262   2.645 -0.0370 -0.0475  0.2677
 6529W        W10580   7.797   8.450   0.320  0.0021  0.0007  0.0180
 6530W        W10581   6.714   4.539   0.625 -0.2285  0.1931 -0.1817
 6531W        W10582   4.174   6.332  11.464 -0.0119  0.0893 -0.0327
 6532W        W10583   4.043   9.349   3.019 -0.2795 -0.0302  0.0117
 6533W        W10584   3.613   6.350  13.894  0.0578 -0.0433  0.1078
 6534W        W10585   9.857   5.215   2.137 -0.3178  0.3068 -0.2764
 6535W        W10586   4.898   0.808   0.060  0.4159 -0.0977  0.1836
 6536W        W10587   7.795   7.402  13.111 -0.0154 -0.0076  0.4150
 6537W        W10588   4.236   4.878   3.116  0.3111  0.2534  0.0373
 6538W        W10589   7.841   4.955  12.002 -0.2532 -0.0633 -0.3815
 6539W        W10590   3.700   7.750  10.343  0.1619  0.0681  0.0863
 6540W        W10591   1.653   6.229   4.108 -0.4985 -0.5760 -0.0284
 6541W        W10592   2.013   0.065   8.976 -0.0221  0.1425 -0.0243
 6542W        W10593   9.832   6.508  11.365 -0.2801  0.2251  0.2063
 6543W        W10594   7.585   1.580  11.350 -0.0089  0.0458 -0.0530
 6544W        W10595   5.939   4.428   0.648 -0.0013 -0.0007 -0.0459
 6545W        W10596   6.824   1.369   0.065 -0.0717  0.1955 -0.0112
 6546W        W10597   0.938   5.060  11.637 -0.2486  0.1293  0.1909
 6547W        W10598   4.478   5.022  11.187 -0.2948 -0.0223 -0.3134
 6548W        W10599   3.788   2.029   5.541  0.1676  0.0839 -0.1425
 6549W        W10600   5.344   1.357  11.665 -0.3787 -0.1881  0.0926
 6550W        W10601   8.343   9.475  13.333 -0.3712 -0.0889  0.0586
 6551W        W10602   2.450   3.230   1.513  0.0277  0.1220 -0.0632
 6552W        W10603   5.271   2.692   1.563 -0.0623 -0.2755 -0.2027
 6553W        W10604   7.569   4.615   2.847  0.0971  0.1358 -0.0493
 6554W        W10605   6.433   6.374  11.012 -0.0825 -0.3052 -0.3556
 6555W        W10606   2.341   3.971   0.860  0.1779  0.0841 -0.0589
 6556W        W10607   5.836   9.171  12.787 -0.2108  0.4984  0.0080
 6557W        W10608   0.421   3.696   1.657 -0.0076  0.0128  0.0511
 6558W        W10609   2.687   9.395   2.608 -0.3045  0.3335 -0.1806
 6559W        W10610   9.445   6.017   3.413  0.1600  0.2308 -0.0160
 6560W        W10611   1.790   9.634   1.804  0.4079 -0.4341 -0.0879
 6561W        W10612   5.688   5.851  12.178 -0.1316 -0.2261 -0.1562
 6562W        W10613   9.737   8.608   1.201  0.0193 -0.0535 -0.0813
 6563W        W10614   5.167   5.681   9.095 -0.0521  0.1277  0.3088
 6564W        W10615   2.092   6.037  11.078 -0.0529  0.3671 -0.0416
 6565W        W10616   9.405   0.352   2.017 -0.1555 -0.0076 -0.0658
 6566W        W10617   8.761   8.049   2.107 -0.1265 -0.0864 -0.0341
 6567W        W10618   2.252  10.054  10.798  0.1401  0.1275  0.1845
 6568W        W10619   9.860   8.292  13.423  0.0619  0.0728  0.0880
 6569W        W10620   4.313   3.797  13.713  0.0272 -0.0259 -0.0133
 6570W        W10621   8.887   3.145  10.728 -0.1052  0.0726  0.2666
 6571W        W10622   6.988   7.200  13.896 -0.3909  0.2624 -0.0892
 6572W        W10623   1.756  10.146   4.302 -0.2594  0.3229 -0.1546
 6573W        W10624   1.852   1.943  14.030 -0.0409  0.0308  0.0346
 6574W        W10625   8.842   4.822   0.559 -0.3260 -0.1302  0.3110
 6575W        W10626   2.499   7.159  11.795  0.1102 -0.0939 -0.0379
 6576W        W10627   2.006   1.625  11.150 -0.3531  0.0998  0.0285
 6577W        W10628   7.807   7.159   2.068 -0.1019  0.1497 -0.0387
 6578W        W10629   7.069   2.023  12.987  0.1560  0.1789 -0.0614
 6579W        W10630   7.161   6.942   1.295 -0.3502  0.1714  0.0831
 6580W        W10631   1.740   0.196   4.759 -0.0758 -0.1115  0.0363
 6581W        W10632   2.933   7.082   1.956 -0.2685 -0.1323 -0.2173
 6582W        W10633   5.144   9.348  12.150 -0.2788 -0.1083 -0.3318
 6583W        W10634   2.609   9.742   4.556  0.0017  0.1262 -0.2748
 6584W        W10635   7.239   2.203   5.002  0.2073 -0.1134  0.3777
 6585W        W10636   8.855   7.537  12.512  0.2689  0.1204  0.1493
 6586W        W10637   9.849   8.967   5.573 -0.0117 -0.2131  0.1927
 6587W        W10638   3.065   7.444   1.673 -0.1278 -0.0229 -0.1125
 6588W        W10639   3.551   4.880   0.486  0.0381  0.1000 -0.1649
 6589W        W10640   6.991   8.706   4.899  0.4515  0.3278 -0.2300
 6590W        W10641   9.992   0.244   0.103  0.1563 -0.1967 -0.1714
 6591W        W10642   5.806   3.328   3.270 -0.2206  0.0242  0.0465
 6592W        W10643   3.335   3.098   9.530  0.0805  0.1701 -0.0098
 6593W        W10644   1.608   9.052   0.517  0.0898  0.1021  0.0187
 6594W        W10645   8.494   9.943   3.647  0.2635  0.1620 -0.1631
 6595W        W10646   7.216   1.710   2.817 -0.4470  0.1380 -0.1225
 6596W        W10647   7.704   9.117   4.115  0.3006  0.2579 -0.0362
 6597W        W10648   6.161   0.054   0.285 -0.0473 -0.2944 -0.5454
 6598W        W10649   2.811   4.545   9.963  0.4802 -0.2683 -0.1458
 6599W        W10650   2.484   9.591   9.716 -0.0588  0.1496  0.0898
 6600W        W10651   3.664   9.192  12.199 -0.3257 -0.2532 -0.0507
 6601W        W10652   1.744   5.182  13.582 -0.2459  0.1440 -0.3417
 6602W        W10653   4.038   3.360   1.068  0.1042 -0.1660 -0.0236
 6603W        W10654   0.714   3.751   0.278 -0.1451  0.2190  0.0393
 6604W        W10655   1.933   8.049   0.452 -0.1496 -0.1510 -0.0045
 6605W        W10656   7.535   3.618  10.838  0.1524 -0.0108 -0.0233
 6606W        W10657   1.471   8.695  12.813  0.3221  0.2071  0.0050
 6607W        W10658   4.248   1.991   4.806 -0.0314 -0.1868  0.0547
 6608W        W10659   7.959   0.940   4.218 -0.2313  0.3088 -0.1043
 6609W        W10660   3.687   6.074  11.491 -0.4021  0.1156  0.0407
 6610W        W10661   8.490   9.641   0.662 -0.2437  0.0759 -0.0031
 6611W        W10662   5.387   3.762   0.097 -0.1682 -0.0849  0.2969
 6612W        W10663   7.283   9.811   2.245 -0.1206  0.1674 -0.1372
 6613W        W10664   7.394   1.610   1.823  0.2222 -0.1333 -0.0168
 6614W        W10665   5.712   5.544   3.668 -0.2063 -0.0971 -0.1486
 6615W        W10666   2.969   3.542   2.856 -0.1309 -0.0712 -0.0918
 6616W        W10667   3.462   8.154   3.177 -0.1771  0.1347 -0.2089
 6617W        W10668   5.225   4.083   3.527  0.1507 -0.4494 -0.3839
 6618W        W10669   9.299   1.722   9.248 -0.2083 -0.1193  0.0841
 6619W        W10670   6.482   9.464  11.131 -0.0570  0.0010 -0.0441
 6620W        W10671   4.746   9.876   0.138  0.1778  0.2660  0.3203
 6621W        W10672   1.143   3.625   2.357 -0.1434 -0.4236 -0.0484
 6622W        W10673   4.626  10.129  11.754 -0.3145 -0.2312  0.0242
 6623W        W10674   5.591   5.534   8.879  0.1982 -0.0766  0.1280
 6624W        W10675   8.975   2.820  12.958 -0.3071  0.2115  0.1991
 6625W        W10676   4.823   7.021  12.523 -0.0241  0.1263 -0.0202
 6626W        W10677   9.860   0.242  13.488 -0.3583  0.0713 -0.1638
 6627W        W10678   3.741   9.783  14.040  0.2451 -0.0774  0.3606
 6628W        W10679   5.885   5.644   0.435  0.1435 -0.1428  0.2205
 6629W        W10680   0.847   3.770   4.498 -0.0981 -0.2379  0.0433
 6630W        W10681   2.915   9.917   2.352 -0.0022  0.2303 -0.0350
 6631W        W10682   3.449   5.526   9.426 -0.1954  0.0645  0.4968
 6632W        W10683   9.378   1.850  12.110 -0.3654  0.0116 -0.2053
 6633W        W10684   7.178   9.366   0.504  0.2983 -0.0501 -0.0184
 6634W        W10685   6.051   8.940   0.701 -0.3231 -0.1138  0.0274
 6635W        W10686   4.878   6.408   2.231 -0.0309  0.0840 -0.0817
 6636W        W10687   1.003   8.652  12.383 -0.0952 -0.3329 -0.1446
 6637W        W10688   4.752   6.384   4.444  0.5106  0.1251  0.1121
 6638W        W10689   9.711   8.051   5.219  0.0470 -0.2338 -0.4469
 6639W        W10690   8.900   5.317   4.107 -0.0452  0.0965  0.2175
 6640W        W10691   5.677   8.712  10.564 -0.1868  0.2299 -0.1248
 6641W        W10692   4.470   6.744   4.827  0.0746  0.0614  0.0031
 6642W        W10693   3.132   1.375   4.678  0.4624  0.0875  0.1672
 6643W        W10694   2.647   8.502   4.218 -0.0607 -0.3520  0.0597
 6644W        W10695   3.110   2.444   1.579 -0.0598 -0.2851  0.0730
 6645W        W10696   8.217   9.746   1.128  0.1910 -0.0161 -0.0417
 6646W        W10697   6.112   3.082  12.549 -0.0121 -0.0926 -0.0177
 6647W        W10698   6.319   0.163   1.263  0.0829 -0.0970  0.0847
 6648W        W10699   6.233   2.031  12.611  0.3100 -0.3490 -0.1901
 6649W        W10700   4.763   8.865   3.174 -0.1784 -0.1815 -0.1319
 6650W        W10701   9.799   2.145  13.799 -0.2977 -0.0238  0.1619
 6651W        W10702   4.462   2.026   2.107 -0.0617  0.1376 -0.2229
 6652W        W10703   5.443   1.106  10.594 -0.1806  0.0093 -0.1100
 6653W        W10704   5.368   7.106   5.434 -0.0478  0.0032 -0.1197
 6654W        W10705   0.834   1.691   0.410 -0.0126  0.1012 -0.0271
 6655W        W10706   2.167   1.527   3.741  0.1838  0.4975 -0.3776
 6656W        W10707   2.050   9.290   0.325  0.0374  0.0916 -0.2835
 6657W        W10708   6.960   7.129   1.750 -0.2857  0.0722  0.0460
 6658W        W10709   4.915   4.447   0.668 -0.0120 -0.0140  0.1632
 6659W        W10710   0.511   2.939   2.002 -0.1213  0.1320 -0.2196
 6660W        W10711   2.438   7.733   3.115  0.1066 -0.1901  0.0149
 6661W        W10712   5.364   4.636  13.853 -0.0229  0.1421  0.0411
 6662W        W10713   4.767   9.180  10.854  0.3080 -0.1241 -0.0279
 6663W        W10714   5.060   0.385   1.286  0.0118 -0.2550 -0.3804
 6664W        W10715   5.498   9.609   4.060  0.1495  0.2097 -0.0378
 6665W        W10716   3.612   2.487  10.432  0.0019  0.0878 -0.1060
 6666W        W10717   4.154   5.850  10.128 -0.0279  0.0961 -0.0669
 6667W        W10718   2.139   9.038   3.840  0.0567 -0.2180  0.2948
 6668W        W10719   1.279   6.889  12.728  0.0386 -0.2321 -0.0219
 6669W        W10720   5.622   5.907   2.731 -0.4066  0.1162  0.1631
 6670W        W10721   6.857   3.639   1.157  0.0787 -0.0325  0.0105
 6671W        W10722   4.471   0.199  10.399 -0.0785 -0.0519  0.2974
 6672W        W10723   8.616   1.065   3.115 -0.3381  0.2121 -0.0399
 6673W        W10724   4.951   8.610   3.556 -0.0119 -0.0892  0.1670
 6674W        W10725   1.602   6.357   2.454 -0.0621  0.1226  0.0511
 6675W        W10726   4.199   5.983   2.462 -0.0132  0.3087 -0.1033
 6676W        W10727   5.272   0.821   4.727  0.0932 -0.2197  0.0964
 6677W        W10728   7.533   7.507  10.527 -0.3095 -0.0266  0.3712
 6678W        W10729   3.292   8.330   1.964  0.0935 -0.1775  0.2545
 6679W        W10730   5.028   6.003   3.462  0.2236  0.0584  0.0743
 6680W        W10731   2.707   8.137   1.179 -0.1306  0.1967 -0.1780
 6681W        W10732   4.156   3.201  11.978  0.2369  0.0768  0.1610
 6682W        W10733   6.719   7.334  11.010  0.3810 -0.4260  0.0090
 6683W        W10734   6.325   9.625   2.810  0.1642 -0.1155  0.0040
 6684W        W10735   1.712   2.902   0.261 -0.0817 -0.0681 -0.0650
 6685W        W10736   4.517   5.506   2.674 -0.0267 -0.3044  0.1362
 6686W        W10737   2.076   2.301  10.032  0.0450  0.2527  0.0795
 6687W        W10738   4.889   3.978   1.476 -0.0850 -0.2219 -0.0333
 6688W        W10739   7.955   6.344   0.312  0.0523 -0.0905  0.0138
 6689W        W10740   2.950   0.144  12.737  0.0046 -0.4290  0.0149
 6690W        W10741   6.405   6.966  13.471  0.0782  0.0427 -0.1701
 6691W        W10742   5.549   2.467  13.028  0.0399 -0.2542  0.3768
 6692W        W10743   5.387   9.241  11.723  0.0503  0.2345  0.0455
 6693W        W10744   6.069   5.772   4.442  0.0558  0.2129  0.1661
 6694W        W10745   8.005  10.077  10.992 -0.3027  0.0706  0.0183
 6695W        W10746   9.167   6.600   4.091 -0.1479 -0.0271  0.0426
 6696W        W10747   8.304   0.429   1.288 -0.0106 -0.3287  0.3268
 6697W        W10748   5.284   4.628   0.346  0.0176  0.0143  0.2305
 6698W        W10749   4.709   3.798   8.682 -0.2142 -0.0639  0.2718
 6699W        W10750   0.624   6.135   0.925  0.0982  0.0660 -0.0176
 6700W        W10751   5.588   2.238   1.695  0.2955 -0.0810  0.0381
 6701W        W10752   3.183   5.838  12.593 -0.1000  0.1142  0.0507
 6702W        W10753   6.098   4.935  10.391  0.0616 -0.0412 -0.2545
 6703W        W10754   2.831   0.537   0.192 -0.3340 -0.0271  0.2325
 6704W        W10755   3.853   1.978   9.464  0.0543 -0.1275  0.2515
 6705W        W10756  10.142   8.610  11.278 -0.0901  0.3041 -0.0498
 6706W        W10757   3.891   9.685  12.272 -0.0812 -0.0396 -0.0730
 6707W        W10758   1.313   7.193  13.448  0.0643 -0.1081 -0.0715
 6708W        W10759   1.933   3.811  10.053  0.0130 -0.1249  0.0453
 6709W        W10760   6.999   8.589   1.014  0.0294 -0.1319 -0.1119
 6710W        W10761   2.658   2.225   1.313  0.2052  0.2208  0.4523
 6711W        W10762   9.786   9.313  13.384  0.0236 -0.2681  0.0250
 6712W        W10763   6.592   7.079   3.037 -0.0932 -0.1502  0.1850
 6713W        W10764   8.538   6.493   4.632 -0.0518  0.0093  0.0196
 6714W        W10765   4.518   6.117   0.577  0.0676 -0.1870  0.1922
 6715W        W10766   6.348   7.407  12.866 -0.0153  0.2025  0.2991
 6716W        W10767   1.920   8.243   9.409  0.4102  0.0505 -0.0633
 6717W        W10768   7.652   7.800   2.842  0.0102  0.1829 -0.0861
 6718W        W10769   0.931   8.838  13.594  0.0090 -0.1572 -0.0049
 6719W        W10770   4.666   8.694   0.852 -0.1086  0.0796  0.4017
 6720W        W10771   6.969   2.308   0.697 -0.3948 -0.1689  0.1134
 6721W        W10772   3.470   4.459  12.198  0.0208 -0.0771  0.1378
 6722W        W10773   3.403   5.536   1.170 -0.2043 -0.0664  0.2681
 6723W        W10774   0.692   3.971   3.318  0.1117  0.1317  0.0126
 6724W        W10775   7.267   0.866   1.964 -0.0376 -0.0035 -0.2507
 6725W        W10776   7.780   0.677   3.247 -0.0065  0.0648  0.0116
 6726W        W10777   3.987   8.395   2.678  0.1104  0.0233 -0.3921
 6727W        W10778   3.229   3.401  12.138 -0.3141  0.2657 -0.1630
 6728W        W10779   3.481   0.455  13.399  0.0599  0.2389  0.2283
 6729W        W10780   0.272   5.987   2.641  0.0438  0.1703 -0.2190
 6730W        W10781   8.923   1.436   3.117  0.3580  0.0764 -0.0835
 6731W        W10782   6.731   9.878   2.127  0.3544  0.0516  0.3316
 6732W        W10783   6.041   2.774  12.151 -0.0280  0.0994  0.3006
 6733W        W10784   4.499   2.908   4.396  0.1473 -0.3183 -0.0702
 6734W        W10785   8.503   3.426   0.498  0.0518  0.2251  0.2162
 6735W        W10786   6.186   5.914   1.156  0.1158 -0.0629  0.1522
 6736W        W10787   5.906   4.988  10.869  0.4867  0.2148 -0.3549
 6737W        W10788   7.312   0.782   0.983 -0.1686 -0.2219 -0.3376
 6738W        W10789   5.776   0.082  10.800  0.3260 -0.1356 -0.2650
 6739W        W10790   6.428   5.294   9.196 -0.2524 -0.2822  0.2681
 6740W        W10791   5.062   1.975  10.365 -0.2944 -0.1725 -0.1143
 6741W        W10792   3.760   6.049  13.093 -0.5533 -0.0038 -0.1151
 6742W        W10793   2.811   0.912  13.924 -0.5675  0.0142 -0.2123
 6743W        W10794   4.090   3.157  13.150  0.1755  0.2276  0.1039
 6744W        W10795   0.202   0.241  13.231  0.1439 -0.2789 -0.2436
 6745W        W10796   1.184   0.654   1.917 -0.1304 -0.3606 -0.2508
 6746W        W10797   2.452   3.495   0.810 -0.0814 -0.3867 -0.1641
 6747W        W10798   5.554   8.784  12.622 -0.0885 -0.0771  0.0637
 6748W        W10799   2.982   5.846   3.525  0.0187 -0.3302 -0.2757
 6749W        W10800   1.264   9.850  13.631 -0.1858 -0.1419  0.0672
 6750W        W10801   4.610   9.827   1.548 -0.1058  0.3388 -0.0393
 6751W        W10802   5.678   2.558   9.897 -0.1087 -0.3041 -0.0145
 6752W        W10803   6.345   3.562  11.260  0.2233  0.3167 -0.0788
 6753W        W10804   3.694   0.749  12.855  0.1782 -0.1162  0.1761
 6754W        W10805   7.823   8.808   3.636 -0.1486 -0.1848 -0.1270
 6755W        W10806  10.000   7.620   1.249 -0.1008  0.1653  0.2250
 6756W        W10807   7.655   8.798  11.770 -0.3166  0.0092  0.1357
 6757W        W10808   7.278   0.315  13.505  0.2009 -0.2458  0.2244
 6758W        W10809   4.586   2.224   2.585  0.1912 -0.3534  0.2708
 6759W        W10810   9.100   7.347   3.425  0.1515  0.2948  0.0376
 6760W        W10811   4.215   6.924   2.336 -0.0242  0.2931 -0.0338
 6761W        W10812   4.029   0.188   0.192 -0.0566  0.3104 -0.0038
 6762W        W10813   0.490   9.838   0.263  0.0860  0.2186  0.2184
 6763W        W10814   3.028   0.513  11.656  0.0071  0.0360 -0.3206
 6764W        W10815   1.119   7.773  12.423  0.0814 -0.0903  0.1630
 6765W        W10816   0.399   6.943  13.470 -0.0441  0.2136 -0.0236
 6766W        W10817   1.134   8.546   9.612 -0.1285  0.2617 -0.3342
 6767W        W10818   6.629   9.982   2.965 -0.0491  0.1674  0.2701
 6768W        W10819   8.056   9.963   0.648 -0.0116 -0.0006 -0.1226
 6769W        W10820   3.489   7.828   1.664  0.0201  0.0163  0.2306
 6770W        W10821   9.377   3.589   2.426  0.3137  0.1021  0.0403
 6771W        W10822   2.327   9.768  11.212 -0.2614  0.1318  0.4397
 6772W        W10823   5.576   1.531   2.171 -0.0430  0.1088 -0.0097
 6773W        W10824   3.780   3.791   1.321  0.0484  0.4174  0.2094
 6774W        W10825   9.089   3.745  13.360 -0.0144  0.1714 -0.1263
 6775W        W10826   1.615   0.242   3.526  0.0356  0.1180  0.0268
 6776W        W10827   5.954   4.248  13.399 -0.0082  0.1305 -0.1818
 6777W        W10828   9.554   6.928  11.239  0.1315  0.0070 -0.1095
 6778W        W10829   9.167   2.227  10.690  0.0928 -0.2110  0.2211
 6779W        W10830   8.612   8.293   9.710 -0.0767  0.1430  0.0728
 6780W        W10831   6.215   3.236   2.328  0.0065  0.1182 -0.1742
 6781W        W10832   9.570   6.120  13.943  0.1555 -0.1497  0.1301
 6782W        W10833   7.129   5.058  11.380 -0.0474 -0.0508 -0.1671
 6783W        W10834   5.726   1.466   2.635 -0.1420 -0.2547  0.0127
 6784W        W10835   1.000   9.727   2.664 -0.2600 -0.2369  0.1534
 6785W        W10836   5.753   9.380   1.802 -0.2348  0.1276  0.1212
 6786W        W10837   1.954   3.053   8.933  0.1301  0.1713  0.0233
 6787W        W10838   6.802   6.589  11.266  0.0439  0.0924 -0.1850
 6788W        W10839   0.946   4.409  12.809 -0.0357 -0.1640 -0.0437
 6789W        W10840   5.698   2.064   2.241  0.1647 -0.0395  0.3081
 6790W        W10841   3.668   1.229  10.043 -0.3034 -0.0559  0.1268
 6791W        W10842   3.320   6.133  12.155 -0.0839 -0.0066  0.0055
 6792W        W10843   7.612   9.624   1.891  0.0378  0.1129 -0.1577
 6793W        W10844   1.845   7.003   0.079 -0.1639 -0.0706 -0.1349
 6794W        W10845   2.283   5.963   9.819 -0.2085  0.0117 -0.2008
 6795W        W10846   5.114   8.090   0.162  0.1032 -0.0224  0.0731
 6796W        W10847   1.985   3.263   3.863  0.1138  0.1710  0.0553
 6797W        W10848   0.129   0.449  12.493 -0.1294  0.3237  0.1480
 6798W        W10849   8.145   7.888   0.891 -0.0323  0.1456 -0.1906
 6799W        W10850   5.995   3.837   4.000 -0.1180 -0.2442  0.1772
 6800W        W10851   6.320   5.451   1.429 -0.3961 -0.1128  0.2597
 6801W        W10852   3.423   2.787   3.419  0.4757  0.1376  0.2011
 6802W        W10853   5.094   2.054   5.434 -0.1845  0.1530  0.0934
 6803W        W10854   5.674   8.006  12.906 -0.0815 -0.0413 -0.1743
 6804W        W10855   3.101   9.715  13.387  0.1905 -0.0047  0.1886
 6805W        W10856   5.013   2.104   8.820  0.2367 -0.0344  0.0705
 6806W        W10857   0.210   7.235  11.935  0.1137 -0.3222  0.2056
 6807W        W10858   1.604   2.754   9.356  0.0349 -0.0999  0.2214
 6808W        W10859   3.447   6.461  10.240  0.1152  0.2037  0.2415
 6809W        W10860   2.280   9.610  12.250 -0.1726 -0.0531 -0.0250
 6810W        W10861   9.301   1.120  10.982 -0.0490  0.1508  0.1551
 6811W        W10862   9.733   4.147   0.835  0.0544 -0.0933  0.0547
 6812W        W10863   8.182   2.263  13.923 -0.3614  0.0942  0.1960
 6813W        W10864   2.386   2.962  11.746 -0.0024 -0.1578 -0.2122
 6814W        W10865   5.829   5.063   2.074  0.0464 -0.0338 -0.1517
 6815W        W10866   4.183   9.948   2.407 -0.0163  0.0611 -0.1230
 6816W        W10867   0.713   6.503   2.192 -0.4949 -0.2059  0.1985
 6817W        W10868   2.375   4.956   1.801  0.1025 -0.0963  0.0319
 6818W        W10869   9.230   1.629  12.774 -0.4259  0.0663  0.0411
 6819W        W10870   8.164   1.549  11.446  0.4568  0.3212 -0.2095
 6820W        W10871   6.810   2.592  13.141 -0.2383  0.0465 -0.1123
 6821W        W10872   0.003   5.219  13.420  0.1750 -0.3442 -0.2852
 6822W        W10873   7.328   3.036   9.846 -0.1141 -0.0259 -0.1967
 6823W        W10874   1.230   3.910   1.933 -0.0804  0.0910 -0.2104
 6824W        W10875   5.815   2.648   1.538 -0.2372 -0.2366  0.1582
 6825W        W10876   0.078   4.302   2.486  0.2136  0.3168 -0.0011
 6826W        W10877   4.296   1.906  10.772 -0.3024 -0.1267  0.0249
 6827W        W10878   9.797   6.286   3.475  0.0732 -0.0795  0.0474
 6828W        W10879   0.482   1.056  13.578  0.1523  0.0364 -0.2321
 6829W        W10880   7.117   6.617   0.076  0.0219 -0.1105 -0.5013
 6830W        W10881   3.206   6.527   0.184  0.0667 -0.2014 -0.1676
 6831W        W10882   2.131   6.518  11.039 -0.0865  0.1097 -0.1134
 6832W        W10883   8.058   4.374  12.019  0.1139 -0.1515  0.0034
 6833W        W10884   9.087   8.087  10.936  0.2501 -0.3160 -0.0152
 6834W        W10885   3.975   6.993  12.312 -0.0436 -0.0281  0.3537
 6835W        W10886   6.304   6.397   0.822 -0.3110 -0.0401 -0.0644
 6836W        W10887   2.169   2.649   0.534  0.6456 -0.1951  0.1456
 6837W        W10888   6.897   9.857  13.916  0.1624 -0.1392 -0.1019
 6838W        W10889   9.365   7.718   3.558  0.3046  0.4013 -0.1286
 6839W        W10890   3.037   0.455   3.584  0.0566  0.3079  0.1084
 6840W        W10891   3.918   7.575  13.182 -0.3388 -0.0328  0.1925
 6841W        W10892   6.772   6.218  13.617  0.3828 -0.3999 -0.0112
 6842W        W10893   5.339   7.628   0.990  0.1022  0.0303  0.1248
 6843W        W10894   6.476   9.624   9.852  0.1215 -0.2523  0.0447
 6844W        W10895   6.992   0.419   4.678  0.0861 -0.2708  0.2459
 6845W        W10896   1.288   1.028  10.879  0.1463 -0.1409  0.1489
 6846W        W10897   4.681   6.968   2.527  0.2856  0.2448 -0.2580
 6847W        W10898   8.273   7.945   9.558 -0.3449  0.0407  0.1186
 6848W        W10899   7.002   0.496   2.104  0.0526  0.1162 -0.0812
 6849W        W10900   7.860   0.144   4.611 -0.2494 -0.0831 -0.1180
 6850W        W10901   0.079   7.056   0.693  0.1377  0.0945 -0.0767
 6851W        W10902   3.201   8.753   1.331  0.0144  0.0396 -0.0909
 6852W        W10903   6.703   5.328   3.831  0.2325  0.0330 -0.0931
 6853W        W10904   4.793   8.806  11.189 -0.0389  0.0168  0.0277
 6854W        W10905   8.968   3.621   2.808  0.1014  0.2040  0.1564
 6855W        W10906   9.813   8.102   2.392 -0.1295  0.0607  0.1617
 6856W        W10907   6.806   0.053   1.523 -0.2042  0.4709 -0.2792
 6857W        W10908   3.961   7.506  12.210  0.0820  0.2116  0.2339
 6858W        W10909   9.818   6.354  10.867  0.2743 -0.3422  0.3785
 6859W        W10910   3.252   1.488   1.595 -0.0379 -0.1724  0.0303
 6860W        W10911   5.560   9.877   8.916 -0.0920  0.0642  0.2823
 6861W        W10912   6.505   7.665   3.008 -0.4676  0.1326  0.1806
 6862W        W10913   1.924   6.722   4.079  0.0433  0.1514  0.1886
 6863W        W10914   3.082   0.309   0.599 -0.1667  0.1668  0.1917
 6864W        W10915   9.047   1.541  11.884  0.0069  0.0213  0.0703
 6865W        W10916   7.388   5.460   0.879  0.1754  0.2711  0.1368
 6866W        W10917   6.205   2.376   9.487 -0.4123  0.0773  0.1602
 6867W        W10918   9.290   2.937   3.639 -0.4074  0.2485 -0.0382
 6868W        W10919   8.652   4.025  13.357 -0.0501  0.1595  0.0488
 6869W        W10920   1.901   5.584   9.934  0.3945  0.0736  0.0844
 6870W        W10921   9.258   1.063   2.409  0.0796  0.0374  0.1271
 6871W        W10922   6.029   4.536  13.892 -0.0684 -0.1995 -0.2867
 6872W        W10923   3.837   4.699   3.711 -0.0456 -0.1656  0.0078
 6873W        W10924   9.933   6.845  10.891 -0.0381  0.2128  0.1496
 6874W        W10925   2.267   3.830  10.428  0.2718 -0.3208 -0.0664
 6875W        W10926   4.226   4.483   0.995  0.2358  0.1643  0.1342
 6876W        W10927   5.418   0.817  13.975  0.1837  0.2854  0.4562
 6877W        W10928   7.669   8.684   9.699  0.2175 -0.0472 -0.1681
 6878W        W10929   9.827   8.236   5.768 -0.0172 -0.2132 -0.0406
 6879W        W10930   0.294   6.436   1.835 -0.0141  0.1487  0.1761
 6880W        W10931   2.682   0.132  10.393 -0.1844  0.1673 -0.2766
 6881W        W10932   8.916   8.943   2.877 -0.1808 -0.0526  0.2017
 6882W        W10933   8.477   8.284   4.659 -0.1706  0.0547 -0.2420
 6883W        W10934   1.899   7.584   4.535 -0.1261  0.0836 -0.0919
 6884W        W10935   4.763   7.005   3.039 -0.1396  0.2535  0.1180
 6885W        W10936   3.767   6.292  11.893 -0.4142 -0.0657  0.0314
 6886W        W10937   9.548   9.782   2.730  0.1275  0.0898 -0.1217
 6887W        W10938   5.445   3.165   2.969  0.1272  0.0399 -0.2148
 6888W        W10939   8.503   2.234  12.926  0.2049 -0.0350 -0.1788
 6889W        W10940   1.327   8.588  11.992 -0.1253  0.0575 -0.2412
 6890W        W10941   9.159   9.506  12.654 -0.1902  0.1528  0.0633
 6891W        W10942   5.690   1.176  13.145  0.3381  0.0644  0.0913
 6892W        W10943   3.735   5.772   4.156 -0.0774 -0.0566  0.0966
 6893W        W10944   5.495   7.597   0.469  0.0198  0.0509  0.0287
 6894W        W10945   3.743   0.045   2.598  0.0945 -0.1577 -0.1402
 6895W        W10946   6.441   2.155   0.841 -0.1569 -0.2734 -0.0296
 6896W        W10947   2.145   0.859   4.018 -0.0553 -0.1268  0.2237
 6897W        W10948   9.650   8.841   0.731 -0.0889  0.1733  0.0901
 6898W        W10949   2.671   5.747   2.661 -0.1783  0.1150 -0.1757
 6899W        W10950   0.633   8.651  12.768 -0.4734 -0.0857 -0.0679
 6900W        W10951   3.908   5.778   1.069  0.0603 -0.2172  0.0376
 6901W        W10952   0.066   0.752   3.304  0.0219  0.0492  0.1572
 6902W        W10953   6.017   9.251  11.010 -0.1135 -0.1457 -0.0771
 6903W        W10954  10.021   5.993  13.304  0.1773 -0.1814 -0.0537
 6904W        W10955   8.233   2.569  10.865  0.0544 -0.1496  0.0024
 6905W        W10956   2.741   5.981  11.593  0.3025 -0.2009 -0.0045
 6906W        W10957   0.589   7.937  12.255 -0.2447 -0.3935  0.0484
 6907W        W10958   9.326   5.115  12.834 -0.0875 -0.0038  0.1534
 6908W        W10959   4.325   2.138   5.308  0.1927  0.1099 -0.0431
 6909W        W10960   7.715   7.945  13.545 -0.0799 -0.0622 -0.2782
 6910W        W10961   2.825   3.277   9.302 -0.2565 -0.1391 -0.4004
 6911W        W10962   0.802   3.359  13.479  0.0965  0.1118  0.1518
 6912W        W10963   8.734   1.017   1.986  0.1081  0.0488  0.1094
 6913W        W10964   1.840   1.346   0.813 -0.0286 -0.0252  0.1028
 6914W        W10965   0.283   8.721   4.022 -0.0207 -0.3552 -0.0847
 6915W        W10966   1.941   6.059   0.396  0.0209  0.0195 -0.1668
 6916W        W10967   1.400   4.822  13.969  0.2289  0.1455 -0.1971
 6917W        W10968   5.049   7.601   9.406 -0.2430  0.2063  0.2167
 6918W        W10969   6.525  10.154  12.177 -0.0492 -0.0498  0.0278
 6919W        W10970   0.078   9.363  13.127 -0.0963 -0.0225  0.1018
 6920W        W10971   4.981   3.405  12.429 -0.1327 -0.3105 -0.0756
 6921W        W10972   2.415   5.458   9.813 -0.1041  0.0511  0.0304
 6922W        W10973   7.523   8.034   0.191 -0.1524  0.1057  0.5274
 6923W        W10974   1.195   8.286   2.416 -0.0640  0.0418  0.2150
 6924W        W10975   7.620   4.135  13.515 -0.2192  0.1527  0.2426
 6925W        W10976   1.639   1.512   4.540  0.0227  0.1449 -0.1824
 6926W        W10977   3.971   6.559   4.875 -0.2492  0.3878  0.0059
 6927W        W10978   7.786   9.396   5.079  0.0788  0.0148  0.1121
 6928W        W10979   9.801   1.668   1.798 -0.1265 -0.1893 -0.0699
 6929W        W10980   8.286   3.942  11.886 -0.4434  0.0024  0.1857
 6930W        W10981   2.481   5.892  13.293 -0.0102  0.0842 -0.1054
 6931W        W10982   3.329   6.232  12.970  0.2489  0.1409  0.0709
 6932W        W10983   6.886   5.528   3.324  0.2973 -0.6410 -0.3244
 6933W        W10984   3.253   5.271   2.833 -0.1529  0.0156  0.0374
 6934W        W10985   5.567   4.196   3.019 -0.2115  0.1940 -0.0888
 6935W        W10986   2.692  10.120  11.558 -0.0142 -0.7784 -0.0519
 6936W        W10987   2.623   1.380   9.158 -0.1922 -0.1754 -0.1639
 6937W        W10988   0.279   2.844   3.777 -0.1822  0.1635  0.1788
 6938W        W10989   6.592   7.267   5.108 -0.2562  0.1921  0.1689
 6939W        W10990   2.509   1.813   4.143 -0.0345  0.0279  0.3149
 6940W        W10991   6.710   6.445   4.185  0.2995 -0.0647 -0.3264
 6941W        W10992   6.682   1.777   3.009  0.1903 -0.1865 -0.0006
 6942W        W10993   6.317   2.367  10.848  0.1861  0.2212  0.0417
 6943W        W10994   0.296   9.666  11.908 -0.0504 -0.1751 -0.0342
 6944W        W10995   0.211   7.475   5.301  0.1411  0.2549  0.2754
 6945W        W10996   0.600   2.298  11.727  0.0982  0.0999 -0.0952
 6946W        W10997   5.663   6.854  13.940  0.4114  0.0474  0.1758
 6947W        W10998   7.509   8.836  13.306 -0.0576 -0.0968  0.0135
 6948W        W10999   3.811   2.537   5.429  0.1967  0.0091 -0.0648
 6949W        W11000  10.060   0.523   2.877 -0.2125  0.1369  0.1219
 6950W        W11001   7.307   0.304  11.266 -0.0565  0.1718  0.2877
 6951W        W11002   3.190   9.790   1.694  0.0901 -0.0923  0.2624
 6952W        W11003   3.748   8.684   1.292  0.0747  0.0912  0.1375
 6953W        W11004   8.861   4.136  13.803  0.0176 -0.0846  0.3862
 6954W        W11005   8.129   0.995   1.999  0.1102 -0.0482 -0.2709
 6955W        W11006   6.506   4.096   1.389  0.1118  0.1051 -0.2301
 6956W        W11007   4.146   6.707  11.897 -0.2057  0.0507  0.1386
 6957W        W11008   0.666   7.297   0.167 -0.0126  0.1096 -0.1489
 6958W        W11009   1.622   9.012   4.293 -0.0262 -0.0708  0.0627
 6959W        W11010   0.482   7.805   2.586  0.1308  0.1695 -0.3686
 6960W        W11011   6.718   4.697   2.219 -0.0219  0.0110 -0.1950
 6961W        W11012   7.842   8.133  13.126 -0.3104 -0.1155  0.0159
 6962W        W11013   0.289   7.340   3.581 -0.1487  0.0721 -0.2006
 6963W        W11014   5.569   5.317   0.153 -0.1675  0.1600 -0.1249
 6964W        W11015   1.454   5.275   2.379 -0.2111  0.1393 -0.2882
 6965W        W11016   1.288   7.241  13.950  0.1872  0.1018 -0.0792
 6966W        W11017   5.458   8.124   2.423 -0.0952 -0.0993  0.0631
 6967W        W11018   9.385   7.457  11.336  0.1978  0.1523  0.0249
 6968W        W11019   3.968   5.549   2.401  0.0975 -0.2360 -0.0587
 6969W        W11020   9.124   9.217   2.559 -0.2960  0.2171 -0.1074
 6970W        W11021   7.041   5.483   4.209 -0.1062  0.3457 -0.2809
 6971W        W11022   1.938  10.072   0.700 -0.0014 -0.1885  0.1078
 6972W        W11023   6.421   1.009  11.139  0.2738 -0.1545  0.0557
 6973W        W11024   7.723   2.175  13.114 -0.3268 -0.0481  0.0721
 6974W        W11025   5.740   9.709  10.825  0.1287 -0.0509 -0.2423
 6975W        W11026   6.479   5.281   3.193  0.1628  0.4348  0.1356
 6976W        W11027  10.078   0.580   1.943  0.2119 -0.0508  0.2624
 6977W        W11028   0.696   3.567  11.243  0.2600  0.1934  0.1288
 6978W        W11029   8.713   7.416   0.413  0.2820 -0.0809 -0.0938
 6979W        W11030  10.142   7.213  12.588 -0.1905 -0.1705 -0.0742
 6980W        W11031   3.897   3.566  12.895 -0.1888 -0.0856 -0.2184
 6981W        W11032   1.875   9.263   5.227 -0.4462 -0.0858  0.0936
 6982W        W11033   8.540   2.978   0.743 -0.3234 -0.0523 -0.0956
 6983W        W11034   7.597   5.785   9.488 -0.1621  0.2034 -0.2037
 6984W        W11035   1.641   4.028   4.153  0.2441  0.0151  0.0323
 6985W        W11036   2.756   8.661  12.489  0.0549  0.0317 -0.0360
 6986W        W11037   8.781   3.668  11.752 -0.0144 -0.2537  0.1133
 6987W        W11038   4.705   2.533  11.660 -0.0358  0.4909  0.1318
 6988W        W11039   2.150   5.950   3.235  0.0919  0.3132  0.2441
 6989W        W11040   6.352   2.556   9.041  0.1145 -0.1498  0.0251
 6990W        W11041   1.219   8.193   5.165 -0.1000  0.0155  0.0168
 6991W        W11042   4.576   2.824  11.263 -0.1723 -0.3664 -0.1636
 6992W        W11043   1.489   9.398  10.738  0.0596 -0.3244 -0.1935
 6993W        W11044   0.594   7.941   1.538 -0.1179 -0.2523  0.0971
 6994W        W11045   7.757   0.953   8.963  0.1015 -0.2523  0.0732
 6995W        W11046   9.610   4.100   2.278 -0.1424 -0.0352 -0.3197
 6996W        W11047   6.613   9.440  13.882  0.1305 -0.4918 -0.1199
 6997W        W11048   0.406   8.418  14.032  0.2080 -0.1208 -0.2931
 6998W        W11049   6.888   6.686  13.701 -0.2045  0.1516 -0.1512
 6999W        W11050   6.938   0.162   0.685 -0.1591  0.1561  0.0706
 7000W        W11051   9.547   0.688  11.340 -0.0253  0.2304  0.0816
 7001W        W11052   1.167   9.800  10.618  0.0260  0.1655 -0.0062
 7002W        W11053   8.840   7.961   4.524 -0.1523  0.0546  0.0547
 7003W        W11054   7.456   8.372  13.580 -0.1164  0.0610  0.0400
 7004W        W11055   4.457   1.264   9.686 -0.3319 -0.0423  0.1800
 7005W        W11056   5.776   0.630   0.195 -0.0793  0.1440 -0.2406
 7006W        W11057   7.150  10.010   1.851 -0.0131 -0.0550  0.2814
 7007W        W11058   4.049   6.310   0.061 -0.0827  0.0835  0.0553
 7008W        W11059   5.993   0.215  13.409 -0.2201 -0.2929  0.2416
 7009W        W11060   2.944   8.960  10.882  0.3166  0.1479  0.0940
 7010W        W11061   7.819   3.321  10.544 -0.0980 -0.1777 -0.1749
 7011W        W11062   2.404   8.476  11.195 -0.0603  0.0883  0.0169
 7012W        W11063   2.046   3.821   1.767 -0.0294 -0.2178  0.0667
 7013W        W11064   4.192   2.786  12.285 -0.2078 -0.2144 -0.0694
 7014W        W11065   7.416   2.324   4.006 -0.0266  0.2103 -0.0574
 7015W        W11066   0.369   8.242   0.991  0.0640  0.0524  0.1158
 7016W        W11067   3.363   4.375  12.686 -0.0853 -0.3293 -0.2946
 7017W        W11068   0.209   9.078   2.372 -0.1930 -0.3133  0.1710
 7018W        W11069   8.107   9.269   1.842  0.0304 -0.0355  0.4108
 7019W        W11070   2.485   6.832   1.370  0.2085 -0.0016 -0.1362
 7020W        W11071   5.992   8.131   9.904 -0.1668  0.0719  0.2226
 7021W        W11072   2.348   1.226   2.249  0.1595 -0.1092  0.2152
 7022W        W11073   6.315   9.331   0.286 -0.3247 -0.0309  0.0979
 7023W        W11074   8.348   4.839  13.183 -0.0061  0.4587  0.0042
 7024W        W11075   1.770   8.986  10.046  0.1103 -0.1188  0.2371
 7025W        W11076   6.218   2.593   0.691  0.0852 -0.0460  0.1024
 7026W        W11077   7.583   3.684  14.006 -0.5697 -0.0454  0.0718
 7027W        W11078   1.184   3.939  12.322  0.2606  0.1455 -0.1932
 7028W        W11079   6.532   2.679  10.443  0.1261  0.1663 -0.0397
 7029W        W11080   3.022   7.847   0.806 -0.0230  0.1148 -0.0321
 7030W        W11081   7.369   4.060   0.629  0.0199 -0.1657  0.0598
 7031W        W11082   5.192   5.173   4.620  0.2414 -0.0231  0.0638
 7032W        W11083   9.339   3.845   1.434 -0.1037 -0.0727  0.1376
 7033W        W11084   1.100   2.255   3.279 -0.1060 -0.1349  0.3275
 7034W        W11085   2.805   7.515  11.871  0.3866 -0.0802  0.0148
 7035W        W11086   9.702   5.760   4.435  0.0691  0.0388 -0.1946
 7036W        W11087   1.406   5.940  12.500  0.0390  0.1906 -0.3249
 7037W        W11088   6.157   9.172  13.861  0.0061 -0.1446 -0.1772
 7038W        W11089   4.335   1.876   9.822  0.0865 -0.2648  0.1051
 7039W        W11090   2.368   5.464   0.133 -0.2584 -0.0264 -0.1808
 7040W        W11091   4.945   4.481  11.997  0.1717 -0.0700  0.1045
 7041W        W11092   7.339   2.116   1.887 -0.0209  0.0326  0.1502
 7042W        W11093   0.266   4.432  12.602 -0.0006  0.1262 -0.1749
 7043W        W11094   6.644   8.743  10.888  0.1385 -0.0755 -0.1458
 7044W        W11095   3.821   1.669   0.787  0.0801  0.1748  0.2214
 7045W        W11096   7.375   5.150   4.462 -0.0285  0.1531 -0.0644
 7046W        W11097   1.092   4.889   3.814  0.0235 -0.1017  0.2820
 7047W        W11098   8.998   2.668  13.709  0.3348 -0.3791  0.2224
 7048W        W11099   9.877   1.420   0.746  0.2535 -0.0485 -0.0911
 7049W        W11100   8.567  10.038  10.076  0.0280 -0.0914  0.1016
 7050W        W11101   5.771   8.246   9.498 -0.3076 -0.3831 -0.3465
 7051W        W11102   9.748   2.443  12.537 -0.1807 -0.0785  0.1143
 7052W        W11103   1.670   6.822   2.534 -0.1286  0.2274 -0.1786
 7053W        W11104   7.664   7.280   2.783  0.3504 -0.0155 -0.0472
 7054W        W11105   4.796   6.888   9.561  0.1594  0.1529 -0.0024
 7055W        W11106   9.139   0.073  11.876 -0.2067 -0.0271 -0.2243
 7056W        W11107   6.322   4.713  11.024  0.0422  0.1134  0.0055
 7057W        W11108   6.381   9.617   3.332  0.2025  0.0644 -0.1600
 7058W        W11109   1.838   8.048   1.020 -0.0693  0.0471 -0.1732
 7059W        W11110   5.680   2.100  12.643  0.2761  0.1028  0.1670
 7060W        W11111   9.642   6.528   3.961 -0.2724 -0.1787  0.0313
 7061W        W11112   3.421   0.748   9.526 -0.0872  0.0311 -0.2909
 7062W        W11113   6.956   3.135   5.073  0.2749 -0.2152  0.2133
 7063W        W11114   7.182   1.892   9.299  0.1532 -0.0679  0.2325
 7064W        W11115   2.515   8.138   3.352  0.0079  0.0900  0.1464
 7065W        W11116   3.749   7.389  10.039  0.1846 -0.2596  0.0671
 7066W        W11117   1.004   9.625   4.891  0.0709  0.3464  0.1256
 7067W        W11118   2.546   5.297   4.368 -0.1442 -0.0678 -0.0288
 7068W        W11119   6.713   4.569  10.161  0.1922 -0.2035 -0.1216
 7069W        W11120   8.820   3.175  11.597 -0.0893 -0.0833 -0.0293
 7070W        W11121   8.374   3.344  11.804  0.0111 -0.3707  0.2323
 7071W        W11122   7.880   5.417  11.542 -0.0802 -0.0123  0.0160
 7072W        W11123   2.422   6.981   8.948 -0.0830  0.0692 -0.0981
 7073W        W11124   9.097   8.711   5.177  0.1671 -0.0861 -0.1821
 7074W        W11125   2.365   8.934  12.422 -0.0861  0.1364  0.2964
 7075W        W11126   1.789   3.772  10.553 -0.3830  0.3203  0.3805
 7076W        W11127   5.091   5.743   2.748  0.1165 -0.1730  0.1044
 7077W        W11128   7.206   7.638   3.983  0.0904 -0.1998  0.2427
 7078W        W11129   3.677   5.117  12.455 -0.0134  0.1113  0.1134
 7079W        W11130   2.577   5.508  11.625 -0.1367  0.2860 -0.2549
 7080W        W11131   6.546  10.020  10.343 -0.1734 -0.0728 -0.1794
 7081W        W11132   3.999   5.054  11.074 -0.0557  0.1724 -0.0952
 7082W        W11133   3.933   2.617   1.118 -0.1355  0.0121 -0.0719
 7083W        W11134   9.104   3.977   2.279 -0.0629  0.0266 -0.2297
 7084W        W11135   9.551   8.119   1.230 -0.0043  0.2713  0.0948
 7085W        W11136   9.412   0.319  12.404 -0.1784  0.0470  0.0609
 7086W        W11137   6.955   5.372   0.639 -0.1110  0.2646  0.0456
 7087W        W11138   7.090   3.035   0.161  0.1561  0.2393  0.0804
 7088W        W11139   8.685   5.248  10.946 -0.0064  0.3242  0.2034
 7089W        W11140   5.553   3.068   1.254 -0.1483  0.4144 -0.2099
 7090W        W11141   5.223   3.553   3.780  0.1685 -0.0650  0.2851
 7091W        W11142   7.212   9.138  11.845 -0.0555 -0.2380  0.0318
 7092W        W11143   7.205   9.545   0.958 -0.0080  0.0782 -0.0140
 7093W        W11144   9.099   9.040   9.409  0.0694  0.2783 -0.0718
 7094W        W11145   0.739   5.916   0.442  0.0486 -0.1032  0.3084
 7095W        W11146   7.312   9.577   9.228 -0.0174  0.4016  0.2500
 7096W        W11147   7.325   3.690  11.723  0.1767  0.0271  0.0097
 7097W        W11148   7.166   2.768   0.636 -0.1056 -0.4577 -0.1211
 7098W        W11149   3.887   0.477  13.769 -0.1320  0.0783 -0.1182
 7099W        W11150   8.274   4.446   0.672  0.0826  0.1465 -0.0086
 7100W        W11151   6.830   0.894   1.271  0.2078  0.0007 -0.0805
 7101W        W11152   2.581   7.305   1.506  0.0449  0.3332 -0.0815
 7102W        W11153   3.088   4.265   0.926  0.0299 -0.2489 -0.1467
 7103W        W11154   6.853   4.808  11.065 -0.1793  0.1880  0.2754
 7104W        W11155   0.100   0.551  13.651 -0.1340 -0.0709 -0.1368
 7105W        W11156   9.985   2.307  10.307  0.1393 -0.1594 -0.3515
 7106W        W11157   5.725   0.830  10.250 -0.0026 -0.2304 -0.3302
 7107W        W11158   4.858   7.462  12.876  0.2140 -0.1588 -0.2307
 7108W        W11159   1.786   8.259  12.103  0.1570 -0.0147  0.5262
 7109W        W11160  10.011   2.039   9.527  0.1269  0.3511 -0.0706
 7110W        W11161   3.642   0.513   2.683  0.1719  0.0189 -0.0958
 7111W        W11162   1.167   3.466   9.710  0.3721  0.0164  0.0729
 7112W        W11163   4.809   2.493  12.960 -0.0208  0.2489 -0.2163
 7113W        W11164   6.620   2.024  13.816 -0.1064  0.0738 -0.2554
 7114W        W11165   3.020   4.117   0.448 -0.1949  0.1618  0.2555
 7115W        W11166   4.499   1.259   2.033  0.1464 -0.0449 -0.1130
 7116W        W11167   7.392   6.178  12.023 -0.2498  0.2205  0.1892
 7117W        W11168   2.303   2.616   1.183 -0.0572 -0.3507 -0.1422
 7118W        W11169   2.947   0.069   8.942 -0.0870  0.0462  0.1283
 7119W        W11170   1.195   7.906   3.207 -0.1171  0.0076 -0.1192
 7120W        W11171   6.291   7.535   0.722  0.0662  0.3855 -0.4219
 7121W        W11172   3.906   2.589   2.574 -0.2401  0.0403  0.0805
 7122W        W11173   3.435   7.140   9.590  0.1228  0.0260 -0.1382
 7123W        W11174   3.447   0.000   3.012 -0.2407 -0.0962  0.2554
 7124W        W11175   0.700   9.855   3.673 -0.1026  0.1694 -0.0367
 7125W        W11176   3.887   0.243  10.149  0.3504 -0.3421 -0.2454
 7126W        W11177   5.223   9.324   1.769  0.1164  0.0614  0.0370
 7127W        W11178   9.113   5.242   0.440 -0.3719  0.1142 -0.0599
 7128W        W11179   5.190   9.853   9.812 -0.0802 -0.0606  0.1959
 7129W        W11180   1.810   7.700  10.327 -0.3882 -0.0641 -0.0409
 7130W        W11181   1.448   5.908  13.840 -0.1832 -0.1329 -0.0629
 7131W        W11182   1.298   8.021   1.937  0.0988  0.1682  0.0883
 7132W        W11183   8.859   7.303  13.339  0.0376 -0.0798 -0.2582
 7133W        W11184   2.201   7.468   0.022  0.0019  0.1478  0.0463
 7134W        W11185   3.906   2.364   4.934 -0.0999  0.1828 -0.2266
 7135W        W11186   1.030   1.445  11.572 -0.5497  0.2198  0.2862
 7136W        W11187   1.480   0.009   3.028 -0.2913 -0.3917 -0.0605
 7137W        W11188   5.406   1.975  13.478 -0.2738 -0.0614 -0.1100
 7138W        W11189   8.893   5.519  13.561 -0.0083 -0.0841 -0.1022
 7139W        W11190   8.875   7.935   0.219 -0.0604 -0.0505  0.1057
 7140W        W11191   2.263   7.604   4.082 -0.0760 -0.2495 -0.2097
 7141W        W11192   3.525   4.834   4.505  0.0899  0.0579 -0.2285
 7142W        W11193   0.725   0.673   2.260 -0.3156  0.2508 -0.0533
 7143W        W11194   0.340   0.853   2.691  0.0184 -0.0926 -0.0554
 7144W        W11195   4.033   5.272   4.021  0.0049 -0.0887 -0.1639
 7145W        W11196   3.990   6.367   3.038  0.1301 -0.1277 -0.3335
 7146W        W11197   1.746   9.023   5.724 -0.0063  0.0678 -0.0729
 7147W        W11198   6.289   0.713   2.778  0.0693  0.0355 -0.0887
 7148W        W11199   2.560   3.008   0.671  0.0821 -0.2352 -0.0528
 7149W        W11200   7.913   2.797  10.486 -0.1612 -0.2273 -0.0224
 7150W        W11201   5.055   8.454   9.837  0.0525 -0.1734 -0.2849
 7151W        W11202   3.345   8.817   9.389  0.1227 -0.1924 -0.0873
 7152W        W11203   6.644   6.009   9.004 -0.1462  0.2653  0.0644
 7153W        W11204   0.559   1.679  12.572 -0.0677  0.3172 -0.1116
 7154W        W11205   4.512   8.645   9.837  0.1134  0.0378  0.3012
 7155W        W11206   3.469   9.457   3.765  0.0476 -0.2002 -0.2653
 7156W        W11207   8.029   3.011  12.773  0.0476 -0.0563  0.0980
 7157W        W11208   4.439   6.033  13.711  0.1146  0.0911  0.2560
 7158W        W11209   2.370   8.094   3.980 -0.3445  0.3079  0.2766
 7159W        W11210   6.929   7.447   3.226 -0.2771  0.2751  0.0201
 7160W        W11211   0.442   9.107  10.609 -0.0007  0.0087  0.1512
 7161W        W11212   4.924  10.116   0.933  0.0315 -0.3328 -0.4844
 7162W        W11213   5.622   7.839   0.046 -0.0074  0.2380 -0.2063
 7163W        W11214   7.163   5.890   1.224 -0.1435  0.0505  0.0917
 7164W        W11215   7.944   2.610   4.058 -0.3753 -0.1500 -0.0408
 7165W        W11216   6.509   4.142  10.014  0.1153  0.0749  0.0486
 7166W        W11217   0.068   4.932  13.817  0.0556  0.1824 -0.3466
 7167W        W11218   3.388   7.908   3.774  0.1187 -0.1980  0.1080
 7168W        W11219   0.653   5.544  13.742 -0.2592  0.1268  0.2020
 7169W        W11220   8.531   5.544  12.627 -0.1622  0.0513  0.0539
 7170W        W11221   9.446   9.640   0.673  0.1051  0.1185  0.0006
 7171W        W11222   8.076   0.391  12.964  0.1369  0.1695 -0.2006
 7172W        W11223   1.627   7.241   3.454 -0.0145  0.2924  0.1532
 7173W        W11224   3.756   2.580   0.624  0.0701  0.2361 -0.1700
 7174W        W11225   0.706   8.434   1.515  0.2726 -0.1505 -0.3705
 7175W        W11226   3.453   0.659  11.007 -0.1881 -0.3128  0.0286
 7176W        W11227   1.243   3.170   3.248 -0.3206 -0.3610  0.4632
 7177W        W11228   8.380   2.326   1.276  0.0517 -0.1437  0.2601
 7178W        W11229   0.717   8.189   9.659  0.0377 -0.0703  0.0509
 7179W        W11230   2.445   7.681   0.961 -0.0200 -0.0445  0.1571
 7180W        W11231   8.266   1.366  12.862 -0.2062  0.0348  0.0767
 7181W        W11232   3.521   6.008  13.507 -0.2484 -0.1608 -0.1128
 7182W        W11233   2.367   4.031  11.612  0.2203  0.4098  0.0363
 7183W        W11234   2.479   5.477  10.676 -0.1076 -0.0360  0.1063
 7184W        W11235   9.456   9.046   5.222 -0.0648 -0.1632  0.2236
 7185W        W11236   4.502   0.366   8.838 -0.2110 -0.0466  0.1852
 7186W        W11237   3.243   4.253   4.822 -0.1556 -0.1226  0.3636
 7187W        W11238   6.257   5.128  13.877 -0.0597 -0.2033  0.0935
 7188W        W11239   4.308   7.081   3.764 -0.3691  0.1380 -0.2012
 7189W        W11240   2.929   3.566   2.374 -0.5037 -0.1676 -0.1098
 7190W        W11241   7.615   8.263   2.264 -0.0845  0.3961 -0.1329
 7191W        W11242   3.380   7.949   2.336  0.2909 -0.0580  0.2363
 7192W        W11243   3.321   3.200  11.481  0.0887  0.1009 -0.4933
 7193W        W11244   0.454   4.630   2.784  0.2015 -0.2465  0.0547
 7194W        W11245   6.148   6.328   9.165 -0.2544 -0.0156  0.1685
 7195W        W11246   1.698  10.076   1.604 -0.0430 -0.2374  0.0130
 7196W        W11247   8.382   0.049   1.971 -0.2896 -0.1039 -0.0537
 7197W        W11248   5.115   5.640  11.819  0.1922  0.1183  0.0938
 7198W        W11249   1.604   8.864   3.838  0.1185  0.0975 -0.0592
 7199W        W11250   3.594   2.471  10.933  0.0605 -0.1510  0.0669
 7200W        W11251   8.605   2.235   0.610 -0.2007 -0.2831  0.1774
 7201W        W11252   4.291   9.131   1.650 -0.1041 -0.3026 -0.1272
 7202W        W11253   2.551   2.627   3.081 -0.1807 -0.0298  0.2699
 7203W        W11254   0.247   7.668  10.349  0.2917  0.0758 -0.2472
 7204W        W11255   2.075   5.555   9.444  0.2964  0.1134  0.1646
 7205W        W11256   1.536   3.347  13.940  0.0564 -0.0102  0.0110
 7206W        W11257   3.040   3.577  11.671 -0.1633 -0.1014 -0.0999
 7207W        W11258   2.061   1.774   4.985  0.1285  0.1551 -0.1028
 7208W        W11259   4.618   8.716  10.718  0.0695 -0.1077  0.1059
 7209W        W11260   7.484   4.128  10.930  0.2039 -0.5636 -0.0475
 7210W        W11261   4.955   7.262  13.690 -0.3952  0.1733  0.0165
 7211W        W11262   7.500   8.728   0.949 -0.0985 -0.3364 -0.1106
 7212W        W11263   5.867   4.795  12.019 -0.1447 -0.0810  0.2366
 7213W        W11264   0.029   3.100   3.405  0.2279 -0.0303 -0.0224
 7214W        W11265   3.406   7.224   3.732  0.0514  0.1816 -0.1379
 7215W        W11266   8.513   1.672   0.616 -0.2089 -0.0794  0.0521
 7216W        W11267   0.990   7.756   4.102 -0.0854 -0.1703 -0.0246
 7217W        W11268   5.291   6.138   5.054  0.0503 -0.0026 -0.0114
 7218W        W11269   6.458   1.128  13.815 -0.1301  0.0335 -0.1313
 7219W        W11270   6.474   9.073   8.327  0.1127  0.0489  0.0259
 7220W        W11271   6.467   2.256  13.012  0.0224  0.1614 -0.0735
 7221W        W11272   4.646   2.346   3.674 -0.3614  0.2204  0.0099
 7222W        W11273   9.805   9.560   0.333 -0.5387  0.0509 -0.3375
 7223W        W11274   6.524   2.240   0.273 -0.3581  0.2174 -0.0280
 7224W        W11275   5.014   3.783   0.956 -0.0986  0.3323 -0.0180
 7225W        W11276   8.385   3.756   3.838  0.1760 -0.2545  0.2521
 7226W        W11277   7.943   8.243   3.890 -0.0752  0.0785  0.1241
 7227W        W11278   5.589   6.323  13.796 -0.1239  0.0927  0.1737
 7228W        W11279   0.265   1.179   0.835 -0.0504 -0.0767  0.0397
 7229W        W11280   6.626   3.597  11.901  0.1243  0.2458  0.0681
 7230W        W11281   4.941   1.111   3.546 -0.3409  0.0666  0.2091
 7231W        W11282   9.434   5.497   1.835  0.3157  0.1399 -0.2382
 7232W        W11283   2.187   5.514   1.858  0.3891 -0.2756  0.0863
 7233W        W11284   8.242   3.178   1.110  0.0338 -0.1791  0.0733
 7234W        W11285   6.771   9.456   9.397 -0.1013 -0.0448 -0.1366
 7235W        W11286   8.874   3.167   1.088 -0.0219 -0.0196 -0.1238
 7236W        W11287   5.510   7.514  11.761 -0.1495 -0.1818  0.0710
 7237W        W11288   6.326   4.405   3.027  0.3589  0.2406  0.1689
 7238W        W11289   3.228   6.988   0.889  0.0747  0.2901 -0.1093
 7239W        W11290   6.952   9.031  10.136  0.2404 -0.0084  0.3857
 7240W        W11291   5.920   7.933   2.100 -0.0918 -0.0966  0.0851
 7241W        W11292   1.079   8.175  10.075  0.0256  0.1452  0.1679
 7242W        W11293   6.935   8.089   3.799  0.1049  0.0309 -0.1016
 7243W        W11294   5.729  10.131  11.859 -0.1710 -0.2040 -0.0981
 7244W        W11295   6.992   4.384  10.875 -0.0656 -0.2486  0.3024
 7245W        W11296   6.532   5.483   5.113  0.0611 -0.1523 -0.0167
 7246W        W11297   2.800   5.285  13.531 -0.2789  0.0059 -0.0839
 7247W        W11298   7.839   5.472  12.146 -0.0845  0.2772  0.0311
 7248W        W11299   7.876   0.623   4.614  0.1260  0.2110 -0.0726
 7249W        W11300   9.421  10.157  13.571 -0.1164 -0.2627 -0.1879
 7250W        W11301   7.306   9.575   8.740 -0.1836 -0.3978  0.1250
 7251W        W11302   9.296   8.050   2.327 -0.0246 -0.1100  0.0162
 7252W        W11303   1.013   6.476  12.474 -0.3030 -0.1343  0.0885
 7253W        W11304   4.362   7.212  10.219  0.1971  0.0951 -0.2401
 7254W        W11305   9.571   5.487   2.504  0.0461  0.2412  0.0180
 7255W        W11306   4.180   7.382   9.134  0.0842 -0.0198  0.0793
 7256W        W11307   1.619   5.174   4.021  0.2175  0.0408 -0.0558
 7257W        W11308   9.248   8.704   3.362 -0.3423 -0.0725  0.2805
 7258W        W11309   5.513   1.720  13.060  0.1062  0.1063  0.0415
 7259W        W11310   5.578   7.383   3.834  0.3088 -0.0845  0.2316
 7260W        W11311   9.615   5.483  12.119 -0.1535  0.1870 -0.0466
 7261W        W11312   7.555   7.396   9.946  0.0601 -0.0334 -0.0827
 7262W        W11313   3.265   7.816  13.456  0.0906  0.0411 -0.2574
 7263W        W11314   0.307  10.161  11.850  0.2549 -0.3813  0.5287
 7264W        W11315   7.935   7.905   2.470 -0.1052 -0.2663 -0.1124
 7265W        W11316   6.854   0.752  11.299  0.1202 -0.2015  0.1464
 7266W        W11317   2.154  10.034   4.825 -0.0693  0.1770 -0.0276
 7267W        W11318   5.501   0.784   1.380 -0.1183  0.1174 -0.1848
 7268W        W11319   4.337   9.049   1.069  0.1092 -0.0576  0.3442
 7269W        W11320   3.501   7.163   1.810  0.0346 -0.0198 -0.0603
 7270W        W11321   3.528   8.966   3.757  0.3024 -0.1945  0.0549
 7271W        W11322   5.111  10.042  11.507 -0.0940  0.1152  0.2618
 7272W        W11323   2.786   6.407   0.532  0.0038  0.1122  0.0370
 7273W        W11324   3.336   4.695  10.463 -0.0760  0.2780 -0.2364
 7274W        W11325   3.848   3.645   2.338  0.0417  0.1258 -0.2144
 7275W        W11326   3.096   4.155   1.506  0.0372 -0.0781  0.1574
 7276W        W11327   5.293   4.689  12.923  0.0538  0.0408  0.0311
 7277W        W11328   6.711   5.666  12.866  0.1300 -0.3756  0.0476
 7278W        W11329   6.996   9.942   9.495  0.0681 -0.0582 -0.1905
 7279W        W11330   6.706   4.531   0.019 -0.0373 -0.1633 -0.1170
 7280W        W11331   9.968   9.345   1.699 -0.4495  0.0246  0.0629
 7281W        W11332   1.474   1.291  10.417 -0.0418  0.0845  0.0800
 7282W        W11333   4.254   8.660   4.232 -0.4061 -0.1853 -0.0043
 7283W        W11334   4.512   3.947   9.861  0.0664  0.0261  0.1109
 7284W        W11335   0.739   0.960  10.038 -0.1890 -0.2017  0.0856
 7285W        W11336   2.994   1.120   8.777 -0.0014 -0.1621 -0.0068
 7286W        W11337   9.495   1.268   3.100  0.0564  0.0769  0.1085
 7287W        W11338   6.865   7.822   8.973  0.1122 -0.0581 -0.0219
 7288W        W11339   1.641   2.870  13.768  0.0381  0.0869  0.3042
 7289W        W11340   1.225   9.127   3.468 -0.0076 -0.0824  0.1905
 7290W        W11341   5.906   3.650   2.397 -0.0306  0.4479 -0.1273
 7291W        W11342   0.879   5.453   0.155  0.1556 -0.1719 -0.0151
 7292W        W11343   5.823   0.522   3.780 -0.0278 -0.1219  0.1015
 7293W        W11344   4.206   2.909   2.915 -0.1970 -0.1889 -0.0288
 7294W        W11345   8.486   0.484   2.752  0.2430 -0.2231  0.1719
 7295W        W11346   1.308   5.629   2.753  0.0946 -0.1644 -0.2214
 7296W        W11347   9.934   3.293   2.265 -0.1115 -0.3527  0.2506
 7297W        W11348   4.292   5.597   8.383 -0.1691 -0.4035  0.1233
 7298W        W11349   5.785   9.370   0.653  0.0075  0.1167  0.0680
 7299W        W11350   6.904   9.214   4.962  0.0195 -0.1993  0.0949
 7300W        W11351   8.604   2.502   0.018  0.0704  0.2083  0.1399
 7301W        W11352   9.176   5.316  11.136 -0.3517  0.4215 -0.2600
 7302W        W11353   4.157  10.068   2.879 -0.1081  0.0163  0.1814
 7303W        W11354   0.039   7.239   4.046 -0.2270 -0.0191  0.2869
 7304W        W11355   9.948   3.717   1.908  0.2106 -0.1039 -0.1394
 7305W        W11356   0.591   2.557  13.465  0.0633 -0.5673 -0.1355
 7306W        W11357   6.438   5.630   9.869 -0.2178 -0.3502 -0.1881
 7307W        W11358   6.327   1.386  10.615 -0.0960  0.1761  0.1084
 7308W        W11359   8.532   9.603  10.364  0.0429 -0.2729 -0.2399
 7309W        W11360   4.281   8.739  13.860 -0.0959 -0.1291 -0.2662
 7310W        W11361   2.165   2.859   0.090  0.1354  0.1064  0.0017
 7311W        W11362   1.178   1.648   2.011  0.2024 -0.1704  0.0978
 7312W        W11363   7.652   3.690   0.463 -0.0252 -0.1038 -0.3806
 7313W        W11364   6.614   3.891  11.468 -0.2378  0.0350  0.1024
 7314W        W11365   1.731   8.155   1.534  0.1208  0.0626  0.2946
 7315W        W11366   2.926   5.094  11.808 -0.3838 -0.3011 -0.2933
 7316W        W11367   6.271   4.619   9.934 -0.0794  0.1589  0.2636
 7317W        W11368   6.610   6.363   0.008  0.0300 -0.1716  0.4184
 7318W        W11369   2.665   6.089  13.698 -0.1116  0.0825  0.2049
 7319W        W11370   1.105   3.362   1.945  0.0949  0.2942  0.0276
 7320W        W11371   8.482  10.124  10.592 -0.0148  0.0768 -0.1277
 7321W        W11372   6.723  10.133   9.879  0.2892  0.2161 -0.0545
 7322W        W11373   2.003   0.931   3.008 -0.4918 -0.0330  0.1760
 7323W        W11374   8.443   1.147   0.317 -0.0161  0.2328  0.0216
 7324W        W11375   1.483   1.168   1.977 -0.0661  0.0264 -0.0801
 7325W        W11376   7.287   2.620  12.496 -0.0545  0.0562 -0.1246
 7326W        W11377   5.511   5.677  10.685 -0.2366 -0.0676  0.2395
 7327W        W11378   7.419   6.321   2.274 -0.1298  0.0504 -0.4369
 7328W        W11379   3.400   0.368  13.907 -0.0299  0.2987 -0.2356
 7329W        W11380   0.075   9.518  12.294 -0.0755 -0.1384  0.0033
 7330W        W11381   7.155   6.493   9.844 -0.0635 -0.1755 -0.3249
 7331W        W11382   7.588   3.242   3.715  0.0604 -0.0518  0.0406
 7332W        W11383   7.037   5.728   9.733 -0.1844  0.2522  0.1456
 7333W        W11384   6.606   1.245   3.694 -0.1397  0.0826 -0.2871
 7334W        W11385   9.060   4.270  13.347 -0.2118  0.0642 -0.2270
 7335W        W11386   5.934   1.826   3.873  0.0293  0.0477  0.1379
 7336W        W11387   6.106   8.651  12.259 -0.0466 -0.2335 -0.2634
 7337W        W11388   2.236   3.044  10.630  0.1131  0.1507 -0.3409
 7338W        W11389   1.347   6.206  10.302 -0.0926  0.1174 -0.2253
 7339W        W11390   4.668   0.620   1.436  0.1388 -0.2071  0.0049
 7340W        W11391   8.002   3.225  13.261  0.2003  0.2230 -0.0830
 7341W        W11392   7.641   8.570  10.892 -0.0607 -0.1340 -0.0811
 7342W        W11393   9.755   7.710  10.734  0.3261  0.0425  0.1269
 7343W        W11394   9.103   4.813   0.152 -0.2566  0.0429 -0.0189
 7344W        W11395   3.446   3.848   3.491 -0.0142  0.0637 -0.0920
 7345W        W11396   2.268   6.335  12.964 -0.2082 -0.1572  0.0211
 7346W        W11397   9.828   5.386  10.250  0.0754 -0.0729 -0.2690
 7347W        W11398   6.723   3.311  10.977 -0.0660  0.2472  0.0623
 7348W        W11399   1.703   6.551  10.067  0.1089  0.0476  0.2117
 7349W        W11400   1.905   9.554  12.575 -0.1029 -0.2392 -0.1899
 7350W        W11401   1.117   9.378  11.124 -0.1506 -0.1957 -0.2791
 7351W        W11402   1.753  10.023  11.689  0.2538  0.0936 -0.1006
 7352W        W11403   8.573   5.414   1.251 -0.0822  0.1240 -0.0106
 7353W        W11404   9.053   1.046   0.868 -0.1631 -0.2108 -0.3216
 7354W        W11405   2.181   5.001   9.418  0.2494 -0.1423  0.1987
 7355W        W11406   3.521   2.184  14.006  0.1565  0.0432 -0.0857
 7356W        W11407   8.382   8.075  13.057  0.1335 -0.0363  0.0405
 7357W        W11408   1.889   5.113   2.073 -0.0163  0.0876 -0.2402
 7358W        W11409   1.685   6.970   3.037 -0.2955 -0.0803  0.1238
 7359W        W11410   2.375   8.345  10.083 -0.0550 -0.0396  0.0828
 7360W        W11411   4.290   8.236  12.524 -0.0043 -0.4284  0.0100
 7361W        W11412   8.821   1.875   3.569  0.1133 -0.2305 -0.3113
 7362W        W11413   3.544   0.693   4.692  0.0099  0.0242 -0.2610
 7363W        W11414   0.733   0.161  13.117  0.0194 -0.2362  0.0308
 7364W        W11415   9.945   9.887  13.424  0.1270  0.2538 -0.1099
 7365W        W11416   9.630   5.949   1.608 -0.1287 -0.0327  0.2266
 7366W        W11417   0.457   7.615   4.824  0.1452 -0.0344  0.3441
 7367W        W11418   6.545   5.551   4.222  0.1060 -0.3954  0.1289
 7368W        W11419   3.113   3.291   3.498 -0.2494  0.0553  0.1059
 7369W        W11420   1.169   6.268  11.593  0.1790  0.0547  0.1064
 7370W        W11421   2.567   6.757   9.717  0.0552  0.1473  0.1178
 7371W        W11422   5.619   1.283  13.665 -0.3530 -0.0252  0.1982
 7372W        W11423   4.574   7.370  13.385  0.3205  0.1578  0.0361
 7373W        W11424   4.765   6.245   9.859 -0.1502  0.1202  0.1394
 7374W        W11425   4.366   7.949   3.468  0.0451  0.4593 -0.1757
 7375W        W11426   2.949   5.493  10.328  0.1107  0.3238  0.0549
 7376W        W11427   7.404   4.868  12.293 -0.3549 -0.1221 -0.0579
 7377W        W11428   1.518   1.383  12.540 -0.0197  0.1830 -0.3542
 7378W        W11429  10.042   5.983   1.369 -0.1133 -0.0411  0.0056
 7379W        W11430   8.596   3.897   0.056  0.0731  0.1829  0.1595
 7380W        W11431   5.778  10.025   3.843  0.0376 -0.2746 -0.1935
 7381W        W11432   0.222   8.296  10.954 -0.0842 -0.1720 -0.1220
 7382W        W11433   0.997   3.551   0.716  0.1171 -0.3665 -0.1264
 7383W        W11434   7.189   5.466   3.738  0.0098 -0.1836  0.1113
 7384W        W11435  10.142   3.802   0.705 -0.0547  0.1346  0.3966
 7385W        W11436   2.987   2.833   4.649  0.0410  0.0202 -0.2784
 7386W        W11437   3.899   7.194  11.829 -0.3783  0.0798  0.2011
 7387W        W11438   2.777   2.365  12.921 -0.1378 -0.1756  0.0420
 7388W        W11439   9.356   0.384   4.393 -0.0088  0.1589 -0.3016
 7389W        W11440   3.243   7.597  13.970  0.0882 -0.4130  0.3848
 7390W        W11441   1.870   5.180  11.469  0.1673 -0.0991  0.2366
 7391W        W11442   1.286  10.119  11.028  0.3134  0.0313  0.2281
 7392W        W11443   9.313   0.999   0.450  0.1799  0.1049  0.0169
 7393W        W11444   0.563   6.382  12.815  0.0064 -0.3357  0.0894
 7394W        W11445   5.331   6.023  13.511  0.0059 -0.0274  0.2228
 7395W        W11446   0.131   6.281  11.809 -0.1227  0.1102 -0.2462
 7396W        W11447   1.878   8.581   1.738  0.0781  0.1645 -0.1390
 7397W        W11448   2.129   8.796   4.289  0.0299 -0.2363  0.2430
 7398W        W11449   9.206   7.783  13.405  0.1873  0.1114 -0.0322
 7399W        W11450   1.179   6.706  13.480  0.0072 -0.0492  0.1997
 7400W        W11451   1.188   5.292  11.996  0.0280 -0.0301  0.2620
 7401W        W11452   9.123   6.579   2.731  0.1454  0.3175 -0.1001
 7402W        W11453   4.625   5.709  10.018 -0.1001  0.2026 -0.0449
 7403W        W11454   7.698   9.712   2.501 -0.1606 -0.0371  0.3480
 7404W        W11455   3.794   1.074  12.347 -0.0440  0.0703  0.2021
 7405W        W11456   5.021   5.176   0.156  0.3350 -0.3471  0.3314
 7406W        W11457   1.388   9.848   2.238 -0.2346 -0.1219 -0.1125
 7407W        W11458   9.883   6.820   2.968 -0.0965  0.2269  0.5011
 7408W        W11459   9.748   8.077   3.750 -0.0670  0.1870 -0.1327
 7409W        W11460   9.545   3.416  10.291  0.2456  0.2996 -0.0682
 7410W        W11461   5.999   7.139   3.651 -0.1407  0.0792 -0.1180
 7411W        W11462   3.078   8.660  11.275 -0.0880  0.0710  0.1574
 7412W        W11463   2.432   0.642  13.903  0.0798 -0.1862 -0.1621
 7413W        W11464   9.179   8.103   0.653 -0.0801  0.0444  0.1712
 7414W        W11465   4.210   1.255   9.231  0.0368  0.1451 -0.0221
 7415W        W11466   7.724   8.848  12.301 -0.3149 -0.0075 -0.1070
 7416W        W11467   2.110   6.472  12.429  0.0648 -0.1117 -0.0571
 7417W        W11468   8.911   6.649   0.460 -0.0534 -0.4589 -0.0598
 7418W        W11469   4.517   8.624   4.661  0.2521 -0.1097 -0.1642
 7419W        W11470   4.199   4.102   2.473 -0.1447  0.1456  0.0680
 7420W        W11471   7.837   1.726  12.990  0.1758 -0.0297  0.1192
 7421W        W11472   9.366   2.843  13.340 -0.1104  0.0125 -0.1620
 7422W        W11473   1.856   8.508  10.080  0.0581  0.0645 -0.0709
 7423W        W11474   9.925   4.486   1.482 -0.0586 -0.3087  0.2355
 7424W        W11475   8.000   2.176  10.538 -0.0123  0.0117 -0.1213
 7425W        W11476   2.045   4.652   1.243 -0.0180 -0.0025  0.0903
 7426W        W11477   4.970   4.947   1.489  0.1154 -0.2170  0.1607
 7427W        W11478   9.484   9.010  11.216  0.2498  0.1355  0.0052
 7428W        W11479   0.742   7.718  12.787 -0.1440 -0.0426  0.1958
 7429W        W11480   8.368   7.332  12.537 -0.3191 -0.0785  0.1133
 7430W        W11481   3.535   7.596   3.401 -0.0553 -0.2119 -0.0613
 7431W        W11482   8.579   4.939   1.600  0.0172 -0.0559  0.0696
 7432W        W11483   2.314   7.946  12.141  0.2722 -0.0895 -0.0823
 7433W        W11484   2.938   4.616  12.806 -0.1243 -0.0441 -0.1736
 7434W        W11485   2.825   0.382   2.245  0.3048 -0.1072  0.1239
 7435W        W11486   4.889   0.264  10.650 -0.1022  0.3848 -0.0239
 7436W        W11487   8.228   8.801   1.429 -0.4264  0.0557  0.2003
 7437W        W11488   4.194   1.583  12.806  0.0510  0.3075 -0.3239
 7438W        W11489   3.672  10.118  11.651 -0.1820  0.2232  0.0602
 7439W        W11490   9.090   3.941   0.330 -0.1322 -0.0074 -0.1998
 7440W        W11491   7.375   1.486   9.760  0.0462  0.2483  0.0354
 7441W        W11492   5.382   3.247  13.319 -0.1304 -0.0138 -0.3180
 7442W        W11493   7.487   7.628   5.240  0.2171  0.0541  0.0849
 7443W        W11494   2.506   0.531   3.530  0.0678 -0.4357  0.0027
 7444W        W11495   9.607   4.748  14.031 -0.2023  0.0692  0.1874
 7445W        W11496   0.908   0.271   3.170 -0.0555  0.3812  0.0410
 7446W        W11497   3.167   3.836   9.208 -0.2604  0.1637  0.1074
 7447W        W11498   8.911   5.249  11.698 -0.0112 -0.3617  0.0414
 7448W        W11499   0.529   7.264   1.733 -0.1286 -0.0867 -0.2347
 7449W        W11500   6.882   8.687   0.343 -0.0424  0.0044  0.3911
 7450W        W11501   8.615   8.143   8.724  0.2204  0.1332  0.0873
 7451W        W11502  10.078   4.027   0.282  0.0262 -0.1329  0.3541
 7452W        W11503   5.761   8.799   3.233 -0.3396 -0.0758  0.1340
 7453W        W11504   2.483   1.660  11.238 -0.0517 -0.2062 -0.0152
 7454W        W11505   4.517   9.320   3.124  0.0894  0.0308  0.0008
 7455W        W11506   7.417   2.149   0.890 -0.4422 -0.0638 -0.0225
 7456W        W11507   9.394   8.148   9.152  0.0002  0.0842  0.0565
 7457W        W11508   8.097   2.067  12.660 -0.2000  0.0806  0.4375
 7458W        W11509   8.245   9.261  11.284  0.0924 -0.1818  0.1755
 7459W        W11510   1.601   7.925   3.511  0.0493 -0.0190  0.1537
 7460W        W11511   5.982  10.100   2.597 -0.0930 -0.3047  0.1357
 7461W        W11512   0.016   8.534  10.621  0.3782 -0.1277 -0.0805
 7462W        W11513   5.344   5.632   3.307 -0.3625 -0.1037  0.4199
 7463W        W11514   9.918   0.318  11.124  0.1005  0.0106 -0.2238
 7464W        W11515   6.351   6.080  10.236 -0.0116 -0.0596  0.3407
 7465W        W11516   0.744   0.293   3.664  0.2694 -0.0981 -0.0865
 7466W        W11517   7.390   7.449  12.781 -0.0666  0.0447 -0.3280
 7467W        W11518   6.256   9.330   0.994  0.0429 -0.1705 -0.0379
 7468W        W11519   8.074   6.364  13.864  0.0306  0.0459 -0.0851
 7469W        W11520   4.306   5.470  10.962 -0.0848  0.0967  0.1112
 7470W        W11521   8.357   9.506   9.890  0.1210 -0.0653 -0.2431
 7471W        W11522   3.874   1.279   1.052 -0.2481  0.2567  0.0681
 7472W        W11523   7.476   9.246  10.824  0.0769 -0.2407  0.1857
 7473W        W11524   2.409   6.736   5.184  0.1535  0.1798  0.1866
 7474W        W11525   2.078   0.123   2.683 -0.0478 -0.1250  0.0115
 7475W        W11526   8.483   0.606   2.231  0.0520  0.0930 -0.0909
 7476W        W11527   1.669   0.051   1.063  0.2177  0.0520  0.1627
 7477W        W11528   5.601   6.564   3.270  0.0382  0.0968  0.0721
 7478W        W11529   4.353   5.556   4.376 -0.1124 -0.1260  0.2645
 7479W        W11530   4.773   1.890   0.639  0.2853 -0.0734  0.0310
 7480W        W11531   6.373   5.113   9.979 -0.0096  0.2827 -0.4023
 7481W        W11532   9.419   3.321  10.760  0.2147  0.1562 -0.3056
 7482W        W11533   1.251   9.528   9.310  0.2175  0.2908 -0.0507
 7483W        W11534   5.900   7.823   3.885  0.1730  0.3014  0.1101
 7484W        W11535   4.294   4.057  12.143  0.0021 -0.2275 -0.2692
 7485W        W11536   6.899   5.421   1.261  0.0768 -0.0153  0.1603
 7486W        W11537   8.849   5.007  12.967  0.1653  0.1638  0.1114
 7487W        W11538   0.367   2.435  13.968 -0.4937 -0.3128 -0.2340
 7488W        W11539   2.189   1.161  10.398  0.1193  0.0871 -0.0220
 7489W        W11540   3.733   9.616  11.762  0.0797  0.1846  0.0585
 7490W        W11541   1.593   3.730  11.598  0.1440 -0.2078  0.0443
 7491W        W11542   0.382   5.259  13.134  0.1081 -0.2120 -0.1298
 7492W        W11543   8.324   5.771  11.955 -0.1592  0.0892 -0.0468
 7493W        W11544   4.503   7.377   5.220  0.3124 -0.0937 -0.3198
 7494W        W11545   4.715   9.030  12.439  0.0678 -0.1571 -0.2225
 7495W        W11546   7.600  10.060  11.278  0.0992  0.0605 -0.1112
 7496W        W11547   0.297   9.159   1.893  0.0153 -0.4059 -0.0163
 7497W        W11548   5.418   8.678   3.659 -0.1513  0.0355 -0.0122
 7498W        W11549   5.751   6.019   5.163  0.1288  0.2902 -0.0701
 7499W        W11550   5.481   0.994   3.075 -0.0602  0.0476  0.2358
 7500W        W11551   0.828   4.770  10.829  0.3364 -0.0638  0.1232
 7501W        W11552   2.480   8.392   1.653  0.0808  0.2210 -0.2371
 7502W        W11553   6.012   9.980   9.117  0.1238  0.0750  0.1004
 7503W        W11554   5.557   0.116   2.952 -0.0798  0.2267 -0.0334
 7504W        W11555   1.441   2.263   1.058 -0.1094  0.0869 -0.0522
 7505W        W11556   1.785   9.068   4.821 -0.1411 -0.1613 -0.0576
 7506W        W11557   6.799   2.540  12.672 -0.0929 -0.2346  0.0149
 7507W        W11558   0.511   9.397  13.427  0.1401 -0.1199 -0.1263
 7508W        W11559   9.652   9.491   5.096  0.2306 -0.1550  0.0246
 7509W        W11560   3.209   9.595  11.640 -0.1775 -0.2602  0.4269
 7510W        W11561   6.358   3.957   3.613  0.0796  0.0558 -0.0311
 7511W        W11562   3.761   4.613   3.182  0.0790 -0.0279 -0.0207
 7512W        W11563   9.961   9.406   9.989  0.0611  0.1877  0.1621
 7513W        W11564   6.957   7.507   2.710 -0.0323 -0.0290 -0.3257
 7514W        W11565   1.052   1.553  12.639  0.4027 -0.0792 -0.0050
 7515W        W11566   2.532   1.143  12.875  0.1485 -0.0945 -0.0020
 7516W        W11567   7.404   9.073  11.343  0.1453 -0.0191  0.0939
 7517W        W11568   4.737   2.601  13.568 -0.0278  0.0996  0.4177
 7518W        W11569   8.064   6.557  11.395 -0.2307 -0.1391 -0.0582
 7519W        W11570   3.826   2.874   5.011 -0.0137 -0.1359  0.0347
 7520W        W11571   9.156   7.045  10.533  0.0767 -0.2902 -0.2102
 7521W        W11572   0.850   1.521   1.538  0.0638 -0.1010 -0.4529
 7522W        W11573   7.313   0.835   4.587  0.0085 -0.0181  0.4029
 7523W        W11574   3.756   0.297   1.592  0.2768 -0.1753  0.1563
 7524W        W11575   5.531   8.506   1.358 -0.0233  0.2684 -0.1745
 7525W        W11576   2.433   4.812   4.530 -0.4135  0.1772  0.0911
 7526W        W11577   8.506   4.482   2.416  0.1632  0.0879  0.1113
 7527W        W11578   8.579   8.904   0.047  0.4572  0.0070 -0.2658
 7528W        W11579   7.939  10.058   3.589  0.0664 -0.1675 -0.0678
 7529W        W11580   0.641   6.555  13.595  0.0522  0.0468 -0.2675
 7530W        W11581   7.851   6.083   1.326  0.1401  0.5034  0.0425
 7531W        W11582   2.624   7.259   3.875  0.1228 -0.0509 -0.0233
 7532W        W11583   1.580   3.025   1.729  0.0149  0.2702 -0.1897
 7533W        W11584   2.180   9.285   4.428  0.1647  0.2014 -0.1972
 7534W        W11585   3.512   0.034   9.955  0.1402  0.1196  0.1010
 7535W        W11586   1.912   2.750  11.680  0.3303 -0.5377 -0.0146
 7536W        W11587   7.086   1.731  11.110 -0.6107 -0.2721  0.0046
 7537W        W11588   8.952   0.745  11.166  0.0281 -0.3465  0.1450
 7538W        W11589   3.767   4.626  12.582  0.1170 -0.2072  0.0010
 7539W        W11590   5.712   6.267  11.361  0.0027  0.0946 -0.3429
 7540W        W11591   5.954   2.156  10.410 -0.3881  0.1594  0.1472
 7541W        W11592   2.974   9.260  11.911  0.0673 -0.0965 -0.0952
 7542W        W11593   5.776   5.368   4.619  0.0448 -0.0006 -0.0008
 7543W        W11594   3.274   3.018   3.858 -0.0435 -0.0059 -0.0080
 7544W        W11595   3.395   8.125   0.040 -0.1254 -0.0015 -0.1915
 7545W        W11596   8.647   0.601  10.381 -0.1789  0.0757 -0.1588
 7546W        W11597  10.116   9.612   1.257  0.0779  0.1644  0.2446
 7547W        W11598   1.062   5.533   0.645  0.2673  0.3510 -0.0810
 7548W        W11599   2.512   0.427  11.319  0.1945  0.2515 -0.1570
 7549W        W11600   3.597   7.235  13.978  0.2467  0.0482 -0.2244
 7550W        W11601   0.457   2.136  10.608 -0.2761  0.2728 -0.0662
 7551W        W11602   6.985   4.015   1.459  0.0255 -0.0247 -0.0330
 7552W        W11603   6.292   7.196   4.728  0.0511 -0.1315 -0.0030
 7553W        W11604   9.938   6.752   0.964 -0.0479 -0.2810  0.1840
 7554W        W11605   9.601   2.917  12.397  0.2515 -0.0972  0.0444
 7555W        W11606   2.965   4.978  13.166 -0.1013  0.2707 -0.1464
 7556W        W11607   1.999   4.283  10.415 -0.2667  0.0101 -0.1766
 7557W        W11608   3.657   7.725  11.867 -0.0443 -0.3159  0.0493
 7558W        W11609   6.873   3.433  13.826 -0.1002 -0.3116 -0.0867
 7559W        W11610   7.996   7.468   4.865 -0.0900  0.2115 -0.1983
 7560W        W11611   3.735   1.763   9.954  0.0243  0.1236 -0.0660
 7561W        W11612   6.933   5.706  13.355 -0.0275  0.1422 -0.0642
 7562W        W11613   4.460   6.529   9.607  0.2874 -0.1962  0.1981
 7563W        W11614   6.780   3.453   2.479  0.1862 -0.1751 -0.1416
 7564W        W11615   2.685   6.998   4.608 -0.2181 -0.2282 -0.1413
 7565W        W11616   1.796   2.929   0.956 -0.1218 -0.0116  0.1717
 7566W        W11617   3.983   1.863   3.058  0.1526  0.0896  0.3424
 7567W        W11618   4.163   2.831  13.967 -0.0601  0.0327  0.0714
 7568W        W11619   9.096   7.972  12.531 -0.1814 -0.1091  0.0602
 7569W        W11620   8.479   7.417   0.948 -0.0805 -0.2092 -0.0573
 7570W        W11621   6.014   1.745  10.797 -0.3039  0.0083  0.1522
 7571W        W11622   2.817   8.764   0.346  0.0953 -0.1964 -0.2034
 7572W        W11623   1.886   7.234   1.909 -0.0883 -0.0555 -0.0072
 7573W        W11624   1.032   0.161  13.590  0.0567 -0.1669  0.1845
 7574W        W11625   0.793   7.664   3.137  0.0833  0.2689 -0.1081
 7575W        W11626   1.035   5.617  12.332 -0.0308  0.1097 -0.0128
 7576W        W11627   5.614   2.514  11.854  0.0604 -0.1592  0.1086
 7577W        W11628   5.429   9.554   3.509  0.2168  0.0922 -0.1419
 7578W        W11629   2.430   3.827   4.662 -0.1367 -0.3092 -0.0991
 7579W        W11630   7.518   9.823   3.841  0.1384 -0.0996  0.0559
 7580W        W11631   8.786   1.878   0.177  0.1376  0.1682  0.0049
 7581W        W11632   0.584   1.700  10.356 -0.1370 -0.1666  0.0429
 7582W        W11633   3.222   1.860  12.028 -0.0888  0.1143 -0.4265
 7583W        W11634   4.294   5.211  13.785 -0.3904 -0.0418  0.1596
 7584W        W11635   5.867   3.296   2.731 -0.1489  0.3516  0.1735
 7585W        W11636   6.742   2.381  12.145 -0.0451 -0.4598 -0.4901
 7586W        W11637   8.031   0.061  11.508 -0.5068 -0.4770 -0.0625
 7587W        W11638   2.967   4.777  13.843  0.3043 -0.1806 -0.1889
 7588W        W11639   6.103   5.220   0.745 -0.1930  0.1160 -0.0481
 7589W        W11640   8.410   8.646  12.273  0.4048  0.0187 -0.1351
 7590W        W11641   1.747   5.200  11.949  0.2450 -0.1114  0.2491
 7591W        W11642  10.090   9.978   4.351 -0.0313  0.2313 -0.0488
 7592W        W11643   5.803   7.147   9.489 -0.0222 -0.1494  0.0351
 7593W        W11644   7.842   0.546   0.456  0.2779  0.2019 -0.1454
 7594W        W11645   6.901   7.445   5.507 -0.2456  0.1285 -0.2165
 7595W        W11646   1.459   8.502   4.139  0.1760  0.3773 -0.1667
 7596W        W11647   6.965   6.700  11.893  0.1711 -0.0323 -0.0323
 7597W        W11648   1.604   2.252   9.491 -0.3848  0.0507 -0.3279
 7598W        W11649   8.356   7.047  10.786  0.0939 -0.1303  0.0626
 7599W        W11650   3.216   7.437   1.136 -0.0439  0.2331  0.0445
 7600W        W11651   1.985   0.666   3.554 -0.1124  0.1097  0.0984
 7601W        W11652   4.958   7.120   9.116 -0.0517  0.2838  0.1769
 7602W        W11653   7.750   1.942  11.632  0.1096  0.1243  0.0513
 7603W        W11654   2.055   5.091   3.715  0.0048  0.0112  0.1933
 7604W        W11655   8.458   7.214  10.307 -0.1167  0.2294 -0.0073
 7605W        W11656   4.098   1.491  12.324 -0.1155 -0.0431  0.0157
 7606W        W11657   4.108   7.340   4.246  0.0262 -0.0543 -0.0981
 7607W        W11658   0.512   9.600   2.346  0.1186 -0.0454  0.1969
 7608W        W11659   7.175   1.251  10.147  0.2024  0.0075  0.0228
 7609W        W11660   6.972   3.342  10.176 -0.1874 -0.1206 -0.1364
 7610W        W11661   7.516   5.303  11.187  0.2803  0.0588 -0.0122
 7611W        W11662   6.857   7.964   1.266 -0.0312  0.0843  0.1006
 7612W        W11663   9.118   9.728   3.328 -0.0372 -0.0675 -0.1333
 7613W        W11664   0.587   2.762  10.957 -0.0820  0.2016 -0.0938
 7614W        W11665   6.022   0.398  10.412  0.1050  0.0502  0.2891
 7615W        W11666   4.248   0.305   2.288  0.0934  0.1040 -0.2470
 7616W        W11667   6.160   2.195  11.763  0.0753 -0.2004 -0.1231
 7617W        W11668   3.280   2.795  11.801  0.1409  0.1609 -0.4449
 7618W        W11669   7.501   6.317  12.925  0.1483  0.0158  0.2275
 7619W        W11670   1.883   6.078  12.217  0.2753  0.0993  0.2944
 7620W        W11671   4.334   0.106   4.139 -0.3079  0.0064  0.3135
 7621W        W11672   9.019   6.438  12.348  0.2806  0.0176  0.1079
 7622W        W11673   2.416   2.833  12.272  0.1040  0.1030  0.0241
 7623W        W11674   5.587   7.944   1.429 -0.1825  0.1667 -0.0056
 7624W        W11675   5.578   5.073  13.047 -0.2355 -0.0159  0.2200
 7625W        W11676   8.950   7.198  11.091  0.2488 -0.0319 -0.1153
 7626W        W11677   3.859   9.763   3.826 -0.0429 -0.0502  0.1728
 7627W        W11678   1.094   7.165  10.461  0.0760  0.2533 -0.2269
 7628W        W11679   7.331   8.558   8.831 -0.0061 -0.2177 -0.0452
 7629W        W11680  10.142   6.782  13.683  0.2251  0.1664 -0.0902
 7630W        W11681   9.782   0.912   2.895  0.2446  0.0012  0.1158
 7631W        W11682   0.225   4.204   3.350  0.0218 -0.0175  0.1901
 7632W        W11683   0.724   4.239   2.308  0.0050  0.1788 -0.5109
 7633W        W11684   3.316   8.112   5.364 -0.1326 -0.2310 -0.1197
 7634W        W11685   0.658   1.568  11.932 -0.1506 -0.0702 -0.1928
 7635W        W11686   3.459   6.101   1.956  0.2796 -0.0488 -0.2380
 7636W        W11687   7.779   1.040  13.635  0.1992 -0.0102 -0.1336
 7637W        W11688   1.516   4.842  12.165  0.0652 -0.0023  0.3420
 7638W        W11689   8.347   2.971   3.019  0.1015  0.1570 -0.0237
 7639W        W11690   7.983   0.578   5.248  0.1618 -0.1455 -0.0230
 7640W        W11691   8.685   9.543  11.322  0.0226  0.0507 -0.0330
 7641W        W11692   3.930   3.044   0.336 -0.0803  0.1754  0.1392
 7642W        W11693   7.970   4.114  11.132  0.0409  0.0510 -0.0187
 7643W        W11694   8.628   9.304   2.509 -0.1554  0.0985 -0.1893
 7644W        W11695   2.664   3.830   4.070 -0.0072 -0.1578 -0.3208
 7645W        W11696   9.827   4.140   2.776  0.1810 -0.3898 -0.0346
 7646W        W11697   2.351   7.006  14.044  0.0775 -0.0926 -0.2659
 7647W        W11698   8.287   7.202   1.902  0.0287 -0.0331  0.1259
 7648W        W11699   4.655   4.579   4.027 -0.3865 -0.1697  0.0934
 7649W        W11700   2.304   2.659  11.320 -0.1244  0.2591  0.2222
 7650W        W11701   3.497   4.810  11.039  0.0717  0.1326  0.0498
 7651W        W11702   2.807   8.206  11.300 -0.1979  0.1771  0.3206
 7652W        W11703   9.313   6.429   1.728  0.2993 -0.2498 -0.0857
 7653W        W11704   8.824   0.560   3.176  0.3542 -0.0185  0.0862
 7654W        W11705   3.521   3.837  10.852 -0.2572 -0.4140  0.5484
 7655W        W11706   6.666   6.828  10.812 -0.0822 -0.0225  0.0017
 7656W        W11707   7.415   5.425  13.395 -0.1171 -0.2409  0.3413
 7657W        W11708   6.811   1.308   4.746  0.0246  0.0765 -0.3132
 7658W        W11709   6.662   5.357   2.752  0.0182 -0.0687  0.1800
 7659W        W11710   5.141   1.841  11.823  0.2430  0.1431 -0.1286
 7660W        W11711   7.420   9.738  11.721 -0.0163  0.3365  0.0314
 7661W        W11712   3.846   0.326  13.028 -0.1232 -0.2831  0.2074
 7662W        W11713   5.054   0.906   5.526 -0.0283 -0.1209  0.0323
 7663W        W11714   4.707   9.338   9.718 -0.3302  0.2796  0.1482
 7664W        W11715   0.746   6.867  12.571 -0.0867 -0.0140 -0.0885
 7665W        W11716   5.044   2.532  11.247  0.2363 -0.0949  0.0144
 7666W        W11717   9.477   4.317   1.609 -0.3065 -0.0540  0.0536
 7667W        W11718   1.572   2.378   4.235  0.0115 -0.2875  0.0051
 7668W        W11719   0.251   7.368   2.639  0.0495 -0.0711  0.0190
 7669W        W11720   5.191   4.183   0.065  0.3798 -0.1777 -0.1832
 7670W        W11721   9.987   1.217   3.284 -0.0925  0.0086  0.2539
 7671W        W11722   2.241   6.737  12.006 -0.3375  0.1934  0.1127
 7672W        W11723   2.713   8.580  11.616  0.0273 -0.0448  0.0662
 7673W        W11724   3.200   4.201  10.613  0.0590  0.1484 -0.1648
 7674W        W11725   8.317   2.984   4.134 -0.0328  0.1227 -0.0487
 7675W        W11726   8.846   2.863   1.725 -0.1410 -0.0736 -0.4380
 7676W        W11727   1.323   5.796  11.698  0.2465 -0.2099 -0.1434
 7677W        W11728   9.858   1.935   0.544  0.0068  0.1565  0.0419
 7678W        W11729   5.914   5.017   3.547 -0.1076 -0.0675 -0.1356
 7679W        W11730   1.035   2.106  12.561 -0.0595 -0.0508  0.1818
 7680W        W11731   2.102   0.793  12.036 -0.1364 -0.2651  0.3351
 7681W        W11732   4.340   4.697  13.368  0.0203 -0.1295  0.0306
 7682W        W11733   9.436   5.471   1.337  0.1865 -0.2317 -0.0055
 7683W        W11734   0.567   3.217  11.642 -0.0505 -0.3185 -0.0975
 7684W        W11735   5.882   3.580  10.018 -0.1464  0.4244 -0.0065
 7685W        W11736   4.415   0.610   4.282  0.2612 -0.0360  0.0051
 7686W        W11737   4.336   3.552   2.570  0.1334 -0.0750 -0.0003
 7687W        W11738   3.688   3.955   3.970  0.2434 -0.2880 -0.1896
 7688W        W11739   5.551   5.320  11.003  0.2310  0.1239 -0.1001
 7689W        W11740   7.996   9.745  11.485 -0.3003 -0.0052  0.2366
 7690W        W11741   0.366   6.773  11.743 -0.1055  0.0364 -0.0649
 7691W        W11742   7.194   1.780  11.620  0.2139 -0.1617  0.0591
 7692W        W11743   6.726   5.727  10.276  0.0215 -0.0868  0.1047
 7693W        W11744   6.322  10.066   1.696 -0.0207 -0.3654 -0.1817
 7694W        W11745   9.148   1.543   3.600 -0.0691  0.0273 -0.2120
 7695W        W11746   1.509   7.044   1.514  0.3150  0.1371  0.2624
 7696W        W11747   9.612   1.020  10.543  0.3955  0.2295  0.1586
 7697W        W11748   6.954   5.249  12.164 -0.3737  0.1122 -0.0268
 7698W        W11749   7.003   6.565   2.363 -0.0632  0.1082  0.0199
 7699W        W11750   7.789   6.525   3.997  0.2875 -0.1834  0.0940
 7700W        W11751   0.232   2.513   1.973 -0.0800 -0.1233  0.0062
 7701W        W11752   7.018   0.706  10.453  0.2677  0.0634  0.2201
 7702W        W11753   2.368   0.112   9.387  0.3144  0.3179  0.0877
 7703W        W11754   5.008   1.267  12.019  0.0204  0.1344  0.2576
 7704W        W11755   0.711   9.483  12.961 -0.0507  0.1142  0.1252
 7705W        W11756  10.164   9.888   9.992 -0.1070 -0.2375  0.1100
 7706W        W11757   4.830   2.682   4.082  0.0058  0.4295 -0.0343
 7707W        W11758   8.572   5.941   1.665  0.1656 -0.0820  0.1602
 7708W        W11759   7.501   3.148  12.071 -0.3272  0.0217  0.3349
 7709W        W11760  10.019   9.136   4.028  0.2212 -0.2063 -0.1316
 7710W        W11761   4.188   3.113  10.996 -0.1210  0.2264 -0.3246
 7711W        W11762   9.595   7.802   0.707  0.1604  0.2335 -0.1606
 7712W        W11763   7.572   9.913  13.132 -0.0741  0.3686 -0.1347
 7713W        W11764   8.114   5.484   9.849 -0.2155  0.0509 -0.1832
 7714W        W11765   0.743   2.894  12.662  0.0890  0.0365 -0.1467
 7715W        W11766   1.523   6.758  13.817 -0.0854  0.1101  0.2129
 7716W        W11767   0.189   1.825   4.227 -0.0499 -0.1612 -0.1033
 7717W        W11768   6.180   9.650  10.631  0.1798  0.0872 -0.0212
 7718W        W11769   1.593   4.351   2.715 -0.0485  0.2101 -0.1669
 7719W        W11770   1.044   9.285   1.458 -0.2358 -0.1474 -0.1876
 7720W        W11771   8.592   0.685  11.540 -0.3050 -0.0188 -0.1113
 7721W        W11772   1.949   7.040  11.504 -0.1662 -0.1509 -0.1889
 7722W        W11773   2.349   8.598   3.846  0.2845  0.1950  0.3194
 7723W        W11774   4.821   1.706   1.928  0.2258  0.0918  0.0491
 7724W        W11775   3.755   1.826   3.513  0.2639  0.0082 -0.0491
 7725W        W11776   3.236   3.162   2.987 -0.0141  0.0163 -0.1012
 7726W        W11777   9.894   8.331  12.904 -0.1085  0.1496 -0.1338
 7727W        W11778   4.837   2.631   9.585 -0.1739 -0.0975 -0.0928
 7728W        W11779   9.251   7.664   0.347  0.1013 -0.1134 -0.0586
 7729W        W11780   6.631   4.229   1.992  0.1234  0.2485 -0.1131
 7730W        W11781   3.592   7.149   1.317 -0.2372  0.3307  0.0799
 7731W        W11782   5.485   4.761  10.675  0.0732 -0.0114  0.2600
 7732W        W11783   4.668   6.378  11.193  0.0058  0.1521 -0.0470
 7733W        W11784   8.002   4.645  10.476 -0.0428  0.1496  0.3205
 7734W        W11785   8.463   5.577   0.786  0.0793  0.2508 -0.2848
 7735W        W11786   2.274   1.336   9.898 -0.2641 -0.4661 -0.2566
 7736W        W11787   6.381   5.562  11.625 -0.3589 -0.0141 -0.1237
 7737W        W11788   2.704   9.679  10.719 -0.1250 -0.2512  0.0845
 7738W        W11789   6.767   8.541   9.461  0.2268  0.1195 -0.2478
 7739W        W11790   5.863   4.934   0.297  0.2393  0.0826  0.0535
 7740W        W11791   0.157   2.884  11.843  0.0130  0.0301  0.1818
 7741W        W11792   2.163   2.517   1.955  0.0612 -0.1551 -0.0764
 7742W        W11793   7.155   4.422  13.845 -0.1621  0.0359  0.1717
 7743W        W11794   4.398   1.882  12.378  0.1581  0.4658  0.0321
 7744W        W11795   7.619   7.172  11.496  0.2907 -0.0108 -0.2213
 7745W        W11796   9.271   1.813   3.110 -0.1654 -0.5928  0.1248
 7746W        W11797   7.954   6.871  11.781 -0.3791  0.0008  0.1339
 7747W        W11798   6.544   7.872  12.572 -0.1678  0.1153  0.2381
 7748W        W11799   7.875   5.878   2.896 -0.0554  0.1345 -0.0023
 7749W        W11800   3.013   9.168   3.791 -0.1817  0.0127 -0.2133
 7750W        W11801   1.264   0.125   9.127  0.0341 -0.2022 -0.2232
 7751W        W11802   8.249   9.135   9.015 -0.0414 -0.2728 -0.0243
 7752W        W11803   9.226   1.888   2.289  0.0936 -0.0198  0.0428
 7753W        W11804  10.110   5.615   2.773 -0.1071 -0.0977 -0.0705
 7754W        W11805   3.072   2.275   8.896  0.0963  0.2594  0.2782
 7755W        W11806   0.703   9.326  10.061  0.2377  0.0644  0.1468
 7756W        W11807   4.980   7.429   0.680 -0.2006  0.1598 -0.1382
 7757W        W11808   4.347   5.932   3.476  0.0895  0.1301  0.0466
 7758W        W11809   2.809   9.454  13.659  0.1993 -0.0383  0.0608
 7759W        W11810   2.860   6.633   1.754  0.2113  0.1884 -0.0684
 7760W        W11811   7.976   8.724   5.240  0.0778  0.2649 -0.0258
 7761W        W11812   6.785   5.733  12.329 -0.1413 -0.4713  0.1076
 7762W        W11813   5.439   8.115   9.863  0.0584 -0.1040 -0.2092
 7763W        W11814   0.234   9.551   4.492  0.0956  0.3266  0.1722
 7764W        W11815   6.074   6.164  13.832  0.2775  0.1347 -0.2076
 7765W        W11816   4.031   9.559   0.823 -0.2045  0.0956  0.0475
 7766W        W11817   2.718   3.717  10.763  0.1681  0.0007 -0.3678
 7767W        W11818   8.052   0.563  12.344 -0.0392 -0.0018  0.3011
 7768W        W11819   6.913   6.671   2.872  0.1317 -0.1883  0.0757
 7769W        W11820   6.685   4.071  10.417  0.2700 -0.0181 -0.2355
 7770W        W11821   7.701   8.519  12.706  0.1431  0.0617  0.1513
 7771W        W11822   4.151   8.790   2.305 -0.1379 -0.3944  0.2023
 7772W        W11823   6.235   8.834   5.585 -0.0596  0.0682  0.0297
 7773W        W11824   6.598   0.214   2.014 -0.0640  0.1491 -0.2505
 7774W        W11825   4.515   9.569   4.471 -0.0803 -0.0920  0.2364
 7775W        W11826   0.634  10.098   2.834 -0.2630 -0.0037 -0.0999
 7776W        W11827   2.407   3.284   9.926  0.1374 -0.2535  0.0104
 7777W        W11828   5.773   5.755  11.327 -0.1504  0.0154 -0.0160
 7778W        W11829   1.140   0.282   2.256 -0.0434  0.2034  0.1134
 7779W        W11830   3.725   1.958   2.198 -0.1844  0.1094 -0.1937
 7780W        W11831   7.100   4.886  12.642  0.1178 -0.1370  0.0410
 7781W        W11832   1.304   0.106   4.998  0.2116 -0.4594  0.0006
 7782W        W11833   3.596   2.136   8.648 -0.1604 -0.3133  0.1436
 7783W        W11834   4.731   4.353  13.720  0.2984  0.0328 -0.0268
 7784W        W11835   4.128   3.183   8.323  0.1285  0.0688  0.4315
 7785W        W11836   7.878   0.866  10.936  0.1114  0.3179 -0.0590
 7786W        W11837   3.195   3.220   2.146 -0.3163 -0.0508 -0.1832
 7787W        W11838   4.596   4.174  11.798 -0.0390 -0.0827 -0.1951
 7788W        W11839   1.098   1.292   0.298 -0.1324  0.1281  0.2365
 7789W        W11840   7.396   1.198   2.423  0.1090  0.3474 -0.0756
 7790W        W11841   5.287   5.147  11.462  0.2234  0.0785 -0.1947
 7791W        W11842   4.803   9.007  12.959 -0.0222 -0.0238  0.1554
 7792W        W11843   6.460   1.965   2.600 -0.1806 -0.1285 -0.0326
 7793W        W11844   7.477   0.388   2.812 -0.0767 -0.4938 -0.1566
 7794W        W11845   5.548   1.524  10.889  0.0224  0.0104  0.1095
 7795W        W11846   9.968   2.928   0.364  0.0948  0.2369 -0.2117
 7796W        W11847   3.148   6.000   4.026 -0.1331  0.1516 -0.0602
 7797W        W11848   8.776   0.410   9.804 -0.2470  0.0881 -0.1045
 7798W        W11849   8.983   1.290  13.156  0.0598 -0.3013 -0.1501
 7799W        W11850   6.531   3.172  10.434  0.2999 -0.3058 -0.2167
 7800W        W11851   1.169   1.652   4.285 -0.0559  0.1278  0.4420
 7801W        W11852   1.883   0.028   9.918  0.1987  0.2205  0.1970
 7802W        W11853   5.249   0.618  10.635  0.0395 -0.0329 -0.1247
 7803W        W11854   0.394   0.550  10.620 -0.1408 -0.3085 -0.0608
 7804W        W11855   7.426   4.104  11.987 -0.1575 -0.0599  0.1466
 7805W        W11856   1.171   3.381   3.745  0.1247  0.3027 -0.2721
 7806W        W11857   3.481   5.284   9.866 -0.2229  0.2863  0.0772
 7807W        W11858   7.972   1.002   1.465  0.1958  0.0245  0.0593
 7808W        W11859   2.948   0.950   3.449  0.1841 -0.1047 -0.1650
 7809W        W11860   6.059   4.332   3.982  0.3188  0.4102 -0.0998
 7810W        W11861   4.071   6.151  12.713 -0.2733 -0.1689 -0.0341
 7811W        W11862   6.676   1.425  10.034  0.4182  0.1750  0.2523
 7812W        W11863   5.364   8.517  10.232 -0.0076 -0.0174  0.3004
 7813W        W11864   2.727   1.908  13.117  0.1931 -0.2536 -0.1672
 7814W        W11865   9.491   5.733  12.988  0.0154  0.1553 -0.1288
 7815W        W11866  10.103   2.829   1.376  0.2434 -0.0681 -0.2065
 7816W        W11867   1.610   4.330   0.538  0.0601  0.3262  0.1079
 7817W        W11868   4.277   5.802   9.031 -0.1743  0.0998  0.0638
 7818W        W11869   9.841   8.872  11.568 -0.2288  0.2400  0.0359
 7819W        W11870   8.579   8.146   1.108 -0.0378 -0.0172 -0.0850
 7820W        W11871   3.785   8.817   4.191  0.0219 -0.0213  0.1684
 7821W        W11872   0.755   0.951  14.016  0.1314 -0.0892 -0.0241
 7822W        W11873   8.857   6.797  10.852 -0.4785  0.0144 -0.0634
 7823W        W11874   9.223   8.503  12.788  0.0156 -0.0434 -0.0838
 7824W        W11875   5.065   0.458  13.637  0.1248  0.1048  0.3496
 7825W        W11876   5.539   0.919  11.074 -0.0690 -0.0296  0.1579
 7826W        W11877   3.877   0.772   1.662  0.0146 -0.0648 -0.2599
 7827W        W11878   0.977   7.392   0.953  0.1731  0.0813  0.0756
 7828W        W11879   9.688   1.548   4.064 -0.3758 -0.1121 -0.1145
 7829W        W11880   2.064   8.190   2.728  0.3482  0.1655  0.0964
 7830W        W11881   0.767   9.324   9.567  0.1994 -0.1734 -0.0759
 7831W        W11882   7.164   7.129   2.888 -0.0366 -0.1934  0.0510
 7832W        W11883   6.780   1.425   4.161  0.2184 -0.2933 -0.0348
 7833W        W11884   7.290   7.893  13.772 -0.0294 -0.0746 -0.0298
 7834W        W11885   7.547  10.063   1.540  0.1876 -0.1732  0.0467
 7835W        W11886   5.469   3.565   0.719 -0.3308 -0.0045 -0.1739
 7836W        W11887   3.433   2.607   1.033  0.1807 -0.2007 -0.0440
 7837W        W11888   8.980   4.393   2.095  0.2255 -0.1814  0.0984
 7838W        W11889   3.696   1.638   1.844  0.2199  0.0405 -0.0030
 7839W        W11890   6.309   0.797  13.139 -0.2063 -0.3749 -0.0360
 7840W        W11891   1.220   6.098   2.746  0.1517  0.0817 -0.2757
 7841W        W11892   2.625   6.746  11.626 -0.0031  0.3439 -0.2940
 7842W        W11893   3.576   9.467  10.470  0.4123 -0.1255  0.1746
 7843W        W11894   5.656   7.894   8.609 -0.0590 -0.2060 -0.0270
 7844W        W11895   6.394   5.450   0.378  0.1832  0.1616 -0.0596
 7845W        W11896   5.854   0.849   3.405 -0.1856  0.1681  0.0148
 7846W        W11897   3.017   5.975   2.261 -0.1924  0.1000  0.1925
 7847W        W11898   5.832   3.050   9.885 -0.0827  0.4709  0.1393
 7848W        W11899   9.626   7.692   2.150  0.0610 -0.2640  0.1890
 7849W        W11900   4.309   8.484   0.222 -0.3684 -0.0385  0.0551
 7850W        W11901   4.512   2.707   9.074  0.4017 -0.0098 -0.0674
 7851W        W11902   5.609   2.876   2.508 -0.0819 -0.2947 -0.3034
 7852W        W11903   4.933   3.011   4.639  0.2663  0.0674 -0.0652
 7853W        W11904   0.917   3.345   2.818  0.1805  0.0264 -0.0362
 7854W        W11905   7.495   2.775   3.903 -0.0361 -0.1829  0.2550
 7855W        W11906   8.536   0.973   1.521 -0.0147  0.2088  0.0410
 7856W        W11907   1.630   5.244  12.936  0.0580 -0.0845 -0.1169
 7857W        W11908   9.646   6.208   0.362 -0.0118 -0.1887 -0.0771
 7858W        W11909   2.155   8.405  13.916  0.3387  0.1523  0.0395
 7859W        W11910   5.995   1.362   9.590  0.2335 -0.1224 -0.2343
 7860W        W11911   8.554   6.023  11.228 -0.4856 -0.0864 -0.0119
 7861W        W11912   5.119   5.610  13.956  0.1318 -0.2184 -0.1860
 7862W        W11913   3.389   8.508  10.229  0.0797 -0.2165  0.1974
 7863W        W11914   0.465   6.716   3.397  0.1517 -0.1753  0.0087
 7864W        W11915   1.182   3.441  12.529 -0.3416  0.0756 -0.0026
 7865W        W11916   6.096   2.191  13.974  0.3250 -0.1597  0.1321
 7866W        W11917   8.725   4.768   1.169 -0.0560 -0.0532  0.0964
 7867W        W11918   6.476   1.579  12.468 -0.3435  0.4582 -0.0191
 7868W        W11919   9.008   8.378  10.041 -0.0054  0.1037 -0.1257
 7869W        W11920   5.971   7.440   2.136 -0.1287  0.2083 -0.0032
 7870W        W11921   1.673   4.063   1.977  0.0756 -0.3167  0.0217
 7871W        W11922   2.151   1.060  14.044 -0.1992 -0.2426 -0.0459
 7872W        W11923   2.475   1.749   0.535 -0.0210  0.2713 -0.4316
 7873W        W11924   9.595   0.358  13.894  0.1461  0.2403  0.0627
 7874W        W11925   5.648   8.831  11.045  0.0118  0.0645  0.0146
 7875W        W11926   9.011   6.344  11.264  0.0101  0.1227  0.1576
 7876W        W11927   3.554   1.017  10.464 -0.0704  0.1638 -0.4173
 7877W        W11928   4.488   7.347   0.494  0.2090 -0.3307 -0.4189
 7878W        W11929   8.291   5.271  12.274  0.1803  0.2387 -0.2056
 7879W        W11930   6.281   5.265   2.373  0.1103 -0.1089 -0.1131
 7880W        W11931   1.217   6.267   3.253 -0.1066 -0.1071 -0.1937
 7881W        W11932   3.707   4.413   9.620 -0.0001  0.0661 -0.1843
 7882W        W11933   8.768   3.916  12.211 -0.2008 -0.0333  0.1900
 7883W        W11934   4.149   9.656  13.583  0.0033 -0.1484  0.2436
 7884W        W11935   0.575   1.859  11.395 -0.0090  0.1494  0.1574
 7885W        W11936   3.341   1.223  10.958 -0.1992 -0.0918  0.2152
 7886W        W11937   6.329   2.040   1.486  0.1211  0.1054  0.0820
 7887W        W11938   1.446   5.194  10.626 -0.2832 -0.1134  0.0721
 7888W        W11939   9.392   5.101   0.979  0.1092 -0.2292 -0.2221
 7889W        W11940   2.620   8.086  10.444 -0.0491  0.2631 -0.3670
 7890W        W11941   6.566   6.056   2.020 -0.0270 -0.2348 -0.2760
 7891W        W11942   0.489   1.468   3.584  0.1047  0.3180  0.0060
 7892W        W11943   0.697   9.383   3.610  0.1200 -0.2032 -0.1543
 7893W        W11944   7.653   4.551  13.771 -0.1437  0.0525 -0.0468
 7894W        W11945   2.771   3.002   2.787 -0.0363 -0.0032  0.0753
 7895W        W11946   5.266   5.209  10.596 -0.1720 -0.2340  0.2292
 7896W        W11947   2.159   8.597   9.636  0.3381 -0.1686  0.0900
 7897W        W11948   7.582   0.056  10.552 -0.1625 -0.2393 -0.0596
 7898W        W11949   4.142   4.072  11.634  0.2053  0.0741  0.3854
 7899W        W11950   7.872   1.060  11.394  0.2423 -0.0148  0.2091
 7900W        W11951   8.956   0.222  10.255 -0.1989 -0.1145  0.0172
 7901W        W11952   1.582   2.923  10.298 -0.1446  0.3733  0.1196
 7902W        W11953   2.228   2.107  13.170  0.0860 -0.1095 -0.1429
 7903W        W11954   2.722   5.457   5.295  0.2326  0.0404 -0.1734
 7904W        W11955   8.235   2.094   0.348  0.1189 -0.3507  0.0472
 7905W        W11956   9.575   5.621  11.201  0.1376 -0.0192  0.2091
 7906W        W11957   7.060   0.239   9.521  0.1265 -0.1330 -0.1788
 7907W        W11958   1.615   5.263   0.127 -0.1812  0.0200 -0.0944
 7908W        W11959   6.831   7.059   3.818  0.1970  0.2876 -0.2119
 7909W        W11960   5.960   8.213   2.516 -0.0248 -0.3814 -0.1376
 7910W        W11961   8.017   3.873  10.663 -0.1271 -0.2145  0.1464
 7911W        W11962   9.989   9.423   3.551  0.1008 -0.2570 -0.2427
 7912W        W11963   7.784   8.227   9.906 -0.0395 -0.2341  0.1785
 7913W        W11964   1.285   3.146  10.968 -0.1904 -0.0700 -0.1696
 7914W        W11965   5.100   3.959   2.615 -0.2809  0.0110 -0.1271
 7915W        W11966   1.339   6.712  10.672 -0.3485  0.0400  0.1889
 7916W        W11967   9.641   5.880  10.344  0.0570  0.1616 -0.0845
 7917W        W11968   5.324   2.897   0.168  0.2550  0.1740 -0.0147
 7918W        W11969   4.889   9.726   0.606 -0.0013  0.0282  0.2677
 7919W        W11970   3.619   2.967   9.131 -0.3845  0.1574  0.0023
 7920W        W11971   9.375   8.404   3.915  0.0350  0.0685  0.4864
 7921W        W11972   4.831   2.203  10.813 -0.0804  0.1021  0.1018
 7922W        W11973   8.366   7.888  11.377  0.3150 -0.0419  0.1342
 7923W        W11974   4.304   7.095   3.265 -0.2486 -0.2700  0.1802
 7924W        W11975   4.021  10.082  13.286 -0.1228  0.0493  0.0813
 7925W        W11976   0.703   7.186   4.696 -0.3328 -0.0490 -0.3685
 7926W        W11977   1.204   3.657  11.133 -0.3159  0.0817 -0.2394
 7927W        W11978   0.383   8.915   2.827  0.0277  0.2020 -0.1019
 7928W        W11979   0.743   9.470   3.126  0.0768 -0.0209 -0.0249
 7929W        W11980   2.797   6.909   3.436 -0.2165 -0.0933  0.1553
 7930W        W11981   5.813   3.619  11.418  0.1150 -0.0760 -0.1916
 7931W        W11982   9.566   0.424   3.011 -0.1265  0.1295 -0.2269
 7932W        W11983  10.034   2.107  10.784 -0.1518  0.1575 -0.3182
 7933W        W11984   9.180   1.518  11.312 -0.0252 -0.1773  0.1501
 7934W        W11985   7.561   4.569  11.914 -0.2035 -0.3135  0.2400
 7935W        W11986   8.745   4.969   2.176 -0.5515  0.0351  0.1973
 7936W        W11987   5.450   1.679   3.039 -0.0189 -0.1047  0.1249
 7937W        W11988   3.260   5.989  13.988 -0.1083  0.0136  0.3277
 7938W        W11989   2.416   5.500   1.059  0.0932  0.2764 -0.0449
 7939W        W11990   1.462   7.249   0.943  0.0288  0.0252  0.2675
 7940W        W11991   1.981   0.469  12.403 -0.1858  0.2681 -0.0863
 7941W        W11992   9.914   0.982  11.593  0.1020 -0.0447  0.0184
 7942W        W11993   2.383   1.795   2.771 -0.1173  0.1364 -0.0474
 7943W        W11994   7.362  10.164  12.153 -0.1861  0.1090  0.3320
 7944W        W11995   9.208   1.662   1.814 -0.1912 -0.3724 -0.0851
 7945W        W11996   8.260   9.566   4.914  0.3547 -0.1521  0.1553
 7946W        W11997   9.566   0.972  12.253  0.1026  0.0597  0.0949
 7947W        W11998   3.191   1.184   3.947  0.0615  0.0659 -0.3163
 7948W        W11999   6.449   7.594   1.267 -0.1005  0.0932 -0.0081
 7949W        W12000   2.967   2.585   4.142 -0.0452  0.1667  0.4565
 7950W        W12001   5.396   4.480   0.805 -0.1838 -0.1384 -0.4260
 7951W        W12002   0.884   2.955   0.637 -0.1077  0.1082 -0.3130
 7952W        W12003   8.560   0.004  13.711  0.2518  0.0443  0.1788
 7953W        W12004   8.124   8.165   2.091 -0.1687  0.0467 -0.2255
 7954W        W12005   6.078   1.690   2.328  0.2641  0.2380 -0.0534
 7955W        W12006   2.087   4.261   3.094  0.1072  0.1013 -0.0762
 7956W        W12007   3.294   8.001  10.103  0.0221  0.0445 -0.0740
 7957W        W12008   3.002   6.945  10.542  0.1548  0.2485 -0.0618
 7958W        W12009   0.745   1.867   1.926  0.0675 -0.0450 -0.0438
 7959W        W12010   1.537   7.768   5.019 -0.0716 -0.0796 -0.0520
 7960W        W12011   2.279   0.384   4.738  0.3364  0.1110  0.0781
 7961W        W12012   9.343   0.010   0.143  0.1641  0.1162 -0.1907
 7962W        W12013   3.376   8.405   9.749 -0.0416 -0.1447 -0.0592
 7963W        W12014   0.054   7.816  10.781  0.1461  0.0086 -0.1667
 7964W        W12015   3.138   9.313   1.547  0.2134  0.2488  0.0714
 7965W        W12016   7.326   6.261  11.208  0.0113 -0.0241 -0.1877
 7966W        W12017   1.591   8.994   2.593 -0.2702 -0.1439 -0.3105
 7967W        W12018   4.939   7.739   1.279 -0.0860 -0.2367  0.1101
 7968W        W12019   4.854   4.882   9.520  0.0872  0.2830  0.1927
 7969W        W12020   5.170   1.492   9.286 -0.1707 -0.0271  0.3141
 7970W        W12021   0.620   7.802   4.395  0.2825  0.3116 -0.3488
 7971W        W12022   2.920   1.005   0.417  0.0539  0.1770  0.0570
 7972W        W12023   9.823   2.574   1.971 -0.1339  0.4553  0.2829
 7973W        W12024   1.309   0.447  12.545  0.4234  0.0056 -0.1839
 7974W        W12025   6.653   2.385   1.300  0.0921 -0.5038  0.0729
 7975W        W12026   2.859   4.276   2.038  0.1961 -0.1418  0.2778
 7976W        W12027   7.918  10.152   1.151  0.0981  0.2866  0.2343
 7977W        W12028   3.803   2.869   3.729 -0.1701 -0.2471  0.0452
 7978W        W12029   1.620   4.336   3.354  0.3707  0.0331 -0.3097
 7979W        W12030   3.725   2.931  12.279  0.1088  0.1676  0.1533
 7980W        W12031   7.790   0.592   9.278 -0.2021  0.1770 -0.0660
 7981W        W12032   1.899   7.529   1.072 -0.0660 -0.3858  0.3225
 7982W        W12033   5.881   7.203  11.885 -0.0504 -0.0566 -0.5286
 7983W        W12034   9.657   2.381   0.680  0.0021 -0.1256 -0.0165
 7984W        W12035   7.861   8.649  13.587  0.3866 -0.1317 -0.0215
 7985W        W12036   7.665   1.440   2.746 -0.0552  0.4163 -0.0954
 7986W        W12037   3.730   3.468   9.327 -0.1027  0.3492  0.0301
 7987W        W12038   7.443   5.859  13.684 -0.0132 -0.1514 -0.3588
 7988W        W12039   3.388   7.233   3.048  0.0333  0.5349 -0.0586
 7989W        W12040   5.632   6.407   2.783 -0.1765 -0.3533  0.1372
 7990W        W12041   6.434   5.964   0.615 -0.1861  0.1131  0.0598
 7991W        W12042   5.579   4.327  12.666 -0.0364 -0.0826  0.3283
 7992W        W12043   9.750   4.637  12.819 -0.1304 -0.1645  0.5908
 7993W        W12044   5.399   8.622   9.451  0.1279  0.1259 -0.1312
 7994W        W12045   5.601  10.098  10.002 -0.2929  0.2352  0.1295
 7995W        W12046   1.656   6.036   1.306  0.3619  0.4410 -0.1327
 7996W        W12047   7.933   4.531   3.862 -0.1866  0.1272  0.0154
 7997W        W12048   5.103   4.603   3.788  0.2310  0.0731  0.2882
 7998W        W12049   6.776   7.390  10.504  0.1463 -0.1222 -0.2203
 7999W        W12050   8.194   4.601   3.444  0.1481 -0.1331  0.2354
 8000W        W12051   2.099  10.091   1.886 -0.0905  0.0467  0.3341
 8001W        W12052   6.187   3.937  13.716  0.0863 -0.1901 -0.0591
 8002W        W12053  10.046   0.817   2.405  0.3604  0.3355  0.1534
 8003W        W12054   1.320   7.559   3.813 -0.1607 -0.0565  0.1208
 8004W        W12055   4.401   5.908   0.153  0.0051 -0.1976 -0.1063
 8005W        W12056   0.726   7.847  13.933 -0.2813  0.1104  0.0188
 8006W        W12057   6.954   3.965  11.893  0.0335 -0.1304 -0.0860
 8007W        W12058   3.966   6.984  10.561  0.1463  0.0291  0.5471
 8008W        W12059   9.185   3.071  10.289 -0.2058 -0.0893 -0.0435
 8009W        W12060   4.147  10.090   1.465  0.2370  0.2920  0.1112
 8010W        W12061   4.371   1.028   2.955 -0.1662  0.0697  0.3037
 8011W        W12062   2.128   3.699  13.953  0.4317  0.0166 -0.0301
 8012W        W12063   8.377   8.083   1.669 -0.1015 -0.0963  0.0167
 8013W        W12064   6.943   9.054  12.607 -0.0873 -0.0179 -0.2203
 8014W        W12065   4.492  10.071   2.042 -0.0666  0.0415  0.1282
 8015W        W12066   9.588   0.980  13.264 -0.1398 -0.1740  0.2729
 8016W        W12067   9.211   9.904  12.270 -0.2859 -0.1140  0.1869
 8017W        W12068   4.522   6.645   0.324 -0.0703 -0.0080  0.1053
 8018W        W12069   3.736   5.731   9.122 -0.1911 -0.1178  0.0581
 8019W        W12070   5.083   5.987  13.085 -0.2525  0.3475 -0.1121
 8020W        W12071   6.594   3.009   2.707 -0.1538 -0.3825 -0.0522
 8021W        W12072   3.177   0.274  12.295  0.4006  0.0410  0.0738
 8022W        W12073   2.171   3.934  13.435 -0.0204  0.1977  0.0067
 8023W        W12074   6.713   5.282  13.979  0.0717  0.1277  0.0325
 8024W        W12075   1.504   7.609  11.693  0.0687  0.2025  0.3684
 8025W        W12076   6.562   6.515   9.475  0.1753 -0.3755  0.2379
 8026W        W12077  10.065   2.848   0.848 -0.1858 -0.1005 -0.0212
 8027W        W12078   5.903   4.273   9.768  0.2295 -0.0121 -0.2980
 8028W        W12079   2.826   8.871   1.699 -0.0829 -0.1089 -0.2517
 8029W        W12080   3.495   2.668   0.165  0.1525  0.2032 -0.1171
 8030W        W12081   5.422   1.678   3.518 -0.0809 -0.1950 -0.1685
 8031W        W12082   7.236   5.017  10.794  0.1197 -0.0870  0.3537
 8032W        W12083   1.722   0.918   9.177 -0.2384 -0.0007  0.2308
 8033W        W12084   4.569   9.044   9.352 -0.0650  0.1389  0.2310
 8034W        W12085   5.639   9.514   5.209 -0.2052  0.2259  0.1176
 8035W        W12086   6.264   6.658   2.843  0.0429 -0.1257  0.0844
 8036W        W12087   8.978   5.437   2.008  0.2614  0.0335 -0.0153
 8037W        W12088   8.638   9.771   3.169 -0.0452 -0.1734  0.1557
 8038W        W12089   2.473   8.158   9.600  0.1686 -0.3152  0.0582
 8039W        W12090   4.919   3.891  12.142  0.0723 -0.1884 -0.2896
 8040W        W12091   1.495   9.501  12.203  0.1281 -0.2861  0.0941
 8041W        W12092   5.822   6.152   4.159 -0.0491  0.2210 -0.2484
 8042W        W12093   0.567   1.924   0.031  0.1675 -0.3416 -0.0455
 8043W        W12094   6.316   1.688   1.089 -0.0989 -0.0081  0.0204
 8044W        W12095   8.316   4.232   3.029  0.4506 -0.1214  0.2483
 8045W        W12096   3.500   0.680  12.339  0.0656  0.1360 -0.0062
 8046W        W12097   9.702   7.668   1.646 -0.1644  0.1667 -0.0092
 8047W        W12098   6.574   8.492  13.284  0.0625 -0.0768 -0.1441
 8048W        W12099   5.922   1.267   3.112  0.1000 -0.2432 -0.1517
 8049W        W12100   0.302   7.451   3.127 -0.2716  0.3106  0.0029
 8050W        W12101   5.216   2.098  12.860  0.2074 -0.0042 -0.2473
 8051W        W12102   3.817   8.350  12.463 -0.2723  0.0277  0.1918
 8052W        W12103   6.893   8.127  12.186 -0.0527 -0.2535 -0.1693
 8053W        W12104   8.141   8.725  10.669 -0.0893  0.1360  0.0409
 8054W        W12105   3.663   1.998  13.495 -0.2389 -0.3006 -0.1421
 8055W        W12106   1.192   2.443   3.751  0.1967  0.3552  0.1566
 8056W        W12107   8.557   5.581  10.280 -0.0555  0.0638  0.0990
 8057W        W12108   5.031   9.923   3.347 -0.1862 -0.0479  0.1734
 8058W        W12109   3.665   6.693   4.459 -0.0249  0.2391  0.4329
 8059W        W12110   8.067   0.114   3.091  0.0404 -0.0245  0.3851
 8060W        W12111   9.975   3.569  13.539 -0.0452  0.1732 -0.2280
 8061W        W12112   7.880   9.023  11.008  0.2573 -0.3618 -0.0729
 8062W        W12113   2.289   9.923   3.784 -0.0035  0.2507  0.3518
 8063W        W12114   3.015   0.304   4.847  0.0710 -0.0732  0.3313
 8064W        W12115   0.418   4.989   1.948 -0.1330 -0.0210 -0.1578
 8065W        W12116   9.388   2.801   1.896 -0.0453 -0.1106 -0.0849
 8066W        W12117   6.976   2.183   2.870  0.1609  0.1543 -0.1304
 8067W        W12118   6.440   4.984   3.614 -0.1057  0.1086  0.2086
 8068W        W12119   4.394   5.790  12.572 -0.1239 -0.2126 -0.0177
 8069W        W12120   4.428   1.469   1.152 -0.1201  0.1527 -0.1621
 8070W        W12121   2.596   5.413  11.152 -0.0017 -0.1179 -0.0594
 8071W        W12122   6.262   7.578   4.434  0.3514 -0.0630  0.2085
 8072W        W12123   7.367   5.053  11.803  0.1784  0.1856 -0.3392
 8073W        W12124   4.305   2.850  13.516 -0.2437 -0.0759 -0.2766
 8074W        W12125   6.728   4.008  13.908 -0.1707 -0.0777 -0.1186
 8075W        W12126   7.715   9.289   2.740  0.0037 -0.4881  0.0856
 8076W        W12127   8.476   3.285   2.538  0.1024  0.1891 -0.0291
 8077W        W12128   6.046   2.675  11.621 -0.0404 -0.0825 -0.0170
 8078W        W12129   4.977   9.421   3.228 -0.0257 -0.2320  0.0397
 8079W        W12130   9.049   7.998   9.536  0.0551  0.2810 -0.0485
 8080W        W12131   6.475   7.431  12.391 -0.0084  0.2390  0.0522
 8081W        W12132   4.356   0.698  11.286 -0.0864  0.4252  0.1703
 8082W        W12133   1.111   6.021   0.852  0.3173  0.4165  0.1012
 8083W        W12134   2.787   8.430  10.846 -0.2755 -0.0281 -0.0018
 8084W        W12135   8.902   3.674   1.766  0.2403  0.0212 -0.5845
 8085W        W12136   0.014   7.055  13.101 -0.0176  0.2908 -0.1579
 8086W        W12137   8.916   7.032  12.808 -0.0825  0.1091 -0.1788
 8087W        W12138   4.195   4.266   3.903  0.1311  0.1583 -0.0989
 8088W        W12139   2.041   0.799   1.442  0.0226  0.4731  0.0503
 8089W        W12140   6.838   8.677   1.911  0.0825 -0.0512  0.1692
 8090W        W12141   5.279   3.046   3.879 -0.2108  0.1434  0.0761
 8091W        W12142   3.603   9.103   1.537  0.1261 -0.0012 -0.3339
 8092W        W12143   9.821   6.434  13.580  0.2455 -0.0691  0.2070
 8093W        W12144   4.192   7.834   1.992 -0.0034  0.1306  0.0470
 8094W        W12145   7.478   0.901   4.057  0.4229  0.0785 -0.0495
 8095W        W12146   6.629   8.552   5.419 -0.0018  0.1657 -0.2312
 8096W        W12147   7.633   5.997  10.362  0.0478  0.0772 -0.0456
 8097W        W12148   4.924   3.338  12.927  0.0373  0.0782  0.2484
 8098W        W12149   8.534   3.921   0.557  0.3078 -0.0886  0.2446
 8099W        W12150   4.503   9.053  10.206 -0.2063  0.0575 -0.1960
 8100W        W12151   7.203   5.284   0.235 -0.2827  0.1932  0.4343
 8101W        W12152   0.289   1.907  11.776 -0.0172  0.1582  0.0479
 8102W        W12153   1.438   8.503  11.192 -0.2009 -0.1615  0.1662
 8103W        W12154   8.796   9.539  12.320 -0.2054  0.2957 -0.1019
 8104W        W12155   9.597   8.651   6.017  0.2073 -0.0378 -0.1891
 8105W        W12156   3.417   2.863  13.225 -0.0375  0.1152 -0.0221
 8106W        W12157   7.374   8.374  13.082 -0.0306 -0.1251  0.0734
 8107W        W12158   2.370   0.368  10.773 -0.2709  0.0791  0.0599
 8108W        W12159   4.062   5.260  10.598  0.1333  0.1596  0.1042
 8109W        W12160   4.184   8.185   3.973  0.0441  0.0199 -0.1588
 8110W        W12161   5.008   7.202  12.097  0.0451 -0.0234 -0.3119
 8111W        W12162   1.887   7.883  11.747 -0.0161 -0.0707  0.1656
 8112W        W12163   0.861   5.447   2.945 -0.1469  0.1742 -0.4469
 8113W        W12164   5.207   9.964   3.792 -0.0749  0.1467  0.1603
 8114W        W12165   0.071   7.705   3.825  0.3462  0.0993  0.4482
 8115W        W12166   5.668   0.446  11.172  0.2118 -0.2175  0.1972
 8116W        W12167   5.264   4.608  12.425  0.0657 -0.1623  0.1198
 8117W        W12168   6.421   3.603  10.121 -0.3352  0.0270 -0.1715
 8118W        W12169   3.837   8.896   2.852  0.1598  0.1009 -0.1056
 8119W        W12170   2.599   5.463   1.580  0.0330  0.3701  0.0933
 8120W        W12171   5.575   4.786   3.827 -0.0669  0.2214 -0.0354
 8121W        W12172   8.927   5.491  12.997  0.0153  0.0849  0.0870
 8122W        W12173   3.682   5.944   2.369 -0.0295 -0.1689 -0.1792
 8123W        W12174   1.060   4.213  10.039  0.3633 -0.1535 -0.1390
 8124W        W12175   4.870   1.543  11.504 -0.1130 -0.0812  0.0796
 8125W        W12176   3.268   0.766   0.064  0.1736 -0.5604  0.2854
 8126W        W12177   2.317   7.612  11.718  0.0858 -0.1001  0.4496
 8127W        W12178   9.000   6.166   0.249 -0.1488 -0.1536  0.0834
 8128W        W12179   9.080   4.925  10.562  0.3912 -0.3799 -0.1960
 8129W        W12180   4.195   5.176   5.216 -0.1626 -0.0084  0.0039
 8130W        W12181   0.403   0.622   0.592  0.1058 -0.0599  0.1865
 8131W        W12182   8.114   9.650   0.176 -0.0477 -0.0782  0.2313
 8132W        W12183   8.396   2.029  13.352  0.0650  0.1365 -0.3870
 8133W        W12184   9.720   5.280   0.593  0.0273  0.1857 -0.0899
 8134W        W12185   7.708   1.773  10.473 -0.1626 -0.0739 -0.1148
 8135W        W12186   4.845   5.876   5.020  0.1252 -0.0848 -0.0448
 8136W        W12187   9.321   8.903   1.258  0.0230  0.2363  0.2631
 8137W        W12188   6.177   7.858   1.703 -0.0061  0.0621 -0.2418
 8138W        W12189   2.446   2.004  12.750 -0.3356 -0.1281  0.2493
 8139W        W12190   6.637   1.116  11.630 -0.1835 -0.0036  0.1760
 8140W        W12191   5.391   0.204   3.946 -0.0242 -0.3579 -0.1212
 8141W        W12192   3.205   2.225  13.310 -0.3426  0.2035 -0.2306
 8142W        W12193   1.780   1.523   4.033 -0.1116  0.1511 -0.0333
 8143W        W12194   9.314   4.975   2.322  0.0018  0.1565 -0.3977
 8144W        W12195   2.722   8.186   9.053 -0.1299 -0.2252  0.1178
 8145W        W12196   7.459   4.009   2.170 -0.1642  0.1004 -0.2719
 8146W        W12197   6.158   8.223  11.817 -0.1309 -0.0589 -0.0916
 8147W        W12198   7.147   6.675   9.392  0.2507  0.0193 -0.0028
 8148W        W12199   0.042   1.538   0.317 -0.0011  0.2112  0.2039
 8149W        W12200   7.835   4.997   3.805 -0.0912  0.2622 -0.0499
 8150W        W12201   6.154   1.299  12.944 -0.3506 -0.2110  0.0452
 8151W        W12202   9.249   3.900   0.845 -0.0281 -0.0534 -0.0616
 8152W        W12203   0.987   5.775  13.425  0.3253 -0.2284 -0.0733
 8153W        W12204   3.839   4.317  13.750 -0.4177  0.1906 -0.1302
 8154W        W12205   5.292   4.676  11.671 -0.0161  0.2013  0.1884
 8155W        W12206   3.115   6.832   3.821 -0.0253 -0.0002  0.0366
 8156W        W12207   1.971   2.824  13.143 -0.1012 -0.0135 -0.3855
 8157W        W12208   5.045   9.485  10.532  0.2717  0.3016 -0.0767
 8158W        W12209   7.750   7.895   1.202  0.1376 -0.0044  0.1969
 8159W        W12210   7.871   1.962  13.540 -0.1526 -0.4484 -0.1142
 8160W        W12211   4.721   9.374   1.839  0.0361  0.2158 -0.0262
 8161W        W12212   8.009   0.541   2.731  0.0204 -0.0308  0.0302
 8162W        W12213   4.871   5.842   0.301  0.0178 -0.5270 -0.1866
 8163W        W12214   2.001   0.478  11.316  0.2425  0.1389 -0.3543
 8164W        W12215   3.553   7.023  11.540  0.1200  0.3094 -0.1205
 8165W        W12216   8.357   0.651   3.260 -0.1555  0.0127  0.0219
 8166W        W12217   5.879   0.895   0.998  0.0605 -0.1675 -0.0806
 8167W        W12218   9.956   9.118   0.068 -0.1162 -0.1502  0.1368
 8168W        W12219   0.139  10.103  12.333  0.0179  0.2346 -0.3121
 8169W        W12220   9.771   5.530  13.404  0.1105 -0.0370  0.0781
 8170W        W12221   6.378   0.619  11.469  0.0739  0.3991  0.1091
 8171W        W12222   6.505   4.987   4.156  0.2414  0.0345 -0.0798
 8172W        W12223   7.765   0.171  12.507 -0.1379  0.3210 -0.2520
 8173W        W12224   0.222   8.894  10.986 -0.2962  0.3133  0.3565
 8174W        W12225   5.590   0.334  12.191  0.0234  0.5022  0.1134
 8175W        W12226   9.699   9.556  12.139 -0.0084  0.2022 -0.1838
 8176W        W12227   7.634   1.734   0.935 -0.0453 -0.0586  0.0131
 8177W        W12228   6.964   5.256  13.013  0.2547  0.0386  0.0826
 8178W        W12229   0.917   1.231  10.541 -0.0866 -0.2674  0.1409
 8179W        W12230   2.895   0.536   1.670  0.0761  0.0371  0.3137
 8180W        W12231   8.705   8.577   1.324 -0.3943  0.3723 -0.3819
 8181W        W12232   8.292   8.262   4.218 -0.1720  0.1084  0.2421
 8182W        W12233   0.347   7.501   1.291  0.1110  0.2057  0.0295
 8183W        W12234   2.186   5.635   0.559 -0.0088  0.1690 -0.2257
 8184W        W12235   9.788   0.986  11.041  0.2679 -0.2142  0.0644
 8185W        W12236   2.798   9.530   0.147 -0.0348  0.4073 -0.0135
 8186W        W12237   7.751   2.902   1.709  0.1959  0.0339 -0.0531
 8187W        W12238   8.323   1.299   1.270 -0.3401  0.0585  0.3129
 8188W        W12239   2.831   3.074  12.429  0.2064 -0.0797 -0.0768
 8189W        W12240   1.901   2.610   8.704  0.1109 -0.1020  0.1087
 8190W        W12241   2.072   5.131   9.934  0.4103  0.0720 -0.2841
 8191W        W12242   3.542   9.682   0.665 -0.1906  0.1591 -0.2635
 8192W        W12243   7.586   0.991   9.485  0.1473  0.0442  0.1649
 8193W        W12244   7.683   4.357   1.871 -0.0934 -0.2256 -0.0341
 8194W        W12245   3.591   3.512  12.451 -0.0647 -0.0234  0.0200
 8195W        W12246   1.815   1.540  12.201 -0.4612 -0.0192 -0.0601
 8196W        W12247   0.040   6.844   3.745 -0.1532 -0.1253  0.1362
 8197W        W12248   0.548   1.004  10.972  0.0903 -0.1085 -0.0278
 8198W        W12249   0.659   2.484   2.338 -0.0889  0.1334  0.1205
 8199W        W12250   4.613   1.568  10.580  0.1465 -0.0010  0.1905
 8200W        W12251   9.845   7.499  12.149 -0.0419 -0.3429 -0.0852
 8201W        W12252   4.107   1.630   0.360 -0.2682  0.0377 -0.2298
 8202W        W12253   6.538   1.568  13.657  0.3577  0.0529 -0.1023
 8203W        W12254   3.968   0.418  12.054 -0.1110  0.1722 -0.0164
 8204W        W12255   7.344   8.551  10.078  0.3010  0.1217 -0.1848
 8205W        W12256  10.013   5.942  12.057  0.1743  0.1770 -0.2581
 8206W        W12257   6.001   7.327  12.437 -0.0133 -0.3693  0.0091
 8207W        W12258   4.295   3.639   1.957  0.1492 -0.0887 -0.0510
 8208W        W12259   4.799   1.496  13.553  0.3891  0.0136  0.2196
 8209W        W12260   7.658   0.069   0.550 -0.3839  0.3409 -0.0773
 8210W        W12261   4.511  10.052   4.543 -0.1744 -0.0981  0.2393
 8211W        W12262   6.866   0.547   1.649 -0.0805 -0.2645  0.2829
 8212W        W12263   0.785   7.502   3.658  0.1460 -0.0881  0.1049
 8213W        W12264   4.610   2.502  12.115  0.0495 -0.1233  0.4257
 8214W        W12265   5.505   1.186   9.483  0.0116  0.1034 -0.0169
 8215W        W12266   9.000   0.215  13.154 -0.0626  0.0228 -0.1714
 8216W        W12267   1.382   1.258   3.278  0.0157 -0.3836 -0.1535
 8217W        W12268   6.310   2.017  11.234 -0.0329  0.0113 -0.1116
 8218W        W12269   2.866   3.159  11.930 -0.0822  0.3331 -0.2521
 8219W        W12270   2.831   2.493   0.876 -0.1389  0.0436  0.1185
 8220W        W12271   9.494   4.761   1.337 -0.1378  0.2654 -0.2741
 8221W        W12272   0.177   0.999   0.346 -0.0164  0.4944  0.0717
 8222W        W12273   3.675   1.371   2.289 -0.1396 -0.2838  0.0905
 8223W        W12274   6.623   1.485   9.418 -0.0368 -0.0726 -0.2794
 8224W        W12275   2.025   4.895  12.279  0.2270 -0.0619 -0.1646
 8225W        W12276   1.841   2.079  10.912 -0.3328  0.0767  0.0570
 8226W        W12277   3.638   7.680   0.186  0.1710 -0.1102  0.1020
 8227W        W12278   5.426   9.014   0.397 -0.3056  0.2451 -0.2119
 8228W        W12279   5.109   2.156   2.748  0.0766 -0.3742 -0.0592
 8229W        W12280   3.567   9.666   4.227  0.2486 -0.0387 -0.4863
 8230W        W12281   7.718   9.564   3.483 -0.0092 -0.1744  0.2822
 8231W        W12282   6.532   1.266   8.465 -0.1649 -0.0202 -0.1187
 8232W        W12283   7.865   4.019  11.701  0.2349 -0.2672  0.0899
 8233W        W12284   2.812   2.586  11.923  0.0947  0.0645 -0.0068
 8234W        W12285   3.930   8.459  12.960  0.1365  0.2382  0.0356
 8235W        W12286   4.734   3.935  13.386  0.1843 -0.2773 -0.4929
 8236W        W12287   5.609   6.071   3.190 -0.0168  0.0645 -0.1858
 8237W        W12288   9.444   7.555   4.427  0.1588 -0.2109  0.0236
 8238W        W12289   3.104   8.816  11.740 -0.1154  0.1913 -0.2902
 8239W        W12290   4.782   0.557   9.701  0.2223  0.2068  0.2352
 8240W        W12291   8.928   3.656   1.269 -0.1723 -0.1221  0.0386
 8241W        W12292   7.036   2.266  10.127 -0.1761 -0.1109 -0.1994
 8242W        W12293   6.019   9.010   9.065 -0.1885 -0.2004 -0.1096
 8243W        W12294   9.611   7.816  11.632 -0.3316 -0.0057 -0.1179
 8244W        W12295   9.519   8.120  10.566 -0.3174  0.2052  0.0037
 8245W        W12296   7.167   3.307  10.702 -0.1945 -0.0913  0.0215
 8246W        W12297   3.518   4.778   9.388 -0.0747 -0.3176  0.1693
 8247W        W12298   7.612   3.786  11.330 -0.1069 -0.1030 -0.2895
 8248W        W12299   4.460   4.612   0.535  0.1339 -0.0705  0.1876
 8249W        W12300   2.615   6.433  13.332  0.2251 -0.0129 -0.2274
 8250W        W12301   8.478   3.635   0.982  0.3011 -0.3823  0.1004
 8251W        W12302   5.057   4.159   9.961 -0.0152 -0.1204  0.0069
 8252W        W12303   1.455   5.909  13.123  0.4146  0.0202 -0.0753
 8253W        W12304   7.554   8.298  11.948  0.0259  0.4847  0.0142
 8254W        W12305   5.011   3.008   9.167 -0.2378 -0.0647 -0.0707
 8255W        W12306   7.484   7.061   1.659  0.0405 -0.2707 -0.0190
 8256W        W12307   7.284  10.145   4.777  0.0963 -0.0123  0.1156
 8257W        W12308   2.849   7.157  11.421  0.3290  0.0248 -0.3169
 8258W        W12309   6.117   6.764  13.008 -0.1499  0.1619 -0.2281
 8259W        W12310   0.059   1.691   0.927 -0.2819 -0.0624 -0.1295
 8260W        W12311   4.548   0.112  13.221 -0.0244 -0.1822 -0.1729
 8261W        W12312   3.874   2.579   3.212 -0.2071 -0.0795  0.0289
 8262W        W12313   3.102   2.676   2.025 -0.0048 -0.3103 -0.0344
 8263W        W12314   4.922   3.589  10.690  0.0858 -0.0038  0.1178
 8264W        W12315   9.200   5.149  12.111 -0.0251  0.0625  0.1129
 8265W        W12316   6.364   6.960  11.202  0.0489  0.0470 -0.0727
 8266W        W12317   2.352   1.263  10.974  0.2109  0.3104 -0.0526
 8267W        W12318   7.607   6.673   1.956  0.1602 -0.0685  0.2699
 8268W        W12319   8.937   6.936   2.454  0.2369  0.1971 -0.1085
 8269W        W12320   4.759   3.117   9.774 -0.2381  0.0584  0.1585
 8270W        W12321   2.127   7.120   2.608  0.0137  0.1460 -0.0363
 8271W        W12322   7.668   4.238   3.575  0.1021  0.1301  0.1315
 8272W        W12323   5.921   6.200   8.621  0.1004 -0.0469 -0.1125
 8273W        W12324   5.079   8.975   0.859  0.0262 -0.0228  0.0593
 8274W        W12325   7.733   5.412   3.108 -0.0270  0.3135  0.2615
 8275W        W12326   5.450   0.423   2.562  0.0964  0.2113 -0.0586
 8276W        W12327   5.454   6.969   1.058 -0.0199 -0.2425 -0.1323
 8277W        W12328   6.050   5.571  14.018  0.2667 -0.1990  0.0251
 8278W        W12329   0.246   2.066   3.655 -0.3466 -0.0572  0.1280
 8279W        W12330   4.714   0.934   0.863 -0.2005  0.0101 -0.4750
 8280W        W12331   5.035   1.436   2.313  0.1712 -0.3640  0.0558
 8281W        W12332   0.190   5.064   3.749  0.0731 -0.1332  0.1655
 8282W        W12333   0.378   2.803   1.512 -0.0564  0.0015 -0.0640
 8283W        W12334   7.839   2.239   1.196 -0.2603  0.0196 -0.1607
 8284W        W12335   3.519   0.498   0.374 -0.0299  0.0581 -0.0911
 8285W        W12336   4.427   8.594   3.494 -0.1868  0.1403  0.2342
 8286W        W12337   2.255   0.236  10.205  0.2238  0.1853  0.4406
 8287W        W12338   6.757   0.100  11.230  0.4528 -0.1927  0.0618
 8288W        W12339   1.280   4.180   2.369  0.4308 -0.1524 -0.1412
 8289W        W12340   9.999   8.440  12.369  0.1607 -0.0242  0.1541
 8290W        W12341   4.742   4.343   9.587  0.0546  0.2473 -0.2493
 8291W        W12342   0.558   2.714  11.496 -0.1427 -0.1869  0.2137
 8292W        W12343   2.036   0.196   3.940 -0.1525  0.1353 -0.0641
 8293W        W12344   7.750   5.112   1.020  0.4163 -0.0420 -0.2403
 8294W        W12345   1.546   9.394   3.808 -0.0857 -0.0860  0.0881
 8295W        W12346   4.163   7.719   4.817 -0.1860 -0.0489  0.0615
 8296W        W12347  10.093   3.208   4.012 -0.2789 -0.3997  0.1441
 8297W        W12348   9.634   3.282   3.366 -0.4838 -0.0060 -0.1229
 8298W        W12349   1.893   1.350   3.303 -0.0276  0.0622  0.1802
 8299W        W12350   6.703   8.378   4.128  0.1716 -0.0808 -0.1814
 8300W        W12351   9.319   3.418  13.920 -0.0565  0.0351 -0.0105
 8301W        W12352   4.209   1.081  10.048 -0.1437  0.0945 -0.2812
 8302W        W12353   4.197   4.774  11.520  0.0567 -0.1254  0.0182
 8303W        W12354   4.365   3.364   4.207  0.0162 -0.1121 -0.0014
 8304W        W12355   3.915   0.588   4.138  0.3208 -0.2058 -0.0389
 8305W        W12356   1.676   5.238   3.241  0.3079  0.0424  0.3659
 8306W        W12357   4.084   6.419   5.430 -0.2895 -0.0372  0.2319
 8307W        W12358   9.036   9.167   3.312 -0.0158  0.1442 -0.2369
 8308W        W12359   7.439   6.905  13.808  0.0918 -0.0037  0.0532
 8309W        W12360   3.093   5.329  13.939 -0.2948 -0.1875 -0.1140
 8310W        W12361   3.519   6.233   4.196 -0.1244  0.1595  0.2420
 8311W        W12362   4.208   2.611  10.284 -0.2410 -0.2666 -0.0530
 8312W        W12363   5.358   1.722   0.969 -0.1259  0.3000  0.1184
 8313W        W12364   3.769   0.289   2.179 -0.1064  0.0927  0.2588
 8314W        W12365   7.899   1.485   3.575 -0.0748  0.1707  0.1323
 8315W        W12366   7.692   9.820   0.123  0.2168  0.2163  0.1110
 8316W        W12367   4.567   5.681  11.691 -0.1062 -0.2994 -0.1367
 8317W        W12368   4.317   6.366  10.109  0.0880 -0.0227  0.0976
 8318W        W12369   8.756   1.877   2.531 -0.1773 -0.0002 -0.0004
 8319W        W12370   2.551   7.279   0.433 -0.1501 -0.0383 -0.0542
 8320W        W12371   1.036   0.457   5.269 -0.2705 -0.3915  0.4245
 8321W        W12372   4.372   2.783   2.407 -0.0762 -0.0875  0.3618
 8322W        W12373   2.319   8.444   0.375  0.0348 -0.0347 -0.1327
 8323W        W12374   6.069   0.204  12.198  0.2290 -0.1034  0.0742
 8324W        W12375  10.141   8.788   1.723 -0.1780  0.0538 -0.2387
 8325W        W12376   5.320   2.284  11.522  0.0466  0.2722 -0.3631
 8326W        W12377   6.954   0.915  11.926 -0.1030  0.0084 -0.1295
 8327W        W12378   8.663   6.410   1.814  0.3193  0.1330 -0.2675
 8328W        W12379   8.691   8.959  10.727  0.1490 -0.0414 -0.2534
 8329W        W12380   3.531   6.169   2.843  0.2435  0.1088 -0.0018
 8330W        W12381   3.334   2.567  11.367  0.0012  0.0279 -0.0225
 8331W        W12382   7.694   6.633   4.885  0.0344 -0.0680 -0.2476
 8332W        W12383   2.882   4.916   3.193  0.0337 -0.1106  0.1258
 8333W        W12384   6.866   5.387  11.602  0.1569 -0.0923  0.0344
 8334W        W12385   8.035   8.019   0.372 -0.2148  0.2126 -0.0519
 8335W        W12386   7.688   0.474   0.910 -0.2117  0.0155 -0.0147
 8336W        W12387   0.767   0.418   0.022  0.0859  0.0908  0.1243
 8337W        W12388   3.934   8.100  13.287 -0.1428  0.0864 -0.2391
 8338W        W12389   2.264   8.955  13.339 -0.1438 -0.0788 -0.1141
 8339W        W12390   3.900   9.021   1.948 -0.0575 -0.4705  0.4532
 8340W        W12391   1.407   7.824   2.365  0.1080  0.1070  0.1025
 8341W        W12392   8.088   8.996   2.610  0.1517  0.2513  0.3668
 8342W        W12393   8.518   1.841   4.350 -0.0632 -0.3305 -0.3763
 8343W        W12394   7.661   0.443  12.085  0.0114  0.0083  0.1790
 8344W        W12395   1.954   3.619   0.840  0.0154  0.1386  0.0248
 8345W        W12396   0.722   7.351   5.241  0.2796  0.0105  0.1979
 8346W        W12397   3.265   4.249  11.095  0.1913 -0.1097  0.0801
 8347W        W12398   6.174   4.559   3.536  0.4346  0.1176  0.1114
 8348W        W12399   4.825   8.400  11.668  0.0041 -0.0081  0.2860
 8349W        W12400   5.022   0.129  13.229  0.2143  0.1779 -0.2638
 8350W        W12401   7.546   9.183   3.224  0.0897 -0.3980  0.1143
 8351W        W12402   8.762   0.475  13.549 -0.0171 -0.0694 -0.1426
 8352W        W12403   8.881   6.783   1.425  0.0725  0.0425  0.0354
 8353W        W12404   5.214   8.435   9.085 -0.2894  0.1325 -0.1388
 8354W        W12405   6.641   6.662   1.970  0.0995 -0.1343  0.0046
 8355W        W12406   9.119   3.420   3.943  0.0699 -0.0258  0.0346
 8356W        W12407   2.104   6.994  12.913 -0.0813 -0.0640  0.0849
 8357W        W12408   2.367  10.042   9.868  0.1055  0.1555 -0.2356
 8358W        W12409   8.606   1.133  10.361  0.2642  0.0562  0.1646
 8359W        W12410   7.273   6.549   3.315  0.2800 -0.0737  0.1250
 8360W        W12411   5.098   9.011   1.317 -0.1847  0.1481 -0.1601
 8361W        W12412   0.550   6.085  12.049  0.0995 -0.1110  0.1297
 8362W        W12413   2.025   9.384  13.140  0.0245  0.2448  0.2653
 8363W        W12414   6.969   2.373  13.609 -0.4777  0.0549  0.0052
 8364W        W12415   3.237   9.671   2.911 -0.0830  0.0361  0.1009
 8365W        W12416   0.572   9.631  13.896  0.1955 -0.3930 -0.0957
 8366W        W12417   3.894   2.945   9.559  0.0576  0.0556 -0.0110
 8367W        W12418   2.346   4.258   3.837  0.2985 -0.2740 -0.1377
 8368W        W12419   8.725   9.992  12.052 -0.2307 -0.0093 -0.2351
 8369W        W12420   3.695   4.394  10.279  0.0359  0.4243 -0.1176
 8370W        W12421   4.003   4.695   9.306 -0.0694 -0.3847 -0.4351
 8371W        W12422   7.425   7.548   0.241  0.1136  0.1163  0.0083
 8372W        W12423   4.468   5.870  11.170  0.2580  0.1593 -0.2293
 8373W        W12424   0.563   6.883   0.368 -0.2068 -0.1713  0.2435
 8374W        W12425   1.844   1.624  10.619  0.0379  0.1648 -0.0351
 8375W        W12426   8.135   9.841   4.506 -0.0332 -0.1494 -0.1719
 8376W        W12427   8.976   1.846  12.391  0.0597 -0.0824  0.1010
 8377W        W12428   3.345   8.012  11.499  0.3268 -0.1495  0.0293
 8378W        W12429   6.093   7.872   9.444 -0.0338  0.0084 -0.0750
 8379W        W12430   1.947   2.930  10.971 -0.0471 -0.2659  0.0970
 8380W        W12431   9.853   7.292   0.901 -0.0095  0.2027 -0.2179
 8381W        W12432   6.791   6.758   0.481 -0.3309  0.2132 -0.0920
 8382W        W12433   1.338   0.265   1.724 -0.1332 -0.1643  0.0007
 8383W        W12434   4.102   2.029   1.809 -0.1385 -0.0074  0.2357
 8384W        W12435   4.404   5.067  11.903 -0.3075  0.1955  0.3167
 8385W        W12436   5.122   0.494   3.053  0.0839  0.3700  0.2004
 8386W        W12437   4.237   4.163   0.593 -0.1415  0.2437 -0.2344
 8387W        W12438   2.232   1.305   0.473  0.0743  0.3974  0.2538
 8388W        W12439   0.144   6.277  13.617  0.2399 -0.1479  0.2592
 8389W        W12440   4.636   2.117  13.278 -0.2492 -0.5881  0.0806
 8390W        W12441   2.211   6.777  10.615  0.2251  0.0035 -0.1606
 8391W        W12442   5.400   9.978   0.891  0.0543  0.4107 -0.1146
 8392W        W12443   4.000   5.980  11.110 -0.1055 -0.0841 -0.0716
 8393W        W12444   9.059   1.286   4.345 -0.1274  0.4514 -0.1395
 8394W        W12445   8.331   1.418   1.796 -0.0194  0.2665  0.2548
 8395W        W12446   5.588   2.953  10.292  0.2181 -0.1369  0.1558
 8396W        W12447   2.865   4.877  12.291 -0.3992 -0.1107  0.0207
 8397W        W12448   5.252   6.917   1.586  0.2668  0.1445 -0.3370
 8398W        W12449   6.211   3.946   0.544  0.0653 -0.2958  0.0510
 8399W        W12450   9.485   1.187  11.552  0.0620 -0.2121  0.1322
 8400W        W12451   2.337   8.025  11.456 -0.1485 -0.3342  0.0010
 8401W        W12452   8.043   9.844  13.390 -0.1040 -0.1315  0.1551
 8402W        W12453   7.986   7.034   4.583 -0.0162 -0.2456  0.1967
 8403W        W12454   7.129   0.593  12.902 -0.2719 -0.0523  0.0374
 8404W        W12455   3.246   4.306  10.091  0.3974  0.1229  0.0337
 8405W        W12456   3.657   2.295   1.502  0.1535  0.2289  0.0122
 8406W        W12457   5.746   4.881  12.538  0.0234  0.1842 -0.1822
 8407W        W12458   6.628   3.107   4.112 -0.1886 -0.1677  0.2585
 8408W        W12459   9.640   4.265  13.212 -0.1551 -0.1424  0.0267
 8409W        W12460   3.101   5.324  12.389 -0.0122 -0.0949  0.0794
 8410W        W12461   4.990   7.942  10.909  0.2964  0.1596 -0.1625
 8411W        W12462   2.741   1.602   3.759 -0.1083 -0.0527  0.1574
 8412W        W12463   2.511   8.641   3.416 -0.1736 -0.0348  0.0393
 8413W        W12464   7.103   7.196  10.101  0.1917  0.4202 -0.1327
 8414W        W12465   5.527   5.395  12.238  0.0531 -0.3887 -0.2302
 8415W        W12466   8.928   9.088   0.387 -0.0253  0.1082 -0.2942
 8416W        W12467   2.713   2.262  13.491  0.1837 -0.1179  0.0204
 8417W        W12468   6.431   7.869   2.210  0.4722 -0.0960 -0.4908
 8418W        W12469  10.050   1.706  12.028  0.0944 -0.0496  0.0429
 8419W        W12470   6.939   1.400   3.311  0.1201 -0.2499 -0.0410
 8420W        W12471   0.168   6.587  13.132  0.2040  0.1470 -0.0492
 8421W        W12472   9.933   9.283  11.216 -0.0810  0.2095 -0.2849
 8422W        W12473   5.012   9.343   2.231  0.0356  0.2726 -0.1424
 8423W        W12474   5.170   3.674  13.180 -0.2782 -0.0013 -0.0708
 8424W        W12475   0.516   0.842   3.631  0.3279 -0.0757 -0.0482
 8425W        W12476   1.256   0.899  10.200 -0.0019 -0.3196 -0.0107
 8426W        W12477   9.196   2.194   1.808 -0.3202 -0.1403  0.1197
 8427W        W12478   9.604   2.757   1.118 -0.0333  0.1432  0.0609
 8428W        W12479   5.577   6.300  10.443 -0.1399  0.3170  0.0741
 8429W        W12480   4.897   6.099   0.931  0.3968  0.2737 -0.1767
 8430W        W12481   1.932   9.220  12.243  0.1752 -0.0946  0.0434
 8431W        W12482   8.288   5.890  12.437  0.6081  0.1330  0.1409
 8432W        W12483   9.966   0.277   2.427 -0.0923 -0.4391 -0.1333
 8433W        W12484   7.798   3.586   1.949  0.1862  0.1421  0.0702
 8434W        W12485   3.942   8.379  10.367  0.0312 -0.1292  0.2714
 8435W        W12486   0.454   8.274   2.975  0.0776  0.0413  0.1254
 8436W        W12487   0.802   5.914  11.584  0.2877 -0.1558  0.1825
 8437W        W12488   7.060   9.155   3.321 -0.0642 -0.0140  0.1316
 8438W        W12489   6.884   1.126  13.601 -0.2919 -0.1879 -0.2344
 8439W        W12490   5.477   6.825  10.236 -0.0509 -0.1452  0.1256
 8440W        W12491   4.662   4.142   1.057  0.1703 -0.0002 -0.1357
 8441W        W12492   5.635   7.398   2.846  0.2518  0.0280  0.0725
 8442W        W12493   4.118   1.827  11.923  0.3161 -0.2087  0.0715
 8443W        W12494   6.077   5.323   4.180 -0.0421  0.1503  0.2842
 8444W        W12495   5.176   9.135  11.267 -0.1328 -0.0298  0.3767
 8445W        W12496   5.294   5.531  12.754  0.1478 -0.2859 -0.0808
 8446W        W12497   9.793   9.960   9.248 -0.2299 -0.2995 -0.7314
 8447W        W12498   1.824   1.124   3.731 -0.1033 -0.0619 -0.1440
 8448ION    NA+12499   7.035   0.838   5.532  0.0897 -0.1691 -0.1589
 8449ION    NA+12500   7.038   8.656  13.380 -0.0067  0.0124 -0.0542
 8450ION    NA+12501   9.663   3.154  13.710  0.1195  0.1707 -0.0123
 8451ION    NA+12502   5.467   4.217   8.855  0.0990 -0.0702  0.0514
 8452ION    NA+12503   0.391   4.771  12.948  0.2629  0.0690 -0.0185
 8453ION    NA+12504   5.694   3.084  13.876  0.0682  0.1844 -0.3538
 8454ION    NA+12505   1.813   9.804  13.494  0.0982 -0.2948  0.2595
 8455ION    NA+12506   6.884   7.443  12.934  0.0168 -0.1647  0.2487
 8456ION    NA+12507   0.488   1.816   1.117 -0.1218 -0.0522  0.2621
 8457ION    NA+12508   6.009   8.523   2.904 -0.0673  0.2574  0.0796
 8458ION    NA+12509   3.224   2.105  11.616 -0.0489 -0.2143 -0.1068
 8459ION    NA+12510   2.375   6.979  11.225 -0.1520  0.2515 -0.0140
 8460ION    NA+12511   1.399   3.055   2.295 -0.1653 -0.0003 -0.0463
 8461ION    NA+12512   1.126   6.738   4.119  0.3682 -0.1325 -0.1834
 8462ION    NA+12513   7.187   7.726  11.955  0.1823  0.0723  0.0322
 8463ION    NA+12514   8.523   1.861   1.078 -0.0088  0.1289 -0.1572
 8464ION    NA+12515   9.622   0.589  11.923  0.0151 -0.1629 -0.1888
 8465ION    NA+12516   2.616   5.922  10.439  0.0366 -0.4385  0.1954
 8466ION    NA+12517   5.231   9.849  13.539  0.1065 -0.5251 -0.1144
 8467ION    NA+12518   5.645   0.458   9.772  0.1771  0.0218  0.0971
 8468ION    NA+12519   2.641   2.393   1.861  0.2825 -0.1574 -0.1289
 8469ION    NA+12520   9.081   5.430  10.620 -0.0257  0.0562 -0.0027
 8470ION    NA+12521   4.458   2.413  12.585 -0.0940  0.0772  0.2852
 8471ION    NA+12522   8.195   6.205  11.746  0.0175 -0.2525  0.2595
 8472ION    NA+12523   2.527   9.434   3.610  0.0997 -0.1840 -0.0982
 8473ION    NA+12524   7.253   9.453   2.817 -0.2162  0.3284 -0.2345
 8474ION    NA+12525   3.690   3.014   2.986  0.0285  0.1228 -0.2099
 8475ION    NA+12526   7.747   1.658  12.450  0.1184 -0.1137  0.1259
 8476ION    NA+12527   9.574   2.924  12.894  0.1547 -0.1397  0.2537
 8477ION    NA+12528   5.793   6.138  13.219  0.0444  0.1409  0.1718
 8478ION    NA+12529   6.239   6.442  12.055  0.1274 -0.0193  0.0481
 8479ION    NA+12530   1.738   4.925   2.620 -0.2828  0.0713 -0.0259
 8480ION    NA+12531   8.338   2.825   9.970 -0.1196 -0.0096  0.0040
 8481ION    NA+12532   2.624   0.035   5.098 -0.0054  0.1590 -0.1092
 8482ION    NA+12533   9.389   1.445   0.795 -0.2188  0.1416  0.1887
 8483ION    NA+12534   4.748   0.427   4.736  0.1089  0.0984  0.2190
 8484ION    NA+12535   5.867   9.543   0.145  0.0433  0.0810 -0.2975
 8485ION    NA+12536   9.437   7.033   4.611  0.0587  0.3233  0.1948
 8486ION    NA+12537  10.032   3.348  10.568  0.2967  0.0133 -0.4155
 8487ION    NA+12538   6.425   8.291  12.836  0.1996 -0.1228 -0.1445
 8488ION    NA+12539   5.098   3.280   0.990 -0.0118 -0.0742 -0.1668
 8489ION    NA+12540   7.656   1.383   4.042 -0.0442  0.0735  0.0849
 8490ION    NA+12541   5.706   2.986  12.914 -0.0112  0.1112  0.0727
 8491ION    NA+12542   4.900   2.800   3.581 -0.3036 -0.0898 -0.0137
 8492ION    NA+12543   9.459   9.173   0.205  0.0579  0.1399 -0.2517
 8493ION    NA+12544   4.026   5.978   0.508  0.0680  0.1984 -0.1277
 8494ION    NA+12545   1.244   1.234   2.449 -0.0291 -0.2171  0.1674
 8495ION    NA+12546   2.761   8.156  13.449 -0.2957 -0.1599 -0.0770
 8496ION    NA+12547   0.434   3.761   2.476  0.0352 -0.3885 -0.1041
 8497ION    NA+12548   4.220   4.612  13.792  0.0474 -0.2257 -0.1716
 8498ION    NA+12549   2.793   8.012   4.334 -0.2165  0.0375  0.0478
 8499ION    NA+12550   8.846   7.453   4.359 -0.0617 -0.2031 -0.0078
 8500ION    NA+12551   6.426   2.661   4.838  0.1822 -0.2066 -0.0504
 8501ION    NA+12552   8.791   8.374  12.538 -0.1074  0.2675 -0.1741
 8502ION    NA+12553   2.303   3.956   9.258 -0.0351 -0.1854  0.2143
 8503ION    NA+12554   6.461   0.593  12.012 -0.0381 -0.1671  0.2463
 8504ION    NA+12555   7.594   6.349   9.439  0.1675 -0.1582 -0.1326
 8505ION    NA+12556   8.597   2.853  11.051 -0.0907 -0.0285 -0.1187
 8506ION    NA+12557   8.667   6.917   2.019 -0.2432  0.0276  0.0335
 8507ION    NA+12558   9.224   8.628   2.504 -0.1423 -0.2435 -0.4685
 8508ION    NA+12559   3.317   0.331   4.432 -0.0320  0.0142 -0.2385
 8509ION    NA+12560   3.485   7.242  12.590 -0.0038 -0.3603  0.1272
 8510ION    NA+12561   3.359   5.398   5.273  0.0260  0.1250  0.0369
 8511ION    NA+12562   7.039   2.499   2.510 -0.1707  0.1389  0.2421
 8512ION    NA+12563   4.782   4.229   2.352  0.3703 -0.3011 -0.0938
 8513ION    NA+12564   4.589   4.152  10.763  0.2207 -0.1339 -0.1264
 8514ION    NA+12565   5.363   4.058  11.330  0.2520  0.0549  0.1031
 8515ION    NA+12566   7.193   2.034  10.658  0.2031 -0.3457 -0.2051
 8516ION    NA+12567   5.309   1.864   3.989  0.0370 -0.4860 -0.0523
 8517ION    NA+12568   3.399   7.493  11.147  0.4777  0.0052  0.2442
 8518ION    NA+12569   6.481   4.832   4.783  0.2930  0.0845 -0.0794
 8519ION    NA+12570   4.087   4.060   8.642 -0.1786 -0.0628 -0.1802
 8520ION    NA+12571   1.157   5.023  13.014 -0.1890 -0.3224  0.2181
 8521ION    NA+12572   4.951   1.753  12.242  0.0690  0.3406  0.1838
 8522ION    NA+12573   9.582   8.555  13.689 -0.0041 -0.1159 -0.3163
 8523ION    NA+12574   9.650   2.094   2.032  0.2742  0.1630  0.0652
 8524ION    NA+12575   4.233   7.861   5.284 -0.0069 -0.2366 -0.1079
 8525ION    NA+12576   4.285   0.881  10.828  0.0542  0.1612  0.1140
 8526ION    NA+12577   1.385   5.682   0.197 -0.0835 -0.0338 -0.2032
 8527ION    NA+12578   8.239   8.033   3.529 -0.2541 -0.0842 -0.0462
 8528ION    NA+12579   5.529   1.093   8.971  0.2973 -0.0317 -0.0176
 8529ION    NA+12580   7.002   1.195   0.536  0.3204  0.1386 -0.2109
 8530ION    NA+12581   1.915   8.664  13.037 -0.2658  0.2411  0.1700
 8531ION    NA+12582   8.653   9.452   0.085 -0.0215 -0.0573 -0.0020
 8532ION    NA+12583   1.457   8.176   9.229  0.2833 -0.1287 -0.2956
 8533ION    NA+12584   4.369   5.489  12.164  0.0067  0.2378 -0.1987
 8534ION    NA+12585   9.458   1.476  13.175 -0.1059 -0.0710  0.1647
 8535ION    NA+12586   7.821   8.477   5.664  0.1207 -0.0731 -0.2054
 8536ION    NA+12587   8.093   3.840  10.102 -0.5307  0.1186 -0.0866
 8537ION    CL-12588   6.554   5.824   3.601  0.0211 -0.3207  0.3136
 8538ION    CL-12589   4.866   3.963  11.135 -0.2083 -0.1896  0.0215
 8539ION    CL-12590   5.582   2.825  13.428  0.2286  0.1466 -0.1716
 8540ION    CL-12591   5.061   3.994   1.939  0.2403 -0.0198  0.0078
 8541ION    CL-12592   6.378   8.236   3.181 -0.0724 -0.5614 -0.0286
 8542ION    CL-12593   6.122   8.766   2.472  0.0627 -0.1537  0.3772
 8543ION    CL-12594   4.020   4.055   4.357 -0.2670  0.0432  0.1021
 8544ION    CL-12595   5.751   3.904  11.872 -0.0715 -0.2115  0.1332
 8545ION    CL-12596   5.915   7.982   4.451  0.1977 -0.1471  0.1568
 8546ION    CL-12597   4.907   5.780  13.573  0.2935 -0.1054  0.2586
 8547ION    CL-12598   9.812   3.752  10.829  0.1318  0.1529  0.2160
 8548ION    CL-12599   9.919   8.662   5.188  0.0602  0.3771  0.1171
 8549ION    CL-12600   8.946   1.495   1.124  0.0098  0.0334  0.2696
 8550ION    CL-12601   4.887   2.265  12.431 -0.1162  0.2965  0.1115
 8551ION    CL-12602   2.530   5.215  10.242 -0.2981  0.1171  0.0551
 8552ION    CL-12603   6.695   6.304  11.914  0.0210 -0.2214  0.0271
 8553ION    CL-12604   6.979   9.620   3.153 -0.0743 -0.2630  0.1808
 8554ION    CL-12605   2.288   4.535   9.561  0.3725 -0.2515 -0.2139
 8555ION    CL-12606   3.522   3.295   2.612 -0.0465  0.3937  0.1415
 8556ION    CL-12607   6.538   6.331   4.647  0.3503  0.4253  0.0452
 8557ION    CL-12608   3.437   3.126   0.379 -0.0732 -0.1773  0.1383
 8558ION    CL-12609   0.912   9.322  11.665 -0.2950 -0.0436 -0.0806
 8559ION    CL-12610   5.744   6.459  12.727 -0.0087 -0.1118 -0.1143
 8560ION    CL-12611   5.215   3.818  13.682  0.2106  0.0570 -0.1434
 8561ION    CL-12612   4.699   1.992   4.597 -0.3213 -0.1452 -0.0737
 8562ION    CL-12613   4.976   8.900   9.689 -0.1369 -0.0005 -0.1848
 8563ION    CL-12614   0.998   4.340   2.759 -0.1938 -0.1119 -0.0814
 8564ION    CL-12615   5.456   1.312  12.226  0.0795 -0.0450 -0.0324
 8565ION    CL-12616   6.470   8.443  13.766 -0.0405 -0.0861 -0.1576
 8566ION    CL-12617   3.102   8.305  13.105 -0.2417 -0.0965  0.0253
 8567ION    CL-12618   2.905   0.454  13.765 -0.1304  0.1882 -0.0108
 8568ION    CL-12619   1.985   7.290  10.929 -0.2534 -0.1295  0.0945
 8569ION    CL-12620  10.111   1.773   1.382  0.0388  0.0401  0.1840
 8570ION    CL-12621  10.139   5.057  12.822  0.0376  0.6079  0.1782
 8571ION    CL-12622   5.248   4.449   2.718  0.1994  0.0747  0.0244
 8572ION    CL-12623   1.425   1.581   2.803 -0.1798  0.0651  0.0049
 8573ION    CL-12624   2.746   2.601   2.351 -0.1343  0.1578 -0.1136
 8574ION    CL-12625   3.733   9.750  10.048 -0.1057 -0.0736 -0.3145
 8575ION    CL-12626   8.239   9.183   0.402 -0.2162  0.1051 -0.0637
 8576ION    CL-12627   8.783   2.598  10.577 -0.0480 -0.1059  0.0758
 8577ION    CL-12628   8.009   1.724   4.302 -0.1339  0.1504 -0.2084
 8578ION    CL-12629   9.162   1.119   3.842  0.2597  0.1599  0.0564
 8579ION    CL-12630   2.694   7.525   4.394  0.2995 -0.0726  0.0326
 8580ION    CL-12631   2.391   9.489   3.062 -0.1396  0.2617 -0.2762
 8581ION    CL-12632   6.223   2.643   9.971  0.1018  0.1623  0.0587
 8582ION    CL-12633   4.848   3.263   3.733  0.1522 -0.0475  0.2698
 8583ION    CL-12634   2.718   6.693  10.974 -0.0539 -0.0076 -0.0919
 8584ION    CL-12635   6.810   7.981  12.989 -0.3155  0.2664 -0.0566
 8585ION    CL-12636   3.366   7.785  10.757 -0.0559  0.2559 -0.1853
 8586ION    CL-12637   8.511   6.603  10.547  0.4507  0.1166  0.2367
 8587ION    CL-12638   0.315   9.144   3.776  0.1918 -0.0743 -0.2032
 8588ION    CL-12639   8.045   3.222   0.308 -0.2859  0.0937  0.2078
 8589ION    CL-12640   0.326   4.633  13.423 -0.0673 -0.2919  0.2344
 8590ION    CL-12641   9.126   0.900  12.527  0.0420 -0.1005  0.0833
 8591ION    CL-12642   6.561   2.660   4.281 -0.0685 -0.0249  0.1150
 8592ION    CL-12643   8.950   9.637   0.436  0.0480 -0.2509 -0.0415
 8593ION    CL-12644   3.994   7.417  13.649 -0.3254 -0.1478  0.1588
 8594ION    CL-12645   4.461   4.997   0.160  0.0210 -0.0874 -0.2307
 8595ION    CL-12646   8.406   6.690   2.356 -0.5199 -0.4028 -0.2569
 8596ION    CL-12647   3.007   1.475   0.553 -0.1071  0.0820 -0.1814
 8597ION    CL-12648   5.866   2.584  12.652 -0.0957  0.0757 -0.3679
 8598ION    CL-12649   2.905   8.373   9.972 -0.1579 -0.1569  0.0134
 8599ION    CL-12650   7.363   1.578  12.815  0.2921  0.0708  0.2020
 8600ION    CL-12651   3.294   8.650  14.038  0.1193  0.1092 -0.3371
 8601ION    CL-12652   8.399   7.582   4.457 -0.1701  0.0957 -0.3060
 8602ION    CL-12653   6.598   6.950  12.859 -0.0976 -0.0648 -0.1160
 8603ION    CL-12654   6.942   2.998   2.384 -0.0874  0.0426 -0.2081
 8604ION    CL-12655   2.652   0.065   4.583  0.0355  0.0757  0.2071
 8605ION    CL-12656   2.660   1.562  10.089 -0.2099 -0.2034 -0.1746
 8606ION    CL-12657   1.663   9.035  13.229 -0.2381 -0.1405 -0.2418
 8607ION    CL-12658   1.339   5.403  13.824 -0.2205  0.0715  0.2589
 8608ION    CL-12659   9.533   3.345  13.197 -0.1716  0.1445 -0.1706
 8609ION    CL-12660   5.043   0.970   9.291  0.1880 -0.6365 -0.0112
 8610ION    CL-12661   5.825   9.216   4.595 -0.1079  0.2459  0.4328
 8611ION    CL-12662   5.137   3.385   9.537  0.0588  0.0716 -0.2749
 8612ION    CL-12663   2.355   7.839  13.685 -0.2813 -0.2867  0.2401
 8613ION    CL-12664   6.783   9.558   0.257 -0.1916 -0.2234 -0.4239
 8614ION    CL-12665   4.005   0.570  10.517 -0.2525  0.1880  0.3881
 8615ION    CL-12666   9.224   8.728  13.993  0.2146 -0.1363  0.1065
 8616ION    CL-12667   0.719   3.701   2.047 -0.2434  0.0780 -0.0811
 8617ION    CL-12668   9.882   7.346   4.508 -0.3809  0.2121 -0.2885
 8618ION    CL-12669   6.172   3.206  13.033 -0.2714 -0.1379 -0.0321
 8619ION    CL-12670   9.462   2.436  12.956  0.1463 -0.1403  0.1197
 8620ION    CL-12671   5.396   3.057   0.708 -0.0456  0.0346 -0.0561
 8621ION    CL-12672   1.613   1.140   0.208 -0.1328 -0.1346  0.1444
 8622ION    CL-12673   2.826   9.811   3.680  0.0519 -0.2479 -0.3325
 8623ION    CL-12674   7.574   2.189  10.284 -0.2453 -0.0916 -0.1103
 8624ION    CL-12675   5.580   9.587  13.809  0.1967 -0.1839 -0.0508
 8625ION    CL-12676   0.831   5.727   3.978 -0.0868  0.1134  0.2113
  10.16394  10.16394  14.05289
