Protein in INSANE! Membrane UpperLeaflet>POPC=1.0 LowerLeaflet>POPC=1.0
10365
    1AU     AUC    1   5.226   5.130   6.069
    1AU     AUC    2   5.371   4.993   5.758
    1AU     AUC    3   5.427   5.213   6.060
    1AU     AUC    4   4.568   4.961   5.922
    1AU     AUC    5   4.907   5.337   6.497
    1AU     AUC    6   4.774   5.467   5.814
    1AU     AUC    7   5.247   5.341   5.872
    1AU     AUC    8   5.031   4.860   6.207
    1AU     AUC    9   5.334   4.888   6.097
    1AU     AUC   10   5.222   5.139   6.357
    1AU     AUC   11   5.207   5.404   6.223
    1AU     AUC   12   5.095   4.677   5.863
    1AU     AUC   13   4.967   5.231   5.421
    1AU     AUC   14   5.537   4.875   5.511
    1AU     AUC   15   5.628   5.136   5.777
    1AU     AUC   16   5.686   5.369   6.005
    1AU     AUC   17   4.335   5.019   5.961
    1AU     AUC   18   4.387   5.258   6.249
    1AU     AUC   19   4.626   5.408   6.574
    1AU     AUC   20   4.627   5.572   5.898
    1AU     AUC   21   4.936   5.468   5.777
    1AU     AUC   22   5.270   5.445   5.694
    1AU     AUC   23   4.713   4.761   6.283
    1AU     AUC   24   5.146   4.677   6.310
    1AU     AUC   25   5.536   4.654   6.206
    1AU     AUC   26   5.336   5.122   6.655
    1AU     AUC   27   5.345   5.435   6.530
    1AU     AUC   28   5.249   5.677   6.337
    1AU     AUC   29   5.006   4.480   5.707
    1AU     AUC   30   4.889   4.713   5.476
    1AU     AUC   31   4.828   5.072   5.316
    1AU     AUC   32   5.600   5.218   6.380
    1AU     AUC   33   5.517   5.551   6.191
    1AU     AUC   34   5.298   4.670   5.610
    1AU     AUC   35   5.187   4.918   5.367
    1AU     AUC   36   5.002   5.266   6.673
    1AU     AUC   37   4.971   5.546   6.528
    1AU     AUC   38   4.666   4.681   5.845
    1AU     AUC   39   4.536   5.055   5.625
    1AU     AUC   40   5.475   5.198   5.547
    1AU     AUC   41   5.510   5.504   5.814
    1AU     AUC   42   4.466   5.353   5.870
    1AU     AUC   43   4.566   5.580   6.258
    1AU     AUC   44   5.574   4.782   5.879
    1AU     AUC   45   5.658   4.979   6.160
    1AU     AUC   46   4.459   4.925   6.113
    1AU     AUC   47   4.658   5.059   6.502
    1AU     AUC   48   4.930   5.606   6.136
    1AU     AUC   49   5.230   5.626   5.974
    1AU     AUC   50   5.051   4.918   6.497
    1AU     AUC   51   5.429   4.859   6.457
    1AU     AUC   52   4.689   5.382   5.549
    1AU     AUC   53   5.098   5.230   5.413
    1AU     AUC   54   4.856   4.615   5.981
    1AU     AUC   55   5.298   4.563   5.943
    1AU    AUSL   56   5.962   5.487   6.254
    1AU    AUSL   57   5.761   5.009   6.738
    1AU     AUL   58   5.989   5.405   6.639
    1AU       S   59   5.905   5.050   6.957
    1AU     LIG   60   6.033   4.971   7.416
    1AU     LIG   61   5.811   4.808   7.808
    1AU     LIG   62   5.414   4.665   8.052
    1AU       S   63   6.335   5.313   6.336
    1AU     LIG   64   6.692   5.506   5.687
    1AU     LIG   65   6.326   5.777   5.212
    1AU     LIG   66   5.916   6.037   5.207
    1AU    AUSL   67   5.539   5.332   6.608
    1AU    AUSL   68   5.310   5.691   6.735
    1AU     AUL   69   5.643   5.602   6.903
    1AU       S   70   6.231   5.038   6.447
    1AU     LIG   71   6.580   4.296   6.155
    1AU     LIG   72   6.522   4.222   5.387
    1AU     LIG   73   6.200   4.328   4.961
    1AU       S   74   5.065   5.159   7.326
    1AU     LIG   75   4.575   5.146   7.698
    1AU     LIG   76   4.108   5.200   7.831
    1AU     LIG   77   3.715   5.428   7.700
    1AU    AUSL   78   5.630   5.702   6.423
    1AU    AUSL   79   5.689   5.668   5.958
    1AU     AUL   80   5.891   5.848   6.162
    1AU       S   81   6.150   4.958   6.467
    1AU     LIG   82   5.850   4.187   5.639
    1AU     LIG   83   5.392   3.971   5.448
    1AU     LIG   84   5.119   3.982   5.058
    1AU       S   85   5.400   6.152   5.414
    1AU     LIG   86   5.259   6.188   4.933
    1AU     LIG   87   5.574   5.989   4.834
    1AU     LIG   88   5.880   5.698   4.804
    1AU    AUSL   89   5.326   4.745   5.322
    1AU    AUSL   90   5.129   5.061   5.085
    1AU     AUL   91   5.204   4.832   4.881
    1AU       S   92   5.664   4.485   4.934
    1AU     LIG   93   5.681   4.883   4.501
    1AU     LIG   94   5.676   5.399   4.423
    1AU     LIG   95   6.101   5.661   4.367
    1AU       S   96   5.913   4.876   4.953
    1AU     LIG   97   6.272   5.230   5.134
    1AU     LIG   98   6.253   5.495   5.567
    1AU     LIG   99   6.232   5.994   5.661
    1AU    AUSL  100   5.104   4.365   5.400
    1AU    AUSL  101   5.706   4.582   5.410
    1AU     AUL  102   5.301   4.446   5.210
    1AU       S  103   6.310   4.731   5.497
    1AU     LIG  104   6.615   5.167   6.007
    1AU     LIG  105   6.688   4.894   6.521
    1AU     LIG  106   6.962   4.475   6.555
    1AU       S  107   5.650   4.194   5.089
    1AU     LIG  108   5.804   3.752   5.307
    1AU     LIG  109   5.770   3.690   5.806
    1AU     LIG  110   5.527   3.532   6.251
    1AU    AUSL  111   4.892   4.709   5.183
    1AU    AUSL  112   4.721   4.495   5.555
    1AU     AUL  113   4.780   4.349   5.201
    1AU       S  114   4.367   4.118   6.233
    1AU     LIG  115   4.131   4.507   6.734
    1AU     LIG  116   3.934   4.914   7.020
    1AU     LIG  117   4.035   5.304   7.321
    1AU       S  118   5.562   4.568   4.843
    1AU     LIG  119   6.042   5.188   4.648
    1AU     LIG  120   6.415   5.564   4.761
    1AU     LIG  121   6.730   5.932   4.991
    1AU    AUSL  122   4.916   5.561   6.878
    1AU    AUSL  123   4.975   5.789   6.486
    1AU     AUL  124   5.034   5.934   6.814
    1AU       S  125   4.801   5.155   7.294
    1AU     LIG  126   4.176   4.869   7.463
    1AU     LIG  127   3.846   4.465   7.188
    1AU     LIG  128   3.703   4.029   7.005
    1AU       S  129   4.562   4.869   6.988
    1AU     LIG  130   4.515   4.173   6.845
    1AU     LIG  131   4.979   3.728   6.566
    1AU     LIG  132   5.076   3.378   6.113
    1AU    AUSL  133   5.290   5.305   6.957
    1AU    AUSL  134   4.611   5.271   6.819
    1AU     AUL  135   4.965   5.522   7.082
    1AU       S  136   4.366   5.453   6.986
    1AU     LIG  137   4.215   5.913   6.889
    1AU     LIG  138   4.015   6.251   6.593
    1AU     LIG  139   3.893   6.362   6.144
    1AU       S  140   4.899   4.963   7.326
    1AU     LIG  141   4.340   4.466   7.183
    1AU     LIG  142   4.195   3.787   6.927
    1AU     LIG  143   4.188   3.392   6.606
    1AU    AUSL  144   4.413   4.536   5.979
    1AU    AUSL  145   4.632   4.199   5.833
    1AU     AUL  146   4.431   4.235   5.576
    1AU       S  147   4.454   4.188   6.339
    1AU     LIG  148   4.504   3.785   6.566
    1AU     LIG  149   4.664   3.775   7.080
    1AU     LIG  150   4.896   3.712   7.489
    1AU       S  151   4.031   4.147   5.853
    1AU     LIG  152   4.009   4.043   6.570
    1AU     LIG  153   4.116   4.064   7.278
    1AU     LIG  154   4.565   4.118   7.475
    1AU    AUSL  155   4.620   4.904   5.486
    1AU    AUSL  156   4.262   5.108   5.661
    1AU     AUL  157   4.296   4.481   5.976
    1AU       S  158   4.009   5.825   5.591
    1AU     LIG  159   3.535   5.938   6.217
    1AU     LIG  160   3.293   5.737   6.516
    1AU     LIG  161   3.286   5.769   6.964
    1AU       S  162   4.412   4.314   6.403
    1AU     LIG  163   4.804   4.421   7.122
    1AU     LIG  164   5.045   4.507   7.519
    1AU     LIG  165   4.952   4.847   7.874
    1AU    AUSL  166   5.810   5.488   5.579
    1AU    AUSL  167   5.552   5.056   5.119
    1AU     AUL  168   5.819   5.421   5.186
    1AU       S  169   5.760   4.979   5.005
    1AU     LIG  170   6.342   4.823   4.793
    1AU     LIG  171   6.335   4.909   4.324
    1AU     LIG  172   5.979   5.156   4.124
    1AU       S  173   5.369   5.576   5.038
    1AU     LIG  174   5.275   5.692   4.565
    1AU     LIG  175   5.631   5.890   4.348
    1AU     LIG  176   5.764   6.316   4.491
    1AU    AUSL  177   5.752   5.079   5.480
    1AU    AUSL  178   5.904   5.184   5.895
    1AU     AUL  179   6.015   5.101   5.516
    1AU       S  180   5.395   5.450   4.974
    1AU     LIG  181   5.256   5.179   4.566
    1AU     LIG  182   5.218   4.681   4.413
    1AU     LIG  183   5.022   4.234   4.392
    1AU       S  184   6.434   4.766   6.077
    1AU     LIG  185   6.761   4.514   5.680
    1AU     LIG  186   6.954   4.280   5.201
    1AU     LIG  187   6.779   3.886   4.986
    1AU    AUSL  188   5.506   5.704   5.446
    1AU    AUSL  189   5.369   5.897   5.786
    1AU     AUL  190   5.750   5.875   5.657
    1AU       S  191   5.078   6.074   5.389
    1AU     LIG  192   4.427   6.094   5.082
    1AU     LIG  193   3.723   5.980   5.270
    1AU     LIG  194   3.370   5.703   5.829
    1AU       S  195   5.035   5.523   5.058
    1AU     LIG  196   3.969   4.960   5.402
    1AU     LIG  197   3.485   4.821   6.135
    1AU     LIG  198   3.583   4.790   6.622
    1AU    AUSL  199   4.333   5.773   5.968
    1AU    AUSL  200   4.573   5.688   6.641
    1AU     AUL  201   4.419   6.019   6.390
    1AU       S  202   4.410   5.003   7.106
    1AU     LIG  203   4.576   4.648   7.554
    1AU     LIG  204   4.091   4.437   7.654
    1AU     LIG  205   3.693   4.799   7.516
    1AU       S  206   4.053   5.856   6.055
    1AU     LIG  207   3.787   5.778   6.643
    1AU     LIG  208   3.772   5.649   7.073
    1AU     LIG  209   3.545   5.247   7.225
    1AU    AUSL  210   4.212   5.353   6.016
    1AU    AUSL  211   4.362   5.526   5.619
    1AU     AUL  212   4.078   5.397   5.689
    1AU       S  213   3.822   5.628   5.975
    1AU     LIG  214   3.815   5.411   5.314
    1AU     LIG  215   4.133   5.347   4.769
    1AU     LIG  216   4.139   5.029   4.423
    1AU       S  217   4.150   5.748   5.393
    1AU     LIG  218   3.817   5.662   4.906
    1AU     LIG  219   3.670   5.142   4.613
    1AU     LIG  220   3.222   4.909   4.806
    1AU    AUSL  221   4.230   5.599   6.395
    1AU    AUSL  222   4.014   5.109   6.297
    1AU     AUL  223   3.963   5.418   6.359
    1AU       S  224   3.683   5.172   5.811
    1AU     LIG  225   3.361   5.489   5.391
    1AU     LIG  226   3.314   5.832   4.982
    1AU     LIG  227   3.597   6.079   4.700
    1AU       S  228   3.994   5.890   6.252
    1AU     LIG  229   4.346   6.253   5.967
    1AU     LIG  230   4.758   6.381   5.843
    1AU     LIG  231   5.204   6.507   5.712
    1AU    AUSL  232   5.966   4.767   6.122
    1AU    AUSL  233   5.777   5.115   6.304
    1AU     AUL  234   6.101   5.080   6.000
    1AU       S  235   6.279   4.640   6.154
    1AU     LIG  236   6.919   4.811   6.124
    1AU     LIG  237   7.049   5.239   6.361
    1AU     LIG  238   7.241   5.292   6.786
    1AU       S  239   6.191   5.062   6.914
    1AU     LIG  240   6.625   5.329   6.741
    1AU     LIG  241   6.725   5.662   6.418
    1AU     LIG  242   6.790   5.857   6.011
    1AU    AUSL  243   5.751   4.784   5.769
    1AU    AUSL  244   5.753   4.418   5.998
    1AU     AUL  245   5.968   4.611   5.788
    1AU       S  246   6.400   4.674   5.992
    1AU     LIG  247   6.875   4.981   5.664
    1AU     LIG  248   7.142   5.358   5.875
    1AU     LIG  249   7.226   5.728   6.209
    1AU       S  250   6.381   4.899   5.623
    1AU     LIG  251   6.348   5.624   6.007
    1AU     LIG  252   6.208   5.976   6.471
    1AU     LIG  253   5.976   5.978   6.921
    1AU    AUSL  254   4.332   4.781   6.372
    1AU    AUSL  255   4.132   4.860   5.975
    1AU     AUL  256   3.958   4.857   6.302
    1AU       S  257   3.885   4.629   5.814
    1AU     LIG  258   3.431   4.711   5.672
    1AU     LIG  259   3.027   4.879   5.501
    1AU     LIG  260   2.597   5.048   5.562
    1AU       S  261   3.774   5.128   5.912
    1AU     LIG  262   3.216   5.269   5.775
    1AU     LIG  263   3.260   5.953   5.457
    1AU     LIG  264   3.536   6.405   5.412
    1AU    AUSL  265   4.398   5.215   6.452
    1AU    AUSL  266   4.705   4.928   6.533
    1AU     AUL  267   4.252   4.997   6.664
    1AU       S  268   4.184   5.409   6.853
    1AU     LIG  269   3.732   5.272   6.746
    1AU     LIG  270   3.285   5.247   6.694
    1AU     LIG  271   3.077   4.903   6.505
    1AU       S  272   3.760   5.085   5.903
    1AU     LIG  273   3.558   4.372   6.015
    1AU     LIG  274   3.733   3.920   6.163
    1AU     LIG  275   4.172   3.679   6.154
    1AU    AUSL  276   5.041   5.764   6.057
    1AU    AUSL  277   4.660   5.657   6.208
    1AU     AUL  278   4.864   6.041   6.268
    1AU       S  279   4.554   4.784   6.915
    1AU     LIG  280   5.011   4.123   6.829
    1AU     LIG  281   5.516   4.005   6.770
    1AU     LIG  282   6.002   4.181   6.609
    1AU       S  283   5.029   4.248   6.341
    1AU     LIG  284   5.662   4.035   6.292
    1AU     LIG  285   6.340   3.876   6.037
    1AU     LIG  286   6.708   3.994   5.746
    1AU    AUSL  287   4.805   5.240   6.133
    1AU    AUSL  288   4.941   5.074   5.779
    1AU     AUL  289   4.816   5.194   6.127
    1AU       S  290   4.966   4.209   6.311
    1AU     LIG  291   4.880   3.951   5.535
    1AU     LIG  292   4.603   3.911   5.133
    1AU     LIG  293   4.270   3.959   4.777
    1AU       S  294   4.275   5.288   5.247
    1AU     LIG  295   3.959   4.945   4.946
    1AU     LIG  296   3.631   4.669   4.928
    1AU     LIG  297   3.271   4.503   5.219
    1AU    AUSL  298   5.094   5.630   5.609
    1AU    AUSL  299   5.377   5.969   6.202
    1AU     AUL  300   5.098   6.038   5.853
    1AU       S  301   5.076   5.945   5.307
    1AU     LIG  302   4.642   5.376   4.759
    1AU     LIG  303   4.235   4.638   4.703
    1AU     LIG  304   3.807   4.227   4.989
    1AU       S  305   4.987   4.250   6.283
    1AU     LIG  306   3.976   4.427   6.283
    1AU     LIG  307   3.530   5.313   6.252
    1AU     LIG  308   3.665   6.054   5.796
    1AU    AUSL  309   5.355   4.868   6.723
    1AU    AUSL  310   5.684   4.696   6.432
    1AU     AUL  311   5.748   4.644   6.749
    1AU       S  312   5.443   4.799   7.074
    1AU     LIG  313   5.360   4.886   7.587
    1AU     LIG  314   5.218   5.364   7.735
    1AU     LIG  315   4.966   5.784   7.743
    1AU       S  316   6.146   4.836   6.923
    1AU     LIG  317   6.268   5.501   7.025
    1AU     LIG  318   6.481   5.936   6.873
    1AU     LIG  319   6.320   6.415   6.741
    1AU    AUSL  320   4.986   4.633   6.624
    1AU    AUSL  321   4.979   5.046   6.850
    1AU     AUL  322   5.011   4.790   6.914
    1AU       S  323   5.372   4.601   7.120
    1AU     LIG  324   5.594   5.182   7.300
    1AU     LIG  325   5.900   5.506   7.363
    1AU     LIG  326   6.228   5.862   7.377
    1AU       S  327   4.491   5.497   7.185
    1AU     LIG  328   4.710   5.906   7.231
    1AU     LIG  329   5.183   5.947   7.305
    1AU     LIG  330   5.491   5.850   7.648
    1AU    AUSL  331   5.358   4.447   6.572
    1AU    AUSL  332   4.728   4.570   6.262
    1AU     AUL  333   4.801   4.475   6.653
    1AU       S  334   4.772   3.823   6.152
    1AU     LIG  335   4.670   3.365   6.365
    1AU     LIG  336   5.122   3.144   6.546
    1AU     LIG  337   5.615   3.121   6.604
    1AU       S  338   5.352   4.438   6.934
    1AU     LIG  339   5.240   4.087   7.253
    1AU     LIG  340   5.150   3.655   7.041
    1AU     LIG  341   4.789   3.350   6.863
    1AU    AUSL  342   4.687   5.135   5.133
    1AU    AUSL  343   5.374   5.306   5.427
    1AU     AUL  344   4.950   5.024   5.748
    1AU       S  345   4.365   5.211   5.176
    1AU     LIG  346   4.380   4.721   5.140
    1AU     LIG  347   4.251   4.279   5.157
    1AU     LIG  348   4.243   3.806   5.461
    1AU       S  349   5.974   4.833   5.149
    1AU     LIG  350   6.262   4.270   5.802
    1AU     LIG  351   5.992   3.684   6.251
    1AU     LIG  352   5.832   3.174   6.121
    1AU    AUSL  353   4.693   5.834   5.622
    1AU    AUSL  354   4.668   5.502   5.336
    1AU     AUL  355   4.593   5.632   5.172
    1AU       S  356   4.564   5.916   5.520
    1AU     LIG  357   4.707   6.368   5.354
    1AU     LIG  358   5.060   6.570   5.225
    1AU     LIG  359   5.092   6.952   5.448
    1AU       S  360   4.158   5.762   5.256
    1AU     LIG  361   4.193   6.270   5.483
    1AU     LIG  362   4.428   6.720   5.600
    1AU     LIG  363   4.652   7.169   5.638
    1AU    AUSL  364   5.067   4.239   5.850
    1AU    AUSL  365   4.314   4.664   5.612
    1AU     AUL  366   4.703   4.214   5.937
    1AU       S  367   3.971   4.527   5.592
    1AU     LIG  368   3.516   4.980   5.288
    1AU     LIG  369   3.409   5.348   4.943
    1AU     LIG  370   3.518   5.606   4.517
    1AU       S  371   5.037   3.868   5.962
    1AU     LIG  372   4.742   3.518   5.720
    1AU     LIG  373   4.590   3.424   5.233
    1AU     LIG  374   4.630   3.594   4.749
    1AU    AUSL  375   5.359   4.436   6.141
    1AU    AUSL  376   5.430   4.405   5.684
    1AU     AUL  377   5.464   4.145   5.893
    1AU       S  378   5.195   3.847   6.119
    1AU     LIG  379   5.312   3.538   5.705
    1AU     LIG  380   5.660   3.197   5.528
    1AU     LIG  381   5.725   2.736   5.288
    1AU       S  382   6.148   4.481   5.404
    1AU     LIG  383   6.220   3.882   5.528
    1AU     LIG  384   6.373   3.649   5.235
    1AU     LIG  385   6.203   3.600   4.818
    2POPC   NC3  386   3.501   1.390   8.117
    2POPC   PO4  387   3.091   0.781   8.187
    2POPC   GL1  388   3.280   0.852   7.759
    2POPC   GL2  389   3.582   1.042   7.715
    2POPC   C1A  390   3.129   0.895   7.305
    2POPC   D2A  391   3.097   0.879   6.826
    2POPC   C3A  392   3.375   0.983   6.462
    2POPC   C4A  393   3.325   0.911   5.999
    2POPC   C1B  394   3.498   1.262   7.315
    2POPC   C2B  395   3.431   1.340   6.858
    2POPC   C3B  396   3.695   1.392   6.481
    2POPC   C4B  397   3.760   1.155   6.100
    3POPC   NC3  398   7.268   0.319   8.123
    3POPC   PO4  399   7.853   9.950   8.011
    3POPC   GL1  400   7.553   0.171   7.721
    3POPC   GL2  401   7.383   0.532   7.678
    3POPC   C1A  402   7.414   0.187   7.308
    3POPC   D2A  403   7.526   0.457   6.946
    3POPC   C3A  404   7.359   0.390   6.547
    3POPC   C4A  405   7.401   0.095   6.200
    3POPC   C1B  406   7.179   0.667   7.295
    3POPC   C2B  407   7.205   0.821   6.888
    3POPC   C3B  408   7.139   0.865   6.460
    3POPC   C4B  409   7.317   0.791   6.064
    4POPC   NC3  410   1.088   1.432   8.150
    4POPC   PO4  411   0.715   0.819   8.081
    4POPC   GL1  412   0.866   1.117   7.784
    4POPC   GL2  413   1.202   1.036   7.836
    4POPC   C1A  414   1.113   1.286   7.396
    4POPC   D2A  415   1.355   1.398   7.002
    4POPC   C3A  416   1.208   1.308   6.572
    4POPC   C4A  417   1.047   1.453   6.151
    4POPC   C1B  418   1.320   0.819   7.484
    4POPC   C2B  419   1.258   0.870   7.060
    4POPC   C3B  420   1.451   0.787   6.680
    4POPC   C4B  421   1.365   0.931   6.284
    5POPC   NC3  422   0.666   5.117   8.094
    5POPC   PO4  423   0.113   4.630   7.958
    5POPC   GL1  424   0.473   4.781   7.640
    5POPC   GL2  425   0.718   5.066   7.604
    5POPC   C1A  426   0.606   4.866   7.164
    5POPC   D2A  427   0.445   5.007   6.743
    5POPC   C3A  428   0.711   4.969   6.371
    5POPC   C4A  429   0.798   4.852   5.941
    5POPC   C1B  430   0.369   5.264   7.413
    5POPC   C2B  431   0.154   5.378   7.031
    5POPC   C3B  432   0.070   5.352   6.591
    5POPC   C4B  433   0.222   5.081   6.254
    6POPC   NC3  434   6.271   7.565   8.602
    6POPC   PO4  435   5.742   7.721   8.180
    6POPC   GL1  436   5.636   8.022   7.770
    6POPC   GL2  437   5.661   8.391   7.811
    6POPC   C1A  438   5.686   8.061   7.281
    6POPC   D2A  439   5.519   8.007   6.840
    6POPC   C3A  440   5.843   7.888   6.492
    6POPC   C4A  441   6.276   7.673   6.467
    6POPC   C1B  442   5.442   8.501   7.423
    6POPC   C2B  443   5.618   8.479   6.983
    6POPC   C3B  444   5.663   8.368   6.506
    6POPC   C4B  445   5.669   8.399   6.009
    7POPC   NC3  446   0.316   8.149   8.229
    7POPC   PO4  447   0.844   7.703   8.159
    7POPC   GL1  448   0.478   7.884   7.832
    7POPC   GL2  449   0.373   8.285   7.746
    7POPC   C1A  450   0.224   7.912   7.435
    7POPC   D2A  451   0.403   7.862   7.014
    7POPC   C3A  452   0.142   7.934   6.630
    7POPC   C4A  453   0.149   7.734   6.209
    7POPC   C1B  454   0.513   8.315   7.287
    7POPC   C2B  455   0.452   8.327   6.813
    7POPC   C3B  456   0.562   8.174   6.407
    7POPC   C4B  457   0.845   8.303   6.043
    8POPC   NC3  458   8.569   6.433   8.152
    8POPC   PO4  459   9.235   6.308   8.348
    8POPC   GL1  460   9.058   6.431   7.925
    8POPC   GL2  461   8.950   6.760   7.792
    8POPC   C1A  462   8.896   6.371   7.477
    8POPC   D2A  463   8.651   6.559   7.124
    8POPC   C3A  464   8.861   6.515   6.728
    8POPC   C4A  465   9.038   6.425   6.307
    8POPC   C1B  466   8.955   6.930   7.319
    8POPC   C2B  467   9.108   6.960   6.852
    8POPC   C3B  468   8.885   6.938   6.439
    8POPC   C4B  469   8.680   6.748   6.081
    9POPC   NC3  470   2.549   6.267   8.109
    9POPC   PO4  471   2.686   6.904   8.105
    9POPC   GL1  472   2.516   6.650   7.740
    9POPC   GL2  473   2.778   6.417   7.653
    9POPC   C1A  474   2.476   6.711   7.284
    9POPC   D2A  475   2.590   6.563   6.859
    9POPC   C3A  476   2.424   6.791   6.532
    9POPC   C4A  477   2.619   6.869   6.127
    9POPC   C1B  478   2.963   6.598   7.242
    9POPC   C2B  479   3.076   6.846   6.849
    9POPC   C3B  480   3.063   6.788   6.392
    9POPC   C4B  481   2.863   6.419   6.237
   10POPC   NC3  482   7.536   9.603   7.993
   10POPC   PO4  483   6.959   9.912   8.150
   10POPC   GL1  484   7.144   9.851   7.718
   10POPC   GL2  485   7.194   9.487   7.636
   10POPC   C1A  486   7.050   9.815   7.263
   10POPC   D2A  487   7.151   0.062   6.891
   10POPC   C3A  488   7.029   9.948   6.510
   10POPC   C4A  489   6.872   9.954   6.099
   10POPC   C1B  490   7.502   9.596   7.296
   10POPC   C2B  491   7.383   9.583   6.851
   10POPC   C3B  492   7.428   9.591   6.398
   10POPC   C4B  493   7.678   9.683   6.001
   11POPC   NC3  494   8.065   4.826   8.039
   11POPC   PO4  495   8.018   4.172   8.350
   11POPC   GL1  496   8.180   4.301   7.906
   11POPC   GL2  497   8.480   4.426   7.788
   11POPC   C1A  498   8.233   4.139   7.452
   11POPC   D2A  499   8.212   3.997   6.994
   11POPC   C3A  500   8.114   4.214   6.580
   11POPC   C4A  501   7.854   4.181   6.224
   11POPC   C1B  502   8.626   4.511   7.354
   11POPC   C2B  503   8.609   4.351   6.917
   11POPC   C3B  504   8.570   4.477   6.474
   11POPC   C4B  505   8.254   4.520   6.150
   12POPC   NC3  506   3.323   2.038   8.250
   12POPC   PO4  507   3.784   2.551   8.162
   12POPC   GL1  508   3.608   2.211   7.878
   12POPC   GL2  509   3.463   1.866   7.792
   12POPC   C1A  510   3.595   2.212   7.437
   12POPC   D2A  511   3.411   2.446   7.111
   12POPC   C3A  512   3.230   2.178   6.818
   12POPC   C4A  513   3.365   2.214   6.397
   12POPC   C1B  514   3.765   1.689   7.483
   12POPC   C2B  515   3.861   1.683   7.026
   12POPC   C3B  516   3.638   1.861   6.673
   12POPC   C4B  517   3.237   1.738   6.491
   13POPC   NC3  518   9.233   5.947   8.072
   13POPC   PO4  519   9.494   5.356   8.188
   13POPC   GL1  520   9.293   5.497   7.845
   13POPC   GL2  521   9.508   5.720   7.656
   13POPC   C1A  522   9.020   5.534   7.497
   13POPC   D2A  523   9.062   5.355   7.074
   13POPC   C3A  524   9.067   5.668   6.753
   13POPC   C4A  525   9.219   5.909   6.369
   13POPC   C1B  526   9.283   5.886   7.252
   13POPC   C2B  527   8.856   6.019   7.069
   13POPC   C3B  528   8.732   6.029   6.624
   13POPC   C4B  529   8.554   6.277   6.322
   14POPC   NC3  530   1.991   4.403   8.340
   14POPC   PO4  531   1.422   4.249   8.024
   14POPC   GL1  532   1.701   4.334   7.721
   14POPC   GL2  533   1.929   4.562   7.845
   14POPC   C1A  534   1.708   4.376   7.277
   14POPC   D2A  535   1.657   4.165   6.863
   14POPC   C3A  536   1.765   4.410   6.496
   14POPC   C4A  537   1.796   4.180   6.092
   14POPC   C1B  538   2.167   4.323   7.517
   14POPC   C2B  539   2.132   4.134   7.078
   14POPC   C3B  540   2.116   4.049   6.606
   14POPC   C4B  541   2.228   4.354   6.261
   15POPC   NC3  542   4.338   9.054   8.141
   15POPC   PO4  543   3.868   8.545   8.230
   15POPC   GL1  544   3.913   8.818   7.786
   15POPC   GL2  545   4.081   9.149   7.710
   15POPC   C1A  546   3.774   9.011   7.345
   15POPC   D2A  547   3.904   8.847   6.919
   15POPC   C3A  548   4.167   9.049   6.558
   15POPC   C4A  549   4.181   9.199   6.074
   15POPC   C1B  550   4.269   8.907   7.345
   15POPC   C2B  551   4.510   8.640   7.088
   15POPC   C3B  552   4.573   8.743   6.663
   15POPC   C4B  553   4.474   8.773   6.212
   16POPC   NC3  554   0.343   1.166   7.912
   16POPC   PO4  555   0.676   1.672   8.063
   16POPC   GL1  556   0.439   1.637   7.659
   16POPC   GL2  557   0.141   1.421   7.538
   16POPC   C1A  558   0.615   1.414   7.277
   16POPC   D2A  559   0.872   1.211   6.942
   16POPC   C3A  560   0.702   1.246   6.503
   16POPC   C4A  561   0.364   1.480   6.323
   16POPC   C1B  562   0.239   1.038   7.285
   16POPC   C2B  563   0.362   1.130   6.877
   16POPC   C3B  564   0.218   1.010   6.476
   16POPC   C4B  565   0.182   0.977   6.026
   17POPC   NC3  566   7.956   5.774   8.056
   17POPC   PO4  567   8.625   5.895   8.079
   17POPC   GL1  568   8.369   5.813   7.743
   17POPC   GL2  569   8.196   6.162   7.794
   17POPC   C1A  570   8.537   5.656   7.333
   17POPC   D2A  571   8.559   5.595   6.875
   17POPC   C3A  572   8.206   5.420   6.614
   17POPC   C4A  573   8.071   5.571   6.190
   17POPC   C1B  574   8.418   6.165   7.365
   17POPC   C2B  575   8.336   6.213   6.889
   17POPC   C3B  576   8.199   5.965   6.494
   17POPC   C4B  577   7.954   6.067   6.080
   18POPC   NC3  578   5.753   0.412   8.359
   18POPC   PO4  579   6.234   9.929   8.321
   18POPC   GL1  580   6.060   0.328   7.954
   18POPC   GL2  581   5.778   0.563   7.874
   18POPC   C1A  582   5.903   0.313   7.456
   18POPC   D2A  583   6.007   0.009   7.112
   18POPC   C3A  584   6.087   0.071   6.663
   18POPC   C4A  585   5.907   0.039   6.271
   18POPC   C1B  586   5.565   0.683   7.454
   18POPC   C2B  587   5.769   0.775   7.041
   18POPC   C3B  588   5.784   0.529   6.626
   18POPC   C4B  589   5.983   0.535   6.213
   19POPC   NC3  590   9.540   6.594   8.127
   19POPC   PO4  591   0.216   6.267   8.159
   19POPC   GL1  592   9.962   6.486   7.790
   19POPC   GL2  593   9.811   6.784   7.737
   19POPC   C1A  594   9.801   6.508   7.294
   19POPC   D2A  595   9.910   6.413   6.828
   19POPC   C3A  596   9.881   6.575   6.372
   19POPC   C4A  597   9.968   6.385   5.903
   19POPC   C1B  598   9.405   6.769   7.500
   19POPC   C2B  599   9.273   6.542   7.101
   19POPC   C3B  600   9.412   6.596   6.635
   19POPC   C4B  601   9.373   6.891   6.257
   20POPC   NC3  602   9.599   0.952   8.464
   20POPC   PO4  603   9.962   1.411   8.037
   20POPC   GL1  604   9.649   1.343   7.714
   20POPC   GL2  605   9.312   1.273   7.848
   20POPC   C1A  606   9.716   1.218   7.289
   20POPC   D2A  607   9.855   0.965   6.934
   20POPC   C3A  608   9.721   1.084   6.515
   20POPC   C4A  609   9.716   0.804   6.153
   20POPC   C1B  610   9.194   1.167   7.408
   20POPC   C2B  611   9.327   1.139   6.940
   20POPC   C3B  612   9.392   1.473   6.596
   20POPC   C4B  613   9.451   1.593   6.138
   21POPC   NC3  614   1.878   8.039   8.040
   21POPC   PO4  615   2.364   7.559   8.065
   21POPC   GL1  616   2.212   7.779   7.659
   21POPC   GL2  617   1.879   8.026   7.538
   21POPC   C1A  618   2.284   7.949   7.256
   21POPC   D2A  619   2.062   7.923   6.883
   21POPC   C3A  620   2.333   7.949   6.522
   21POPC   C4A  621   2.479   8.073   6.100
   21POPC   C1B  622   1.507   8.308   7.391
   21POPC   C2B  623   1.370   8.292   6.946
   21POPC   C3B  624   1.666   8.150   6.610
   21POPC   C4B  625   1.971   8.184   6.272
   22POPC   NC3  626   4.159   1.492   8.188
   22POPC   PO4  627   4.706   1.123   8.427
   22POPC   GL1  628   4.611   1.345   7.993
   22POPC   GL2  629   4.308   1.180   7.821
   22POPC   C1A  630   4.658   1.314   7.482
   22POPC   D2A  631   4.418   1.075   7.124
   22POPC   C3A  632   4.554   1.080   6.647
   22POPC   C4A  633   4.678   1.191   6.183
   22POPC   C1B  634   4.012   1.233   7.475
   22POPC   C2B  635   3.914   1.171   7.013
   22POPC   C3B  636   3.987   0.979   6.599
   22POPC   C4B  637   4.199   1.256   6.289
   23POPC   NC3  638   7.714   7.012   8.076
   23POPC   PO4  639   8.312   7.500   8.138
   23POPC   GL1  640   8.051   7.307   7.842
   23POPC   GL2  641   8.225   7.445   7.616
   23POPC   C1A  642   7.948   7.101   7.402
   23POPC   D2A  643   8.015   7.274   6.958
   23POPC   C3A  644   7.922   7.008   6.572
   23POPC   C4A  645   7.669   7.028   6.184
   23POPC   C1B  646   8.276   7.674   7.268
   23POPC   C2B  647   8.445   7.616   6.873
   23POPC   C3B  648   8.293   7.660   6.442
   23POPC   C4B  649   8.251   7.409   6.048
   24POPC   NC3  650   9.233   3.509   8.026
   24POPC   PO4  651   8.739   3.961   8.018
   24POPC   GL1  652   8.879   3.683   7.706
   24POPC   GL2  653   8.830   3.298   7.792
   24POPC   C1A  654   9.176   3.756   7.380
   24POPC   D2A  655   9.368   3.550   7.030
   24POPC   C3A  656   9.149   3.659   6.654
   24POPC   C4A  657   8.851   3.635   6.333
   24POPC   C1B  658   9.053   3.278   7.397
   24POPC   C2B  659   8.894   3.316   6.960
   24POPC   C3B  660   8.978   3.168   6.519
   24POPC   C4B  661   8.778   2.966   6.127
   25POPC   NC3  662   0.193   1.802   8.128
   25POPC   PO4  663   0.449   2.215   8.476
   25POPC   GL1  664   0.402   2.163   7.874
   25POPC   GL2  665   0.687   2.104   7.672
   25POPC   C1A  666   0.190   2.117   7.441
   25POPC   D2A  667   9.962   2.173   7.014
   25POPC   C3A  668   0.142   1.991   6.634
   25POPC   C4A  669   0.184   2.011   6.180
   25POPC   C1B  670   0.663   2.096   7.221
   25POPC   C2B  671   0.628   2.114   6.779
   25POPC   C3B  672   0.642   1.927   6.390
   25POPC   C4B  673   0.591   1.747   5.963
   26POPC   NC3  674   9.863   4.355   8.231
   26POPC   PO4  675   9.370   4.727   7.898
   26POPC   GL1  676   9.700   4.556   7.665
   26POPC   GL2  677   9.831   4.201   7.744
   26POPC   C1A  678   9.646   4.643   7.229
   26POPC   D2A  679   9.390   4.553   6.870
   26POPC   C3A  680   9.557   4.513   6.461
   26POPC   C4A  681   9.525   4.669   6.040
   26POPC   C1B  682   9.923   4.220   7.308
   26POPC   C2B  683   9.889   4.362   6.873
   26POPC   C3B  684   0.013   4.186   6.488
   26POPC   C4B  685   9.925   3.816   6.213
   27POPC   NC3  686   7.274   0.959   8.142
   27POPC   PO4  687   7.737   1.371   7.858
   27POPC   GL1  688   7.298   1.347   7.699
   27POPC   GL2  689   7.136   1.022   7.666
   27POPC   C1A  690   7.212   1.258   7.234
   27POPC   D2A  691   7.371   1.286   6.795
   27POPC   C3A  692   7.042   1.348   6.459
   27POPC   C4A  693   7.022   1.205   5.986
   27POPC   C1B  694   7.573   0.938   7.431
   27POPC   C2B  695   7.744   0.939   7.008
   27POPC   C3B  696   7.633   0.875   6.575
   27POPC   C4B  697   7.507   1.222   6.296
   28POPC   NC3  698   9.269   4.962   8.279
   28POPC   PO4  699   8.600   4.927   8.057
   28POPC   GL1  700   8.882   4.783   7.694
   28POPC   GL2  701   9.085   5.062   7.652
   28POPC   C1A  702   9.052   4.791   7.210
   28POPC   D2A  703   8.924   4.743   6.740
   28POPC   C3A  704   9.115   4.850   6.328
   28POPC   C4A  705   9.070   4.781   5.866
   28POPC   C1B  706   8.707   5.141   7.389
   28POPC   C2B  707   8.616   5.084   6.961
   28POPC   C3B  708   8.710   5.220   6.530
   28POPC   C4B  709   8.598   5.617   6.338
   29POPC   NC3  710   6.005   8.912   8.441
   29POPC   PO4  711   5.446   9.236   8.274
   29POPC   GL1  712   5.694   9.248   7.898
   29POPC   GL2  713   5.829   8.907   7.864
   29POPC   C1A  714   5.806   9.231   7.453
   29POPC   D2A  715   5.973   9.143   7.029
   29POPC   C3A  716   5.741   9.214   6.635
   29POPC   C4A  717   5.410   9.160   6.305
   29POPC   C1B  718   5.911   8.719   7.446
   29POPC   C2B  719   6.131   8.657   7.072
   29POPC   C3B  720   5.951   8.736   6.691
   29POPC   C4B  721   5.769   8.812   6.293
   30POPC   NC3  722   5.033   8.874   8.209
   30POPC   PO4  723   4.439   8.671   7.914
   30POPC   GL1  724   4.845   8.762   7.733
   30POPC   GL2  725   4.920   9.147   7.757
   30POPC   C1A  726   4.956   8.847   7.297
   30POPC   D2A  727   4.917   9.275   7.130
   30POPC   C3A  728   4.821   9.256   6.697
   30POPC   C4A  729   4.942   8.949   6.400
   30POPC   C1B  730   5.343   9.024   7.570
   30POPC   C2B  731   5.493   8.942   7.127
   30POPC   C3B  732   5.397   8.816   6.678
   30POPC   C4B  733   5.285   8.616   6.264
   31POPC   NC3  734   5.921   9.697   8.051
   31POPC   PO4  735   5.397   0.050   8.312
   31POPC   GL1  736   5.623   0.053   7.843
   31POPC   GL2  737   5.797   9.776   7.564
   31POPC   C1A  738   5.414   0.090   7.424
   31POPC   D2A  739   5.559   0.268   7.022
   31POPC   C3A  740   5.510   0.021   6.616
   31POPC   C4A  741   5.580   9.648   6.329
   31POPC   C1B  742   6.155   9.556   7.276
   31POPC   C2B  743   6.278   9.587   6.843
   31POPC   C3B  744   6.066   9.575   6.441
   31POPC   C4B  745   5.901   9.280   6.132
   32POPC   NC3  746   7.151   2.426   8.188
   32POPC   PO4  747   7.218   3.104   8.159
   32POPC   GL1  748   7.282   2.772   7.845
   32POPC   GL2  749   7.537   2.839   7.667
   32POPC   C1A  750   7.149   2.625   7.424
   32POPC   D2A  751   7.262   2.593   6.972
   32POPC   C3A  752   7.172   2.925   6.677
   32POPC   C4A  753   7.266   3.054   6.283
   32POPC   C1B  754   7.802   2.738   7.334
   32POPC   C2B  755   7.785   2.611   6.932
   32POPC   C3B  756   7.659   2.787   6.541
   32POPC   C4B  757   7.683   2.899   6.077
   33POPC   NC3  758   8.978   9.268   8.388
   33POPC   PO4  759   9.214   8.569   8.294
   33POPC   GL1  760   9.048   8.794   7.902
   33POPC   GL2  761   8.709   8.821   8.035
   33POPC   C1A  762   9.093   8.927   7.410
   33POPC   D2A  763   9.169   8.753   6.990
   33POPC   C3A  764   9.151   9.002   6.635
   33POPC   C4A  765   8.963   8.981   6.258
   33POPC   C1B  766   8.599   8.880   7.588
   33POPC   C2B  767   8.675   8.889   7.114
   33POPC   C3B  768   8.698   8.748   6.662
   33POPC   C4B  769   8.456   8.667   6.261
   34POPC   NC3  770   5.056   0.353   8.175
   34POPC   PO4  771   4.659   0.852   7.948
   34POPC   GL1  772   4.920   0.556   7.706
   34POPC   GL2  773   4.809   0.203   7.652
   34POPC   C1A  774   5.101   0.503   7.274
   34POPC   D2A  775   5.288   0.673   6.879
   34POPC   C3A  776   5.037   0.628   6.487
   34POPC   C4A  777   5.098   0.580   6.034
   34POPC   C1B  778   4.744   0.140   7.186
   34POPC   C2B  779   5.050   0.221   6.810
   34POPC   C3B  780   5.068   0.124   6.325
   34POPC   C4B  781   4.888   0.128   5.854
   35POPC   NC3  782   0.314   6.768   8.233
   35POPC   PO4  783   0.854   6.616   8.103
   35POPC   GL1  784   0.791   6.444   7.715
   35POPC   GL2  785   0.468   6.476   7.765
   35POPC   C1A  786   0.771   6.604   7.306
   35POPC   D2A  787   0.726   6.911   6.980
   35POPC   C3A  788   0.804   6.711   6.599
   35POPC   C4A  789   0.717   6.829   6.184
   35POPC   C1B  790   0.289   6.486   7.373
   35POPC   C2B  791   0.442   6.424   6.945
   35POPC   C3B  792   0.347   6.476   6.524
   35POPC   C4B  793   0.199   6.131   6.270
   36POPC   NC3  794   7.614   8.624   7.957
   36POPC   PO4  795   7.836   9.252   8.068
   36POPC   GL1  796   7.540   9.112   7.763
   36POPC   GL2  797   7.216   8.992   7.901
   36POPC   C1A  798   7.624   9.077   7.312
   36POPC   D2A  799   7.835   9.083   6.908
   36POPC   C3A  800   7.624   9.047   6.512
   36POPC   C4A  801   7.541   9.188   6.068
   36POPC   C1B  802   7.232   8.794   7.478
   36POPC   C2B  803   7.299   8.719   7.043
   36POPC   C3B  804   7.045   8.676   6.665
   36POPC   C4B  805   7.208   8.850   6.296
   37POPC   NC3  806   1.956   8.727   8.162
   37POPC   PO4  807   2.250   8.229   7.843
   37POPC   GL1  808   1.947   8.530   7.689
   37POPC   GL2  809   2.031   8.916   7.692
   37POPC   C1A  810   1.910   8.635   7.266
   37POPC   D2A  811   2.097   8.902   6.970
   37POPC   C3A  812   2.023   8.748   6.559
   37POPC   C4A  813   1.666   8.625   6.311
   37POPC   C1B  814   2.201   9.257   7.384
   37POPC   C2B  815   2.424   9.294   6.956
   37POPC   C3B  816   2.247   9.228   6.538
   37POPC   C4B  817   1.916   9.125   6.224
   38POPC   NC3  818   0.696   6.193   8.153
   38POPC   PO4  819   0.454   5.569   8.006
   38POPC   GL1  820   0.507   5.950   7.751
   38POPC   GL2  821   0.867   5.919   7.729
   38POPC   C1A  822   0.601   6.091   7.332
   38POPC   D2A  823   0.522   5.827   6.967
   38POPC   C3A  824   0.592   6.002   6.577
   38POPC   C4A  825   0.747   6.298   6.265
   38POPC   C1B  826   0.736   5.603   7.400
   38POPC   C2B  827   0.691   5.355   7.027
   38POPC   C3B  828   0.672   5.458   6.568
   38POPC   C4B  829   0.374   5.635   6.247
   39POPC   NC3  830   2.112   7.166   8.137
   39POPC   PO4  831   1.532   7.675   8.115
   39POPC   GL1  832   1.761   7.563   7.715
   39POPC   GL2  833   2.024   7.301   7.661
   39POPC   C1A  834   1.909   7.582   7.253
   39POPC   D2A  835   1.756   7.437   6.834
   39POPC   C3A  836   1.899   7.672   6.484
   39POPC   C4A  837   2.081   7.680   6.064
   39POPC   C1B  838   2.255   7.173   7.297
   39POPC   C2B  839   2.151   7.109   6.865
   39POPC   C3B  840   2.246   7.284   6.461
   39POPC   C4B  841   2.255   7.201   6.010
   40POPC   NC3  842   6.544   0.156   8.033
   40POPC   PO4  843   6.966   0.647   7.983
   40POPC   GL1  844   6.914   0.322   7.702
   40POPC   GL2  845   6.602   0.488   7.640
   40POPC   C1A  846   6.872   0.285   7.255
   40POPC   D2A  847   6.749   0.577   6.922
   40POPC   C3A  848   6.850   0.457   6.474
   40POPC   C4A  849   6.761   0.743   6.113
   40POPC   C1B  850   6.379   0.356   7.309
   40POPC   C2B  851   6.185   0.471   6.961
   40POPC   C3B  852   6.354   0.532   6.568
   40POPC   C4B  853   6.428   0.283   6.230
   41POPC   NC3  854   8.913   7.372   8.177
   41POPC   PO4  855   8.454   6.872   8.206
   41POPC   GL1  856   8.627   7.159   7.806
   41POPC   GL2  857   9.037   7.272   7.698
   41POPC   C1A  858   8.693   7.420   7.384
   41POPC   D2A  859   8.963   7.406   7.036
   41POPC   C3A  860   8.844   7.413   6.630
   41POPC   C4A  861   8.742   7.493   6.219
   41POPC   C1B  862   9.221   7.620   7.397
   41POPC   C2B  863   9.398   7.703   6.941
   41POPC   C3B  864   9.208   7.733   6.472
   41POPC   C4B  865   9.215   7.690   5.982
   42POPC   NC3  866   2.441   3.713   8.228
   42POPC   PO4  867   1.826   3.980   8.390
   42POPC   GL1  868   1.806   3.868   7.923
   42POPC   GL2  869   1.835   3.490   7.845
   42POPC   C1A  870   1.764   3.868   7.461
   42POPC   D2A  871   2.014   3.630   7.152
   42POPC   C3A  872   1.839   3.603   6.733
   42POPC   C4A  873   1.643   3.807   6.387
   42POPC   C1B  874   1.700   3.318   7.415
   42POPC   C2B  875   1.560   3.156   6.984
   42POPC   C3B  876   1.723   3.119   6.543
   42POPC   C4B  877   1.962   3.382   6.254
   43POPC   NC3  878   1.027   3.078   8.102
   43POPC   PO4  879   0.721   2.518   7.996
   43POPC   GL1  880   0.909   2.774   7.701
   43POPC   GL2  881   1.276   2.780   7.748
   43POPC   C1A  882   0.922   2.743   7.281
   43POPC   D2A  883   0.804   2.569   6.920
   43POPC   C3A  884   0.907   2.793   6.571
   43POPC   C4A  885   1.025   2.661   6.150
   43POPC   C1B  886   1.494   2.732   7.345
   43POPC   C2B  887   1.313   2.689   6.935
   43POPC   C3B  888   1.417   2.701   6.526
   43POPC   C4B  889   1.452   2.926   6.149
   44POPC   NC3  890   9.413   1.831   7.957
   44POPC   PO4  891   9.961   2.244   8.079
   44POPC   GL1  892   9.749   2.173   7.702
   44POPC   GL2  893   9.867   1.827   7.708
   44POPC   C1A  894   9.540   2.255   7.285
   44POPC   D2A  895   9.531   2.471   6.857
   44POPC   C3A  896   9.864   2.423   6.489
   44POPC   C4A  897   9.774   2.290   5.995
   44POPC   C1B  898   9.843   1.733   7.259
   44POPC   C2B  899   9.900   1.477   6.860
   44POPC   C3B  900   9.878   1.580   6.423
   44POPC   C4B  901   9.689   1.969   6.367
   45POPC   NC3  902   0.304   2.556   8.214
   45POPC   PO4  903   0.512   3.180   8.141
   45POPC   GL1  904   0.378   2.929   7.763
   45POPC   GL2  905   0.148   2.614   7.717
   45POPC   C1A  906   0.238   3.037   7.331
   45POPC   D2A  907   0.516   2.980   6.979
   45POPC   C3A  908   0.482   3.077   6.562
   45POPC   C4A  909   0.556   2.849   6.190
   45POPC   C1B  910   0.420   2.560   7.322
   45POPC   C2B  911   0.301   2.519   6.865
   45POPC   C3B  912   0.389   2.430   6.429
   45POPC   C4B  913   0.215   2.525   6.003
   46POPC   NC3  914   8.149   7.156   8.376
   46POPC   PO4  915   7.901   6.584   8.069
   46POPC   GL1  916   8.186   6.825   7.779
   46POPC   GL2  917   8.458   6.605   7.688
   46POPC   C1A  918   8.433   6.990   7.367
   46POPC   D2A  919   8.607   7.057   6.924
   46POPC   C3A  920   8.405   7.160   6.507
   46POPC   C4A  921   8.195   6.907   6.151
   46POPC   C1B  922   8.122   6.580   7.354
   46POPC   C2B  923   8.190   6.780   6.976
   46POPC   C3B  924   8.371   6.667   6.609
   46POPC   C4B  925   8.076   6.458   6.384
   47POPC   NC3  926   4.982   1.489   8.369
   47POPC   PO4  927   4.483   1.836   8.136
   47POPC   GL1  928   4.763   1.789   7.794
   47POPC   GL2  929   5.072   1.846   7.978
   47POPC   C1A  930   4.765   1.825   7.335
   47POPC   D2A  931   4.990   1.884   6.925
   47POPC   C3A  932   4.733   2.010   6.558
   47POPC   C4A  933   4.832   2.369   6.329
   47POPC   C1B  934   5.246   1.930   7.533
   47POPC   C2B  935   5.455   2.053   7.118
   47POPC   C3B  936   5.369   2.155   6.667
   47POPC   C4B  937   5.180   1.970   6.302
   48POPC   NC3  938   2.624   4.576   8.002
   48POPC   PO4  939   2.729   5.225   8.098
   48POPC   GL1  940   2.524   5.173   7.679
   48POPC   GL2  941   2.411   4.808   7.579
   48POPC   C1A  942   2.529   5.165   7.205
   48POPC   D2A  943   2.609   4.954   6.806
   48POPC   C3A  944   2.635   5.155   6.418
   48POPC   C4A  945   2.435   5.175   6.024
   48POPC   C1B  946   2.214   4.721   7.151
   48POPC   C2B  947   2.323   4.535   6.731
   48POPC   C3B  948   2.659   4.630   6.375
   48POPC   C4B  949   2.898   4.906   6.022
   49POPC   NC3  950   4.284   2.275   8.166
   49POPC   PO4  951   3.750   1.778   8.214
   49POPC   GL1  952   4.034   1.925   7.867
   49POPC   GL2  953   4.246   1.673   7.716
   49POPC   C1A  954   4.103   2.070   7.414
   49POPC   D2A  955   3.944   2.186   6.988
   49POPC   C3A  956   4.119   2.062   6.552
   49POPC   C4A  957   4.358   2.174   6.158
   49POPC   C1B  958   4.296   1.611   7.291
   49POPC   C2B  959   4.388   1.847   6.953
   49POPC   C3B  960   4.407   1.615   6.589
   49POPC   C4B  961   4.525   1.681   6.171
   50POPC   NC3  962   6.379   7.312   7.996
   50POPC   PO4  963   6.848   7.120   8.447
   50POPC   GL1  964   6.823   7.165   7.823
   50POPC   GL2  965   7.050   7.411   7.676
   50POPC   C1A  966   6.711   7.198   7.347
   50POPC   D2A  967   6.493   7.286   6.928
   50POPC   C3A  968   6.654   7.295   6.492
   50POPC   C4A  969   6.599   7.157   6.045
   50POPC   C1B  970   7.099   7.495   7.241
   50POPC   C2B  971   7.061   7.286   6.869
   50POPC   C3B  972   7.120   7.479   6.474
   50POPC   C4B  973   6.826   7.616   6.117
   51POPC   NC3  974   9.712   2.631   8.047
   51POPC   PO4  975   9.172   3.078   8.201
   51POPC   GL1  976   9.368   2.955   7.737
   51POPC   GL2  977   9.614   2.678   7.575
   51POPC   C1A  978   9.299   2.863   7.250
   51POPC   D2A  979   9.474   3.069   6.900
   51POPC   C3A  980   9.527   2.865   6.532
   51POPC   C4A  981   9.278   2.918   6.164
   51POPC   C1B  982   9.891   2.660   7.219
   51POPC   C2B  983   9.986   2.927   6.851
   51POPC   C3B  984   0.042   2.887   6.402
   51POPC   C4B  985   9.761   2.784   6.069
   52POPC   NC3  986   6.672   1.857   8.303
   52POPC   PO4  987   7.095   1.385   8.201
   52POPC   GL1  988   6.823   1.542   7.888
   52POPC   GL2  989   6.764   1.916   7.785
   52POPC   C1A  990   6.771   1.468   7.447
   52POPC   D2A  991   6.467   1.452   7.108
   52POPC   C3A  992   6.600   1.558   6.683
   52POPC   C4A  993   6.854   1.809   6.380
   52POPC   C1B  994   6.471   1.922   7.391
   52POPC   C2B  995   6.317   1.928   6.927
   52POPC   C3B  996   6.306   1.959   6.454
   52POPC   C4B  997   6.606   2.159   6.121
   53POPC   NC3  998   0.228   3.481   7.928
   53POPC   PO4  999   9.874   3.005   8.265
   53POPC   GL1 1000   9.872   3.079   7.804
   53POPC   GL2 1001   9.698   3.406   7.779
   53POPC   C1A 1002   9.744   3.158   7.346
   53POPC   D2A 1003   9.981   3.423   7.034
   53POPC   C3A 1004   9.756   3.469   6.633
   53POPC   C4A 1005   9.682   3.250   6.249
   53POPC   C1B 1006   9.710   3.715   7.404
   53POPC   C2B 1007   9.749   3.883   6.962
   53POPC   C3B 1008   9.553   3.973   6.559
   53POPC   C4B 1009   9.431   3.680   6.226
   54POPC   NC3 1010   6.994   8.766   8.467
   54POPC   PO4 1011   6.430   9.087   8.346
   54POPC   GL1 1012   6.456   8.965   7.880
   54POPC   GL2 1013   6.764   8.724   7.828
   54POPC   C1A 1014   6.343   9.065   7.407
   54POPC   D2A 1015   6.528   9.135   6.964
   54POPC   C3A 1016   6.266   9.124   6.607
   54POPC   C4A 1017   6.273   8.823   6.301
   54POPC   C1B 1018   6.850   9.108   7.567
   54POPC   C2B 1019   7.116   9.240   7.177
   54POPC   C3B 1020   7.100   9.173   6.710
   54POPC   C4B 1021   6.739   9.002   6.428
   55POPC   NC3 1022   9.655   0.346   7.813
   55POPC   PO4 1023   9.254   0.728   8.220
   55POPC   GL1 1024   9.528   0.825   7.788
   55POPC   GL2 1025   9.900   0.841   7.687
   55POPC   C1A 1026   9.480   0.756   7.309
   55POPC   D2A 1027   9.585   0.533   6.906
   55POPC   C3A 1028   9.382   0.712   6.551
   55POPC   C4A 1029   9.232   0.629   6.142
   55POPC   C1B 1030   9.953   0.565   7.286
   55POPC   C2B 1031   0.002   0.224   6.947
   55POPC   C3B 1032   9.948   0.399   6.535
   55POPC   C4B 1033   9.596   0.300   6.312
   56POPC   NC3 1034   0.076   5.835   8.025
   56POPC   PO4 1035   9.546   6.192   7.828
   56POPC   GL1 1036   9.931   6.033   7.568
   56POPC   GL2 1037   0.112   5.701   7.524
   56POPC   C1A 1038   0.101   6.057   7.154
   56POPC   D2A 1039   0.048   5.870   6.746
   56POPC   C3A 1040   9.720   6.063   6.502
   56POPC   C4A 1041   9.722   5.987   6.089
   56POPC   C1B 1042   9.764   5.655   7.215
   56POPC   C2B 1043   9.588   5.570   6.798
   56POPC   C3B 1044   9.643   5.566   6.358
   56POPC   C4B 1045   9.386   5.635   5.951
   57POPC   NC3 1046   8.153   9.585   8.128
   57POPC   PO4 1047   8.636   0.021   7.982
   57POPC   GL1 1048   8.269   9.844   7.678
   57POPC   GL2 1049   8.267   9.434   7.650
   57POPC   C1A 1050   7.901   9.958   7.350
   57POPC   D2A 1051   7.695   9.985   6.908
   57POPC   C3A 1052   7.840   9.935   6.451
   57POPC   C4A 1053   8.161   9.844   6.133
   57POPC   C1B 1054   8.012   9.458   7.253
   57POPC   C2B 1055   7.995   9.566   6.791
   57POPC   C3B 1056   7.937   9.428   6.357
   57POPC   C4B 1057   8.091   9.381   5.903
   58POPC   NC3 1058   3.785   7.527   8.078
   58POPC   PO4 1059   3.686   6.927   8.110
   58POPC   GL1 1060   3.850   7.198   7.677
   58POPC   GL2 1061   3.699   7.522   7.573
   58POPC   C1A 1062   3.887   7.325   7.168
   58POPC   D2A 1063   3.572   7.455   6.850
   58POPC   C3A 1064   3.355   7.186   6.566
   58POPC   C4A 1065   3.438   7.096   6.132
   58POPC   C1B 1066   3.372   7.662   7.288
   58POPC   C2B 1067   3.042   7.555   6.991
   58POPC   C3B 1068   3.203   7.679   6.575
   58POPC   C4B 1069   3.565   7.595   6.301
   59POPC   NC3 1070   8.820   2.225   7.848
   59POPC   PO4 1071   9.000   1.618   8.054
   59POPC   GL1 1072   9.055   1.645   7.598
   59POPC   GL2 1073   8.771   1.839   7.510
   59POPC   C1A 1074   9.342   1.631   7.211
   59POPC   D2A 1075   9.493   1.927   6.860
   59POPC   C3A 1076   9.199   1.950   6.476
   59POPC   C4A 1077   8.973   1.699   6.176
   59POPC   C1B 1078   9.063   2.065   7.252
   59POPC   C2B 1079   9.023   2.247   6.853
   59POPC   C3B 1080   8.700   2.091   6.564
   59POPC   C4B 1081   8.516   1.724   6.382
   60POPC   NC3 1082   6.685   1.123   8.245
   60POPC   PO4 1083   6.077   0.783   8.314
   60POPC   GL1 1084   6.280   0.814   7.887
   60POPC   GL2 1085   6.575   1.029   7.752
   60POPC   C1A 1086   6.203   0.813   7.416
   60POPC   D2A 1087   6.362   0.937   6.995
   60POPC   C3A 1088   6.093   0.947   6.629
   60POPC   C4A 1089   6.262   0.956   6.213
   60POPC   C1B 1090   6.750   0.956   7.331
   60POPC   C2B 1091   6.827   1.137   6.917
   60POPC   C3B 1092   6.641   1.032   6.544
   60POPC   C4B 1093   6.584   1.351   6.218
   61POPC   NC3 1094   1.048   4.051   7.873
   61POPC   PO4 1095   0.917   4.684   7.946
   61POPC   GL1 1096   0.864   4.443   7.584
   61POPC   GL2 1097   1.224   4.379   7.529
   61POPC   C1A 1098   0.861   4.418   7.114
   61POPC   D2A 1099   0.836   4.645   6.748
   61POPC   C3A 1100   0.889   4.486   6.346
   61POPC   C4A 1101   1.016   4.379   5.909
   61POPC   C1B 1102   1.250   4.098   7.174
   61POPC   C2B 1103   1.154   4.189   6.716
   61POPC   C3B 1104   1.333   4.230   6.301
   61POPC   C4B 1105   1.342   3.976   5.926
   62POPC   NC3 1106   7.617   3.311   8.221
   62POPC   PO4 1107   7.158   3.787   8.017
   62POPC   GL1 1108   7.413   3.485   7.782
   62POPC   GL2 1109   7.185   3.237   7.654
   62POPC   C1A 1110   7.661   3.271   7.456
   62POPC   D2A 1111   7.476   3.059   7.077
   62POPC   C3A 1112   7.547   3.273   6.659
   62POPC   C4A 1113   7.710   3.363   6.255
   62POPC   C1B 1114   7.222   3.462   7.276
   62POPC   C2B 1115   7.135   3.504   6.857
   62POPC   C3B 1116   7.043   3.462   6.444
   62POPC   C4B 1117   7.271   3.506   6.032
   63POPC   NC3 1118   1.918   2.862   8.186
   63POPC   PO4 1119   2.488   3.243   8.258
   63POPC   GL1 1120   2.294   3.073   7.830
   63POPC   GL2 1121   2.174   2.728   7.749
   63POPC   C1A 1122   2.148   3.064   7.351
   63POPC   D2A 1123   2.069   3.174   6.912
   63POPC   C3A 1124   2.221   2.959   6.520
   63POPC   C4A 1125   2.126   2.927   6.065
   63POPC   C1B 1126   2.017   2.568   7.337
   63POPC   C2B 1127   1.864   2.696   6.907
   63POPC   C3B 1128   1.909   2.564   6.472
   63POPC   C4B 1129   1.799   2.547   6.021
   64POPC   NC3 1130   8.056   7.827   7.933
   64POPC   PO4 1131   8.258   8.406   8.282
   64POPC   GL1 1132   8.397   8.453   7.825
   64POPC   GL2 1133   8.325   8.125   7.640
   64POPC   C1A 1134   8.394   8.485   7.328
   64POPC   D2A 1135   8.409   8.130   7.035
   64POPC   C3A 1136   8.424   8.314   6.653
   64POPC   C4A 1137   8.360   8.158   6.265
   64POPC   C1B 1138   7.979   8.089   7.300
   64POPC   C2B 1139   7.962   7.827   6.887
   64POPC   C3B 1140   7.854   7.964   6.474
   64POPC   C4B 1141   7.997   7.874   6.068
   65POPC   NC3 1142   4.233   9.786   8.177
   65POPC   PO4 1143   4.753   9.288   8.249
   65POPC   GL1 1144   4.483   9.457   7.857
   65POPC   GL2 1145   4.427   9.840   7.720
   65POPC   C1A 1146   4.470   9.384   7.406
   65POPC   D2A 1147   4.481   9.654   7.021
   65POPC   C3A 1148   4.397   9.502   6.556
   65POPC   C4A 1149   4.638   9.329   6.211
   65POPC   C1B 1150   4.069   9.695   7.500
   65POPC   C2B 1151   3.962   9.821   7.081
   65POPC   C3B 1152   4.176   9.940   6.667
   65POPC   C4B 1153   4.085   9.823   6.205
   66POPC   NC3 1154   2.057   1.223   8.098
   66POPC   PO4 1155   1.557   0.817   8.122
   66POPC   GL1 1156   1.756   0.962   7.755
   66POPC   GL2 1157   2.124   0.975   7.630
   66POPC   C1A 1158   1.662   1.180   7.383
   66POPC   D2A 1159   1.743   1.059   6.978
   66POPC   C3A 1160   1.714   1.216   6.542
   66POPC   C4A 1161   1.989   1.074   6.201
   66POPC   C1B 1162   2.163   1.243   7.241
   66POPC   C2B 1163   2.146   1.332   6.785
   66POPC   C3B 1164   2.053   1.589   6.392
   66POPC   C4B 1165   1.959   1.612   5.928
   67POPC   NC3 1166   7.352   4.210   8.010
   67POPC   PO4 1167   7.609   4.773   7.920
   67POPC   GL1 1168   7.778   4.450   7.636
   67POPC   GL2 1169   7.770   4.055   7.714
   67POPC   C1A 1170   7.786   4.252   7.228
   67POPC   D2A 1171   7.702   4.049   6.855
   67POPC   C3A 1172   7.504   4.320   6.582
   67POPC   C4A 1173   7.467   4.489   6.198
   67POPC   C1B 1174   7.473   3.890   7.387
   67POPC   C2B 1175   7.198   4.008   7.015
   67POPC   C3B 1176   7.149   3.958   6.570
   67POPC   C4B 1177   7.530   3.776   6.455
   68POPC   NC3 1178   2.078   5.390   8.204
   68POPC   PO4 1179   2.252   4.771   8.221
   68POPC   GL1 1180   2.066   5.044   7.858
   68POPC   GL2 1181   1.734   5.064   7.760
   68POPC   C1A 1182   2.072   5.167   7.415
   68POPC   D2A 1183   2.023   5.379   7.045
   68POPC   C3A 1184   2.102   5.069   6.752
   68POPC   C4A 1185   2.209   4.881   6.369
   68POPC   C1B 1186   1.606   4.963   7.319
   68POPC   C2B 1187   1.586   5.078   6.866
   68POPC   C3B 1188   1.694   4.955   6.427
   68POPC   C4B 1189   1.863   4.699   6.063
   69POPC   NC3 1190   7.931   2.797   7.978
   69POPC   PO4 1191   8.476   2.468   8.002
   69POPC   GL1 1192   8.376   2.719   7.677
   69POPC   GL2 1193   8.385   3.044   7.771
   69POPC   C1A 1194   8.305   2.630   7.258
   69POPC   D2A 1195   8.456   2.485   6.856
   69POPC   C3A 1196   8.129   2.556   6.561
   69POPC   C4A 1197   7.890   2.478   6.192
   69POPC   C1B 1198   8.154   3.152   7.379
   69POPC   C2B 1199   7.963   3.120   6.949
   69POPC   C3B 1200   8.066   3.097   6.500
   69POPC   C4B 1201   8.246   2.853   6.152
   70POPC   NC3 1202   1.138   7.332   8.185
   70POPC   PO4 1203   1.694   6.814   8.185
   70POPC   GL1 1204   1.562   7.098   7.756
   70POPC   GL2 1205   1.279   7.374   7.705
   70POPC   C1A 1206   1.506   7.277   7.276
   70POPC   D2A 1207   1.255   7.186   6.890
   70POPC   C3A 1208   1.403   7.289   6.461
   70POPC   C4A 1209   1.761   7.285   6.195
   70POPC   C1B 1210   1.007   7.495   7.315
   70POPC   C2B 1211   0.896   7.526   6.868
   70POPC   C3B 1212   0.876   7.236   6.488
   70POPC   C4B 1213   0.944   7.274   6.012
   71POPC   NC3 1214   0.653   9.666   8.226
   71POPC   PO4 1215   1.249   9.264   8.141
   71POPC   GL1 1216   1.315   9.419   7.720
   71POPC   GL2 1217   1.011   9.622   7.753
   71POPC   C1A 1218   1.244   9.340   7.262
   71POPC   D2A 1219   0.954   9.103   6.960
   71POPC   C3A 1220   0.940   9.241   6.503
   71POPC   C4A 1221   0.919   9.310   6.040
   71POPC   C1B 1222   1.283   9.847   7.453
   71POPC   C2B 1223   1.351   9.923   7.014
   71POPC   C3B 1224   1.056   9.936   6.670
   71POPC   C4B 1225   0.882   9.837   6.287
   72POPC   NC3 1226   6.737   6.808   8.144
   72POPC   PO4 1227   6.225   6.942   7.763
   72POPC   GL1 1228   6.608   6.755   7.574
   72POPC   GL2 1229   6.891   6.557   7.712
   72POPC   C1A 1230   6.610   6.748   7.108
   72POPC   D2A 1231   6.811   6.858   6.736
   72POPC   C3A 1232   6.523   6.793   6.430
   72POPC   C4A 1233   6.299   6.731   6.034
   72POPC   C1B 1234   6.938   6.391   7.263
   72POPC   C2B 1235   6.807   6.335   6.803
   72POPC   C3B 1236   6.644   6.239   6.351
   72POPC   C4B 1237   6.577   6.301   5.883
   73POPC   NC3 1238   7.564   6.334   7.868
   73POPC   PO4 1239   7.191   6.874   8.011
   73POPC   GL1 1240   7.244   6.907   7.605
   73POPC   GL2 1241   7.598   6.797   7.633
   73POPC   C1A 1242   7.105   6.866   7.173
   73POPC   D2A 1243   7.249   6.584   6.837
   73POPC   C3A 1244   7.069   6.524   6.407
   73POPC   C4A 1245   6.838   6.688   6.064
   73POPC   C1B 1246   7.624   6.689   7.218
   73POPC   C2B 1247   7.765   6.580   6.815
   73POPC   C3B 1248   7.589   6.593   6.435
   73POPC   C4B 1249   7.500   6.222   6.238
   74POPC   NC3 1250   6.203   2.667   7.984
   74POPC   PO4 1251   6.696   2.302   8.175
   74POPC   GL1 1252   6.798   2.538   7.798
   74POPC   GL2 1253   6.805   2.910   7.782
   74POPC   C1A 1254   6.582   2.633   7.401
   74POPC   D2A 1255   6.350   2.422   7.097
   74POPC   C3A 1256   6.512   2.375   6.679
   74POPC   C4A 1257   6.385   2.561   6.298
   74POPC   C1B 1258   6.879   3.031   7.295
   74POPC   C2B 1259   6.731   2.825   6.891
   74POPC   C3B 1260   6.711   2.937   6.412
   74POPC   C4B 1261   6.435   2.973   6.002
   75POPC   NC3 1262   3.554   0.518   8.132
   75POPC   PO4 1263   3.904   1.083   8.135
   75POPC   GL1 1264   4.011   0.758   7.778
   75POPC   GL2 1265   3.737   0.535   7.665
   75POPC   C1A 1266   4.000   0.755   7.307
   75POPC   D2A 1267   3.585   0.781   7.072
   75POPC   C3A 1268   3.580   0.567   6.679
   75POPC   C4A 1269   3.722   0.669   6.252
   75POPC   C1B 1270   3.362   0.445   7.427
   75POPC   C2B 1271   3.185   0.409   7.024
   75POPC   C3B 1272   3.207   0.210   6.633
   75POPC   C4B 1273   3.245   0.492   6.276
   76POPC   NC3 1274   2.489   2.042   8.222
   76POPC   PO4 1275   3.003   2.433   8.331
   76POPC   GL1 1276   3.078   2.323   7.848
   76POPC   GL2 1277   2.863   2.015   7.809
   76POPC   C1A 1278   3.030   2.186   7.347
   76POPC   D2A 1279   2.728   2.090   6.952
   76POPC   C3A 1280   2.839   2.094   6.475
   76POPC   C4A 1281   3.035   2.048   6.031
   76POPC   C1B 1282   2.685   1.814   7.413
   76POPC   C2B 1283   2.467   1.650   7.040
   76POPC   C3B 1284   2.549   1.612   6.580
   76POPC   C4B 1285   2.824   1.629   6.203
   77POPC   NC3 1286   1.405   4.700   7.939
   77POPC   PO4 1287   1.400   5.252   8.086
   77POPC   GL1 1288   1.213   5.108   7.708
   77POPC   GL2 1289   1.127   5.441   7.669
   77POPC   C1A 1290   1.101   4.826   7.331
   77POPC   D2A 1291   1.333   4.599   7.008
   77POPC   C3A 1292   1.308   4.679   6.575
   77POPC   C4A 1293   1.269   4.815   6.137
   77POPC   C1B 1294   1.211   5.296   7.233
   77POPC   C2B 1295   1.076   5.073   6.873
   77POPC   C3B 1296   1.165   5.190   6.478
   77POPC   C4B 1297   1.385   5.337   6.126
   78POPC   NC3 1298   8.007   0.930   8.021
   78POPC   PO4 1299   8.025   1.553   8.266
   78POPC   GL1 1300   8.243   1.334   7.840
   78POPC   GL2 1301   8.567   1.432   7.731
   78POPC   C1A 1302   8.129   1.089   7.396
   78POPC   D2A 1303   8.283   1.048   6.949
   78POPC   C3A 1304   8.141   0.878   6.523
   78POPC   C4A 1305   7.892   0.955   6.103
   78POPC   C1B 1306   8.311   1.569   7.353
   78POPC   C2B 1307   7.939   1.447   7.069
   78POPC   C3B 1308   7.901   1.335   6.628
   78POPC   C4B 1309   8.155   1.358   6.242
   79POPC   NC3 1310   1.938   0.565   8.059
   79POPC   PO4 1311   1.943   9.918   8.091
   79POPC   GL1 1312   1.650   0.058   7.758
   79POPC   GL2 1313   1.584   0.442   7.711
   79POPC   C1A 1314   1.756   0.119   7.322
   79POPC   D2A 1315   2.155   0.229   7.072
   79POPC   C3A 1316   2.118   0.227   6.622
   79POPC   C4A 1317   2.033   0.184   6.190
   79POPC   C1B 1318   1.841   0.648   7.354
   79POPC   C2B 1319   2.150   0.768   7.014
   79POPC   C3B 1320   1.990   0.776   6.612
   79POPC   C4B 1321   1.732   0.577   6.283
   80POPC   NC3 1322   5.151   9.599   8.346
   80POPC   PO4 1323   4.632   0.069   8.194
   80POPC   GL1 1324   4.865   9.772   7.958
   80POPC   GL2 1325   5.150   9.894   7.888
   80POPC   C1A 1326   4.872   9.698   7.482
   80POPC   D2A 1327   5.058   9.769   7.055
   80POPC   C3A 1328   4.807   9.800   6.660
   80POPC   C4A 1329   4.620   9.858   6.238
   80POPC   C1B 1330   5.338   9.550   7.641
   80POPC   C2B 1331   5.417   9.441   7.192
   80POPC   C3B 1332   5.292   9.450   6.728
   80POPC   C4B 1333   5.083   9.557   6.311
   81POPC   NC3 1334   1.035   8.838   8.132
   81POPC   PO4 1335   1.562   8.396   8.088
   81POPC   GL1 1336   1.527   8.848   7.858
   81POPC   GL2 1337   1.194   8.936   7.667
   81POPC   C1A 1338   1.620   9.035   7.430
   81POPC   D2A 1339   1.377   8.796   7.097
   81POPC   C3A 1340   1.280   8.816   6.632
   81POPC   C4A 1341   1.364   9.042   6.206
   81POPC   C1B 1342   1.019   8.610   7.421
   81POPC   C2B 1343   0.893   8.556   7.002
   81POPC   C3B 1344   0.740   8.747   6.639
   81POPC   C4B 1345   0.935   8.761   6.252
   82POPC   NC3 1346   9.516   8.920   8.204
   82POPC   PO4 1347   9.957   8.453   8.166
   82POPC   GL1 1348   9.828   8.680   7.818
   82POPC   GL2 1349   9.505   8.544   7.839
   82POPC   C1A 1350   9.989   8.846   7.396
   82POPC   D2A 1351   9.980   9.181   7.042
   82POPC   C3A 1352   9.843   8.998   6.623
   82POPC   C4A 1353   9.849   8.737   6.178
   82POPC   C1B 1354   9.501   8.626   7.395
   82POPC   C2B 1355   9.669   8.664   6.979
   82POPC   C3B 1356   9.483   8.649   6.522
   82POPC   C4B 1357   9.479   9.081   6.237
   83POPC   NC3 1358   2.491   5.611   7.984
   83POPC   PO4 1359   1.933   5.732   8.457
   83POPC   GL1 1360   1.801   5.716   7.912
   83POPC   GL2 1361   2.055   5.566   7.710
   83POPC   C1A 1362   1.857   5.980   7.482
   83POPC   D2A 1363   2.100   6.070   7.077
   83POPC   C3A 1364   2.068   5.847   6.695
   83POPC   C4A 1365   1.744   5.971   6.404
   83POPC   C1B 1366   1.660   5.503   7.427
   83POPC   C2B 1367   1.578   5.608   6.957
   83POPC   C3B 1368   1.758   5.461   6.540
   83POPC   C4B 1369   2.205   5.426   6.404
   84POPC   NC3 1370   7.511   5.219   7.930
   84POPC   PO4 1371   7.558   5.874   7.862
   84POPC   GL1 1372   7.801   5.488   7.583
   84POPC   GL2 1373   7.833   5.077   7.569
   84POPC   C1A 1374   7.711   5.305   7.127
   84POPC   D2A 1375   7.721   5.129   6.672
   84POPC   C3A 1376   7.609   5.415   6.334
   84POPC   C4A 1377   7.634   5.660   5.919
   84POPC   C1B 1378   7.662   4.802   7.252
   84POPC   C2B 1379   7.404   4.714   6.902
   84POPC   C3B 1380   7.319   4.846   6.506
   84POPC   C4B 1381   7.438   5.004   6.100
   85POPC   NC3 1382   1.262   6.661   8.286
   85POPC   PO4 1383   0.754   7.087   8.336
   85POPC   GL1 1384   0.923   7.024   7.830
   85POPC   GL2 1385   1.201   6.760   7.785
   85POPC   C1A 1386   1.099   6.985   7.358
   85POPC   D2A 1387   1.222   6.674   7.005
   85POPC   C3A 1388   1.307   6.781   6.550
   85POPC   C4A 1389   1.159   6.580   6.167
   85POPC   C1B 1390   1.546   6.567   7.564
   85POPC   C2B 1391   1.646   6.403   7.159
   85POPC   C3B 1392   1.649   6.421   6.716
   85POPC   C4B 1393   1.643   6.480   6.281
   86POPC   NC3 1394   0.304   8.737   8.055
   86POPC   PO4 1395   0.295   9.355   8.123
   86POPC   GL1 1396   0.707   9.191   7.905
   86POPC   GL2 1397   0.685   8.845   7.735
   86POPC   C1A 1398   0.782   9.257   7.449
   86POPC   D2A 1399   0.491   9.303   7.077
   86POPC   C3A 1400   0.424   9.166   6.657
   86POPC   C4A 1401   0.533   9.058   6.236
   86POPC   C1B 1402   0.533   8.828   7.291
   86POPC   C2B 1403   0.243   8.764   6.934
   86POPC   C3B 1404   0.257   8.711   6.482
   86POPC   C4B 1405   0.430   8.574   6.108
   87POPC   NC3 1406   0.455   7.428   8.243
   87POPC   PO4 1407   9.919   7.028   8.230
   87POPC   GL1 1408   0.102   7.187   7.840
   87POPC   GL2 1409   0.042   7.533   7.780
   87POPC   C1A 1410   0.167   6.986   7.402
   87POPC   D2A 1411   0.144   6.852   6.956
   87POPC   C3A 1412   0.367   7.011   6.577
   87POPC   C4A 1413   0.409   7.256   6.205
   87POPC   C1B 1414   0.382   7.441   7.443
   87POPC   C2B 1415   0.420   7.340   6.981
   87POPC   C3B 1416   0.495   7.580   6.578
   87POPC   C4B 1417   0.805   7.729   6.273
   88POPC   NC3 1418   8.224   0.287   7.992
   88POPC   PO4 1419   7.640   0.644   8.108
   88POPC   GL1 1420   7.890   0.557   7.717
   88POPC   GL2 1421   8.241   0.647   7.609
   88POPC   C1A 1422   7.842   0.496   7.324
   88POPC   D2A 1423   8.084   0.558   6.959
   88POPC   C3A 1424   7.908   0.412   6.603
   88POPC   C4A 1425   7.722   0.499   6.209
   88POPC   C1B 1426   8.309   0.281   7.345
   88POPC   C2B 1427   8.225   0.036   6.956
   88POPC   C3B 1428   8.355   0.093   6.533
   88POPC   C4B 1429   8.230   0.377   6.203
   89POPC   NC3 1430   5.039   1.023   8.117
   89POPC   PO4 1431   5.441   1.558   8.212
   89POPC   GL1 1432   5.374   1.494   7.747
   89POPC   GL2 1433   5.078   1.368   7.764
   89POPC   C1A 1434   5.138   1.480   7.280
   89POPC   D2A 1435   4.757   1.445   6.964
   89POPC   C3A 1436   4.929   1.539   6.527
   89POPC   C4A 1437   5.408   1.510   6.401
   89POPC   C1B 1438   5.105   1.001   7.478
   89POPC   C2B 1439   4.932   0.976   7.094
   89POPC   C3B 1440   5.071   1.099   6.698
   89POPC   C4B 1441   5.156   1.087   6.258
   90POPC   NC3 1442   5.326   7.919   8.161
   90POPC   PO4 1443   4.860   8.426   8.276
   90POPC   GL1 1444   4.808   8.249   7.866
   90POPC   GL2 1445   5.154   8.276   7.806
   90POPC   C1A 1446   4.836   8.339   7.411
   90POPC   D2A 1447   5.128   8.320   7.062
   90POPC   C3A 1448   4.999   8.479   6.689
   90POPC   C4A 1449   4.763   8.343   6.331
   90POPC   C1B 1450   5.204   7.971   7.461
   90POPC   C2B 1451   5.033   7.818   7.055
   90POPC   C3B 1452   4.928   7.943   6.651
   90POPC   C4B 1453   5.240   8.127   6.417
   91POPC   NC3 1454   9.658   7.450   8.267
   91POPC   PO4 1455   9.222   7.039   8.120
   91POPC   GL1 1456   9.541   7.200   7.843
   91POPC   GL2 1457   9.501   7.543   7.799
   91POPC   C1A 1458   9.702   7.215   7.424
   91POPC   D2A 1459   9.627   6.936   7.056
   91POPC   C3A 1460   9.613   7.106   6.650
   91POPC   C4A 1461   9.905   7.100   6.296
   91POPC   C1B 1462   9.723   7.745   7.426
   91POPC   C2B 1463   9.974   7.582   7.092
   91POPC   C3B 1464   0.000   7.448   6.658
   91POPC   C4B 1465   9.675   7.558   6.330
   92POPC   NC3 1466   7.889   1.810   7.912
   92POPC   PO4 1467   7.635   2.430   7.985
   92POPC   GL1 1468   7.988   2.371   7.662
   92POPC   GL2 1469   8.348   2.193   7.593
   92POPC   C1A 1470   7.994   2.231   7.233
   92POPC   D2A 1471   7.830   1.984   6.925
   92POPC   C3A 1472   7.685   2.229   6.591
   92POPC   C4A 1473   7.572   2.075   6.209
   92POPC   C1B 1474   8.481   2.057   7.156
   92POPC   C2B 1475   8.284   1.757   6.839
   92POPC   C3B 1476   8.022   1.832   6.456
   92POPC   C4B 1477   8.257   2.150   6.248
   93POPC   NC3 1478   1.231   8.039   8.121
   93POPC   PO4 1479   0.689   8.492   8.124
   93POPC   GL1 1480   0.891   8.221   7.743
   93POPC   GL2 1481   1.018   7.847   7.705
   93POPC   C1A 1482   0.998   8.109   7.277
   93POPC   D2A 1483   0.881   8.038   6.844
   93POPC   C3A 1484   1.032   8.326   6.551
   93POPC   C4A 1485   1.317   8.268   6.255
   93POPC   C1B 1486   1.399   7.801   7.425
   93POPC   C2B 1487   1.363   7.754   6.967
   93POPC   C3B 1488   1.294   7.802   6.506
   93POPC   C4B 1489   1.594   7.860   6.138
   94POPC   NC3 1490   0.787   2.111   8.187
   94POPC   PO4 1491   1.379   1.794   8.241
   94POPC   GL1 1492   1.129   1.892   7.858
   94POPC   GL2 1493   1.154   2.265   7.842
   94POPC   C1A 1494   1.057   1.805   7.386
   94POPC   D2A 1495   0.922   1.708   6.931
   94POPC   C3A 1496   1.145   1.818   6.528
   94POPC   C4A 1497   1.038   1.971   6.083
   94POPC   C1B 1498   1.159   2.315   7.393
   94POPC   C2B 1499   1.121   2.179   6.956
   94POPC   C3B 1500   1.066   2.309   6.524
   94POPC   C4B 1501   1.395   2.310   6.196
   95POPC   NC3 1502   8.303   3.860   8.135
   95POPC   PO4 1503   8.061   3.228   8.115
   95POPC   GL1 1504   8.027   3.527   7.798
   95POPC   GL2 1505   8.373   3.572   7.731
   95POPC   C1A 1506   7.976   3.683   7.378
   95POPC   D2A 1507   7.705   3.574   7.041
   95POPC   C3A 1508   7.953   3.591   6.681
   95POPC   C4A 1509   8.115   3.734   6.319
   95POPC   C1B 1510   8.551   3.508   7.354
   95POPC   C2B 1511   8.329   3.501   7.011
   95POPC   C3B 1512   8.469   3.428   6.620
   95POPC   C4B 1513   8.430   3.348   6.199
   96POPC   NC3 1514   8.196   8.875   8.176
   96POPC   PO4 1515   7.892   8.265   7.918
   96POPC   GL1 1516   7.960   8.574   7.588
   96POPC   GL2 1517   8.016   8.910   7.703
   96POPC   C1A 1518   7.808   8.590   7.174
   96POPC   D2A 1519   7.938   8.332   6.835
   96POPC   C3A 1520   7.955   8.501   6.417
   96POPC   C4A 1521   7.649   8.680   6.118
   96POPC   C1B 1522   8.171   8.954   7.296
   96POPC   C2B 1523   8.233   8.755   6.896
   96POPC   C3B 1524   8.235   9.028   6.552
   96POPC   C4B 1525   8.044   8.967   6.182
   97POPC   NC3 1526   3.405   8.261   8.178
   97POPC   PO4 1527   3.355   7.596   7.939
   97POPC   GL1 1528   3.642   7.967   7.804
   97POPC   GL2 1529   3.562   8.318   7.712
   97POPC   C1A 1530   3.820   8.012   7.385
   97POPC   D2A 1531   3.671   7.932   6.975
   97POPC   C3A 1532   3.830   8.112   6.636
   97POPC   C4A 1533   3.683   8.090   6.266
   97POPC   C1B 1534   3.326   8.160   7.373
   97POPC   C2B 1535   3.190   8.045   6.963
   97POPC   C3B 1536   3.307   8.197   6.586
   97POPC   C4B 1537   3.262   8.359   6.171
   98POPC   NC3 1538   2.298   9.632   8.069
   98POPC   PO4 1539   2.936   9.924   8.141
   98POPC   GL1 1540   2.938   9.571   7.813
   98POPC   GL2 1541   2.598   9.499   7.677
   98POPC   C1A 1542   3.071   9.622   7.371
   98POPC   D2A 1543   2.823   9.648   6.979
   98POPC   C3A 1544   2.824   9.847   6.563
   98POPC   C4A 1545   2.487   9.971   6.280
   98POPC   C1B 1546   2.741   9.219   7.355
   98POPC   C2B 1547   2.934   9.148   6.948
   98POPC   C3B 1548   2.903   9.342   6.552
   98POPC   C4B 1549   2.596   9.467   6.241
   99POPC   NC3 1550   3.256   9.580   8.229
   99POPC   PO4 1551   3.931   9.370   8.146
   99POPC   GL1 1552   3.772   9.757   7.921
   99POPC   GL2 1553   3.454   9.657   7.778
   99POPC   C1A 1554   3.649   0.016   7.513
   99POPC   D2A 1555   3.434   9.958   7.094
   99POPC   C3A 1556   3.678   0.042   6.704
   99POPC   C4A 1557   3.644   0.179   6.284
   99POPC   C1B 1558   3.593   9.514   7.371
   99POPC   C2B 1559   3.363   9.455   6.975
   99POPC   C3B 1560   3.312   9.673   6.601
   99POPC   C4B 1561   3.570   9.695   6.238
  100POPC   NC3 1562   8.880   4.443   8.073
  100POPC   PO4 1563   9.466   4.545   8.380
  100POPC   GL1 1564   9.335   4.234   7.913
  100POPC   GL2 1565   8.999   4.224   7.650
  100POPC   C1A 1566   9.423   4.204   7.402
  100POPC   D2A 1567   9.249   4.058   6.979
  100POPC   C3A 1568   9.038   4.225   6.599
  100POPC   C4A 1569   9.114   4.368   6.166
  100POPC   C1B 1570   8.725   4.009   7.337
  100POPC   C2B 1571   8.734   3.821   6.941
  100POPC   C3B 1572   8.542   3.947   6.570
  100POPC   C4B 1573   8.685   4.092   6.171
  101POPC   NC3 1574   7.555   1.514   8.256
  101POPC   PO4 1575   7.127   1.989   8.354
  101POPC   GL1 1576   7.262   1.868   7.912
  101POPC   GL2 1577   7.231   2.205   7.736
  101POPC   C1A 1578   7.191   1.783   7.420
  101POPC   D2A 1579   7.042   1.660   6.951
  101POPC   C3A 1580   7.348   1.746   6.562
  101POPC   C4A 1581   7.290   1.644   6.107
  101POPC   C1B 1582   7.486   2.243   7.346
  101POPC   C2B 1583   7.330   2.089   6.950
  101POPC   C3B 1584   7.161   2.238   6.548
  101POPC   C4B 1585   7.312   2.551   6.263
  102POPC   NC3 1586   1.145   0.612   8.137
  102POPC   PO4 1587   0.949   0.023   8.096
  102POPC   GL1 1588   1.097   0.256   7.743
  102POPC   GL2 1589   0.917   0.568   7.677
  102POPC   C1A 1590   1.250   0.345   7.315
  102POPC   D2A 1591   1.106   0.397   6.886
  102POPC   C3A 1592   1.335   0.331   6.499
  102POPC   C4A 1593   1.316   0.075   6.139
  102POPC   C1B 1594   0.811   0.866   7.349
  102POPC   C2B 1595   0.744   0.740   6.929
  102POPC   C3B 1596   0.956   0.804   6.586
  102POPC   C4B 1597   0.871   0.853   6.181
  103POPC   NC3 1598   1.784   2.061   8.237
  103POPC   PO4 1599   2.279   1.626   8.147
  103POPC   GL1 1600   2.324   1.917   7.758
  103POPC   GL2 1601   2.092   2.198   7.764
  103POPC   C1A 1602   2.243   2.060   7.306
  103POPC   D2A 1603   2.027   2.050   6.909
  103POPC   C3A 1604   2.306   2.076   6.581
  103POPC   C4A 1605   2.414   1.922   6.190
  103POPC   C1B 1606   1.683   2.239   7.541
  103POPC   C2B 1607   1.601   2.289   7.095
  103POPC   C3B 1608   1.590   2.187   6.644
  103POPC   C4B 1609   1.887   2.085   6.266
  104POPC   NC3 1610   7.765   8.051   8.314
  104POPC   PO4 1611   7.208   8.482   8.178
  104POPC   GL1 1612   7.315   8.173   7.833
  104POPC   GL2 1613   7.505   8.343   7.552
  104POPC   C1A 1614   7.338   7.886   7.454
  104POPC   D2A 1615   7.527   8.039   7.051
  104POPC   C3A 1616   7.347   7.908   6.622
  104POPC   C4A 1617   7.285   7.844   6.176
  104POPC   C1B 1618   7.094   8.318   7.361
  104POPC   C2B 1619   7.089   8.244   6.922
  104POPC   C3B 1620   7.456   8.393   6.640
  104POPC   C4B 1621   7.200   8.335   6.301
  105POPC   NC3 1622   3.042   7.257   8.059
  105POPC   PO4 1623   3.068   7.947   8.192
  105POPC   GL1 1624   2.871   7.658   7.783
  105POPC   GL2 1625   3.046   7.419   7.571
  105POPC   C1A 1626   2.579   7.544   7.404
  105POPC   D2A 1627   2.419   7.545   6.960
  105POPC   C3A 1628   2.699   7.635   6.608
  105POPC   C4A 1629   2.579   7.579   6.190
  105POPC   C1B 1630   2.812   7.094   7.356
  105POPC   C2B 1631   2.642   7.078   6.948
  105POPC   C3B 1632   2.766   7.160   6.531
  105POPC   C4B 1633   3.017   7.343   6.204
  106POPC   NC3 1634   3.133   5.436   8.043
  106POPC   PO4 1635   2.823   5.916   8.040
  106POPC   GL1 1636   2.667   5.903   7.619
  106POPC   GL2 1637   2.375   6.075   7.612
  106POPC   C1A 1638   2.416   5.691   7.262
  106POPC   D2A 1639   2.464   5.506   6.826
  106POPC   C3A 1640   2.765   5.640   6.508
  106POPC   C4A 1641   3.028   5.414   6.215
  106POPC   C1B 1642   2.569   6.205   7.226
  106POPC   C2B 1643   2.554   6.033   6.807
  106POPC   C3B 1644   2.487   6.049   6.360
  106POPC   C4B 1645   2.433   6.141   5.934
  107POPC   NC3 1646   0.527   4.486   8.115
  107POPC   PO4 1647   0.213   3.895   8.169
  107POPC   GL1 1648   0.517   4.048   7.834
  107POPC   GL2 1649   0.340   4.268   7.673
  107POPC   C1A 1650   0.679   4.022   7.362
  107POPC   D2A 1651   0.800   3.916   6.965
  107POPC   C3A 1652   0.616   4.102   6.610
  107POPC   C4A 1653   0.403   3.988   6.232
  107POPC   C1B 1654   0.376   4.428   7.286
  107POPC   C2B 1655   0.386   4.468   6.867
  107POPC   C3B 1656   0.350   4.587   6.457
  107POPC   C4B 1657   0.008   4.606   6.168
  108POPC   NC3 1658   7.139   7.321   8.168
  108POPC   PO4 1659   7.730   7.561   8.200
  108POPC   GL1 1660   7.623   7.613   7.774
  108POPC   GL2 1661   7.549   7.309   7.692
  108POPC   C1A 1662   7.759   7.606   7.319
  108POPC   D2A 1663   7.520   7.541   6.915
  108POPC   C3A 1664   7.663   7.471   6.482
  108POPC   C4A 1665   7.652   7.506   6.009
  108POPC   C1B 1666   7.483   7.181   7.264
  108POPC   C2B 1667   7.503   7.032   6.847
  108POPC   C3B 1668   7.256   6.986   6.488
  108POPC   C4B 1669   7.105   7.138   6.110
  109POPC   NC3 1670   6.577   9.612   8.277
  109POPC   PO4 1671   6.240   9.900   7.796
  109POPC   GL1 1672   6.599   9.919   7.569
  109POPC   GL2 1673   6.696   9.611   7.746
  109POPC   C1A 1674   6.541   9.926   7.122
  109POPC   D2A 1675   6.602   0.109   6.764
  109POPC   C3A 1676   6.508   9.834   6.447
  109POPC   C4A 1677   6.314   9.814   6.038
  109POPC   C1B 1678   6.671   9.484   7.293
  109POPC   C2B 1679   6.830   9.593   6.841
  109POPC   C3B 1680   6.868   9.488   6.369
  109POPC   C4B 1681   6.459   9.363   6.202
  110POPC   NC3 1682   3.858   2.986   8.011
  110POPC   PO4 1683   4.412   2.723   8.173
  110POPC   GL1 1684   4.327   2.561   7.732
  110POPC   GL2 1685   4.001   2.476   7.703
  110POPC   C1A 1686   4.369   2.473   7.251
  110POPC   D2A 1687   4.446   2.360   6.800
  110POPC   C3A 1688   4.371   2.629   6.410
  110POPC   C4A 1689   4.371   3.011   6.107
  110POPC   C1B 1690   3.880   2.613   7.276
  110POPC   C2B 1691   3.981   2.664   6.799
  110POPC   C3B 1692   3.952   2.930   6.396
  110POPC   C4B 1693   3.789   3.339   6.232
  111POPC   NC3 1694   1.561   9.640   8.108
  111POPC   PO4 1695   2.168   9.191   8.103
  111POPC   GL1 1696   1.899   9.436   7.768
  111POPC   GL2 1697   2.084   9.738   7.618
  111POPC   C1A 1698   1.716   9.570   7.327
  111POPC   D2A 1699   1.866   9.809   6.918
  111POPC   C3A 1700   1.653   9.908   6.491
  111POPC   C4A 1701   1.727   9.819   6.005
  111POPC   C1B 1702   2.340   9.746   7.222
  111POPC   C2B 1703   2.352   9.774   6.754
  111POPC   C3B 1704   2.093   9.681   6.374
  111POPC   C4B 1705   2.165   9.526   5.953
  112POPC   NC3 1706   9.498   8.183   8.263
  112POPC   PO4 1707   0.031   7.753   8.269
  112POPC   GL1 1708   9.923   8.028   7.888
  112POPC   GL2 1709   9.580   8.037   7.805
  112POPC   C1A 1710   9.881   8.284   7.481
  112POPC   D2A 1711   9.874   8.129   7.046
  112POPC   C3A 1712   9.929   8.385   6.655
  112POPC   C4A 1713   9.900   8.216   6.224
  112POPC   C1B 1714   9.340   8.132   7.451
  112POPC   C2B 1715   9.351   8.247   7.034
  112POPC   C3B 1716   9.499   8.125   6.629
  112POPC   C4B 1717   9.347   8.166   6.209
  113POPC   NC3 1718   0.033   9.697   7.979
  113POPC   PO4 1719   0.437   0.055   8.385
  113POPC   GL1 1720   0.467   9.941   7.850
  113POPC   GL2 1721   0.485   9.614   7.717
  113POPC   C1A 1722   0.755   9.969   7.457
  113POPC   D2A 1723   0.878   9.677   7.115
  113POPC   C3A 1724   0.645   9.630   6.710
  113POPC   C4A 1725   0.454   9.570   6.293
  113POPC   C1B 1726   0.192   9.577   7.367
  113POPC   C2B 1727   0.200   9.728   6.942
  113POPC   C3B 1728   0.028   9.499   6.608
  113POPC   C4B 1729   0.069   9.223   6.238
  114POPC   NC3 1730   3.656   8.969   8.189
  114POPC   PO4 1731   3.111   8.576   8.036
  114POPC   GL1 1732   3.386   8.792   7.762
  114POPC   GL2 1733   3.454   9.151   7.767
  114POPC   C1A 1734   3.440   8.645   7.348
  114POPC   D2A 1735   3.571   8.430   6.976
  114POPC   C3A 1736   3.613   8.612   6.549
  114POPC   C4A 1737   3.459   8.814   6.164
  114POPC   C1B 1738   3.260   9.123   7.362
  114POPC   C2B 1739   3.385   8.935   6.943
  114POPC   C3B 1740   3.384   9.135   6.550
  114POPC   C4B 1741   3.747   9.230   6.316
  115POPC   NC3 1742   3.386   2.686   8.324
  115POPC   PO4 1743   3.466   3.259   8.046
  115POPC   GL1 1744   3.249   2.875   7.846
  115POPC   GL2 1745   3.517   2.682   7.701
  115POPC   C1A 1746   3.064   2.681   7.440
  115POPC   D2A 1747   2.888   2.586   7.005
  115POPC   C3A 1748   3.045   2.591   6.569
  115POPC   C4A 1749   3.086   2.541   6.126
  115POPC   C1B 1750   3.472   2.935   7.294
  115POPC   C2B 1751   3.376   2.886   6.826
  115POPC   C3B 1752   3.455   2.830   6.352
  115POPC   C4B 1753   3.416   2.907   5.884
  116POPC   NC3 1754   3.204   3.636   8.047
  116POPC   PO4 1755   2.692   4.097   8.084
  116POPC   GL1 1756   2.769   3.711   7.788
  116POPC   GL2 1757   2.760   3.338   7.852
  116POPC   C1A 1758   2.929   3.442   7.392
  116POPC   D2A 1759   2.963   3.186   6.997
  116POPC   C3A 1760   2.923   3.452   6.583
  116POPC   C4A 1761   3.039   3.577   6.137
  116POPC   C1B 1762   2.429   3.457   7.512
  116POPC   C2B 1763   2.491   3.440   7.050
  116POPC   C3B 1764   2.385   3.443   6.589
  116POPC   C4B 1765   2.520   3.266   6.173
  117POPC   NC3 1766   5.692   1.969   8.136
  117POPC   PO4 1767   6.268   1.524   8.137
  117POPC   GL1 1768   5.895   1.590   7.847
  117POPC   GL2 1769   6.018   1.925   7.737
  117POPC   C1A 1770   5.701   1.677   7.407
  117POPC   D2A 1771   5.845   1.748   6.980
  117POPC   C3A 1772   5.767   1.863   6.568
  117POPC   C4A 1773   5.894   1.742   6.170
  117POPC   C1B 1774   5.978   2.112   7.319
  117POPC   C2B 1775   5.907   2.260   6.898
  117POPC   C3B 1776   5.936   2.363   6.483
  117POPC   C4B 1777   5.641   2.204   6.189
  118POPC   NC3 1778   2.693   2.813   8.296
  118POPC   PO4 1779   2.146   2.402   8.214
  118POPC   GL1 1780   2.549   2.431   7.899
  118POPC   GL2 1781   2.716   2.753   7.801
  118POPC   C1A 1782   2.569   2.451   7.408
  118POPC   D2A 1783   2.351   2.449   6.969
  118POPC   C3A 1784   2.539   2.531   6.562
  118POPC   C4A 1785   2.620   2.755   6.141
  118POPC   C1B 1786   2.647   2.985   7.408
  118POPC   C2B 1787   2.513   2.933   6.971
  118POPC   C3B 1788   2.728   2.996   6.577
  118POPC   C4B 1789   3.018   3.061   6.209
  119POPC   NC3 1790   2.738   1.090   8.042
  119POPC   PO4 1791   3.101   1.655   8.114
  119POPC   GL1 1792   2.891   1.472   7.732
  119POPC   GL2 1793   2.501   1.402   7.711
  119POPC   C1A 1794   2.985   1.406   7.283
  119POPC   D2A 1795   2.959   1.585   6.881
  119POPC   C3A 1796   2.961   1.274   6.528
  119POPC   C4A 1797   2.881   0.848   6.330
  119POPC   C1B 1798   2.613   1.077   7.390
  119POPC   C2B 1799   2.622   1.153   6.911
  119POPC   C3B 1800   2.460   1.122   6.443
  119POPC   C4B 1801   2.397   1.380   6.064
  120POPC   NC3 1802   1.505   5.628   8.302
  120POPC   PO4 1803   1.210   6.198   8.247
  120POPC   GL1 1804   1.257   6.244   7.823
  120POPC   GL2 1805   1.386   5.932   7.698
  120POPC   C1A 1806   1.163   6.285   7.359
  120POPC   D2A 1807   1.306   6.099   6.928
  120POPC   C3A 1808   1.216   6.214   6.507
  120POPC   C4A 1809   1.370   6.089   6.084
  120POPC   C1B 1810   1.201   5.786   7.307
  120POPC   C2B 1811   1.081   5.636   6.876
  120POPC   C3B 1812   1.275   5.699   6.489
  120POPC   C4B 1813   0.950   5.830   6.243
  121POPC   NC3 1814   4.532   7.315   8.228
  121POPC   PO4 1815   5.136   7.492   8.106
  121POPC   GL1 1816   4.751   7.718   7.896
  121POPC   GL2 1817   4.464   7.497   7.752
  121POPC   C1A 1818   4.689   7.816   7.429
  121POPC   D2A 1819   4.567   7.560   7.031
  121POPC   C3A 1820   4.546   7.571   6.547
  121POPC   C4A 1821   4.639   7.425   6.099
  121POPC   C1B 1822   4.189   7.661   7.430
  121POPC   C2B 1823   4.155   7.844   7.018
  121POPC   C3B 1824   4.014   7.635   6.638
  121POPC   C4B 1825   3.868   7.214   6.455
  122POPC   NC3 1826   1.665   6.301   8.185
  122POPC   PO4 1827   2.197   5.957   8.074
  122POPC   GL1 1828   2.052   6.381   7.851
  122POPC   GL2 1829   2.003   6.778   7.774
  122POPC   C1A 1830   2.078   6.445   7.411
  122POPC   D2A 1831   2.086   6.602   6.966
  122POPC   C3A 1832   2.138   6.358   6.591
  122POPC   C4A 1833   2.208   6.510   6.171
  122POPC   C1B 1834   1.839   6.898   7.331
  122POPC   C2B 1835   1.684   6.910   6.893
  122POPC   C3B 1836   1.898   6.868   6.470
  122POPC   C4B 1837   1.871   6.830   5.977
  123POPC   NC3 1838   4.404   8.306   8.185
  123POPC   PO4 1839   4.232   7.654   8.180
  123POPC   GL1 1840   4.251   7.979   7.819
  123POPC   GL2 1841   4.061   8.306   7.804
  123POPC   C1A 1842   4.341   8.174   7.397
  123POPC   D2A 1843   4.594   8.135   7.002
  123POPC   C3A 1844   4.388   8.059   6.605
  123POPC   C4A 1845   4.477   7.918   6.174
  123POPC   C1B 1846   3.942   8.503   7.392
  123POPC   C2B 1847   4.081   8.364   7.000
  123POPC   C3B 1848   4.137   8.511   6.599
  123POPC   C4B 1849   4.146   8.310   6.218
  124POPC   NC3 1850   0.622   0.348   8.067
  124POPC   PO4 1851   9.985   0.145   8.054
  124POPC   GL1 1852   0.184   0.349   7.709
  124POPC   GL2 1853   0.402   0.667   7.697
  124POPC   C1A 1854   0.271   0.079   7.352
  124POPC   D2A 1855   0.577   0.113   6.977
  124POPC   C3A 1856   0.398   0.064   6.564
  124POPC   C4A 1857   0.029   9.938   6.339
  124POPC   C1B 1858   0.446   0.537   7.279
  124POPC   C2B 1859   0.263   0.636   6.865
  124POPC   C3B 1860   0.470   0.572   6.469
  124POPC   C4B 1861   0.839   0.345   6.371
  125POPC   NC3 1862   5.924   1.202   8.194
  125POPC   PO4 1863   5.397   0.713   8.185
  125POPC   GL1 1864   5.511   1.020   7.837
  125POPC   GL2 1865   5.855   1.050   7.730
  125POPC   C1A 1866   5.564   1.188   7.355
  125POPC   D2A 1867   5.490   1.346   6.919
  125POPC   C3A 1868   5.572   1.022   6.611
  125POPC   C4A 1869   5.552   0.794   6.217
  125POPC   C1B 1870   6.078   1.310   7.443
  125POPC   C2B 1871   5.994   1.278   7.013
  125POPC   C3B 1872   6.083   1.452   6.591
  125POPC   C4B 1873   5.849   1.246   6.252
  126POPC   NC3 1874   4.291   0.784   8.213
  126POPC   PO4 1875   3.831   0.262   8.419
  126POPC   GL1 1876   4.063   0.242   7.974
  126POPC   GL2 1877   4.392   0.406   7.864
  126POPC   C1A 1878   4.105   0.223   7.492
  126POPC   D2A 1879   3.822   0.318   7.125
  126POPC   C3A 1880   4.073   0.456   6.767
  126POPC   C4A 1881   4.141   0.331   6.335
  126POPC   C1B 1882   4.488   0.566   7.402
  126POPC   C2B 1883   4.619   0.584   6.959
  126POPC   C3B 1884   4.582   0.286   6.623
  126POPC   C4B 1885   4.640   0.391   6.213
  127POPC   NC3 1886   9.755   4.928   8.063
  127POPC   PO4 1887   0.382   4.862   8.358
  127POPC   GL1 1888   0.192   5.127   7.903
  127POPC   GL2 1889   9.886   5.368   7.838
  127POPC   C1A 1890   9.978   4.980   7.460
  127POPC   D2A 1891   0.103   4.830   7.079
  127POPC   C3A 1892   9.911   4.844   6.684
  127POPC   C4A 1893   9.705   5.043   6.357
  127POPC   C1B 1894   9.565   5.253   7.491
  127POPC   C2B 1895   9.640   5.129   7.066
  127POPC   C3B 1896   9.357   5.070   6.735
  127POPC   C4B 1897   9.207   5.341   6.408
  128POPC   NC3 1898   9.706   9.954   8.371
  128POPC   PO4 1899   9.367   9.368   8.177
  128POPC   GL1 1900   9.584   9.508   7.845
  128POPC   GL2 1901   9.832   9.225   7.855
  128POPC   C1A 1902   9.696   9.738   7.445
  128POPC   D2A 1903   9.713   9.625   7.030
  128POPC   C3A 1904   9.649   9.910   6.691
  128POPC   C4A 1905   9.316   9.841   6.404
  128POPC   C1B 1906   9.579   9.147   7.471
  128POPC   C2B 1907   9.468   9.163   7.026
  128POPC   C3B 1908   9.480   9.406   6.632
  128POPC   C4B 1909   9.686   9.561   6.235
  129POPC   NC3 1910   2.626   7.996   8.035
  129POPC   PO4 1911   2.330   8.519   8.343
  129POPC   GL1 1912   2.655   8.487   7.801
  129POPC   GL2 1913   2.945   8.227   7.714
  129POPC   C1A 1914   2.613   8.361   7.305
  129POPC   D2A 1915   2.309   8.369   6.905
  129POPC   C3A 1916   2.409   8.453   6.444
  129POPC   C4A 1917   2.770   8.520   6.178
  129POPC   C1B 1918   2.880   7.934   7.362
  129POPC   C2B 1919   2.687   7.991   6.963
  129POPC   C3B 1920   2.802   8.182   6.603
  129POPC   C4B 1921   2.950   7.967   6.249
  130POPC   NC3 1922   9.034   9.721   7.949
  130POPC   PO4 1923   8.538   9.301   8.235
  130POPC   GL1 1924   8.764   9.298   7.837
  130POPC   GL2 1925   9.128   9.275   7.746
  130POPC   C1A 1926   8.750   9.341   7.386
  130POPC   D2A 1927   8.969   9.304   6.988
  130POPC   C3A 1928   8.700   9.261   6.628
  130POPC   C4A 1929   8.436   9.547   6.420
  130POPC   C1B 1930   9.248   9.523   7.354
  130POPC   C2B 1931   9.188   9.796   6.970
  130POPC   C3B 1932   8.872   9.764   6.631
  130POPC   C4B 1933   8.934   9.514   6.233
  131POPC   NC3 1934   8.757   2.817   8.121
  131POPC   PO4 1935   9.269   2.294   7.906
  131POPC   GL1 1936   9.117   2.506   7.557
  131POPC   GL2 1937   8.897   2.787   7.643
  131POPC   C1A 1938   8.818   2.524   7.228
  131POPC   D2A 1939   8.911   2.800   6.904
  131POPC   C3A 1940   9.055   2.641   6.532
  131POPC   C4A 1941   9.391   2.412   6.320
  131POPC   C1B 1942   8.650   2.999   7.337
  131POPC   C2B 1943   8.455   3.018   6.956
  131POPC   C3B 1944   8.536   2.908   6.566
  131POPC   C4B 1945   8.587   2.528   6.345
  132POPC   NC3 1946   2.713   8.735   8.217
  132POPC   PO4 1947   3.214   9.126   8.252
  132POPC   GL1 1948   2.937   9.033   7.826
  132POPC   GL2 1949   2.556   9.001   7.803
  132POPC   C1A 1950   2.932   8.746   7.423
  132POPC   D2A 1951   3.044   8.524   7.012
  132POPC   C3A 1952   3.094   8.692   6.571
  132POPC   C4A 1953   2.991   8.985   6.202
  132POPC   C1B 1954   2.422   8.806   7.408
  132POPC   C2B 1955   2.595   8.781   6.993
  132POPC   C3B 1956   2.625   8.900   6.562
  132POPC   C4B 1957   2.480   8.970   6.120
  133POPC   NC3 1958   2.824   0.382   8.150
  133POPC   PO4 1959   2.327   0.841   8.078
  133POPC   GL1 1960   2.465   0.580   7.804
  133POPC   GL2 1961   2.815   0.645   7.684
  133POPC   C1A 1962   2.403   0.565   7.393
  133POPC   D2A 1963   2.704   0.676   7.091
  133POPC   C3A 1964   2.550   0.684   6.697
  133POPC   C4A 1965   2.349   0.586   6.323
  133POPC   C1B 1966   2.825   0.264   7.365
  133POPC   C2B 1967   2.693   0.210   6.884
  133POPC   C3B 1968   2.784   0.340   6.403
  133POPC   C4B 1969   2.974   0.171   5.983
  134POPC   NC3 1970   5.824   3.053   8.295
  134POPC   PO4 1971   5.812   2.426   8.076
  134POPC   GL1 1972   5.785   2.763   7.737
  134POPC   GL2 1973   6.047   2.579   7.510
  134POPC   C1A 1974   5.883   3.019   7.360
  134POPC   D2A 1975   5.984   2.769   7.008
  134POPC   C3A 1976   6.246   2.813   6.718
  134POPC   C4A 1977   6.211   3.111   6.443
  134POPC   C1B 1978   5.644   2.519   7.272
  134POPC   C2B 1979   5.540   2.619   6.801
  134POPC   C3B 1980   5.534   2.689   6.327
  134POPC   C4B 1981   5.514   2.822   5.868
  135POPC   NC3 1982   8.614   5.409   8.050
  135POPC   PO4 1983   7.952   5.300   8.054
  135POPC   GL1 1984   8.275   5.238   7.725
  135POPC   GL2 1985   8.329   4.881   7.608
  135POPC   C1A 1986   8.222   5.265   7.282
  135POPC   D2A 1987   8.106   5.018   6.967
  135POPC   C3A 1988   8.297   4.897   6.592
  135POPC   C4A 1989   8.144   5.056   6.225
  135POPC   C1B 1990   8.137   4.622   7.277
  135POPC   C2B 1991   7.902   4.576   6.853
  135POPC   C3B 1992   7.848   4.696   6.424
  135POPC   C4B 1993   7.822   4.723   5.939
  136POPC   NC3 1994   6.818   8.243   8.058
  136POPC   PO4 1995   6.737   7.608   8.069
  136POPC   GL1 1996   6.844   7.892   7.680
  136POPC   GL2 1997   6.612   8.201   7.588
  136POPC   C1A 1998   6.809   7.911   7.221
  136POPC   D2A 1999   6.820   7.724   6.817
  136POPC   C3A 2000   6.843   7.983   6.463
  136POPC   C4A 2001   6.487   8.030   6.176
  136POPC   C1B 2002   6.207   8.168   7.306
  136POPC   C2B 2003   6.017   8.187   6.871
  136POPC   C3B 2004   6.169   8.314   6.461
  136POPC   C4B 2005   6.602   8.446   6.490
  137POPC   NC3 2006   8.873   0.437   8.101
  137POPC   PO4 2007   9.415   9.988   8.012
  137POPC   GL1 2008   9.168   0.245   7.695
  137POPC   GL2 2009   8.811   0.324   7.608
  137POPC   C1A 2010   9.266   0.280   7.245
  137POPC   D2A 2011   9.077   0.451   6.862
  137POPC   C3A 2012   9.054   0.271   6.457
  137POPC   C4A 2013   9.219   0.133   6.022
  137POPC   C1B 2014   8.775   0.162   7.188
  137POPC   C2B 2015   8.570   0.419   6.888
  137POPC   C3B 2016   8.596   0.583   6.489
  137POPC   C4B 2017   8.747   0.474   6.078
  138POPC   NC3 2018   5.542   7.300   8.140
  138POPC   PO4 2019   6.104   7.204   8.353
  138POPC   GL1 2020   5.927   7.357   7.834
  138POPC   GL2 2021   6.030   7.695   7.758
  138POPC   C1A 2022   6.093   7.435   7.343
  138POPC   D2A 2023   5.961   7.678   6.965
  138POPC   C3A 2024   5.867   7.391   6.608
  138POPC   C4A 2025   6.172   7.168   6.326
  138POPC   C1B 2026   5.626   7.597   7.477
  138POPC   C2B 2027   5.470   7.538   7.018
  138POPC   C3B 2028   5.384   7.623   6.535
  138POPC   C4B 2029   5.399   7.414   6.111
  139POPC   NC3 2030   0.395   3.530   8.423
  139POPC   PO4 2031   0.982   3.664   8.108
  139POPC   GL1 2032   0.836   3.409   7.773
  139POPC   GL2 2033   0.596   3.607   7.617
  139POPC   C1A 2034   0.714   3.190   7.406
  139POPC   D2A 2035   0.526   3.479   7.098
  139POPC   C3A 2036   0.745   3.483   6.715
  139POPC   C4A 2037   0.651   3.540   6.309
  139POPC   C1B 2038   0.229   3.811   7.380
  139POPC   C2B 2039   0.260   3.971   6.976
  139POPC   C3B 2040   0.243   3.697   6.627
  139POPC   C4B 2041   0.172   3.380   6.295
  140POPC   NC3 2042   8.732   8.304   8.283
  140POPC   PO4 2043   9.238   7.762   8.234
  140POPC   GL1 2044   9.066   7.894   7.832
  140POPC   GL2 2045   9.079   8.256   7.888
  140POPC   C1A 2046   8.814   7.954   7.412
  140POPC   D2A 2047   8.930   7.907   6.960
  140POPC   C3A 2048   8.729   7.920   6.560
  140POPC   C4A 2049   8.843   7.989   6.132
  140POPC   C1B 2050   8.914   8.458   7.507
  140POPC   C2B 2051   8.835   8.394   7.062
  140POPC   C3B 2052   9.021   8.345   6.645
  140POPC   C4B 2053   8.917   8.471   6.239
  141POPC   NC3 2054   6.881   3.400   8.043
  141POPC   PO4 2055   6.221   3.121   8.083
  141POPC   GL1 2056   6.331   3.043   7.622
  141POPC   GL2 2057   6.577   3.321   7.593
  141POPC   C1A 2058   6.381   3.114   7.134
  141POPC   D2A 2059   6.629   3.322   6.734
  141POPC   C3A 2060   6.529   3.438   6.249
  141POPC   C4A 2061   6.196   3.406   5.879
  141POPC   C1B 2062   6.721   3.520   7.207
  141POPC   C2B 2063   6.724   3.824   6.875
  141POPC   C3B 2064   6.634   3.900   6.470
  141POPC   C4B 2065   6.879   3.812   6.144
  142POPC   NC3 2066   1.442   3.752   8.256
  142POPC   PO4 2067   1.507   3.082   8.157
  142POPC   GL1 2068   1.348   3.306   7.786
  142POPC   GL2 2069   1.341   3.656   7.727
  142POPC   C1A 2070   1.217   3.157   7.385
  142POPC   D2A 2071   1.019   3.138   6.978
  142POPC   C3A 2072   1.213   3.208   6.580
  142POPC   C4A 2073   0.989   3.169   6.209
  142POPC   C1B 2074   1.065   3.634   7.336
  142POPC   C2B 2075   1.232   3.626   6.897
  142POPC   C3B 2076   1.132   3.722   6.456
  142POPC   C4B 2077   0.897   3.996   6.207
  143POPC   NC3 2078   8.697   1.301   8.209
  143POPC   PO4 2079   8.453   0.702   8.059
  143POPC   GL1 2080   8.684   0.914   7.740
  143POPC   GL2 2081   9.022   0.791   7.736
  143POPC   C1A 2082   8.656   1.134   7.331
  143POPC   D2A 2083   8.663   1.417   6.968
  143POPC   C3A 2084   8.543   1.240   6.549
  143POPC   C4A 2085   8.653   1.320   6.090
  143POPC   C1B 2086   8.941   0.707   7.286
  143POPC   C2B 2087   8.808   0.897   6.869
  143POPC   C3B 2088   8.939   0.953   6.419
  143POPC   C4B 2089   9.292   1.126   6.205
  144POPC   NC3 2090   2.020   3.845   3.755
  144POPC   PO4 2091   1.998   3.121   3.897
  144POPC   GL1 2092   1.993   3.489   4.125
  144POPC   GL2 2093   1.642   3.655   4.108
  144POPC   C1A 2094   2.219   3.471   4.511
  144POPC   D2A 2095   2.433   3.356   4.904
  144POPC   C3A 2096   2.265   3.291   5.318
  144POPC   C4A 2097   2.186   3.376   5.780
  144POPC   C1B 2098   1.730   3.643   4.568
  144POPC   C2B 2099   1.856   3.436   4.971
  144POPC   C3B 2100   1.824   3.506   5.435
  144POPC   C4B 2101   1.781   3.694   5.867
  145POPC   NC3 2102   2.552   2.072   3.996
  145POPC   PO4 2103   2.564   1.467   3.743
  145POPC   GL1 2104   2.419   1.559   4.164
  145POPC   GL2 2105   2.721   1.744   4.339
  145POPC   C1A 2106   2.310   1.709   4.594
  145POPC   D2A 2107   2.682   1.650   4.883
  145POPC   C3A 2108   2.642   1.641   5.328
  145POPC   C4A 2109   2.556   1.745   5.742
  145POPC   C1B 2110   2.959   2.011   4.646
  145POPC   C2B 2111   3.077   2.054   5.093
  145POPC   C3B 2112   2.977   1.985   5.518
  145POPC   C4B 2113   3.062   1.616   5.737
  146POPC   NC3 2114   7.349   7.048   3.838
  146POPC   PO4 2115   7.691   6.629   4.068
  146POPC   GL1 2116   7.406   6.707   4.385
  146POPC   GL2 2117   7.108   6.923   4.285
  146POPC   C1A 2118   7.468   6.648   4.848
  146POPC   D2A 2119   7.595   6.889   5.223
  146POPC   C3A 2120   7.503   6.636   5.563
  146POPC   C4A 2121   7.334   6.685   5.988
  146POPC   C1B 2122   7.007   6.864   4.741
  146POPC   C2B 2123   7.091   6.762   5.208
  146POPC   C3B 2124   7.013   6.479   5.589
  146POPC   C4B 2125   7.093   6.242   5.958
  147POPC   NC3 2126   5.649   9.224   3.999
  147POPC   PO4 2127   5.376   8.630   3.911
  147POPC   GL1 2128   5.667   8.775   4.272
  147POPC   GL2 2129   5.985   8.851   4.421
  147POPC   C1A 2130   5.645   8.862   4.757
  147POPC   D2A 2131   5.863   8.988   5.121
  147POPC   C3A 2132   5.686   8.768   5.467
  147POPC   C4A 2133   5.480   8.877   5.861
  147POPC   C1B 2134   6.113   8.615   4.735
  147POPC   C2B 2135   6.259   8.676   5.107
  147POPC   C3B 2136   6.275   8.729   5.515
  147POPC   C4B 2137   6.012   8.865   5.847
  148POPC   NC3 2138   0.989   5.106   3.798
  148POPC   PO4 2139   1.589   5.361   3.980
  148POPC   GL1 2140   1.159   5.263   4.257
  148POPC   GL2 2141   1.234   4.976   4.447
  148POPC   C1A 2142   0.914   5.256   4.729
  148POPC   D2A 2143   0.985   5.102   5.182
  148POPC   C3A 2144   1.064   5.176   5.655
  148POPC   C4A 2145   0.862   5.353   6.058
  148POPC   C1B 2146   1.404   5.098   4.860
  148POPC   C2B 2147   1.485   5.077   5.310
  148POPC   C3B 2148   1.579   5.038   5.756
  148POPC   C4B 2149   1.886   5.230   6.059
  149POPC   NC3 2150   6.496   8.124   3.907
  149POPC   PO4 2151   6.123   8.615   4.020
  149POPC   GL1 2152   6.318   8.309   4.369
  149POPC   GL2 2153   6.441   7.923   4.395
  149POPC   C1A 2154   6.486   8.241   4.811
  149POPC   D2A 2155   6.299   8.194   5.225
  149POPC   C3A 2156   6.476   8.234   5.619
  149POPC   C4A 2157   6.332   8.463   5.961
  149POPC   C1B 2158   6.794   7.858   4.744
  149POPC   C2B 2159   6.783   8.009   5.166
  149POPC   C3B 2160   6.837   7.869   5.594
  149POPC   C4B 2161   6.896   8.149   5.937
  150POPC   NC3 2162   8.957   2.450   3.891
  150POPC   PO4 2163   8.937   3.085   3.927
  150POPC   GL1 2164   9.041   3.004   4.332
  150POPC   GL2 2165   9.057   2.639   4.357
  150POPC   C1A 2166   8.893   3.190   4.705
  150POPC   D2A 2167   8.720   2.984   5.077
  150POPC   C3A 2168   8.834   3.099   5.481
  150POPC   C4A 2169   8.505   3.147   5.741
  150POPC   C1B 2170   9.080   2.707   4.814
  150POPC   C2B 2171   8.946   2.507   5.212
  150POPC   C3B 2172   8.873   2.615   5.655
  150POPC   C4B 2173   8.979   2.495   6.046
  151POPC   NC3 2174   8.040   2.196   3.961
  151POPC   PO4 2175   8.649   2.140   4.082
  151POPC   GL1 2176   8.489   1.827   4.371
  151POPC   GL2 2177   8.141   1.896   4.363
  151POPC   C1A 2178   8.472   1.804   4.802
  151POPC   D2A 2179   8.644   1.780   5.198
  151POPC   C3A 2180   8.296   1.794   5.487
  151POPC   C4A 2181   8.283   1.743   5.929
  151POPC   C1B 2182   8.015   2.206   4.668
  151POPC   C2B 2183   7.958   2.127   5.090
  151POPC   C3B 2184   8.107   2.258   5.479
  151POPC   C4B 2185   7.946   2.122   5.847
  152POPC   NC3 2186   8.881   4.225   3.973
  152POPC   PO4 2187   9.055   4.844   3.840
  152POPC   GL1 2188   9.047   4.628   4.266
  152POPC   GL2 2189   9.189   4.313   4.349
  152POPC   C1A 2190   9.187   4.599   4.751
  152POPC   D2A 2191   9.326   4.587   5.184
  152POPC   C3A 2192   8.929   4.553   5.433
  152POPC   C4A 2193   8.650   4.458   5.810
  152POPC   C1B 2194   8.860   4.145   4.671
  152POPC   C2B 2195   8.801   3.995   5.127
  152POPC   C3B 2196   8.909   4.039   5.578
  152POPC   C4B 2197   9.098   3.910   5.943
  153POPC   NC3 2198   7.326   7.777   4.192
  153POPC   PO4 2199   7.644   7.349   3.667
  153POPC   GL1 2200   7.561   7.223   4.244
  153POPC   GL2 2201   7.620   7.549   4.545
  153POPC   C1A 2202   7.446   7.120   4.673
  153POPC   D2A 2203   7.509   7.362   5.033
  153POPC   C3A 2204   7.216   7.252   5.338
  153POPC   C4A 2205   7.429   7.107   5.712
  153POPC   C1B 2206   7.297   7.775   4.814
  153POPC   C2B 2207   7.235   7.778   5.228
  153POPC   C3B 2208   7.519   7.615   5.513
  153POPC   C4B 2209   7.185   7.530   5.785
  154POPC   NC3 2210   1.153   3.512   3.866
  154POPC   PO4 2211   0.608   3.707   4.094
  154POPC   GL1 2212   0.822   3.671   4.450
  154POPC   GL2 2213   1.098   3.443   4.382
  154POPC   C1A 2214   0.902   3.669   4.897
  154POPC   D2A 2215   1.027   3.396   5.213
  154POPC   C3A 2216   0.819   3.577   5.530
  154POPC   C4A 2217   0.949   3.606   5.915
  154POPC   C1B 2218   1.325   3.435   4.788
  154POPC   C2B 2219   1.428   3.708   5.151
  154POPC   C3B 2220   1.351   3.588   5.604
  154POPC   C4B 2221   1.397   3.454   6.092
  155POPC   NC3 2222   0.224   4.945   4.178
  155POPC   PO4 2223   0.775   4.649   3.855
  155POPC   GL1 2224   0.823   4.711   4.281
  155POPC   GL2 2225   0.693   5.030   4.343
  155POPC   C1A 2226   0.830   4.768   4.735
  155POPC   D2A 2227   0.514   4.969   5.017
  155POPC   C3A 2228   0.557   5.016   5.465
  155POPC   C4A 2229   0.315   4.810   5.794
  155POPC   C1B 2230   0.396   5.299   4.650
  155POPC   C2B 2231   0.083   5.394   5.013
  155POPC   C3B 2232   0.179   5.498   5.455
  155POPC   C4B 2233   0.390   5.334   5.829
  156POPC   NC3 2234   9.068   8.154   3.754
  156POPC   PO4 2235   8.607   7.783   3.858
  156POPC   GL1 2236   8.723   7.930   4.249
  156POPC   GL2 2237   9.057   7.880   4.237
  156POPC   C1A 2238   8.511   8.049   4.664
  156POPC   D2A 2239   8.398   8.334   5.041
  156POPC   C3A 2240   8.711   8.345   5.405
  156POPC   C4A 2241   8.572   8.342   5.840
  156POPC   C1B 2242   9.064   8.192   4.561
  156POPC   C2B 2243   9.324   8.322   4.917
  156POPC   C3B 2244   9.273   8.373   5.362
  156POPC   C4B 2245   9.081   8.279   5.769
  157POPC   NC3 2246   7.586   2.650   3.893
  157POPC   PO4 2247   7.022   2.251   3.871
  157POPC   GL1 2248   7.204   2.395   4.247
  157POPC   GL2 2249   7.246   2.707   4.254
  157POPC   C1A 2250   7.117   2.439   4.678
  157POPC   D2A 2251   7.089   2.404   5.108
  157POPC   C3A 2252   7.200   2.705   5.387
  157POPC   C4A 2253   7.264   2.879   5.794
  157POPC   C1B 2254   7.603   2.571   4.552
  157POPC   C2B 2255   7.584   2.545   4.994
  157POPC   C3B 2256   7.601   2.351   5.401
  157POPC   C4B 2257   7.524   2.442   5.819
  158POPC   NC3 2258   5.035   0.541   4.063
  158POPC   PO4 2259   5.129   9.910   3.995
  158POPC   GL1 2260   5.227   0.154   4.416
  158POPC   GL2 2261   5.301   0.533   4.500
  158POPC   C1A 2262   5.122   0.248   4.872
  158POPC   D2A 2263   5.309   0.518   5.211
  158POPC   C3A 2264   5.320   0.286   5.607
  158POPC   C4A 2265   5.561   0.328   5.999
  158POPC   C1B 2266   4.957   0.734   4.742
  158POPC   C2B 2267   4.803   0.610   5.134
  158POPC   C3B 2268   4.872   0.582   5.566
  158POPC   C4B 2269   4.636   0.770   5.888
  159POPC   NC3 2270   1.359   6.740   4.016
  159POPC   PO4 2271   0.874   6.203   3.910
  159POPC   GL1 2272   1.033   6.405   4.245
  159POPC   GL2 2273   1.366   6.372   4.416
  159POPC   C1A 2274   0.918   6.646   4.602
  159POPC   D2A 2275   0.990   6.853   4.998
  159POPC   C3A 2276   1.161   6.625   5.352
  159POPC   C4A 2277   0.950   6.734   5.738
  159POPC   C1B 2278   1.417   6.736   4.700
  159POPC   C2B 2279   1.498   6.957   5.090
  159POPC   C3B 2280   1.652   6.854   5.508
  159POPC   C4B 2281   1.475   6.505   5.767
  160POPC   NC3 2282   0.585   5.819   3.774
  160POPC   PO4 2283   0.517   5.144   3.867
  160POPC   GL1 2284   0.612   5.485   4.157
  160POPC   GL2 2285   0.315   5.650   4.227
  160POPC   C1A 2286   0.704   5.693   4.585
  160POPC   D2A 2287   0.573   5.584   5.036
  160POPC   C3A 2288   0.744   5.536   5.455
  160POPC   C4A 2289   0.665   5.794   5.831
  160POPC   C1B 2290   0.200   5.778   4.657
  160POPC   C2B 2291   0.329   6.044   4.985
  160POPC   C3B 2292   0.440   5.971   5.409
  160POPC   C4B 2293   0.172   5.922   5.786
  161POPC   NC3 2294   0.531   7.515   3.898
  161POPC   PO4 2295   0.009   7.047   3.853
  161POPC   GL1 2296   0.187   7.278   4.193
  161POPC   GL2 2297   0.497   7.079   4.241
  161POPC   C1A 2298   0.280   7.474   4.601
  161POPC   D2A 2299   0.136   7.665   5.018
  161POPC   C3A 2300   0.299   7.494   5.428
  161POPC   C4A 2301   0.517   7.594   5.842
  161POPC   C1B 2302   0.690   7.164   4.670
  161POPC   C2B 2303   0.667   7.476   5.025
  161POPC   C3B 2304   0.793   7.392   5.473
  161POPC   C4B 2305   0.549   7.081   5.739
  162POPC   NC3 2306   4.043   3.638   3.899
  162POPC   PO4 2307   4.283   4.131   4.045
  162POPC   GL1 2308   4.259   3.712   4.343
  162POPC   GL2 2309   4.408   3.364   4.297
  162POPC   C1A 2310   4.112   3.438   4.713
  162POPC   D2A 2311   4.074   3.201   5.120
  162POPC   C3A 2312   3.655   3.161   5.372
  162POPC   C4A 2313   3.441   3.392   5.747
  162POPC   C1B 2314   4.517   3.112   4.719
  162POPC   C2B 2315   4.505   2.922   5.128
  162POPC   C3B 2316   4.242   2.872   5.511
  162POPC   C4B 2317   3.941   3.089   5.812
  163POPC   NC3 2318   8.124   7.070   3.866
  163POPC   PO4 2319   7.754   7.631   4.084
  163POPC   GL1 2320   8.113   7.375   4.276
  163POPC   GL2 2321   8.427   7.535   4.357
  163POPC   C1A 2322   8.346   7.113   4.649
  163POPC   D2A 2323   8.436   6.937   5.085
  163POPC   C3A 2324   8.093   6.908   5.397
  163POPC   C4A 2325   7.931   7.115   5.752
  163POPC   C1B 2326   8.135   7.580   4.725
  163POPC   C2B 2327   8.083   7.322   5.080
  163POPC   C3B 2328   8.312   7.367   5.465
  163POPC   C4B 2329   8.020   7.622   5.640
  164POPC   NC3 2330   8.161   7.799   3.981
  164POPC   PO4 2331   7.528   8.142   3.943
  164POPC   GL1 2332   7.728   8.068   4.333
  164POPC   GL2 2333   8.018   8.243   4.223
  164POPC   C1A 2334   7.977   8.064   4.731
  164POPC   D2A 2335   8.013   7.878   5.161
  164POPC   C3A 2336   8.291   8.046   5.487
  164POPC   C4A 2337   8.450   7.848   5.853
  164POPC   C1B 2338   7.823   8.518   4.535
  164POPC   C2B 2339   7.892   8.512   4.990
  164POPC   C3B 2340   8.024   8.495   5.436
  164POPC   C4B 2341   8.060   8.398   5.910
  165POPC   NC3 2342   6.392   0.510   3.920
  165POPC   PO4 2343   6.077   1.040   4.065
  165POPC   GL1 2344   6.360   0.808   4.340
  165POPC   GL2 2345   6.662   0.580   4.339
  165POPC   C1A 2346   6.498   0.831   4.754
  165POPC   D2A 2347   6.396   0.567   5.073
  165POPC   C3A 2348   6.262   0.737   5.446
  165POPC   C4A 2349   6.338   0.617   5.844
  165POPC   C1B 2350   6.615   0.299   4.671
  165POPC   C2B 2351   6.609   0.082   5.056
  165POPC   C3B 2352   6.674   0.287   5.400
  165POPC   C4B 2353   6.562   0.168   5.764
  166POPC   NC3 2354   3.140   8.718   3.969
  166POPC   PO4 2355   3.781   8.932   3.993
  166POPC   GL1 2356   3.447   8.914   4.355
  166POPC   GL2 2357   3.388   9.254   4.521
  166POPC   C1A 2358   3.307   8.862   4.818
  166POPC   D2A 2359   3.405   9.212   5.096
  166POPC   C3A 2360   3.337   9.233   5.559
  166POPC   C4A 2361   3.357   9.299   6.003
  166POPC   C1B 2362   3.789   9.137   4.685
  166POPC   C2B 2363   3.840   8.952   5.065
  166POPC   C3B 2364   3.706   8.840   5.456
  166POPC   C4B 2365   3.757   9.026   5.817
  167POPC   NC3 2366   7.143   9.295   3.825
  167POPC   PO4 2367   6.939   9.919   3.918
  167POPC   GL1 2368   7.095   9.624   4.256
  167POPC   GL2 2369   7.444   9.499   4.189
  167POPC   C1A 2370   7.129   9.402   4.696
  167POPC   D2A 2371   7.335   9.305   5.101
  167POPC   C3A 2372   7.110   9.422   5.492
  167POPC   C4A 2373   7.187   9.574   5.937
  167POPC   C1B 2374   7.471   9.760   4.564
  167POPC   C2B 2375   7.564   9.793   5.011
  167POPC   C3B 2376   7.549   9.699   5.435
  167POPC   C4B 2377   7.390   9.996   5.715
  168POPC   NC3 2378   9.022   7.509   3.901
  168POPC   PO4 2379   8.550   7.140   4.036
  168POPC   GL1 2380   8.799   7.085   4.374
  168POPC   GL2 2381   8.933   7.392   4.376
  168POPC   C1A 2382   8.825   7.192   4.825
  168POPC   D2A 2383   8.790   7.343   5.223
  168POPC   C3A 2384   8.829   7.021   5.546
  168POPC   C4A 2385   9.030   7.130   5.959
  168POPC   C1B 2386   8.901   7.710   4.700
  168POPC   C2B 2387   8.915   8.012   5.054
  168POPC   C3B 2388   8.926   7.867   5.498
  168POPC   C4B 2389   8.778   7.501   5.715
  169POPC   NC3 2390   3.885   8.054   4.019
  169POPC   PO4 2391   3.231   7.839   3.810
  169POPC   GL1 2392   3.391   8.101   4.200
  169POPC   GL2 2393   3.609   8.441   4.214
  169POPC   C1A 2394   3.355   8.243   4.647
  169POPC   D2A 2395   3.249   8.202   5.107
  169POPC   C3A 2396   3.417   8.144   5.513
  169POPC   C4A 2397   3.457   7.870   5.863
  169POPC   C1B 2398   3.712   8.596   4.654
  169POPC   C2B 2399   3.707   8.460   5.097
  169POPC   C3B 2400   3.878   8.357   5.520
  169POPC   C4B 2401   3.724   8.434   5.906
  170POPC   NC3 2402   7.258   0.925   3.945
  170POPC   PO4 2403   7.396   1.559   3.893
  170POPC   GL1 2404   7.389   1.251   4.297
  170POPC   GL2 2405   7.721   1.251   4.449
  170POPC   C1A 2406   7.405   1.026   4.767
  170POPC   D2A 2407   7.478   1.137   5.231
  170POPC   C3A 2408   7.215   0.904   5.551
  170POPC   C4A 2409   6.796   0.738   5.593
  170POPC   C1B 2410   7.360   1.531   4.703
  170POPC   C2B 2411   7.126   1.504   5.089
  170POPC   C3B 2412   7.264   1.498   5.546
  170POPC   C4B 2413   7.540   1.222   5.787
  171POPC   NC3 2414   2.267   6.266   3.929
  171POPC   PO4 2415   1.618   6.360   3.989
  171POPC   GL1 2416   1.920   6.145   4.299
  171POPC   GL2 2417   1.890   5.784   4.307
  171POPC   C1A 2418   2.083   5.993   4.740
  171POPC   D2A 2419   1.895   5.999   5.186
  171POPC   C3A 2420   2.116   5.926   5.598
  171POPC   C4A 2421   2.121   5.789   6.083
  171POPC   C1B 2422   1.592   5.953   4.667
  171POPC   C2B 2423   1.394   6.053   5.091
  171POPC   C3B 2424   1.522   6.008   5.560
  171POPC   C4B 2425   1.667   5.706   5.902
  172POPC   NC3 2426   0.720   4.126   3.892
  172POPC   PO4 2427   1.362   3.861   3.674
  172POPC   GL1 2428   1.177   3.930   4.149
  172POPC   GL2 2429   0.956   4.196   4.327
  172POPC   C1A 2430   1.258   3.914   4.620
  172POPC   D2A 2431   1.093   4.131   5.011
  172POPC   C3A 2432   1.046   4.043   5.465
  172POPC   C4A 2433   0.658   4.024   5.727
  172POPC   C1B 2434   1.215   4.448   4.625
  172POPC   C2B 2435   1.202   4.641   5.056
  172POPC   C3B 2436   1.217   4.665   5.507
  172POPC   C4B 2437   1.486   4.486   5.823
  173POPC   NC3 2438   2.155   7.311   3.813
  173POPC   PO4 2439   2.412   6.673   3.767
  173POPC   GL1 2440   2.207   6.663   4.260
  173POPC   GL2 2441   1.830   6.654   4.368
  173POPC   C1A 2442   2.113   6.791   4.762
  173POPC   D2A 2443   1.996   7.064   5.124
  173POPC   C3A 2444   2.279   7.115   5.466
  173POPC   C4A 2445   2.315   6.767   5.721
  173POPC   C1B 2446   1.797   6.406   4.736
  173POPC   C2B 2447   1.751   6.494   5.156
  173POPC   C3B 2448   1.955   6.421   5.554
  173POPC   C4B 2449   1.866   6.201   5.936
  174POPC   NC3 2450   7.157   4.590   4.004
  174POPC   PO4 2451   7.553   4.066   3.979
  174POPC   GL1 2452   7.396   4.120   4.362
  174POPC   GL2 2453   7.574   3.896   4.503
  174POPC   C1A 2454   7.323   4.191   4.833
  174POPC   D2A 2455   7.444   4.185   5.268
  174POPC   C3A 2456   7.173   4.159   5.630
  174POPC   C4A 2457   7.345   3.997   6.060
  174POPC   C1B 2458   7.817   4.228   4.683
  174POPC   C2B 2459   7.935   4.353   5.120
  174POPC   C3B 2460   7.688   4.567   5.442
  174POPC   C4B 2461   7.640   4.269   5.766
  175POPC   NC3 2462   4.109   7.343   4.147
  175POPC   PO4 2463   3.920   6.774   4.124
  175POPC   GL1 2464   3.848   7.007   4.532
  175POPC   GL2 2465   3.858   7.392   4.617
  175POPC   C1A 2466   3.947   7.029   4.991
  175POPC   D2A 2467   4.237   7.173   5.325
  175POPC   C3A 2468   4.165   7.156   5.776
  175POPC   C4A 2469   4.311   7.052   6.213
  175POPC   C1B 2470   3.970   7.549   5.039
  175POPC   C2B 2471   4.335   7.678   5.311
  175POPC   C3B 2472   4.342   7.639   5.743
  175POPC   C4B 2473   4.131   7.540   6.150
  176POPC   NC3 2474   8.670   4.941   4.072
  176POPC   PO4 2475   8.251   5.434   3.762
  176POPC   GL1 2476   8.226   5.195   4.150
  176POPC   GL2 2477   8.092   4.850   4.056
  176POPC   C1A 2478   8.373   5.219   4.607
  176POPC   D2A 2479   8.197   5.268   5.037
  176POPC   C3A 2480   8.316   5.320   5.485
  176POPC   C4A 2481   8.428   5.349   5.917
  176POPC   C1B 2482   8.088   4.783   4.511
  176POPC   C2B 2483   8.174   4.767   4.949
  176POPC   C3B 2484   8.052   4.898   5.370
  176POPC   C4B 2485   8.260   4.872   5.760
  177POPC   NC3 2486   0.321   4.742   3.732
  177POPC   PO4 2487   0.246   4.093   3.870
  177POPC   GL1 2488   0.427   4.381   4.216
  177POPC   GL2 2489   0.446   4.083   4.378
  177POPC   C1A 2490   0.393   4.509   4.696
  177POPC   D2A 2491   0.694   4.465   5.105
  177POPC   C3A 2492   0.692   4.525   5.558
  177POPC   C4A 2493   0.523   4.420   6.007
  177POPC   C1B 2494   0.665   4.081   4.743
  177POPC   C2B 2495   0.565   3.977   5.185
  177POPC   C3B 2496   0.279   4.274   5.436
  177POPC   C4B 2497   0.098   4.179   5.875
  178POPC   NC3 2498   8.662   9.749   4.081
  178POPC   PO4 2499   9.272   9.427   3.864
  178POPC   GL1 2500   9.098   9.597   4.259
  178POPC   GL2 2501   9.099   9.959   4.322
  178POPC   C1A 2502   8.988   9.543   4.679
  178POPC   D2A 2503   9.148   9.367   5.041
  178POPC   C3A 2504   8.973   9.493   5.452
  178POPC   C4A 2505   9.013   9.237   5.816
  178POPC   C1B 2506   8.860   0.034   4.732
  178POPC   C2B 2507   8.956   9.946   5.195
  178POPC   C3B 2508   8.900   9.964   5.685
  178POPC   C4B 2509   8.736   9.983   6.171
  179POPC   NC3 2510   3.484   7.439   3.671
  179POPC   PO4 2511   4.060   7.679   3.797
  179POPC   GL1 2512   3.644   7.628   4.117
  179POPC   GL2 2513   3.593   7.315   4.195
  179POPC   C1A 2514   3.441   7.694   4.559
  179POPC   D2A 2515   3.200   7.722   4.956
  179POPC   C3A 2516   3.389   7.639   5.378
  179POPC   C4A 2517   3.266   7.295   5.673
  179POPC   C1B 2518   3.370   7.177   4.578
  179POPC   C2B 2519   3.499   7.290   5.009
  179POPC   C3B 2520   3.730   7.252   5.419
  179POPC   C4B 2521   3.740   7.430   5.839
  180POPC   NC3 2522   9.940   2.609   3.805
  180POPC   PO4 2523   9.932   3.187   4.153
  180POPC   GL1 2524   9.801   2.973   4.467
  180POPC   GL2 2525   9.535   2.756   4.462
  180POPC   C1A 2526   9.793   2.855   4.869
  180POPC   D2A 2527   9.583   3.092   5.115
  180POPC   C3A 2528   9.756   3.011   5.514
  180POPC   C4A 2529   9.490   3.176   5.783
  180POPC   C1B 2530   9.497   2.434   4.743
  180POPC   C2B 2531   9.473   2.545   5.155
  180POPC   C3B 2532   9.284   2.825   5.435
  180POPC   C4B 2533   9.393   2.597   5.787
  181POPC   NC3 2534   1.024   1.229   4.000
  181POPC   PO4 2535   0.886   0.659   3.662
  181POPC   GL1 2536   1.182   0.767   4.117
  181POPC   GL2 2537   1.439   1.013   4.272
  181POPC   C1A 2538   1.052   0.962   4.594
  181POPC   D2A 2539   1.211   1.253   4.932
  181POPC   C3A 2540   1.188   1.157   5.373
  181POPC   C4A 2541   1.160   1.071   5.815
  181POPC   C1B 2542   1.626   1.300   4.642
  181POPC   C2B 2543   1.671   1.503   5.099
  181POPC   C3B 2544   1.632   1.354   5.563
  181POPC   C4B 2545   1.557   1.319   6.031
  182POPC   NC3 2546   2.230   1.650   3.465
  182POPC   PO4 2547   1.935   1.800   4.013
  182POPC   GL1 2548   1.851   2.073   4.381
  182POPC   GL2 2549   1.692   2.406   4.327
  182POPC   C1A 2550   1.880   1.951   4.825
  182POPC   D2A 2551   2.274   1.914   5.065
  182POPC   C3A 2552   2.376   2.128   5.421
  182POPC   C4A 2553   2.138   2.063   5.795
  182POPC   C1B 2554   1.751   2.539   4.752
  182POPC   C2B 2555   1.966   2.360   5.132
  182POPC   C3B 2556   1.842   2.002   5.382
  182POPC   C4B 2557   1.619   2.123   5.765
  183POPC   NC3 2558   7.757   1.238   3.913
  183POPC   PO4 2559   8.364   1.523   3.689
  183POPC   GL1 2560   8.181   1.428   4.169
  183POPC   GL2 2561   8.398   1.211   4.325
  183POPC   C1A 2562   8.168   1.403   4.706
  183POPC   D2A 2563   8.315   1.383   5.182
  183POPC   C3A 2564   8.021   1.374   5.604
  183POPC   C4A 2565   7.794   1.621   5.983
  183POPC   C1B 2566   8.517   1.027   4.760
  183POPC   C2B 2567   8.490   0.900   5.203
  183POPC   C3B 2568   8.475   1.111   5.638
  183POPC   C4B 2569   8.407   0.879   6.075
  184POPC   NC3 2570   8.239   8.962   3.879
  184POPC   PO4 2571   7.574   9.111   3.829
  184POPC   GL1 2572   7.886   9.224   4.144
  184POPC   GL2 2573   7.970   8.923   4.292
  184POPC   C1A 2574   8.036   9.318   4.601
  184POPC   D2A 2575   7.849   9.356   5.012
  184POPC   C3A 2576   8.030   9.233   5.410
  184POPC   C4A 2577   7.837   8.945   5.711
  184POPC   C1B 2578   8.214   8.825   4.645
  184POPC   C2B 2579   8.227   8.909   5.061
  184POPC   C3B 2580   8.438   8.765   5.406
  184POPC   C4B 2581   8.317   8.806   5.792
  185POPC   NC3 2582   8.114   9.504   3.709
  185POPC   PO4 2583   8.360   0.126   3.951
  185POPC   GL1 2584   8.220   9.843   4.276
  185POPC   GL2 2585   7.911   9.721   4.236
  185POPC   C1A 2586   8.438   9.682   4.679
  185POPC   D2A 2587   8.626   9.590   5.061
  185POPC   C3A 2588   8.506   9.757   5.442
  185POPC   C4A 2589   8.547   9.634   5.878
  185POPC   C1B 2590   7.960   9.824   4.703
  185POPC   C2B 2591   8.074   9.778   5.162
  185POPC   C3B 2592   8.021   9.811   5.619
  185POPC   C4B 2593   7.859   0.141   5.888
  186POPC   NC3 2594   5.016   2.121   3.907
  186POPC   PO4 2595   5.163   1.417   4.045
  186POPC   GL1 2596   5.155   1.720   4.330
  186POPC   GL2 2597   5.196   2.047   4.359
  186POPC   C1A 2598   4.948   1.750   4.718
  186POPC   D2A 2599   5.076   1.874   5.129
  186POPC   C3A 2600   4.799   1.930   5.477
  186POPC   C4A 2601   4.819   2.032   5.922
  186POPC   C1B 2602   5.011   2.268   4.746
  186POPC   C2B 2603   4.826   2.346   5.166
  186POPC   C3B 2604   4.963   2.419   5.588
  186POPC   C4B 2605   5.221   2.379   5.968
  187POPC   NC3 2606   3.405   2.885   3.833
  187POPC   PO4 2607   4.044   3.170   3.956
  187POPC   GL1 2608   3.896   3.113   4.357
  187POPC   GL2 2609   3.778   2.773   4.336
  187POPC   C1A 2610   3.690   3.078   4.779
  187POPC   D2A 2611   3.307   2.890   4.959
  187POPC   C3A 2612   3.225   2.863   5.391
  187POPC   C4A 2613   2.942   2.776   5.719
  187POPC   C1B 2614   3.631   2.548   4.721
  187POPC   C2B 2615   3.448   2.419   5.158
  187POPC   C3B 2616   3.318   2.407   5.621
  187POPC   C4B 2617   3.579   2.441   6.005
  188POPC   NC3 2618   2.834   8.070   3.723
  188POPC   PO4 2619   2.230   7.801   3.809
  188POPC   GL1 2620   2.471   8.078   4.201
  188POPC   GL2 2621   2.847   8.088   4.216
  188POPC   C1A 2622   2.405   8.149   4.668
  188POPC   D2A 2623   2.194   8.051   5.067
  188POPC   C3A 2624   2.453   8.123   5.431
  188POPC   C4A 2625   2.493   8.446   5.750
  188POPC   C1B 2626   2.902   8.021   4.631
  188POPC   C2B 2627   2.806   8.358   4.934
  188POPC   C3B 2628   2.864   8.419   5.389
  188POPC   C4B 2629   2.949   8.214   5.793
  189POPC   NC3 2630   9.331   5.132   4.053
  189POPC   PO4 2631   9.960   5.314   4.070
  189POPC   GL1 2632   9.725   5.027   4.357
  189POPC   GL2 2633   9.562   4.694   4.300
  189POPC   C1A 2634   9.599   4.961   4.784
  189POPC   D2A 2635   9.600   5.102   5.172
  189POPC   C3A 2636   9.475   4.919   5.569
  189POPC   C4A 2637   9.406   5.145   5.973
  189POPC   C1B 2638   9.706   4.480   4.701
  189POPC   C2B 2639   9.862   4.626   5.133
  189POPC   C3B 2640   0.016   4.983   5.421
  189POPC   C4B 2641   9.882   5.034   5.864
  190POPC   NC3 2642   8.737   1.237   3.715
  190POPC   PO4 2643   9.331   1.425   3.928
  190POPC   GL1 2644   8.912   1.299   4.187
  190POPC   GL2 2645   8.763   0.918   4.173
  190POPC   C1A 2646   8.801   1.427   4.602
  190POPC   D2A 2647   9.047   1.543   4.965
  190POPC   C3A 2648   8.928   1.370   5.360
  190POPC   C4A 2649   9.144   1.377   5.774
  190POPC   C1B 2650   8.968   0.907   4.544
  190POPC   C2B 2651   9.024   1.001   4.982
  190POPC   C3B 2652   8.955   0.870   5.418
  190POPC   C4B 2653   8.895   0.924   5.880
  191POPC   NC3 2654   0.767   2.747   4.062
  191POPC   PO4 2655   1.396   2.420   3.869
  191POPC   GL1 2656   1.281   2.724   4.204
  191POPC   GL2 2657   1.281   3.052   4.056
  191POPC   C1A 2658   1.089   2.951   4.594
  191POPC   D2A 2659   0.934   2.915   5.043
  191POPC   C3A 2660   1.169   2.705   5.354
  191POPC   C4A 2661   1.494   2.722   5.663
  191POPC   C1B 2662   1.546   3.127   4.439
  191POPC   C2B 2663   1.513   2.986   4.902
  191POPC   C3B 2664   1.462   3.142   5.338
  191POPC   C4B 2665   1.149   3.125   5.706
  192POPC   NC3 2666   1.903   9.664   3.782
  192POPC   PO4 2667   1.343   9.704   4.065
  192POPC   GL1 2668   1.722   9.581   4.240
  192POPC   GL2 2669   2.057   9.765   4.258
  192POPC   C1A 2670   1.817   9.458   4.624
  192POPC   D2A 2671   1.887   9.416   5.046
  192POPC   C3A 2672   1.902   9.560   5.487
  192POPC   C4A 2673   1.666   9.346   5.825
  192POPC   C1B 2674   2.222   9.738   4.673
  192POPC   C2B 2675   2.384   9.947   4.987
  192POPC   C3B 2676   2.233   0.118   5.353
  192POPC   C4B 2677   2.130   9.995   5.738
  193POPC   NC3 2678   7.956   6.258   4.080
  193POPC   PO4 2679   8.358   6.676   3.738
  193POPC   GL1 2680   8.261   6.711   4.211
  193POPC   GL2 2681   7.974   6.905   4.366
  193POPC   C1A 2682   8.290   6.580   4.671
  193POPC   D2A 2683   8.479   6.421   5.095
  193POPC   C3A 2684   8.497   6.606   5.525
  193POPC   C4A 2685   8.305   6.439   5.916
  193POPC   C1B 2686   7.914   6.900   4.816
  193POPC   C2B 2687   7.958   6.531   5.089
  193POPC   C3B 2688   7.981   6.416   5.531
  193POPC   C4B 2689   7.825   6.578   5.953
  194POPC   NC3 2690   7.799   5.393   3.881
  194POPC   PO4 2691   7.551   4.785   3.903
  194POPC   GL1 2692   7.636   4.591   4.341
  194POPC   GL2 2693   7.310   4.608   4.493
  194POPC   C1A 2694   7.666   4.680   4.837
  194POPC   D2A 2695   7.546   4.994   5.139
  194POPC   C3A 2696   7.567   5.040   5.593
  194POPC   C4A 2697   7.899   5.235   5.822
  194POPC   C1B 2698   7.148   4.675   4.915
  194POPC   C2B 2699   7.195   4.693   5.361
  194POPC   C3B 2700   7.264   4.643   5.770
  194POPC   C4B 2701   7.034   4.351   6.059
  195POPC   NC3 2702   3.538   1.909   4.004
  195POPC   PO4 2703   3.701   2.506   3.862
  195POPC   GL1 2704   3.772   2.255   4.289
  195POPC   GL2 2705   3.402   2.270   4.345
  195POPC   C1A 2706   3.889   1.836   4.566
  195POPC   D2A 2707   4.054   1.682   4.989
  195POPC   C3A 2708   3.917   1.686   5.461
  195POPC   C4A 2709   3.978   1.597   5.933
  195POPC   C1B 2710   3.465   2.048   4.734
  195POPC   C2B 2711   3.585   1.916   5.137
  195POPC   C3B 2712   3.482   1.923   5.589
  195POPC   C4B 2713   3.517   1.851   6.044
  196POPC   NC3 2714   4.710   1.379   3.990
  196POPC   PO4 2715   4.020   1.559   3.912
  196POPC   GL1 2716   3.954   1.376   4.323
  196POPC   GL2 2717   4.186   1.124   4.243
  196POPC   C1A 2718   4.076   1.232   4.753
  196POPC   D2A 2719   4.085   1.191   5.215
  196POPC   C3A 2720   4.379   1.484   5.375
  196POPC   C4A 2721   4.650   1.474   5.723
  196POPC   C1B 2722   4.509   0.999   4.557
  196POPC   C2B 2723   4.544   1.035   5.000
  196POPC   C3B 2724   4.568   1.016   5.444
  196POPC   C4B 2725   4.242   1.165   5.764
  197POPC   NC3 2726   7.390   7.733   3.725
  197POPC   PO4 2727   6.874   7.956   4.093
  197POPC   GL1 2728   7.083   8.162   4.422
  197POPC   GL2 2729   7.329   8.436   4.363
  197POPC   C1A 2730   7.004   8.354   4.797
  197POPC   D2A 2731   7.231   8.552   5.116
  197POPC   C3A 2732   7.116   8.289   5.437
  197POPC   C4A 2733   7.308   8.030   5.697
  197POPC   C1B 2734   7.488   8.237   4.773
  197POPC   C2B 2735   7.582   8.156   5.219
  197POPC   C3B 2736   7.788   8.079   5.623
  197POPC   C4B 2737   7.622   8.193   6.059
  198POPC   NC3 2738   8.919   3.500   3.724
  198POPC   PO4 2739   9.302   3.946   3.993
  198POPC   GL1 2740   9.084   3.783   4.346
  198POPC   GL2 2741   8.849   3.502   4.235
  198POPC   C1A 2742   9.062   3.675   4.807
  198POPC   D2A 2743   9.128   3.375   5.141
  198POPC   C3A 2744   9.116   3.542   5.557
  198POPC   C4A 2745   9.067   3.368   5.973
  198POPC   C1B 2746   8.609   3.664   4.574
  198POPC   C2B 2747   8.598   3.521   4.995
  198POPC   C3B 2748   8.609   3.565   5.416
  198POPC   C4B 2749   8.647   3.670   5.852
  199POPC   NC3 2750   1.897   9.025   3.835
  199POPC   PO4 2751   2.344   9.464   3.949
  199POPC   GL1 2752   2.143   9.255   4.279
  199POPC   GL2 2753   2.172   8.892   4.272
  199POPC   C1A 2754   2.267   9.205   4.714
  199POPC   D2A 2755   2.100   8.930   5.031
  199POPC   C3A 2756   1.918   9.047   5.400
  199POPC   C4A 2757   2.127   9.055   5.763
  199POPC   C1B 2758   1.837   8.928   4.598
  199POPC   C2B 2759   1.583   8.832   5.002
  199POPC   C3B 2760   1.521   8.718   5.452
  199POPC   C4B 2761   1.677   8.840   5.844
  200POPC   NC3 2762   7.928   0.381   4.127
  200POPC   PO4 2763   7.663   0.814   3.751
  200POPC   GL1 2764   8.021   0.879   4.146
  200POPC   GL2 2765   8.328   0.640   4.294
  200POPC   C1A 2766   8.043   0.902   4.615
  200POPC   D2A 2767   7.959   1.040   5.039
  200POPC   C3A 2768   7.990   0.696   5.350
  200POPC   C4A 2769   8.059   0.592   5.779
  200POPC   C1B 2770   8.314   0.223   4.606
  200POPC   C2B 2771   8.433   0.113   5.018
  200POPC   C3B 2772   8.239   0.224   5.408
  200POPC   C4B 2773   8.411   0.140   5.797
  201POPC   NC3 2774   8.916   9.248   3.620
  201POPC   PO4 2775   8.390   9.373   4.054
  201POPC   GL1 2776   8.678   9.283   4.342
  201POPC   GL2 2777   8.955   9.119   4.148
  201POPC   C1A 2778   8.599   9.172   4.772
  201POPC   D2A 2779   8.740   9.106   5.203
  201POPC   C3A 2780   8.535   9.226   5.597
  201POPC   C4A 2781   8.529   9.165   6.083
  201POPC   C1B 2782   9.083   9.035   4.602
  201POPC   C2B 2783   9.116   8.815   5.018
  201POPC   C3B 2784   9.110   8.851   5.478
  201POPC   C4B 2785   8.822   8.770   5.811
  202POPC   NC3 2786   7.438   3.630   4.019
  202POPC   PO4 2787   7.615   3.094   3.756
  202POPC   GL1 2788   7.445   3.160   4.213
  202POPC   GL2 2789   7.333   3.434   4.466
  202POPC   C1A 2790   7.311   2.982   4.664
  202POPC   D2A 2791   7.233   3.122   5.066
  202POPC   C3A 2792   7.533   3.382   5.277
  202POPC   C4A 2793   7.588   3.282   5.712
  202POPC   C1B 2794   7.254   3.665   4.872
  202POPC   C2B 2795   7.166   3.755   5.300
  202POPC   C3B 2796   7.464   3.762   5.617
  202POPC   C4B 2797   7.768   3.758   5.939
  203POPC   NC3 2798   5.612   0.049   3.498
  203POPC   PO4 2799   5.503   0.477   4.056
  203POPC   GL1 2800   5.873   0.596   4.306
  203POPC   GL2 2801   5.856   0.904   4.498
  203POPC   C1A 2802   6.130   0.461   4.649
  203POPC   D2A 2803   6.124   0.110   4.952
  203POPC   C3A 2804   6.178   0.217   5.393
  203POPC   C4A 2805   6.046   0.197   5.814
  203POPC   C1B 2806   5.685   0.652   4.803
  203POPC   C2B 2807   5.862   0.519   5.138
  203POPC   C3B 2808   5.763   0.526   5.541
  203POPC   C4B 2809   5.423   0.789   5.697
  204POPC   NC3 2810   4.423   7.926   3.699
  204POPC   PO4 2811   4.088   7.760   4.313
  204POPC   GL1 2812   3.815   8.016   4.510
  204POPC   GL2 2813   4.046   8.265   4.464
  204POPC   C1A 2814   3.700   7.981   4.907
  204POPC   D2A 2815   4.022   8.050   5.149
  204POPC   C3A 2816   3.882   7.827   5.504
  204POPC   C4A 2817   3.985   7.963   5.889
  204POPC   C1B 2818   4.467   8.268   4.653
  204POPC   C2B 2819   4.507   8.313   5.103
  204POPC   C3B 2820   4.376   8.178   5.515
  204POPC   C4B 2821   4.518   8.332   5.887
  205POPC   NC3 2822   5.742   8.332   3.972
  205POPC   PO4 2823   6.146   7.805   3.962
  205POPC   GL1 2824   5.915   7.968   4.354
  205POPC   GL2 2825   5.781   8.320   4.458
  205POPC   C1A 2826   6.017   8.111   4.812
  205POPC   D2A 2827   5.824   8.399   5.123
  205POPC   C3A 2828   5.954   8.327   5.577
  205POPC   C4A 2829   6.032   8.033   5.939
  205POPC   C1B 2830   5.529   8.021   4.732
  205POPC   C2B 2831   5.405   8.110   5.182
  205POPC   C3B 2832   5.538   8.034   5.627
  205POPC   C4B 2833   5.537   7.904   6.071
  206POPC   NC3 2834   9.618   9.156   3.996
  206POPC   PO4 2835   9.998   8.654   3.874
  206POPC   GL1 2836   9.996   8.952   4.242
  206POPC   GL2 2837   9.698   8.794   4.355
  206POPC   C1A 2838   9.984   9.112   4.674
  206POPC   D2A 2839   0.195   9.194   5.067
  206POPC   C3A 2840   0.031   9.318   5.464
  206POPC   C4A 2841   9.777   9.267   5.835
  206POPC   C1B 2842   9.574   8.818   4.785
  206POPC   C2B 2843   9.584   8.797   5.237
  206POPC   C3B 2844   9.607   8.808   5.682
  206POPC   C4B 2845   9.314   8.676   6.003
  207POPC   NC3 2846   2.893   1.340   4.057
  207POPC   PO4 2847   2.332   0.975   3.959
  207POPC   GL1 2848   2.642   0.967   4.317
  207POPC   GL2 2849   2.740   1.269   4.520
  207POPC   C1A 2850   2.600   0.879   4.802
  207POPC   D2A 2851   2.697   1.175   5.124
  207POPC   C3A 2852   2.564   1.143   5.559
  207POPC   C4A 2853   2.481   0.895   5.949
  207POPC   C1B 2854   3.082   1.297   4.781
  207POPC   C2B 2855   3.199   1.051   5.114
  207POPC   C3B 2856   3.125   1.112   5.569
  207POPC   C4B 2857   2.886   1.189   5.956
  208POPC   NC3 2858   6.370   9.023   4.151
  208POPC   PO4 2859   6.900   8.900   3.763
  208POPC   GL1 2860   6.780   8.776   4.291
  208POPC   GL2 2861   6.708   9.117   4.549
  208POPC   C1A 2862   6.643   8.702   4.769
  208POPC   D2A 2863   6.717   8.510   5.205
  208POPC   C3A 2864   6.779   8.638   5.631
  208POPC   C4A 2865   6.807   8.626   6.082
  208POPC   C1B 2866   6.323   9.111   4.810
  208POPC   C2B 2867   6.360   9.164   5.230
  208POPC   C3B 2868   6.652   9.133   5.523
  208POPC   C4B 2869   6.518   8.984   5.895
  209POPC   NC3 2870   2.971   5.769   4.052
  209POPC   PO4 2871   2.311   5.785   3.952
  209POPC   GL1 2872   2.401   5.921   4.332
  209POPC   GL2 2873   2.701   6.066   4.347
  209POPC   C1A 2874   2.521   5.746   4.735
  209POPC   D2A 2875   2.364   5.808   5.162
  209POPC   C3A 2876   2.594   5.615   5.519
  209POPC   C4A 2877   2.606   5.646   5.993
  209POPC   C1B 2878   2.832   6.142   4.775
  209POPC   C2B 2879   2.825   6.004   5.206
  209POPC   C3B 2880   2.843   6.011   5.694
  209POPC   C4B 2881   3.005   5.942   6.124
  210POPC   NC3 2882   1.199   7.455   3.900
  210POPC   PO4 2883   0.905   6.869   3.985
  210POPC   GL1 2884   1.042   7.140   4.284
  210POPC   GL2 2885   0.850   7.466   4.296
  210POPC   C1A 2886   1.215   7.207   4.689
  210POPC   D2A 2887   1.151   7.335   5.121
  210POPC   C3A 2888   1.225   7.122   5.529
  210POPC   C4A 2889   1.383   6.986   5.963
  210POPC   C1B 2890   0.991   7.679   4.672
  210POPC   C2B 2891   1.232   7.831   5.039
  210POPC   C3B 2892   1.255   7.700   5.473
  210POPC   C4B 2893   1.409   7.482   5.851
  211POPC   NC3 2894   2.064   7.693   4.238
  211POPC   PO4 2895   1.642   7.300   3.890
  211POPC   GL1 2896   1.838   7.170   4.258
  211POPC   GL2 2897   2.170   7.164   4.306
  211POPC   C1A 2898   1.744   7.146   4.667
  211POPC   D2A 2899   1.598   7.470   4.924
  211POPC   C3A 2900   1.646   7.387   5.353
  211POPC   C4A 2901   1.867   7.301   5.703
  211POPC   C1B 2902   2.237   7.294   4.716
  211POPC   C2B 2903   2.091   7.556   5.020
  211POPC   C3B 2904   2.163   7.649   5.429
  211POPC   C4B 2905   2.478   7.702   5.714
  212POPC   NC3 2906   9.471   1.868   3.965
  212POPC   PO4 2907   9.543   2.521   4.029
  212POPC   GL1 2908   9.664   2.160   4.345
  212POPC   GL2 2909   9.902   1.851   4.288
  212POPC   C1A 2910   9.772   2.022   4.795
  212POPC   D2A 2911   9.843   2.149   5.218
  212POPC   C3A 2912   9.523   2.148   5.548
  212POPC   C4A 2913   9.286   2.058   5.945
  212POPC   C1B 2914   9.723   1.555   4.633
  212POPC   C2B 2915   9.546   1.635   5.089
  212POPC   C3B 2916   9.560   1.627   5.550
  212POPC   C4B 2917   9.823   1.800   5.882
  213POPC   NC3 2918   2.049   5.385   3.999
  213POPC   PO4 2919   2.473   4.906   4.089
  213POPC   GL1 2920   2.132   5.067   4.399
  213POPC   GL2 2921   1.781   5.024   4.294
  213POPC   C1A 2922   1.833   5.391   4.651
  213POPC   D2A 2923   1.624   5.572   5.030
  213POPC   C3A 2924   1.791   5.510   5.447
  213POPC   C4A 2925   2.158   5.441   5.699
  213POPC   C1B 2926   1.660   4.724   4.594
  213POPC   C2B 2927   1.705   4.642   5.024
  213POPC   C3B 2928   1.788   4.659   5.456
  213POPC   C4B 2929   2.085   4.936   5.670
  214POPC   NC3 2930   1.293   8.449   3.950
  214POPC   PO4 2931   0.900   7.847   3.951
  214POPC   GL1 2932   1.080   8.100   4.315
  214POPC   GL2 2933   1.448   8.150   4.336
  214POPC   C1A 2934   0.986   8.187   4.769
  214POPC   D2A 2935   0.757   7.982   5.158
  214POPC   C3A 2936   0.864   8.055   5.584
  214POPC   C4A 2937   1.141   7.915   5.922
  214POPC   C1B 2938   1.457   8.414   4.702
  214POPC   C2B 2939   1.309   8.359   5.128
  214POPC   C3B 2940   1.396   8.205   5.538
  214POPC   C4B 2941   1.665   8.324   5.877
  215POPC   NC3 2942   5.109   8.632   3.523
  215POPC   PO4 2943   4.780   8.981   4.006
  215POPC   GL1 2944   4.885   8.853   4.394
  215POPC   GL2 2945   5.185   8.802   4.382
  215POPC   C1A 2946   4.828   8.650   4.769
  215POPC   D2A 2947   4.690   8.805   5.136
  215POPC   C3A 2948   4.726   8.605   5.514
  215POPC   C4A 2949   4.900   8.666   5.931
  215POPC   C1B 2950   5.199   9.093   4.727
  215POPC   C2B 2951   5.059   9.182   5.131
  215POPC   C3B 2952   5.064   8.999   5.538
  215POPC   C4B 2953   5.039   9.144   5.954
  216POPC   NC3 2954   2.860   6.608   3.733
  216POPC   PO4 2955   3.302   7.073   3.892
  216POPC   GL1 2956   3.064   6.788   4.230
  216POPC   GL2 2957   2.738   6.557   4.249
  216POPC   C1A 2958   3.022   6.723   4.681
  216POPC   D2A 2959   2.738   6.594   5.026
  216POPC   C3A 2960   2.807   6.869   5.434
  216POPC   C4A 2961   3.065   6.860   5.855
  216POPC   C1B 2962   2.421   6.391   4.612
  216POPC   C2B 2963   2.268   6.357   5.050
  216POPC   C3B 2964   2.472   6.311   5.445
  216POPC   C4B 2965   2.730   6.500   5.768
  217POPC   NC3 2966   2.881   3.813   3.412
  217POPC   PO4 2967   2.871   4.112   4.024
  217POPC   GL1 2968   2.792   4.303   4.451
  217POPC   GL2 2969   2.511   4.576   4.524
  217POPC   C1A 2970   2.988   4.233   4.871
  217POPC   D2A 2971   3.112   3.970   5.243
  217POPC   C3A 2972   2.872   4.040   5.619
  217POPC   C4A 2973   2.554   4.160   5.925
  217POPC   C1B 2974   2.478   4.245   4.848
  217POPC   C2B 2975   2.495   4.140   5.274
  217POPC   C3B 2976   2.597   4.498   5.549
  217POPC   C4B 2977   2.437   4.683   5.927
  218POPC   NC3 2978   3.043   7.521   4.097
  218POPC   PO4 2979   2.491   7.580   4.182
  218POPC   GL1 2980   2.680   7.317   4.389
  218POPC   GL2 2981   2.627   7.041   4.126
  218POPC   C1A 2982   2.756   7.476   4.805
  218POPC   D2A 2983   2.675   7.847   5.058
  218POPC   C3A 2984   2.929   7.876   5.413
  218POPC   C4A 2985   2.979   7.693   5.825
  218POPC   C1B 2986   2.561   6.892   4.584
  218POPC   C2B 2987   2.549   7.063   5.025
  218POPC   C3B 2988   2.706   7.381   5.344
  218POPC   C4B 2989   2.721   7.249   5.787
  219POPC   NC3 2990   2.533   4.450   4.042
  219POPC   PO4 2991   1.957   4.094   4.126
  219POPC   GL1 2992   2.202   4.153   4.422
  219POPC   GL2 2993   2.032   4.376   4.618
  219POPC   C1A 2994   2.138   3.882   4.807
  219POPC   D2A 2995   1.973   3.929   5.199
  219POPC   C3A 2996   2.203   3.860   5.612
  219POPC   C4A 2997   2.200   3.833   6.110
  219POPC   C1B 2998   1.662   4.168   4.823
  219POPC   C2B 2999   1.513   4.219   5.261
  219POPC   C3B 3000   1.737   4.121   5.596
  219POPC   C4B 3001   2.109   4.351   5.730
  220POPC   NC3 3002   5.584   9.951   4.085
  220POPC   PO4 3003   6.260   0.074   3.883
  220POPC   GL1 3004   6.029   0.113   4.291
  220POPC   GL2 3005   5.954   9.802   4.413
  220POPC   C1A 3006   5.699   0.163   4.674
  220POPC   D2A 3007   5.552   0.072   5.105
  220POPC   C3A 3008   5.774   9.907   5.458
  220POPC   C4A 3009   5.841   9.722   5.864
  220POPC   C1B 3010   5.867   9.683   4.836
  220POPC   C2B 3011   5.983   9.496   5.224
  220POPC   C3B 3012   5.749   9.283   5.555
  220POPC   C4B 3013   5.448   9.402   5.854
  221POPC   NC3 3014   9.759   4.017   3.890
  221POPC   PO4 3015   9.999   4.579   4.034
  221POPC   GL1 3016   9.949   4.220   4.312
  221POPC   GL2 3017   9.625   4.073   4.388
  221POPC   C1A 3018   0.061   4.088   4.724
  221POPC   D2A 3019   9.780   4.102   5.058
  221POPC   C3A 3020   9.784   4.168   5.467
  221POPC   C4A 3021   9.842   4.559   5.663
  221POPC   C1B 3022   9.361   4.089   4.776
  221POPC   C2B 3023   9.305   4.065   5.254
  221POPC   C3B 3024   9.344   4.309   5.678
  221POPC   C4B 3025   9.597   4.176   6.060
  222POPC   NC3 3026   9.480   3.075   4.077
  222POPC   PO4 3027   9.946   3.368   3.683
  222POPC   GL1 3028   9.664   3.586   4.120
  222POPC   GL2 3029   9.921   3.668   4.418
  222POPC   C1A 3030   9.473   3.503   4.560
  222POPC   D2A 3031   9.560   3.651   4.978
  222POPC   C3A 3032   9.668   3.529   5.384
  222POPC   C4A 3033   9.543   3.791   5.726
  222POPC   C1B 3034   9.939   3.364   4.769
  222POPC   C2B 3035   0.089   3.176   5.128
  222POPC   C3B 3036   0.170   3.313   5.506
  222POPC   C4B 3037   9.907   3.462   5.844
  223POPC   NC3 3038   1.207   0.149   4.080
  223POPC   PO4 3039   0.718   0.614   4.172
  223POPC   GL1 3040   1.093   0.427   4.493
  223POPC   GL2 3041   1.465   0.437   4.404
  223POPC   C1A 3042   1.383   0.253   4.863
  223POPC   D2A 3043   1.159   0.202   5.222
  223POPC   C3A 3044   1.244   0.130   5.632
  223POPC   C4A 3045   0.891   0.205   5.889
  223POPC   C1B 3046   1.479   0.739   4.715
  223POPC   C2B 3047   1.239   0.718   5.090
  223POPC   C3B 3048   1.258   0.640   5.538
  223POPC   C4B 3049   1.244   0.549   5.989
  224POPC   NC3 3050   8.037   3.053   3.573
  224POPC   PO4 3051   8.475   3.505   3.840
  224POPC   GL1 3052   8.225   3.507   4.259
  224POPC   GL2 3053   7.853   3.515   4.325
  224POPC   C1A 3054   8.210   3.329   4.699
  224POPC   D2A 3055   8.096   3.478   5.134
  224POPC   C3A 3056   8.073   3.167   5.448
  224POPC   C4A 3057   8.034   3.212   5.902
  224POPC   C1B 3058   7.731   3.509   4.773
  224POPC   C2B 3059   7.732   3.845   5.049
  224POPC   C3B 3060   7.913   3.938   5.451
  224POPC   C4B 3061   8.166   3.623   5.662
  225POPC   NC3 3062   6.539   9.677   3.971
  225POPC   PO4 3063   6.014   9.322   4.250
  225POPC   GL1 3064   6.386   9.506   4.432
  225POPC   GL2 3065   6.480   9.882   4.423
  225POPC   C1A 3066   6.431   9.625   4.861
  225POPC   D2A 3067   6.622   9.608   5.254
  225POPC   C3A 3068   6.321   9.744   5.528
  225POPC   C4A 3069   6.213   9.370   5.738
  225POPC   C1B 3070   6.885   9.854   4.679
  225POPC   C2B 3071   7.070   9.816   5.117
  225POPC   C3B 3072   6.927   9.880   5.559
  225POPC   C4B 3073   6.704   9.559   5.807
  226POPC   NC3 3074   9.905   5.796   3.924
  226POPC   PO4 3075   9.249   5.485   3.750
  226POPC   GL1 3076   9.488   5.586   4.181
  226POPC   GL2 3077   9.457   5.918   4.190
  226POPC   C1A 3078   9.636   5.486   4.655
  226POPC   D2A 3079   9.596   5.621   5.129
  226POPC   C3A 3080   9.665   5.415   5.560
  226POPC   C4A 3081   9.914   5.522   5.939
  226POPC   C1B 3082   9.468   5.974   4.643
  226POPC   C2B 3083   9.816   6.049   4.904
  226POPC   C3B 3084   9.939   5.953   5.306
  226POPC   C4B 3085   9.668   5.921   5.604
  227POPC   NC3 3086   8.960   5.786   4.028
  227POPC   PO4 3087   9.280   6.367   3.935
  227POPC   GL1 3088   9.068   6.182   4.363
  227POPC   GL2 3089   8.999   5.833   4.513
  227POPC   C1A 3090   9.035   6.221   4.828
  227POPC   D2A 3091   9.144   5.824   5.027
  227POPC   C3A 3092   9.170   5.826   5.475
  227POPC   C4A 3093   9.251   6.109   5.823
  227POPC   C1B 3094   8.756   5.538   4.784
  227POPC   C2B 3095   8.744   5.452   5.210
  227POPC   C3B 3096   8.702   5.646   5.601
  227POPC   C4B 3097   8.898   5.790   5.973
  228POPC   NC3 3098   8.481   3.100   4.071
  228POPC   PO4 3099   8.054   2.636   3.793
  228POPC   GL1 3100   7.993   2.722   4.214
  228POPC   GL2 3101   7.966   3.062   4.122
  228POPC   C1A 3102   8.118   2.709   4.683
  228POPC   D2A 3103   8.069   2.650   5.143
  228POPC   C3A 3104   8.413   2.686   5.439
  228POPC   C4A 3105   8.410   2.481   5.859
  228POPC   C1B 3106   7.796   3.062   4.542
  228POPC   C2B 3107   7.760   3.035   4.986
  228POPC   C3B 3108   7.672   2.869   5.411
  228POPC   C4B 3109   7.966   2.700   5.710
  229POPC   NC3 3110   5.950   2.866   4.009
  229POPC   PO4 3111   5.322   3.054   4.105
  229POPC   GL1 3112   5.623   2.795   4.405
  229POPC   GL2 3113   5.507   2.443   4.424
  229POPC   C1A 3114   5.940   2.868   4.809
  229POPC   D2A 3115   6.257   2.761   5.190
  229POPC   C3A 3116   6.072   2.853   5.634
  229POPC   C4A 3117   5.973   2.679   6.044
  229POPC   C1B 3118   5.753   2.402   4.775
  229POPC   C2B 3119   6.096   2.331   4.992
  229POPC   C3B 3120   6.084   2.341   5.439
  229POPC   C4B 3121   5.714   2.366   5.702
  230POPC   NC3 3122   1.309   6.049   3.891
  230POPC   PO4 3123   0.986   5.583   3.717
  230POPC   GL1 3124   1.029   5.768   4.186
  230POPC   GL2 3125   1.383   5.737   4.263
  230POPC   C1A 3126   1.083   6.013   4.612
  230POPC   D2A 3127   0.839   6.060   5.010
  230POPC   C3A 3128   0.985   5.999   5.422
  230POPC   C4A 3129   0.985   6.221   5.802
  230POPC   C1B 3130   1.300   5.551   4.634
  230POPC   C2B 3131   1.104   5.615   5.026
  230POPC   C3B 3132   1.275   5.567   5.411
  230POPC   C4B 3133   1.167   5.690   5.808
  231POPC   NC3 3134   4.933   8.526   4.018
  231POPC   PO4 3135   5.431   7.990   3.993
  231POPC   GL1 3136   5.297   8.298   4.311
  231POPC   GL2 3137   4.959   8.272   4.450
  231POPC   C1A 3138   5.329   8.478   4.751
  231POPC   D2A 3139   5.171   8.626   5.163
  231POPC   C3A 3140   5.268   8.483   5.583
  231POPC   C4A 3141   5.148   8.225   5.929
  231POPC   C1B 3142   4.961   8.165   4.908
  231POPC   C2B 3143   4.915   8.148   5.382
  231POPC   C3B 3144   4.789   7.903   5.756
  231POPC   C4B 3145   4.997   7.775   6.158
  232POPC   NC3 3146   7.155   1.869   3.628
  232POPC   PO4 3147   7.594   2.142   4.031
  232POPC   GL1 3148   7.600   2.054   4.411
  232POPC   GL2 3149   7.663   1.720   4.306
  232POPC   C1A 3150   7.440   2.073   4.839
  232POPC   D2A 3151   7.318   1.950   5.253
  232POPC   C3A 3152   7.075   2.221   5.581
  232POPC   C4A 3153   7.096   2.145   6.029
  232POPC   C1B 3154   7.816   1.740   4.734
  232POPC   C2B 3155   7.824   1.567   5.129
  232POPC   C3B 3156   7.772   1.808   5.480
  232POPC   C4B 3157   7.465   1.940   5.736
  233POPC   NC3 3158   0.482   0.895   3.890
  233POPC   PO4 3159   0.719   1.588   3.946
  233POPC   GL1 3160   0.540   1.264   4.246
  233POPC   GL2 3161   0.175   1.223   4.195
  233POPC   C1A 3162   0.511   1.001   4.662
  233POPC   D2A 3163   0.785   0.969   5.065
  233POPC   C3A 3164   0.722   0.915   5.539
  233POPC   C4A 3165   0.643   1.210   5.910
  233POPC   C1B 3166   0.215   1.413   4.615
  233POPC   C2B 3167   0.484   1.394   4.987
  233POPC   C3B 3168   0.420   1.335   5.437
  233POPC   C4B 3169   0.197   1.452   5.835
  234POPC   NC3 3170   3.044   3.682   3.909
  234POPC   PO4 3171   2.465   3.948   3.585
  234POPC   GL1 3172   2.436   3.827   4.056
  234POPC   GL2 3173   2.549   3.479   4.083
  234POPC   C1A 3174   2.566   3.841   4.526
  234POPC   D2A 3175   2.738   3.779   4.948
  234POPC   C3A 3176   2.639   3.626   5.378
  234POPC   C4A 3177   2.611   3.654   5.845
  234POPC   C1B 3178   2.775   3.392   4.495
  234POPC   C2B 3179   2.950   3.289   4.914
  234POPC   C3B 3180   3.106   3.376   5.333
  234POPC   C4B 3181   2.924   3.274   5.737
  235POPC   NC3 3182   0.338   3.202   3.903
  235POPC   PO4 3183   0.409   2.497   3.849
  235POPC   GL1 3184   0.246   2.789   4.201
  235POPC   GL2 3185   0.023   2.538   4.341
  235POPC   C1A 3186   0.264   2.946   4.671
  235POPC   D2A 3187   0.425   2.789   5.077
  235POPC   C3A 3188   0.249   2.788   5.520
  235POPC   C4A 3189   0.166   3.030   5.915
  235POPC   C1B 3190   0.068   2.431   4.800
  235POPC   C2B 3191   0.351   2.264   5.133
  235POPC   C3B 3192   0.707   2.454   5.361
  235POPC   C4B 3193   0.774   2.725   5.712
  236POPC   NC3 3194   1.894   1.320   4.022
  236POPC   PO4 3195   1.692   0.640   4.017
  236POPC   GL1 3196   1.912   0.835   4.356
  236POPC   GL2 3197   2.225   0.718   4.443
  236POPC   C1A 3198   1.931   0.929   4.818
  236POPC   D2A 3199   1.661   0.997   5.145
  236POPC   C3A 3200   1.764   0.755   5.483
  236POPC   C4A 3201   1.633   0.856   5.862
  236POPC   C1B 3202   2.253   1.198   4.570
  236POPC   C2B 3203   2.218   1.403   4.993
  236POPC   C3B 3204   2.144   1.492   5.437
  236POPC   C4B 3205   2.069   1.127   5.711
  237POPC   NC3 3206   2.709   9.789   3.940
  237POPC   PO4 3207   3.090   9.188   4.098
  237POPC   GL1 3208   2.896   9.397   4.489
  237POPC   GL2 3209   2.595   9.570   4.396
  237POPC   C1A 3210   2.694   9.520   4.912
  237POPC   D2A 3211   2.378   9.352   5.206
  237POPC   C3A 3212   2.526   9.323   5.616
  237POPC   C4A 3213   2.885   9.334   5.828
  237POPC   C1B 3214   2.839   9.909   4.611
  237POPC   C2B 3215   2.893   0.011   5.052
  237POPC   C3B 3216   2.662   9.778   5.389
  237POPC   C4B 3217   2.618   9.799   5.828
  238POPC   NC3 3218   7.844   4.412   3.900
  238POPC   PO4 3219   8.503   4.494   3.991
  238POPC   GL1 3220   8.182   4.335   4.284
  238POPC   GL2 3221   8.005   4.009   4.228
  238POPC   C1A 3222   8.322   4.320   4.707
  238POPC   D2A 3223   8.622   4.473   5.004
  238POPC   C3A 3224   8.405   4.528   5.369
  238POPC   C4A 3225   8.108   4.408   5.648
  238POPC   C1B 3226   8.122   3.835   4.661
  238POPC   C2B 3227   8.287   3.958   5.079
  238POPC   C3B 3228   8.417   4.036   5.507
  238POPC   C4B 3229   8.252   4.035   5.939
  239POPC   NC3 3230   9.602   6.695   3.934
  239POPC   PO4 3231   9.924   6.156   4.211
  239POPC   GL1 3232   9.691   6.500   4.405
  239POPC   GL2 3233   9.877   6.850   4.328
  239POPC   C1A 3234   9.494   6.464   4.819
  239POPC   D2A 3235   9.427   6.230   5.216
  239POPC   C3A 3236   9.560   6.448   5.601
  239POPC   C4A 3237   9.498   6.432   6.096
  239POPC   C1B 3238   9.722   6.932   4.726
  239POPC   C2B 3239   9.691   6.808   5.151
  239POPC   C3B 3240   9.819   7.003   5.518
  239POPC   C4B 3241   9.743   6.836   5.901
  240POPC   NC3 3242   5.611   0.951   4.060
  240POPC   PO4 3243   5.862   1.497   3.702
  240POPC   GL1 3244   5.820   1.447   4.181
  240POPC   GL2 3245   5.546   1.367   4.341
  240POPC   C1A 3246   5.929   1.376   4.659
  240POPC   D2A 3247   6.026   1.019   4.980
  240POPC   C3A 3248   5.838   1.034   5.416
  240POPC   C4A 3249   5.902   0.904   5.852
  240POPC   C1B 3250   5.422   1.509   4.733
  240POPC   C2B 3251   5.651   1.486   5.101
  240POPC   C3B 3252   5.636   1.502   5.534
  240POPC   C4B 3253   5.482   1.274   5.900
  241POPC   NC3 3254   2.144   0.549   3.950
  241POPC   PO4 3255   1.699   0.186   3.544
  241POPC   GL1 3256   1.717   0.106   4.054
  241POPC   GL2 3257   1.952   0.280   4.303
  241POPC   C1A 3258   1.686   9.973   4.553
  241POPC   D2A 3259   1.844   9.949   4.999
  241POPC   C3A 3260   1.685   0.247   5.332
  241POPC   C4A 3261   1.682   0.318   5.803
  241POPC   C1B 3262   1.885   0.414   4.734
  241POPC   C2B 3263   2.080   0.550   5.119
  241POPC   C3B 3264   2.300   0.635   5.511
  241POPC   C4B 3265   2.074   0.619   5.899
  242POPC   NC3 3266   6.450   3.214   3.460
  242POPC   PO4 3267   6.260   3.392   4.027
  242POPC   GL1 3268   6.525   3.213   4.396
  242POPC   GL2 3269   6.905   3.148   4.313
  242POPC   C1A 3270   6.400   3.131   4.842
  242POPC   D2A 3271   6.090   3.226   5.184
  242POPC   C3A 3272   6.415   3.194   5.478
  242POPC   C4A 3273   6.642   3.510   5.691
  242POPC   C1B 3274   6.873   3.353   4.741
  242POPC   C2B 3275   6.817   3.394   5.187
  242POPC   C3B 3276   7.074   3.291   5.556
  242POPC   C4B 3277   6.892   3.185   5.985
  243POPC   NC3 3278   3.481   0.402   3.769
  243POPC   PO4 3279   3.202   1.002   3.942
  243POPC   GL1 3280   3.459   0.709   4.225
  243POPC   GL2 3281   3.613   0.345   4.242
  243POPC   C1A 3282   3.468   0.551   4.678
  243POPC   D2A 3283   3.391   0.149   4.939
  243POPC   C3A 3284   3.265   0.223   5.393
  243POPC   C4A 3285   3.392   0.440   5.788
  243POPC   C1B 3286   3.855   0.239   4.628
  243POPC   C2B 3287   3.801   0.439   5.047
  243POPC   C3B 3288   3.804   0.306   5.461
  243POPC   C4B 3289   3.911   0.346   5.882
  244POPC   NC3 3290   8.721   1.713   3.941
  244POPC   PO4 3291   9.175   2.099   3.717
  244POPC   GL1 3292   9.136   2.130   4.243
  244POPC   GL2 3293   9.058   1.786   4.313
  244POPC   C1A 3294   8.891   2.199   4.705
  244POPC   D2A 3295   8.513   2.265   5.062
  244POPC   C3A 3296   8.644   2.175   5.524
  244POPC   C4A 3297   8.697   2.085   6.000
  244POPC   C1B 3298   9.305   1.885   4.667
  244POPC   C2B 3299   9.260   2.063   5.089
  244POPC   C3B 3300   9.086   1.867   5.480
  244POPC   C4B 3301   8.736   1.673   5.712
  245POPC   NC3 3302   0.346   9.837   3.989
  245POPC   PO4 3303   0.743   9.320   3.837
  245POPC   GL1 3304   0.634   9.432   4.253
  245POPC   GL2 3305   0.321   9.355   4.367
  245POPC   C1A 3306   0.670   9.516   4.716
  245POPC   D2A 3307   0.527   9.563   5.140
  245POPC   C3A 3308   0.787   9.368   5.472
  245POPC   C4A 3309   0.466   9.306   5.789
  245POPC   C1B 3310   0.160   9.598   4.734
  245POPC   C2B 3311   0.064   9.791   5.128
  245POPC   C3B 3312   0.272   9.780   5.537
  245POPC   C4B 3313   0.114   9.650   5.925
  246POPC   NC3 3314   7.293   8.728   3.905
  246POPC   PO4 3315   6.768   9.279   4.098
  246POPC   GL1 3316   7.158   9.091   4.293
  246POPC   GL2 3317   7.469   8.966   4.328
  246POPC   C1A 3318   7.141   8.869   4.705
  246POPC   D2A 3319   6.923   8.983   5.098
  246POPC   C3A 3320   7.167   8.923   5.481
  246POPC   C4A 3321   7.023   9.083   5.894
  246POPC   C1B 3322   7.660   8.953   4.759
  246POPC   C2B 3323   7.646   8.886   5.226
  246POPC   C3B 3324   7.540   8.559   5.552
  246POPC   C4B 3325   7.242   8.549   5.851
  247POPC   NC3 3326   5.698   7.617   4.006
  247POPC   PO4 3327   6.137   7.104   3.988
  247POPC   GL1 3328   6.071   7.432   4.333
  247POPC   GL2 3329   5.834   7.229   4.474
  247POPC   C1A 3330   5.909   7.630   4.766
  247POPC   D2A 3331   5.880   7.859   5.228
  247POPC   C3A 3332   5.887   7.627   5.645
  247POPC   C4A 3333   5.907   7.547   6.103
  247POPC   C1B 3334   6.113   7.166   4.852
  247POPC   C2B 3335   6.271   7.289   5.288
  247POPC   C3B 3336   6.167   7.183   5.744
  247POPC   C4B 3337   5.794   7.052   5.998
  248POPC   NC3 3338   2.759   0.908   3.807
  248POPC   PO4 3339   2.601   0.241   3.901
  248POPC   GL1 3340   2.930   0.547   4.141
  248POPC   GL2 3341   3.110   0.311   4.371
  248POPC   C1A 3342   3.049   0.797   4.559
  248POPC   D2A 3343   3.063   0.571   4.988
  248POPC   C3A 3344   2.859   0.733   5.368
  248POPC   C4A 3345   2.912   0.662   5.824
  248POPC   C1B 3346   2.711   0.406   4.623
  248POPC   C2B 3347   2.577   0.416   5.076
  248POPC   C3B 3348   2.706   0.271   5.511
  248POPC   C4B 3349   2.497   0.329   5.909
  249POPC   NC3 3350   8.800   6.766   3.911
  249POPC   PO4 3351   8.590   6.144   4.112
  249POPC   GL1 3352   8.729   6.549   4.359
  249POPC   GL2 3353   9.114   6.685   4.320
  249POPC   C1A 3354   8.775   6.682   4.774
  249POPC   D2A 3355   9.032   6.635   5.157
  249POPC   C3A 3356   8.946   6.319   5.453
  249POPC   C4A 3357   8.779   6.274   5.870
  249POPC   C1B 3358   9.222   6.882   4.712
  249POPC   C2B 3359   9.256   7.085   5.137
  249POPC   C3B 3360   9.325   6.910   5.549
  249POPC   C4B 3361   9.124   6.642   5.830
  250POPC   NC3 3362   4.819   9.512   3.900
  250POPC   PO4 3363   5.521   9.609   3.768
  250POPC   GL1 3364   5.340   9.530   4.256
  250POPC   GL2 3365   5.020   9.346   4.327
  250POPC   C1A 3366   5.335   9.670   4.711
  250POPC   D2A 3367   5.458   9.544   5.153
  250POPC   C3A 3368   5.264   9.768   5.506
  250POPC   C4A 3369   5.328   9.882   5.950
  250POPC   C1B 3370   4.771   9.377   4.720
  250POPC   C2B 3371   4.848   9.676   5.050
  250POPC   C3B 3372   4.720   9.773   5.463
  250POPC   C4B 3373   4.885   9.611   5.844
  251POPC   NC3 3374   7.185   1.903   4.144
  251POPC   PO4 3375   6.510   1.839   3.882
  251POPC   GL1 3376   6.586   1.762   4.275
  251POPC   GL2 3377   6.256   1.669   4.370
  251POPC   C1A 3378   6.835   1.680   4.653
  251POPC   D2A 3379   6.873   1.956   4.999
  251POPC   C3A 3380   6.845   1.786   5.415
  251POPC   C4A 3381   6.851   1.686   5.850
  251POPC   C1B 3382   6.405   1.948   4.728
  251POPC   C2B 3383   6.391   1.976   5.197
  251POPC   C3B 3384   6.459   2.018   5.647
  251POPC   C4B 3385   6.366   1.737   5.988
  252POPC   NC3 3386   1.585   2.001   3.750
  252POPC   PO4 3387   1.441   1.426   3.976
  252POPC   GL1 3388   1.478   1.710   4.329
  252POPC   GL2 3389   1.351   2.026   4.215
  252POPC   C1A 3390   1.345   1.792   4.797
  252POPC   D2A 3391   1.116   1.688   5.227
  252POPC   C3A 3392   1.280   1.724   5.692
  252POPC   C4A 3393   1.498   1.795   6.134
  252POPC   C1B 3394   1.231   2.288   4.563
  252POPC   C2B 3395   1.052   2.221   4.985
  252POPC   C3B 3396   1.244   2.174   5.384
  252POPC   C4B 3397   1.142   2.361   5.760
  253POPC   NC3 3398   0.171   3.652   3.990
  253POPC   PO4 3399   0.799   3.222   3.896
  253POPC   GL1 3400   0.645   3.182   4.315
  253POPC   GL2 3401   0.351   3.370   4.388
  253POPC   C1A 3402   0.681   3.245   4.746
  253POPC   D2A 3403   0.529   3.406   5.127
  253POPC   C3A 3404   0.635   3.118   5.424
  253POPC   C4A 3405   0.641   3.200   5.846
  253POPC   C1B 3406   0.358   3.666   4.723
  253POPC   C2B 3407   0.108   3.716   5.110
  253POPC   C3B 3408   0.159   3.803   5.535
  253POPC   C4B 3409   0.384   3.627   5.880
  254POPC   NC3 3410   3.911   9.732   3.545
  254POPC   PO4 3411   4.356   9.405   3.796
  254POPC   GL1 3412   4.465   9.351   4.248
  254POPC   GL2 3413   4.593   9.690   4.359
  254POPC   C1A 3414   4.236   9.443   4.654
  254POPC   D2A 3415   4.332   9.601   5.103
  254POPC   C3A 3416   4.080   9.352   5.448
  254POPC   C4A 3417   3.837   9.522   5.822
  254POPC   C1B 3418   4.288   9.947   4.660
  254POPC   C2B 3419   4.065   0.019   5.078
  254POPC   C3B 3420   4.103   9.869   5.517
  254POPC   C4B 3421   4.369   9.603   5.812
  255POPC   NC3 3422   2.634   9.130   4.142
  255POPC   PO4 3423   2.698   8.508   3.873
  255POPC   GL1 3424   2.657   8.609   4.306
  255POPC   GL2 3425   2.928   8.825   4.445
  255POPC   C1A 3426   2.418   8.669   4.690
  255POPC   D2A 3427   2.367   8.526   5.132
  255POPC   C3A 3428   2.473   8.843   5.420
  255POPC   C4A 3429   2.823   8.844   5.722
  255POPC   C1B 3430   2.759   9.025   4.824
  255POPC   C2B 3431   2.895   9.112   5.238
  255POPC   C3B 3432   3.200   8.794   5.337
  255POPC   C4B 3433   3.290   8.610   5.717
  256POPC   NC3 3434   0.319   9.047   3.846
  256POPC   PO4 3435   0.904   8.673   4.069
  256POPC   GL1 3436   0.606   8.902   4.237
  256POPC   GL2 3437   0.385   8.645   4.210
  256POPC   C1A 3438   0.494   8.975   4.648
  256POPC   D2A 3439   0.695   9.085   5.012
  256POPC   C3A 3440   0.552   8.931   5.393
  256POPC   C4A 3441   0.728   8.866   5.800
  256POPC   C1B 3442   0.116   8.620   4.593
  256POPC   C2B 3443   0.239   8.694   5.016
  256POPC   C3B 3444   0.064   8.783   5.410
  256POPC   C4B 3445   0.168   8.918   5.822
  257POPC   NC3 3446   6.323   1.354   3.835
  257POPC   PO4 3447   6.783   0.769   3.882
  257POPC   GL1 3448   6.850   1.056   4.231
  257POPC   GL2 3449   6.574   1.255   4.269
  257POPC   C1A 3450   6.929   1.175   4.669
  257POPC   D2A 3451   6.954   1.023   5.113
  257POPC   C3A 3452   6.814   1.254   5.484
  257POPC   C4A 3453   6.495   1.115   5.780
  257POPC   C1B 3454   6.442   1.335   4.689
  257POPC   C2B 3455   6.578   1.495   5.080
  257POPC   C3B 3456   6.370   1.538   5.497
  257POPC   C4B 3457   6.051   1.386   5.802
  258POPC   NC3 3458   5.199   1.409   3.593
  258POPC   PO4 3459   4.786   0.902   3.882
  258POPC   GL1 3460   5.063   0.989   4.286
  258POPC   GL2 3461   4.936   1.269   4.466
  258POPC   C1A 3462   5.366   1.013   4.644
  258POPC   D2A 3463   5.450   1.011   5.077
  258POPC   C3A 3464   5.101   0.989   5.342
  258POPC   C4A 3465   5.000   1.092   5.764
  258POPC   C1B 3466   4.991   1.248   4.890
  258POPC   C2B 3467   4.873   1.431   5.255
  258POPC   C3B 3468   5.133   1.561   5.591
  258POPC   C4B 3469   5.042   1.553   6.032
  259POPC   NC3 3470   6.446   7.453   3.981
  259POPC   PO4 3471   7.086   7.417   3.963
  259POPC   GL1 3472   7.085   7.407   4.416
  259POPC   GL2 3473   6.773   7.510   4.373
  259POPC   C1A 3474   6.997   7.366   4.858
  259POPC   D2A 3475   6.754   7.518   5.193
  259POPC   C3A 3476   6.730   7.358   5.589
  259POPC   C4A 3477   6.930   6.975   5.664
  259POPC   C1B 3478   6.467   7.480   4.678
  259POPC   C2B 3479   6.343   7.742   5.009
  259POPC   C3B 3480   6.356   7.756   5.470
  259POPC   C4B 3481   6.371   7.621   5.897
  260POPC   NC3 3482   6.029   1.841   3.944
  260POPC   PO4 3483   6.086   2.410   4.101
  260POPC   GL1 3484   5.963   2.088   4.428
  260POPC   GL2 3485   5.673   1.871   4.412
  260POPC   C1A 3486   5.927   1.863   4.855
  260POPC   D2A 3487   5.756   1.964   5.272
  260POPC   C3A 3488   5.958   1.895   5.675
  260POPC   C4A 3489   6.110   2.183   6.006
  260POPC   C1B 3490   5.445   2.010   4.795
  260POPC   C2B 3491   5.374   2.285   5.167
  260POPC   C3B 3492   5.318   2.052   5.565
  260POPC   C4B 3493   5.469   1.811   5.908
  261POPC   NC3 3494   0.664   8.247   4.052
  261POPC   PO4 3495   0.157   7.793   3.928
  261POPC   GL1 3496   0.422   7.850   4.274
  261POPC   GL2 3497   0.265   8.174   4.374
  261POPC   C1A 3498   0.515   7.915   4.721
  261POPC   D2A 3499   0.279   8.171   5.045
  261POPC   C3A 3500   0.249   8.007   5.481
  261POPC   C4A 3501   0.410   8.075   5.920
  261POPC   C1B 3502   0.567   8.439   4.676
  261POPC   C2B 3503   0.699   8.494   5.121
  261POPC   C3B 3504   0.496   8.453   5.556
  261POPC   C4B 3505   0.080   8.426   5.782
  262POPC   NC3 3506   9.916   8.205   3.922
  262POPC   PO4 3507   9.384   7.827   3.802
  262POPC   GL1 3508   9.543   7.989   4.197
  262POPC   GL2 3509   9.850   7.845   4.319
  262POPC   C1A 3510   9.440   7.857   4.652
  262POPC   D2A 3511   9.658   7.913   5.062
  262POPC   C3A 3512   9.462   7.905   5.495
  262POPC   C4A 3513   9.715   7.821   5.892
  262POPC   C1B 3514   9.787   8.225   4.588
  262POPC   C2B 3515   9.823   8.411   4.978
  262POPC   C3B 3516   9.795   8.312   5.386
  262POPC   C4B 3517   9.594   8.308   5.790
  263POPC   NC3 3518   9.624   0.610   4.047
  263POPC   PO4 3519   0.052   0.112   3.732
  263POPC   GL1 3520   9.891   0.184   4.197
  263POPC   GL2 3521   9.577   0.152   4.376
  263POPC   C1A 3522   9.990   0.125   4.668
  263POPC   D2A 3523   9.808   0.247   5.104
  263POPC   C3A 3524   9.980   0.228   5.548
  263POPC   C4A 3525   0.038   0.409   6.006
  263POPC   C1B 3526   9.665   0.520   4.676
  263POPC   C2B 3527   9.449   0.666   5.043
  263POPC   C3B 3528   9.684   0.672   5.421
  263POPC   C4B 3529   9.583   0.448   5.801
  264POPC   NC3 3530   4.278   8.969   3.927
  264POPC   PO4 3531   4.562   8.355   3.784
  264POPC   GL1 3532   4.455   8.604   4.244
  264POPC   GL2 3533   4.102   8.748   4.360
  264POPC   C1A 3534   4.462   8.973   4.611
  264POPC   D2A 3535   4.314   9.112   5.023
  264POPC   C3A 3536   4.595   9.251   5.376
  264POPC   C4A 3537   4.573   9.049   5.771
  264POPC   C1B 3538   4.176   8.632   4.849
  264POPC   C2B 3539   4.219   8.689   5.323
  264POPC   C3B 3540   4.170   8.706   5.785
  264POPC   C4B 3541   3.958   8.768   6.199
  265POPC   NC3 3542   8.392   5.856   3.827
  265POPC   PO4 3543   7.786   5.843   3.948
  265POPC   GL1 3544   8.128   5.703   4.256
  265POPC   GL2 3545   8.513   5.686   4.333
  265POPC   C1A 3546   8.175   5.688   4.734
  265POPC   D2A 3547   8.257   5.746   5.209
  265POPC   C3A 3548   7.974   5.889   5.583
  265POPC   C4A 3549   7.578   6.149   5.732
  265POPC   C1B 3550   8.571   6.007   4.731
  265POPC   C2B 3551   8.696   5.977   5.169
  265POPC   C3B 3552   8.451   6.093   5.534
  265POPC   C4B 3553   8.403   5.906   5.949
  266POPC   NC3 3554   8.775   0.436   3.750
  266POPC   PO4 3555   9.343   0.270   3.939
  266POPC   GL1 3556   9.080   0.491   4.193
  266POPC   GL2 3557   8.748   0.344   4.272
  266POPC   C1A 3558   9.172   0.441   4.608
  266POPC   D2A 3559   9.342   0.158   4.902
  266POPC   C3A 3560   9.338   0.255   5.365
  266POPC   C4A 3561   9.094   0.475   5.682
  266POPC   C1B 3562   8.686   0.532   4.699
  266POPC   C2B 3563   8.932   0.470   5.061
  266POPC   C3B 3564   8.722   0.351   5.387
  266POPC   C4B 3565   8.540   0.613   5.643
  267POPC   NC3 3566   6.535   2.328   3.924
  267POPC   PO4 3567   6.247   2.845   3.654
  267POPC   GL1 3568   6.432   2.796   4.131
  267POPC   GL2 3569   6.740   2.651   4.279
  267POPC   C1A 3570   6.362   2.661   4.618
  267POPC   D2A 3571   6.609   2.403   4.912
  267POPC   C3A 3572   6.620   2.420   5.366
  267POPC   C4A 3573   6.425   2.513   5.776
  267POPC   C1B 3574   6.821   2.844   4.712
  267POPC   C2B 3575   6.761   2.883   5.156
  267POPC   C3B 3576   6.769   2.855   5.613
  267POPC   C4B 3577   6.861   2.631   6.017
  268POPC   NC3 3578   1.071   9.159   4.112
  268POPC   PO4 3579   1.574   9.327   3.718
  268POPC   GL1 3580   1.563   9.102   4.198
  268POPC   GL2 3581   1.377   8.782   4.333
  268POPC   C1A 3582   1.405   9.181   4.650
  268POPC   D2A 3583   1.176   9.271   4.993
  268POPC   C3A 3584   1.418   9.235   5.358
  268POPC   C4A 3585   1.214   9.068   5.704
  268POPC   C1B 3586   1.083   8.778   4.734
  268POPC   C2B 3587   1.083   8.821   5.199
  268POPC   C3B 3588   1.019   8.559   5.529
  268POPC   C4B 3589   1.237   8.594   5.889
  269POPC   NC3 3590   1.758   2.722   3.932
  269POPC   PO4 3591   2.393   2.451   3.797
  269POPC   GL1 3592   2.259   2.477   4.267
  269POPC   GL2 3593   2.191   2.810   4.253
  269POPC   C1A 3594   2.260   2.570   4.764
  269POPC   D2A 3595   2.371   2.662   5.249
  269POPC   C3A 3596   2.200   2.547   5.678
  269POPC   C4A 3597   2.269   2.409   6.139
  269POPC   C1B 3598   2.016   3.011   4.632
  269POPC   C2B 3599   1.983   2.927   5.072
  269POPC   C3B 3600   1.942   2.958   5.521
  269POPC   C4B 3601   1.714   3.180   5.814
  270POPC   NC3 3602   0.552   6.563   3.930
  270POPC   PO4 3603   0.205   6.077   3.691
  270POPC   GL1 3604   0.418   6.144   4.154
  270POPC   GL2 3605   0.270   6.497   4.344
  270POPC   C1A 3606   0.603   6.210   4.577
  270POPC   D2A 3607   0.562   6.511   4.956
  270POPC   C3A 3608   0.663   6.428   5.405
  270POPC   C4A 3609   0.485   6.332   5.832
  270POPC   C1B 3610   0.060   6.493   4.775
  270POPC   C2B 3611   0.080   6.446   5.238
  270POPC   C3B 3612   0.223   6.701   5.595
  270POPC   C4B 3613   0.237   6.785   6.058
  271POPC   NC3 3614   9.793   7.465   3.888
  271POPC   PO4 3615   9.265   7.037   3.957
  271POPC   GL1 3616   9.410   7.157   4.327
  271POPC   GL2 3617   9.434   7.498   4.251
  271POPC   C1A 3618   9.293   7.378   4.729
  271POPC   D2A 3619   9.234   7.616   5.113
  271POPC   C3A 3620   9.257   7.422   5.531
  271POPC   C4A 3621   9.522   7.290   5.892
  271POPC   C1B 3622   9.767   7.429   4.589
  271POPC   C2B 3623   9.702   7.362   5.054
  271POPC   C3B 3624   9.786   7.510   5.476
  271POPC   C4B 3625   0.032   7.358   5.858
  272POPC   NC3 3626   7.019   0.366   3.966
  272POPC   PO4 3627   7.552   0.645   4.230
  272POPC   GL1 3628   7.166   0.658   4.375
  272POPC   GL2 3629   7.105   0.278   4.457
  272POPC   C1A 3630   6.985   0.663   4.755
  272POPC   D2A 3631   7.048   0.314   5.000
  272POPC   C3A 3632   7.174   0.358   5.420
  272POPC   C4A 3633   7.056   0.374   5.870
  272POPC   C1B 3634   7.494   0.242   4.728
  272POPC   C2B 3635   7.872   0.236   4.994
  272POPC   C3B 3636   7.731   0.214   5.402
  272POPC   C4B 3637   7.557   0.516   5.712
  273POPC   NC3 3638   9.620   9.914   3.866
  273POPC   PO4 3639   0.017   9.399   3.977
  273POPC   GL1 3640   9.896   9.682   4.315
  273POPC   GL2 3641   9.588   9.617   4.280
  273POPC   C1A 3642   9.662   9.768   4.765
  273POPC   D2A 3643   9.468   9.752   5.190
  273POPC   C3A 3644   9.742   9.752   5.544
  273POPC   C4A 3645   9.720   9.977   5.934
  273POPC   C1B 3646   9.509   9.317   4.625
  273POPC   C2B 3647   9.666   9.283   5.062
  273POPC   C3B 3648   9.444   9.300   5.471
  273POPC   C4B 3649   9.334   9.628   5.836
  274POPC   NC3 3650   0.603   2.053   3.929
  274POPC   PO4 3651   0.594   2.475   4.389
  274POPC   GL1 3652   0.731   2.034   4.438
  274POPC   GL2 3653   0.456   1.787   4.346
  274POPC   C1A 3654   0.777   1.796   4.827
  274POPC   D2A 3655   0.580   1.814   5.259
  274POPC   C3A 3656   0.797   2.019   5.602
  274POPC   C4A 3657   0.666   2.292   5.987
  274POPC   C1B 3658   0.269   1.908   4.735
  274POPC   C2B 3659   0.056   1.664   5.049
  274POPC   C3B 3660   0.083   1.756   5.449
  274POPC   C4B 3661   0.273   2.107   5.675
  275POPC   NC3 3662   9.562   1.075   3.729
  275POPC   PO4 3663   8.981   0.853   3.738
  275POPC   GL1 3664   9.283   0.968   4.154
  275POPC   GL2 3665   9.650   1.097   4.227
  275POPC   C1A 3666   9.316   1.253   4.573
  275POPC   D2A 3667   9.573   1.154   4.941
  275POPC   C3A 3668   9.398   1.151   5.352
  275POPC   C4A 3669   9.379   0.918   5.740
  275POPC   C1B 3670   9.920   0.988   4.587
  275POPC   C2B 3671   0.082   1.068   5.028
  275POPC   C3B 3672   9.906   1.238   5.437
  275POPC   C4B 3673   9.732   1.254   5.885
  276POPC   NC3 3674   3.665   1.171   3.943
  276POPC   PO4 3675   3.156   1.702   4.103
  276POPC   GL1 3676   3.459   1.553   4.398
  276POPC   GL2 3677   3.342   1.235   4.356
  276POPC   C1A 3678   3.577   1.470   4.856
  276POPC   D2A 3679   3.346   1.504   5.289
  276POPC   C3A 3680   3.530   1.405   5.713
  276POPC   C4A 3681   3.310   1.394   6.135
  276POPC   C1B 3682   3.641   1.027   4.581
  276POPC   C2B 3683   3.686   0.933   4.994
  276POPC   C3B 3684   3.514   0.740   5.371
  276POPC   C4B 3685   3.754   0.811   5.736
  277POPC   NC3 3686   2.408   2.923   3.770
  277POPC   PO4 3687   3.046   3.200   3.905
  277POPC   GL1 3688   2.720   2.991   4.158
  277POPC   GL2 3689   2.735   2.639   4.121
  277POPC   C1A 3690   2.556   2.946   4.583
  277POPC   D2A 3691   2.777   2.793   4.950
  277POPC   C3A 3692   2.721   3.033   5.317
  277POPC   C4A 3693   2.479   2.979   5.691
  277POPC   C1B 3694   2.707   2.449   4.539
  277POPC   C2B 3695   2.638   2.289   4.971
  277POPC   C3B 3696   2.812   2.438   5.366
  277POPC   C4B 3697   2.671   2.339   5.807
  278POPC   NC3 3698   0.514   0.387   3.816
  278POPC   PO4 3699   9.973   0.880   3.861
  278POPC   GL1 3700   0.172   0.629   4.241
  278POPC   GL2 3701   0.371   0.270   4.296
  278POPC   C1A 3702   0.205   0.580   4.719
  278POPC   D2A 3703   0.392   0.629   5.149
  278POPC   C3A 3704   0.230   0.704   5.579
  278POPC   C4A 3705   0.515   0.594   5.945
  278POPC   C1B 3706   0.477   0.014   4.668
  278POPC   C2B 3707   0.512   0.086   5.126
  278POPC   C3B 3708   0.488   0.242   5.575
  278POPC   C4B 3709   0.419   0.083   6.037
  279POPC   NC3 3710   4.112   2.720   3.935
  279POPC   PO4 3711   4.589   2.283   3.938
  279POPC   GL1 3712   4.493   2.568   4.288
  279POPC   GL2 3713   4.331   2.853   4.352
  279POPC   C1A 3714   4.567   2.552   4.752
  279POPC   D2A 3715   4.310   2.465   5.139
  279POPC   C3A 3716   4.435   2.382   5.574
  279POPC   C4A 3717   4.606   2.578   5.931
  279POPC   C1B 3718   4.109   2.782   4.755
  279POPC   C2B 3719   3.860   2.729   5.144
  279POPC   C3B 3720   3.769   2.672   5.580
  279POPC   C4B 3721   4.077   2.595   5.944
  280POPC   NC3 3722   4.292   1.942   3.828
  280POPC   PO4 3723   4.881   1.727   3.712
  280POPC   GL1 3724   4.676   1.831   4.172
  280POPC   GL2 3725   4.686   2.109   4.402
  280POPC   C1A 3726   4.428   1.713   4.564
  280POPC   D2A 3727   4.533   2.002   4.915
  280POPC   C3A 3728   4.325   1.980   5.290
  280POPC   C4A 3729   4.351   1.886   5.723
  280POPC   C1B 3730   4.233   2.218   4.552
  280POPC   C2B 3731   3.949   2.202   4.924
  280POPC   C3B 3732   3.896   2.229   5.386
  280POPC   C4B 3733   3.915   2.112   5.822
  281POPC   NC3 3734   3.556   9.325   4.052
  281POPC   PO4 3735   3.535   9.937   3.710
  281POPC   GL1 3736   3.572   9.833   4.175
  281POPC   GL2 3737   3.264   9.738   4.347
  281POPC   C1A 3738   3.746   9.702   4.607
  281POPC   D2A 3739   3.812   9.540   5.034
  281POPC   C3A 3740   3.602   9.789   5.369
  281POPC   C4A 3741   3.579   9.965   5.797
  281POPC   C1B 3742   3.249   9.649   4.818
  281POPC   C2B 3743   3.120   9.599   5.255
  281POPC   C3B 3744   3.125   9.761   5.678
  281POPC   C4B 3745   3.058   9.696   6.142
  282POPC   NC3 3746   9.021   5.148   3.509
  282POPC   PO4 3747   8.922   5.342   4.165
  282POPC   GL1 3748   9.162   5.354   4.499
  282POPC   GL2 3749   9.190   5.038   4.521
  282POPC   C1A 3750   9.206   5.323   4.933
  282POPC   D2A 3751   9.091   5.058   5.256
  282POPC   C3A 3752   9.112   5.322   5.604
  282POPC   C4A 3753   8.917   5.289   6.011
  282POPC   C1B 3754   8.814   4.997   4.792
  282POPC   C2B 3755   8.590   4.965   5.194
  282POPC   C3B 3756   8.706   5.012   5.626
  282POPC   C4B 3757   8.628   4.887   6.117
  283POPC   NC3 3758   3.504   6.636   4.031
  283POPC   PO4 3759   3.022   6.221   3.965
  283POPC   GL1 3760   3.187   6.307   4.437
  283POPC   GL2 3761   3.480   6.534   4.513
  283POPC   C1A 3762   3.244   6.349   4.963
  283POPC   D2A 3763   3.042   6.420   5.386
  283POPC   C3A 3764   3.222   6.342   5.811
  283POPC   C4A 3765   3.426   6.547   6.138
  283POPC   C1B 3766   3.500   6.784   4.890
  283POPC   C2B 3767   3.337   6.881   5.314
  283POPC   C3B 3768   3.558   6.834   5.709
  283POPC   C4B 3769   3.866   6.858   6.050
  284POPC   NC3 3770   1.143   9.534   3.684
  284POPC   PO4 3771   0.788   0.033   3.927
  284POPC   GL1 3772   0.878   9.873   4.354
  284POPC   GL2 3773   1.110   9.573   4.483
  284POPC   C1A 3774   0.967   9.971   4.776
  284POPC   D2A 3775   0.991   9.725   5.123
  284POPC   C3A 3776   0.830   9.876   5.472
  284POPC   C4A 3777   0.708   9.731   5.836
  284POPC   C1B 3778   1.409   9.690   4.847
  284POPC   C2B 3779   1.454   9.757   5.316
  284POPC   C3B 3780   1.236   9.620   5.728
  284POPC   C4B 3781   1.325   9.563   6.201
  285POPC   NC3 3782   4.399   0.785   3.664
  285POPC   PO4 3783   3.802   0.738   3.802
  285POPC   GL1 3784   4.024   0.645   4.215
  285POPC   GL2 3785   4.412   0.643   4.204
  285POPC   C1A 3786   4.073   0.717   4.690
  285POPC   D2A 3787   4.288   0.590   5.112
  285POPC   C3A 3788   4.217   0.657   5.585
  285POPC   C4A 3789   4.173   0.768   6.066
  285POPC   C1B 3790   4.527   0.453   4.644
  285POPC   C2B 3791   4.586   0.158   5.022
  285POPC   C3B 3792   4.489   0.234   5.457
  285POPC   C4B 3793   4.366   0.128   5.878
  286POPC   NC3 3794   2.264   8.268   3.793
  286POPC   PO4 3795   1.709   8.627   3.948
  286POPC   GL1 3796   1.844   8.490   4.346
  286POPC   GL2 3797   1.982   8.176   4.390
  286POPC   C1A 3798   1.961   8.471   4.804
  286POPC   D2A 3799   1.825   8.382   5.216
  286POPC   C3A 3800   2.032   8.569   5.566
  286POPC   C4A 3801   2.106   8.615   6.035
  286POPC   C1B 3802   1.757   7.991   4.778
  286POPC   C2B 3803   1.702   7.881   5.220
  286POPC   C3B 3804   1.749   7.840   5.649
  286POPC   C4B 3805   2.094   8.092   5.776
  287W        W 3806   8.788   1.885   0.249
  288W        W 3807   4.541   0.974  10.749
  289W        W 3808   8.981   1.365   2.262
  290W        W 3809   0.020   7.992   1.673
  291W        W 3810   8.851   3.437   9.132
  292W        W 3811   7.165   7.375   9.529
  293W        W 3812   0.707   0.166   0.937
  294W        W 3813   3.489   7.656  11.163
  295W        W 3814   1.681   8.389   1.944
  296W        W 3815   8.617   1.663   3.271
  297W        W 3816   6.925   2.026  11.724
  298W        W 3817   2.170   0.761   8.956
  299W        W 3818   7.886   3.981   3.604
  300W        W 3819   4.597   3.667   8.935
  301W        W 3820   1.240   0.997   9.538
  302W        W 3821   5.733   6.415   2.447
  303W        W 3822   6.729   9.084  11.848
  304W        W 3823   8.684   2.605   2.458
  305W        W 3824   6.187   8.238   9.217
  306W        W 3825   4.550   6.748   9.516
  307W        W 3826   4.190   6.756   3.639
  308W        W 3827   5.115   4.624   0.946
  309W        W 3828   0.424   8.549   2.599
  310W        W 3829   7.298   5.994   1.922
  311W        W 3830   8.095   6.340  10.501
  312W        W 3831   4.498   1.857   0.435
  313W        W 3832   6.142   2.700  10.913
  314W        W 3833   2.767   3.324   3.509
  315W        W 3834   6.477   3.004  11.854
  316W        W 3835   6.990   6.921   2.773
  317W        W 3836   8.236   1.993   3.512
  318W        W 3837   5.488   0.535   1.671
  319W        W 3838   4.920   5.205  10.486
  320W        W 3839   2.760   4.666   9.494
  321W        W 3840   5.453   2.271  11.401
  322W        W 3841   2.271   9.327  10.388
  323W        W 3842   9.260   8.884   3.738
  324W        W 3843   3.697   0.557   3.310
  325W        W 3844   6.364   8.388   1.259
  326W        W 3845   8.751   4.501  11.068
  327W        W 3846   4.570   4.165  11.808
  328W        W 3847   9.536   0.700   9.550
  329W        W 3848   5.227   6.604  11.818
  330W        W 3849   8.719   2.166   3.378
  331W        W 3850   6.961   9.232  10.004
  332W        W 3851   3.344   4.623   0.921
  333W        W 3852   9.279   5.172   9.583
  334W        W 3853   5.807   7.927   3.607
  335W        W 3854   2.641   6.949   3.351
  336W        W 3855   2.700   6.791   9.616
  337W        W 3856   5.232   1.214   2.299
  338W        W 3857   1.403   2.089  10.604
  339W        W 3858   4.559   5.099   9.513
  340W        W 3859   0.447   5.935   1.676
  341W        W 3860   8.333   8.496   8.780
  342W        W 3861   6.903   2.789   0.115
  343W        W 3862   3.559   9.095   0.326
  344W        W 3863   4.095   1.870   9.465
  345W        W 3864   1.562   5.181   3.485
  346W        W 3865   0.383   3.414   2.225
  347W        W 3866   9.467   6.266   0.276
  348W        W 3867   3.076   4.759   8.668
  349W        W 3868   3.394   4.256   2.830
  350W        W 3869   2.918   0.407  11.518
  351W        W 3870   5.382   9.893   9.696
  352W        W 3871   8.023   2.401   0.481
  353W        W 3872   4.763   7.719   8.444
  354W        W 3873   4.722   0.913   0.693
  355W        W 3874   9.922   3.321  10.440
  356W        W 3875   9.386   0.623  10.041
  357W        W 3876   5.081   3.313   9.543
  358W        W 3877   7.272   3.638   9.716
  359W        W 3878   0.869   7.478   0.191
  360W        W 3879   3.067   4.142   1.738
  361W        W 3880   8.918   7.399   9.953
  362W        W 3881   0.360   0.894   8.848
  363W        W 3882   3.545   2.387  10.901
  364W        W 3883   4.751   5.142   3.014
  365W        W 3884   9.389   8.512   1.283
  366W        W 3885   1.415   3.571  11.540
  367W        W 3886   4.908   7.079   9.147
  368W        W 3887   0.114   1.093   8.432
  369W        W 3888   4.748   7.815   1.859
  370W        W 3889   9.497   9.648  11.208
  371W        W 3890   6.004   3.261   2.425
  372W        W 3891   5.504   1.753  10.786
  373W        W 3892   5.486   9.853   1.456
  374W        W 3893   2.269   3.964  11.460
  375W        W 3894   4.524   5.072   0.073
  376W        W 3895   2.695   2.203   9.294
  377W        W 3896   2.580   1.081   2.420
  378W        W 3897   5.997   8.108   1.035
  379W        W 3898   2.197   7.929  11.588
  380W        W 3899   4.597   6.140   0.300
  381W        W 3900   8.433   0.203   0.211
  382W        W 3901   3.680   3.400   2.690
  383W        W 3902   2.329   8.106   1.317
  384W        W 3903   3.951   6.368   1.333
  385W        W 3904   7.131   4.687  11.054
  386W        W 3905   9.645   2.391   9.683
  387W        W 3906   4.235   0.009   8.643
  388W        W 3907   6.882   1.493   2.722
  389W        W 3908   4.873   2.679   8.440
  390W        W 3909   3.567   8.131   9.810
  391W        W 3910   9.309   7.595   1.288
  392W        W 3911   1.164   7.300   1.499
  393W        W 3912   4.028   2.860   8.515
  394W        W 3913   2.427   1.560  11.308
  395W        W 3914   8.717   4.834   0.478
  396W        W 3915   2.538   2.442   8.621
  397W        W 3916   0.587   9.591  11.546
  398W        W 3917   7.923   9.884  11.394
  399W        W 3918   1.865   2.980   9.911
  400W        W 3919   5.244   2.681  11.190
  401W        W 3920   0.396   8.656  11.157
  402W        W 3921   5.179   5.406   8.859
  403W        W 3922   2.751   8.107   3.010
  404W        W 3923   0.353   3.250   1.106
  405W        W 3924   3.857   4.604  11.082
  406W        W 3925   1.667   0.476  10.590
  407W        W 3926   6.675   4.728   8.697
  408W        W 3927   4.811   2.410   1.099
  409W        W 3928   7.970   5.129   2.532
  410W        W 3929   4.100   6.132   0.182
  411W        W 3930   8.479   2.109   9.251
  412W        W 3931   6.013   7.436   3.608
  413W        W 3932   5.563   7.339  10.232
  414W        W 3933   2.799   6.711   8.990
  415W        W 3934   8.029   2.392  11.960
  416W        W 3935   3.184   3.170   9.544
  417W        W 3936   5.077   4.501   0.376
  418W        W 3937   8.795   1.649   1.258
  419W        W 3938   0.311   4.579   3.154
  420W        W 3939   1.906   5.372   2.710
  421W        W 3940   2.905   2.571   0.695
  422W        W 3941   3.671   3.967   9.065
  423W        W 3942   0.320   5.641   9.494
  424W        W 3943   4.188   2.799   2.643
  425W        W 3944   1.791   2.542   0.170
  426W        W 3945   5.448   0.122   9.231
  427W        W 3946   1.888   4.231   8.838
  428W        W 3947   2.767   7.629   3.228
  429W        W 3948   3.273   8.585   9.046
  430W        W 3949   6.528   5.155   8.427
  431W        W 3950   9.299   2.807   3.683
  432W        W 3951   9.782   7.780   0.679
  433W        W 3952   3.046   2.247   2.025
  434W        W 3953   0.467   7.467  11.855
  435W        W 3954   8.335   0.696   8.973
  436W        W 3955   4.949   3.563   0.334
  437W        W 3956   8.816   8.983  11.174
  438W        W 3957   4.235   9.982   3.193
  439W        W 3958   6.235   7.611   2.609
  440W        W 3959   3.585   3.638   1.183
  441W        W 3960   2.073   7.395   1.982
  442W        W 3961   6.183   1.472   1.853
  443W        W 3962   8.164   7.369   9.736
  444W        W 3963   9.687   2.950   0.929
  445W        W 3964   2.879   0.951   2.803
  446W        W 3965   8.047   5.591  11.460
  447W        W 3966   7.118   6.752   0.849
  448W        W 3967   9.205   7.410  11.490
  449W        W 3968   7.964   1.650   0.842
  450W        W 3969   6.880   9.544   0.179
  451W        W 3970   0.711   6.617   0.010
  452W        W 3971   4.245   2.055   0.892
  453W        W 3972   8.466   1.321   2.908
  454W        W 3973   2.237   8.107   2.279
  455W        W 3974   1.765   4.930   8.273
  456W        W 3975   9.798   3.655   3.119
  457W        W 3976   6.478   8.344  10.749
  458W        W 3977   3.997   6.173   0.853
  459W        W 3978   4.048   5.149   1.539
  460W        W 3979   8.486   4.628  10.089
  461W        W 3980   8.342   3.622   9.110
  462W        W 3981   3.304   2.000   0.885
  463W        W 3982   5.454   7.502  11.612
  464W        W 3983   0.829   4.503   9.223
  465W        W 3984   6.953   1.275  11.890
  466W        W 3985   0.548   4.423   0.907
  467W        W 3986   9.555   1.884   9.550
  468W        W 3987   8.910   7.024  10.428
  469W        W 3988   9.999   1.231   8.928
  470W        W 3989   5.182   3.512  11.902
  471W        W 3990   9.040   9.080   8.955
  472W        W 3991   3.205   7.384  11.500
  473W        W 3992   1.395   1.384  11.407
  474W        W 3993   1.807   5.992   3.292
  475W        W 3994   4.463   4.549   2.763
  476W        W 3995   9.397   7.702   9.946
  477W        W 3996   9.819   6.100   8.980
  478W        W 3997   6.611   2.138  10.395
  479W        W 3998   7.098   7.971  11.304
  480W        W 3999   7.547   2.584  11.878
  481W        W 4000   6.750   4.293   3.682
  482W        W 4001   7.328   5.641   2.627
  483W        W 4002   4.127   5.695   1.015
  484W        W 4003   0.534   2.727  10.753
  485W        W 4004   6.129   3.190   0.740
  486W        W 4005   8.593   1.088   0.077
  487W        W 4006   6.465   6.848   2.056
  488W        W 4007   6.661   9.750   0.930
  489W        W 4008   8.581   0.591  10.497
  490W        W 4009   0.736   8.417   8.911
  491W        W 4010   1.632   1.458   1.754
  492W        W 4011   5.459   6.618  11.339
  493W        W 4012   5.248   2.976   1.686
  494W        W 4013   6.668   0.004   9.934
  495W        W 4014   3.965   7.928   0.206
  496W        W 4015   4.144   1.686  11.632
  497W        W 4016   7.308   0.339   9.193
  498W        W 4017   6.937   4.160   9.348
  499W        W 4018   3.876   1.776   1.411
  500W        W 4019   2.280   4.614   8.724
  501W        W 4020   2.909   4.144  10.579
  502W        W 4021   5.469   5.184  11.820
  503W        W 4022   2.897   1.150   0.016
  504W        W 4023   9.525   5.036   9.154
  505W        W 4024   4.909   4.202  10.507
  506W        W 4025   4.145   1.528  10.761
  507W        W 4026   2.654   3.949   0.941
  508W        W 4027   3.747   8.810  11.943
  509W        W 4028   6.289   6.183   9.795
  510W        W 4029   9.691   4.527   3.092
  511W        W 4030   4.765   4.894   2.562
  512W        W 4031   2.977   0.789   0.420
  513W        W 4032   4.910   3.615   3.545
  514W        W 4033   8.333   3.955   1.830
  515W        W 4034   1.583   5.013   2.991
  516W        W 4035   2.940   1.412   2.282
  517W        W 4036   9.138   0.830   1.558
  518W        W 4037   2.461   5.289   0.698
  519W        W 4038   3.195   7.572   8.947
  520W        W 4039   3.325   2.077  11.920
  521W        W 4040   8.867   6.351   1.553
  522W        W 4041   0.421   5.429   1.646
  523W        W 4042   8.456   9.812  11.133
  524W        W 4043   3.209   0.983  10.870
  525W        W 4044   6.905   2.471   3.021
  526W        W 4045   4.555   5.583  10.540
  527W        W 4046   3.719   5.397   8.940
  528W        W 4047   1.349   1.607   3.476
  529W        W 4048   0.320   9.699   0.004
  530W        W 4049   5.074   2.967  10.201
  531W        W 4050   5.831   2.509   3.646
  532W        W 4051   9.540   9.811   8.852
  533W        W 4052   9.233   3.743   9.341
  534W        W 4053   7.349   7.195  11.925
  535W        W 4054   2.315   7.392   3.322
  536W        W 4055   1.234   6.441  11.390
  537W        W 4056   0.536   0.288   9.906
  538W        W 4057   1.268   5.387  11.659
  539W        W 4058   5.562   8.640   0.251
  540W        W 4059   4.009   3.784   8.403
  541W        W 4060   1.405   3.496   1.468
  542W        W 4061   1.401   8.776   3.557
  543W        W 4062   2.617   5.392   4.042
  544W        W 4063   2.687   2.669  10.797
  545W        W 4064   8.376   2.675   1.648
  546W        W 4065   6.145   6.358   1.322
  547W        W 4066   6.752   5.732   1.341
  548W        W 4067   4.953   9.596   1.757
  549W        W 4068   8.057   0.187  11.857
  550W        W 4069   7.961   9.676   0.983
  551W        W 4070   1.458   3.524  11.006
  552W        W 4071   1.636   3.293   1.868
  553W        W 4072   7.606   2.315   1.284
  554W        W 4073   7.132   5.560   2.164
  555W        W 4074   9.683   5.291   1.907
  556W        W 4075   1.678   2.741  11.703
  557W        W 4076   8.499   1.492  10.014
  558W        W 4077   3.648   8.836   2.146
  559W        W 4078   5.056   8.054   0.101
  560W        W 4079   7.618   4.652   1.311
  561W        W 4080   2.410   7.007   2.038
  562W        W 4081   7.042   0.646   0.788
  563W        W 4082   5.944   9.968  10.429
  564W        W 4083   8.124   5.126   9.061
  565W        W 4084   5.828   7.535   9.835
  566W        W 4085   0.959   9.519   1.883
  567W        W 4086   1.945   3.055   2.804
  568W        W 4087   9.462   3.398   9.745
  569W        W 4088   6.585   8.842   1.203
  570W        W 4089   7.767   6.194   2.017
  571W        W 4090   5.067   6.974   1.467
  572W        W 4091   0.464   0.788   9.830
  573W        W 4092   4.521   3.324   3.790
  574W        W 4093   1.381   6.118   2.533
  575W        W 4094   6.985   4.500   1.806
  576W        W 4095   9.582   2.963  11.060
  577W        W 4096   1.131   4.631   9.628
  578W        W 4097   0.337   9.589  11.076
  579W        W 4098   6.546   4.334   9.041
  580W        W 4099   4.308   1.130   2.453
  581W        W 4100   9.473   2.938   1.453
  582W        W 4101   9.732   9.393   1.273
  583W        W 4102   9.627   6.100  11.055
  584W        W 4103   0.262   0.507  11.742
  585W        W 4104   6.931   5.101  11.252
  586W        W 4105   4.963   2.354   2.118
  587W        W 4106   1.413   6.392   1.497
  588W        W 4107   5.771   0.181   9.947
  589W        W 4108   6.065   0.889   2.812
  590W        W 4109   5.089   3.213  11.504
  591W        W 4110   8.203   7.205  11.506
  592W        W 4111   1.675   4.542   2.677
  593W        W 4112   3.671   6.440   2.211
  594W        W 4113   2.264   2.425  11.064
  595W        W 4114   8.993   4.696   0.910
  596W        W 4115   6.426   5.305   3.974
  597W        W 4116   1.209   5.289   8.565
  598W        W 4117   3.596   7.298  10.374
  599W        W 4118   2.844   0.915   1.743
  600W        W 4119   8.388   2.174   2.508
  601W        W 4120   2.249   8.821   0.730
  602W        W 4121   0.027   6.210   1.856
  603W        W 4122   5.791   5.922   1.267
  604W        W 4123   6.959   3.837   3.260
  605W        W 4124   4.638   3.243   3.302
  606W        W 4125   4.268   2.724   1.893
  607W        W 4126   9.992   4.667  10.470
  608W        W 4127   3.244   5.555   0.821
  609W        W 4128   4.175   0.538   8.654
  610W        W 4129   0.452   4.180   2.853
  611W        W 4130   0.834   4.286  11.732
  612W        W 4131   1.667   2.258  11.442
  613W        W 4132   1.202   8.033  11.237
  614W        W 4133   3.962   0.343  10.938
  615W        W 4134   5.767   7.783   2.757
  616W        W 4135   0.200   0.052   2.188
  617W        W 4136   1.282   1.189   2.008
  618W        W 4137   2.124   3.737  10.400
  619W        W 4138   8.434   2.929   2.122
  620W        W 4139   5.615   5.654   3.230
  621W        W 4140   8.274   8.468  10.607
  622W        W 4141   6.444   2.546   3.289
  623W        W 4142   9.925   5.727   0.979
  624W        W 4143   6.749   1.848  11.052
  625W        W 4144   5.333   2.031   1.989
  626W        W 4145   5.879   5.954  10.001
  627W        W 4146   7.577   8.252   9.377
  628W        W 4147   2.518   5.959   9.158
  629W        W 4148   7.276   0.751  11.795
  630W        W 4149   4.925   4.023   1.984
  631W        W 4150   3.824   5.514   0.131
  632W        W 4151   8.035   5.057   3.037
  633W        W 4152   7.166   0.000  10.984
  634W        W 4153   6.134   6.959   3.163
  635W        W 4154   5.027   7.494  10.297
  636W        W 4155   0.764   7.402   0.693
  637W        W 4156   9.425   9.985  10.797
  638W        W 4157   8.013   1.162  10.132
  639W        W 4158   5.303   6.839   3.684
  640W        W 4159   4.744   3.845   9.886
  641W        W 4160   5.248   5.490   0.709
  642W        W 4161   7.433   1.225  11.017
  643W        W 4162   2.097   7.983   0.468
  644W        W 4163   9.869   1.506  10.522
  645W        W 4164   5.304   0.986   1.851
  646W        W 4165   2.915   8.302  10.937
  647W        W 4166   6.110   8.546  10.410
  648W        W 4167   0.022   9.413   9.532
  649W        W 4168   9.355   6.059   0.742
  650W        W 4169   7.040   0.906   1.224
  651W        W 4170   4.648   4.587   1.203
  652W        W 4171   8.376   2.019   2.997
  653W        W 4172   9.465   8.490   9.731
  654W        W 4173   1.770   3.669   0.226
  655W        W 4174   7.189   3.524  11.993
  656W        W 4175   6.957   0.450   0.329
  657W        W 4176   4.230   3.496  11.948
  658W        W 4177   9.311   3.575   0.295
  659W        W 4178   8.771   6.635   9.184
  660W        W 4179   3.671   5.421   1.286
  661W        W 4180   2.959   9.403   3.214
  662W        W 4181   9.710   1.874   9.031
  663W        W 4182   2.321   7.654  11.066
  664W        W 4183   6.949   5.234   3.853
  665W        W 4184   5.536   9.446   1.158
  666W        W 4185   9.221   3.275   1.778
  667W        W 4186   4.547   6.151   3.133
  668W        W 4187   0.383   7.091   9.754
  669W        W 4188   1.956   6.379   1.706
  670W        W 4189   2.042   0.395  10.963
  671W        W 4190   2.702   0.393   1.170
  672W        W 4191   3.843   2.940  11.244
  673W        W 4192   5.717   9.123   9.240
  674W        W 4193   5.505   7.203   0.413
  675W        W 4194   8.056   6.652  11.865
  676W        W 4195   6.053   7.579  10.328
  677W        W 4196   7.636   6.100   0.272
  678W        W 4197   3.022   1.298   3.571
  679W        W 4198   6.614   1.494   0.919
  680W        W 4199   3.620   3.341   3.734
  681W        W 4200   9.467   5.306   1.423
  682W        W 4201   3.608   0.764   1.288
  683W        W 4202   5.002   2.354   1.592
  684W        W 4203   5.651   7.131   3.149
  685W        W 4204   9.884   0.853  11.767
  686W        W 4205   5.209   7.526   0.083
  687W        W 4206   6.510   5.517   9.212
  688W        W 4207   2.327   9.097   0.276
  689W        W 4208   2.182   5.516  11.678
  690W        W 4209   8.808   9.067   2.799
  691W        W 4210   6.777   4.481  10.043
  692W        W 4211   4.080   9.200   2.816
  693W        W 4212   8.364   8.482   3.287
  694W        W 4213   2.279   7.610   2.395
  695W        W 4214   6.399   2.198  10.941
  696W        W 4215   4.249   1.422  10.245
  697W        W 4216   6.418   1.591   2.910
  698W        W 4217   4.623   0.744   1.174
  699W        W 4218   4.156   9.799   1.410
  700W        W 4219   5.406   7.068  11.919
  701W        W 4220   5.154   2.801  10.683
  702W        W 4221   0.083   9.562  11.542
  703W        W 4222   7.959   5.083   0.017
  704W        W 4223   4.322   5.104   2.693
  705W        W 4224   4.450   6.661   3.185
  706W        W 4225   3.914   3.928  10.357
  707W        W 4226   3.973   4.613   4.036
  708W        W 4227   0.888   9.881   9.747
  709W        W 4228   9.422   1.342   0.305
  710W        W 4229   9.793   3.803   0.656
  711W        W 4230   2.742   0.048  10.511
  712W        W 4231   3.178   4.941   8.194
  713W        W 4232   9.960   6.988   9.005
  714W        W 4233   2.327   8.403   9.031
  715W        W 4234   8.832   7.881   3.402
  716W        W 4235   4.241   3.847  11.579
  717W        W 4236   9.364   7.008  10.679
  718W        W 4237   5.702   6.449   1.069
  719W        W 4238   3.387   5.385   0.365
  720W        W 4239   5.614   7.830  10.400
  721W        W 4240   8.946   7.467   2.324
  722W        W 4241   8.539   4.899   3.140
  723W        W 4242   9.845   1.483   3.043
  724W        W 4243   2.831   1.463  11.621
  725W        W 4244   7.694   3.131   3.198
  726W        W 4245   5.168   5.441   3.093
  727W        W 4246   4.447   0.085   2.436
  728W        W 4247   9.459   0.222   9.724
  729W        W 4248   9.760   2.389  10.874
  730W        W 4249   7.630   5.302  11.672
  731W        W 4250   3.116   6.937   1.207
  732W        W 4251   8.874   6.264   0.820
  733W        W 4252   5.119   2.034   1.194
  734W        W 4253   4.297   5.760   3.438
  735W        W 4254   6.677   1.191   3.126
  736W        W 4255   3.830   4.603   0.044
  737W        W 4256   8.396   3.857   2.328
  738W        W 4257   8.136   5.873   1.139
  739W        W 4258   4.476   2.585   1.441
  740W        W 4259   7.165   7.259   0.795
  741W        W 4260   3.869   3.633   9.863
  742W        W 4261   8.949   4.609   0.046
  743W        W 4262   3.598   7.862  10.290
  744W        W 4263   4.068   8.249   1.516
  745W        W 4264   9.042   8.328   2.111
  746W        W 4265   7.531   8.944  10.499
  747W        W 4266   9.061   4.188   0.873
  748W        W 4267   0.383   2.879   3.523
  749W        W 4268   4.801   2.773  11.422
  750W        W 4269   1.753   0.714   2.283
  751W        W 4270   7.813   1.241  10.627
  752W        W 4271   2.807   3.345   2.989
  753W        W 4272   4.105   0.855  11.037
  754W        W 4273   2.769   8.011   1.626
  755W        W 4274   3.698   4.477   9.352
  756W        W 4275   7.554   4.436   3.093
  757W        W 4276   7.874   4.654   0.309
  758W        W 4277   9.803   7.669   2.008
  759W        W 4278   8.366   4.571  11.463
  760W        W 4279   1.504   0.557   9.399
  761W        W 4280   5.133   2.724   2.713
  762W        W 4281   8.716   6.110  11.953
  763W        W 4282   0.070   5.654   9.031
  764W        W 4283   8.960   7.063   9.447
  765W        W 4284   3.296   9.230   1.397
  766W        W 4285   0.439   6.614   9.915
  767W        W 4286   4.600   5.758   2.220
  768W        W 4287   7.885   1.868   1.333
  769W        W 4288   3.214   3.557  11.943
  770W        W 4289   7.079   6.444   8.297
  771W        W 4290   2.338   2.123  10.108
  772W        W 4291   6.983   6.356   8.792
  773W        W 4292   5.022   9.847   9.200
  774W        W 4293   2.315   1.908  10.915
  775W        W 4294   8.808   6.229  10.580
  776W        W 4295   7.353   3.180   2.692
  777W        W 4296   5.188   3.936  10.155
  778W        W 4297   2.624   7.994  11.292
  779W        W 4298   5.891   2.269  11.031
  780W        W 4299   9.166   9.290  11.520
  781W        W 4300   7.181   6.565   3.935
  782W        W 4301   8.460   7.921  11.031
  783W        W 4302   9.957   1.277  10.081
  784W        W 4303   1.704   3.761   0.725
  785W        W 4304   0.888   8.860   3.603
  786W        W 4305   2.029   3.433   3.177
  787W        W 4306   9.532   8.134   1.993
  788W        W 4307   9.402   4.858  11.813
  789W        W 4308   3.113   3.693   0.899
  790W        W 4309   2.333   3.716   1.831
  791W        W 4310   8.335   8.793   0.195
  792W        W 4311   5.146   8.707  10.945
  793W        W 4312   6.206   9.885   0.278
  794W        W 4313   5.892   1.634   8.467
  795W        W 4314   2.767   4.418   2.145
  796W        W 4315   2.773   2.095   0.938
  797W        W 4316   0.301   6.124   3.188
  798W        W 4317   6.589   9.250   2.371
  799W        W 4318   9.612   7.520  11.778
  800W        W 4319   4.187   8.902   8.964
  801W        W 4320   2.918   0.435   9.353
  802W        W 4321   8.718   6.417  11.227
  803W        W 4322   2.736   3.672  10.662
  804W        W 4323   5.416   0.850  11.069
  805W        W 4324   5.583   1.659   2.276
  806W        W 4325   5.153   8.855  10.447
  807W        W 4326   1.399   0.283   8.946
  808W        W 4327   5.980   8.069   3.133
  809W        W 4328   6.971   2.538   9.801
  810W        W 4329   3.480   4.485   3.927
  811W        W 4330   3.823   1.430   8.695
  812W        W 4331   9.892   6.846   9.963
  813W        W 4332   3.902   8.045   9.066
  814W        W 4333   6.822   2.799  10.200
  815W        W 4334   1.734   5.657   9.564
  816W        W 4335   8.832   0.868   8.945
  817W        W 4336   0.480   1.657   9.843
  818W        W 4337   3.300   8.472  10.640
  819W        W 4338   4.729   7.517   2.330
  820W        W 4339   3.839   9.785  11.817
  821W        W 4340   2.694   3.619   0.089
  822W        W 4341   5.058   6.372   0.232
  823W        W 4342   3.502   0.626   2.216
  824W        W 4343   5.206   5.716   1.197
  825W        W 4344   8.274   4.344   2.360
  826W        W 4345   6.688   8.508   1.818
  827W        W 4346   3.462   9.358   8.624
  828W        W 4347   7.238   1.983   1.457
  829W        W 4348   3.737   9.023   1.632
  830W        W 4349   8.952   9.909  10.947
  831W        W 4350   3.186   8.222   3.275
  832W        W 4351   0.043   1.792   2.672
  833W        W 4352   6.824   5.886   8.947
  834W        W 4353   0.325   0.026  11.613
  835W        W 4354   4.875   1.857   1.815
  836W        W 4355   6.582   8.753  10.449
  837W        W 4356   1.168   0.380  10.724
  838W        W 4357   6.440   2.728  10.511
  839W        W 4358   2.755   9.211  10.638
  840W        W 4359   6.253   3.691   0.781
  841W        W 4360   0.461   1.351  11.276
  842W        W 4361   4.586   9.211   2.791
  843W        W 4362   6.400   9.274   2.834
  844W        W 4363   5.860   4.611  10.490
  845W        W 4364   9.645   1.762   0.114
  846W        W 4365   6.103   9.051  11.170
  847W        W 4366   2.200   3.838   9.006
  848W        W 4367   7.628   2.562  11.365
  849W        W 4368   2.705   6.789   2.847
  850W        W 4369   1.355   3.838   9.280
  851W        W 4370   0.863   2.885  11.517
  852W        W 4371   2.131   0.990   0.820
  853W        W 4372   6.209   5.936   1.619
  854W        W 4373   0.623   2.823   9.541
  855W        W 4374   4.242   2.816   9.551
  856W        W 4375   9.639   0.571   3.556
  857W        W 4376   7.946   7.406   0.400
  858W        W 4377   9.429   8.624  10.245
  859W        W 4378   5.243   5.520   0.179
  860W        W 4379   2.726   3.343   9.703
  861W        W 4380   8.612   3.489   3.317
  862W        W 4381   8.296   1.983   1.698
  863W        W 4382   4.062   8.506   3.875
  864W        W 4383   8.305   3.225  11.452
  865W        W 4384   9.557   3.043   0.264
  866W        W 4385   3.949   2.411  11.260
  867W        W 4386   8.073   5.985   9.568
  868W        W 4387   3.808   4.146   4.259
  869W        W 4388   7.394   4.796   0.421
  870W        W 4389   5.219   2.270   0.168
  871W        W 4390   4.117   7.980   9.530
  872W        W 4391   7.811   1.658  10.293
  873W        W 4392   0.964   9.231   9.548
  874W        W 4393   5.178   6.034   8.196
  875W        W 4394   9.505   1.536   9.971
  876W        W 4395   6.575   2.415   0.921
  877W        W 4396   7.087   6.581   1.337
  878W        W 4397   7.567   3.762   1.965
  879W        W 4398   9.090   9.763  10.435
  880W        W 4399   9.919   4.760   0.885
  881W        W 4400   2.149   9.661   2.139
  882W        W 4401   0.368   4.523   1.750
  883W        W 4402   7.264   2.159   3.228
  884W        W 4403   2.182   3.013  11.435
  885W        W 4404   7.777   3.656   9.566
  886W        W 4405   1.348   9.515   2.646
  887W        W 4406   6.370   6.081   4.133
  888W        W 4407   8.620   5.053  10.373
  889W        W 4408   9.033   4.306  10.640
  890W        W 4409   4.492   7.671  11.381
  891W        W 4410   6.474   1.155   2.654
  892W        W 4411   7.968   0.201   0.980
  893W        W 4412   8.382   3.643  10.213
  894W        W 4413   8.968   4.697  10.278
  895W        W 4414   3.156   6.702  10.870
  896W        W 4415   6.492   7.271   3.493
  897W        W 4416   9.291   2.566  10.829
  898W        W 4417   9.940   9.839   9.238
  899W        W 4418   0.680   4.651  10.885
  900W        W 4419   4.210   4.299  10.618
  901W        W 4420   4.728   2.311   9.005
  902W        W 4421   0.320   3.928   2.208
  903W        W 4422   7.081   2.797  10.658
  904W        W 4423   1.792   6.149   1.225
  905W        W 4424   0.204   5.526   8.458
  906W        W 4425   2.464   3.164   0.191
  907W        W 4426   4.788   6.649   1.960
  908W        W 4427   1.503   8.619   2.817
  909W        W 4428   5.141   0.957   3.309
  910W        W 4429   0.775   7.964   0.024
  911W        W 4430   9.286   7.557   2.707
  912W        W 4431   6.543   7.170   2.954
  913W        W 4432   5.037   4.018  11.976
  914W        W 4433   3.081   7.416   2.901
  915W        W 4434   6.890   2.992   2.823
  916W        W 4435   7.569   1.211   0.503
  917W        W 4436   7.701   9.979   0.373
  918W        W 4437   3.193   7.909   2.816
  919W        W 4438   4.174   6.814   1.417
  920W        W 4439   6.047   3.341   9.198
  921W        W 4440   2.609   8.710   2.399
  922W        W 4441   0.937   7.599  11.681
  923W        W 4442   5.071   8.836   9.097
  924W        W 4443   1.022   5.675  10.877
  925W        W 4444   4.410   4.097   1.959
  926W        W 4445   6.087   5.236   9.302
  927W        W 4446   3.826   9.858   1.015
  928W        W 4447   5.611   0.617   0.768
  929W        W 4448   0.596   7.442  10.895
  930W        W 4449   6.675   9.956   0.469
  931W        W 4450   6.709   0.253   3.595
  932W        W 4451   6.167   4.179   8.274
  933W        W 4452   6.467   4.615   0.493
  934W        W 4453   0.528   3.525  11.767
  935W        W 4454   2.596   0.716   0.779
  936W        W 4455   1.981   2.660   9.544
  937W        W 4456   0.171   0.557  10.736
  938W        W 4457   3.406   2.131   3.541
  939W        W 4458   5.713   2.083  10.438
  940W        W 4459   9.993   2.160  11.483
  941W        W 4460   9.675   1.459   8.609
  942W        W 4461   3.266   3.653  11.048
  943W        W 4462   1.323   3.819   1.896
  944W        W 4463   4.761   2.818   0.809
  945W        W 4464   5.004   9.823   1.273
  946W        W 4465   4.010   3.403  10.401
  947W        W 4466   2.572   3.342  11.602
  948W        W 4467   0.114   6.510   8.876
  949W        W 4468   3.325   1.389  10.034
  950W        W 4469   5.297   6.485   0.725
  951W        W 4470   9.400   2.587  11.351
  952W        W 4471   9.601   7.039   3.547
  953W        W 4472   1.705   2.229   2.439
  954W        W 4473   3.316   3.065   2.413
  955W        W 4474   5.737   1.853   2.710
  956W        W 4475   0.318   0.934   3.382
  957W        W 4476   4.771   5.519   2.663
  958W        W 4477   4.364   7.681   1.105
  959W        W 4478   6.156   7.195  11.402
  960W        W 4479   8.649   2.396   9.648
  961W        W 4480   1.400   9.330   9.809
  962W        W 4481   4.948   9.371  10.498
  963W        W 4482   5.833   0.906   1.740
  964W        W 4483   6.545   3.734   3.556
  965W        W 4484   2.751   0.855  10.629
  966W        W 4485   1.878   6.990   0.838
  967W        W 4486   3.126   7.064   2.544
  968W        W 4487   9.832   4.361   1.268
  969W        W 4488   8.502   4.681   1.413
  970W        W 4489   2.243   1.317  10.911
  971W        W 4490   5.783   5.044   1.343
  972W        W 4491   7.528   6.336   1.587
  973W        W 4492   0.686   5.799   3.196
  974W        W 4493   2.889   0.647  11.072
  975W        W 4494   4.126   1.377   1.627
  976W        W 4495   7.334   6.187   9.553
  977W        W 4496   9.024   6.247   2.635
  978W        W 4497   0.539   7.682   3.153
  979W        W 4498   9.796   0.346   2.197
  980W        W 4499   1.951   9.906  11.992
  981W        W 4500   2.203   5.061   1.844
  982W        W 4501   9.088   7.199   3.523
  983W        W 4502   5.774   6.733   2.841
  984W        W 4503   1.707   2.291   1.449
  985W        W 4504   1.658   5.184   1.065
  986W        W 4505   7.438   2.996  11.556
  987W        W 4506   9.445   5.766   1.163
  988W        W 4507   0.809   7.881   8.852
  989W        W 4508   1.763   5.250  11.763
  990W        W 4509   3.250   8.247   0.447
  991W        W 4510   3.032   7.816  11.026
  992W        W 4511   9.569   5.031  10.431
  993W        W 4512   1.838   8.219   2.950
  994W        W 4513   6.070   1.466   2.355
  995W        W 4514   3.343   3.840  11.521
  996W        W 4515   8.843   3.303  10.483
  997W        W 4516   2.905   2.859   3.123
  998W        W 4517   3.073   9.494   2.300
  999W        W 4518   2.767   1.239  10.995
 1000W        W 4519   1.301   3.313   9.304
 1001W        W 4520   6.999   7.981   0.192
 1002W        W 4521   2.398   8.954  11.348
 1003W        W 4522   3.124   6.570   9.829
 1004W        W 4523   6.659   1.312   1.737
 1005W        W 4524   6.961   4.238   2.279
 1006W        W 4525   9.887   8.269   0.836
 1007W        W 4526   5.063   3.671   8.701
 1008W        W 4527   2.102   1.788   0.396
 1009W        W 4528   4.274   8.406   8.965
 1010W        W 4529   7.884   1.732   3.814
 1011W        W 4530   0.623   0.759   1.162
 1012W        W 4531   6.043   8.554   8.835
 1013W        W 4532   3.124   8.533   2.602
 1014W        W 4533   3.005   1.854   0.493
 1015W        W 4534   9.341   7.913   0.018
 1016W        W 4535   9.940   8.429  11.542
 1017W        W 4536   5.635   8.037   1.808
 1018W        W 4537   1.259   4.048  11.487
 1019W        W 4538   9.094   5.199  10.308
 1020W        W 4539   1.219   0.225   2.616
 1021W        W 4540   2.376   6.674   1.674
 1022W        W 4541   4.107   1.867  11.165
 1023W        W 4542   4.016   8.003   3.384
 1024W        W 4543   8.408   1.202   0.539
 1025W        W 4544   9.839   4.585  11.792
 1026W        W 4545   5.673   0.769  11.908
 1027W        W 4546   3.952   4.890   8.827
 1028W        W 4547   6.406   4.691   2.899
 1029W        W 4548   5.897   5.306   3.548
 1030W        W 4549   8.970   6.466   9.633
 1031W        W 4550   9.060   8.568  10.965
 1032W        W 4551   2.749   2.696   0.209
 1033W        W 4552   9.490   4.774   2.677
 1034W        W 4553   8.625   6.048   1.214
 1035W        W 4554   3.037   6.884  11.416
 1036W        W 4555   7.987   2.772   2.946
 1037W        W 4556   2.164   4.529   1.316
 1038W        W 4557   5.550   3.199   0.067
 1039W        W 4558   5.555   2.259   0.547
 1040W        W 4559   9.813   5.248   0.968
 1041W        W 4560   1.145   5.567   3.201
 1042W        W 4561   6.047   3.486  11.384
 1043W        W 4562   2.232   2.837   9.122
 1044W        W 4563   5.492   4.381  10.770
 1045W        W 4564   4.603   8.173   8.640
 1046W        W 4565   0.772   8.574   1.820
 1047W        W 4566   8.721   9.948   2.023
 1048W        W 4567   1.250   9.993   0.818
 1049W        W 4568   3.567   2.038  11.294
 1050W        W 4569   5.640   5.156   3.096
 1051W        W 4570   4.144   8.620  11.154
 1052W        W 4571   6.799   9.368   1.928
 1053W        W 4572   3.461   2.593   0.609
 1054W        W 4573   0.218   4.322  11.546
 1055W        W 4574   5.170   7.965   2.107
 1056W        W 4575   7.522   7.559   2.295
 1057W        W 4576   7.856   0.632   0.743
 1058W        W 4577   4.218   4.258   2.410
 1059W        W 4578   4.242   3.684   1.688
 1060W        W 4579   4.124   9.946  10.623
 1061W        W 4580   7.869   2.978  10.238
 1062W        W 4581   3.175   9.076   9.787
 1063W        W 4582   6.875   6.958   3.288
 1064W        W 4583   8.263   6.398  11.000
 1065W        W 4584   9.406   4.109   0.517
 1066W        W 4585   5.331   4.411  10.288
 1067W        W 4586   7.057   9.540   0.650
 1068W        W 4587   3.811   9.270   2.390
 1069W        W 4588   3.559   1.861   8.682
 1070W        W 4589   9.840   3.888  11.081
 1071W        W 4590   4.872   5.376  11.865
 1072W        W 4591   6.978   8.607  10.791
 1073W        W 4592   9.692   3.890   0.146
 1074W        W 4593   4.221   2.690  10.895
 1075W        W 4594   1.222   6.693  10.561
 1076W        W 4595   0.965   3.274   0.440
 1077W        W 4596   1.713   8.477  11.806
 1078W        W 4597   1.303   9.710   9.509
 1079W        W 4598   5.639   8.986   0.921
 1080W        W 4599   0.185   7.278  11.165
 1081W        W 4600   0.213   5.914  11.741
 1082W        W 4601   7.568   4.696   1.830
 1083W        W 4602   9.766   5.625  11.791
 1084W        W 4603   4.501   2.250  11.633
 1085W        W 4604   8.265   4.644  10.993
 1086W        W 4605   3.547   5.988   2.900
 1087W        W 4606   4.051   6.839   9.652
 1088W        W 4607   5.170   0.576  11.448
 1089W        W 4608   1.040   1.545   1.724
 1090W        W 4609   5.341   1.187   9.234
 1091W        W 4610   6.770   8.343  11.170
 1092W        W 4611   1.883   2.271   9.896
 1093W        W 4612   8.894   5.719  10.453
 1094W        W 4613   7.117   3.552   0.882
 1095W        W 4614   9.458   8.385  10.701
 1096W        W 4615   8.028   4.999  11.479
 1097W        W 4616   5.615   0.674  10.075
 1098W        W 4617   2.462   3.658   3.182
 1099W        W 4618   7.643   3.902  10.806
 1100W        W 4619   6.137   4.736   9.533
 1101W        W 4620   9.316   9.505   0.890
 1102W        W 4621   4.708   8.609  10.452
 1103W        W 4622   6.994   8.035   2.736
 1104W        W 4623   9.773   7.362   1.051
 1105W        W 4624   6.964   5.322   0.225
 1106W        W 4625   0.681   6.591   2.158
 1107W        W 4626   3.709   2.462   2.717
 1108W        W 4627   7.526   1.564   1.521
 1109W        W 4628   1.981   9.668   3.273
 1110W        W 4629   3.670   8.504   1.741
 1111W        W 4630   3.772   4.166  10.829
 1112W        W 4631   3.526   8.934   2.665
 1113W        W 4632   6.502   6.573   3.184
 1114W        W 4633   8.902   6.482  11.698
 1115W        W 4634   0.423   8.500   9.325
 1116W        W 4635   3.183   9.909   2.683
 1117W        W 4636   0.527   0.466   3.325
 1118W        W 4637   1.142   8.854   0.353
 1119W        W 4638   8.500   5.448  10.719
 1120W        W 4639   6.140   5.553   3.176
 1121W        W 4640   3.726   9.565   9.006
 1122W        W 4641   0.832   8.802  11.456
 1123W        W 4642   4.206   0.622  10.561
 1124W        W 4643   2.049   6.492  11.405
 1125W        W 4644   1.040   4.966  10.542
 1126W        W 4645   6.474   8.127  11.509
 1127W        W 4646   3.808   5.971  10.767
 1128W        W 4647   9.794   4.066  11.667
 1129W        W 4648   0.613   7.551   2.675
 1130W        W 4649   3.180   7.351   0.910
 1131W        W 4650   0.057   5.433   2.911
 1132W        W 4651   1.468   2.952   0.173
 1133W        W 4652   3.699   5.968   0.469
 1134W        W 4653   8.534   8.922   9.021
 1135W        W 4654   9.753   6.530   9.245
 1136W        W 4655   9.099   5.760   2.802
 1137W        W 4656   8.479   2.747  11.476
 1138W        W 4657   6.845   4.977  10.235
 1139W        W 4658   1.639   3.493  10.533
 1140W        W 4659   8.622   3.938   0.938
 1141W        W 4660   7.408   9.460  11.728
 1142W        W 4661   0.355   2.600   9.949
 1143W        W 4662   5.532   7.114   1.203
 1144W        W 4663   8.909   1.244   3.244
 1145W        W 4664   9.938   0.125   8.796
 1146W        W 4665   4.898   3.410   1.544
 1147W        W 4666   4.778   2.982   4.084
 1148W        W 4667   3.033   6.274   2.243
 1149W        W 4668   7.957   3.937   1.431
 1150W        W 4669   3.137   3.310   2.000
 1151W        W 4670   0.623   9.772   2.198
 1152W        W 4671   1.379   9.330   2.175
 1153W        W 4672   1.174   4.569  10.839
 1154W        W 4673   2.191   9.271   3.503
 1155W        W 4674   4.778   3.724  10.386
 1156W        W 4675   2.140   7.101  10.420
 1157W        W 4676   6.253   6.458   2.327
 1158W        W 4677   1.115   7.151  10.355
 1159W        W 4678   6.888   9.524  11.671
 1160W        W 4679   8.500   7.726   9.890
 1161W        W 4680   2.698   7.849   2.182
 1162W        W 4681   6.205   3.189   1.379
 1163W        W 4682   3.025   9.292   1.842
 1164W        W 4683   4.918   2.188  10.777
 1165W        W 4684   8.948   6.692   1.140
 1166W        W 4685   1.200   6.154  10.963
 1167W        W 4686   6.500   2.699   9.579
 1168W        W 4687   1.829   5.250   9.229
 1169W        W 4688   3.211   5.182   2.380
 1170W        W 4689   6.838   7.178  11.867
 1171W        W 4690   7.411   9.866  11.410
 1172W        W 4691   0.565   6.185  10.181
 1173W        W 4692   6.100   0.029   2.618
 1174W        W 4693   9.219   3.668   0.816
 1175W        W 4694   7.539   7.646   0.170
 1176W        W 4695   3.026   2.850   1.394
 1177W        W 4696   0.847   2.591   0.806
 1178W        W 4697   3.839   6.641   8.768
 1179W        W 4698   5.524   4.556   0.608
 1180W        W 4699   3.856   4.018   0.823
 1181W        W 4700   4.622   8.215   0.354
 1182W        W 4701   9.861   9.129   0.296
 1183W        W 4702   1.964   8.738   2.994
 1184W        W 4703   8.811   3.938   3.119
 1185W        W 4704   7.674   1.489   2.891
 1186W        W 4705   4.671   3.987  11.344
 1187W        W 4706   4.890   2.210   2.593
 1188W        W 4707   3.623   3.440   2.175
 1189W        W 4708   3.237   3.152   3.420
 1190W        W 4709   9.782   1.522   3.608
 1191W        W 4710   0.396   9.458   9.164
 1192W        W 4711   2.600   0.589   2.569
 1193W        W 4712   3.109   7.574  11.963
 1194W        W 4713   2.575   6.200   1.632
 1195W        W 4714   7.236   8.980   9.651
 1196W        W 4715   5.630   8.339  10.336
 1197W        W 4716   6.902   4.650  11.520
 1198W        W 4717   8.485   3.491   0.185
 1199W        W 4718   4.523   8.294   2.744
 1200W        W 4719   3.717   8.261  11.904
 1201W        W 4720   7.104   8.706  11.828
 1202W        W 4721   7.763   9.144   8.758
 1203W        W 4722   2.104   6.519  10.019
 1204W        W 4723   3.739   8.105   0.623
 1205W        W 4724   1.639   4.653   1.263
 1206W        W 4725   1.840   1.664   8.575
 1207W        W 4726   5.151   3.206   2.509
 1208W        W 4727   3.583   6.398   7.941
 1209W        W 4728   5.175   7.994  10.160
 1210W        W 4729   9.583   3.350   0.656
 1211W        W 4730   8.181   5.376   1.858
 1212W        W 4731   1.262   0.777  10.381
 1213W        W 4732   8.742   6.429   3.476
 1214W        W 4733   8.794   3.778   9.945
 1215W        W 4734   9.434   8.024   0.987
 1216W        W 4735   6.450   6.026  11.984
 1217W        W 4736   4.124   4.892  11.431
 1218W        W 4737   0.410   6.239   2.704
 1219W        W 4738   3.588   4.028   0.278
 1220W        W 4739   0.797   2.576   9.123
 1221W        W 4740   8.648   7.430  11.920
 1222W        W 4741   8.404   1.389   1.013
 1223W        W 4742   6.018   0.049  11.295
 1224W        W 4743   2.721   9.674  10.844
 1225W        W 4744   9.150   4.198   9.081
 1226W        W 4745   9.255   7.395   8.626
 1227W        W 4746   6.323   1.699   0.304
 1228W        W 4747   6.634   1.645  10.068
 1229W        W 4748   1.036   4.172   0.202
 1230W        W 4749   2.695   0.406   1.683
 1231W        W 4750   1.846   1.294  11.891
 1232W        W 4751   8.519   7.089   2.505
 1233W        W 4752   1.446   1.805   1.456
 1234W        W 4753   8.542   4.988   1.821
 1235W        W 4754   0.494   2.919   2.360
 1236W        W 4755   9.845   8.007  11.291
 1237W        W 4756   3.507   6.304   0.861
 1238W        W 4757   4.975   0.265  11.857
 1239W        W 4758   7.860   4.505  11.374
 1240W        W 4759   4.181   6.996   0.472
 1241W        W 4760   9.036   2.399  10.419
 1242W        W 4761   6.478   9.768   2.370
 1243W        W 4762   7.482   1.927   0.983
 1244W        W 4763   0.135   2.425  10.453
 1245W        W 4764   2.114   2.536   2.610
 1246W        W 4765   5.839   6.459  10.022
 1247W        W 4766   7.380   8.817   1.414
 1248W        W 4767   2.729   1.664  10.702
 1249W        W 4768   0.712   2.583  10.313
 1250W        W 4769   9.069   1.701  10.891
 1251W        W 4770   4.951   7.002   2.370
 1252W        W 4771   5.724   6.460  11.775
 1253W        W 4772   9.061   5.529   0.340
 1254W        W 4773   6.979   7.674   1.629
 1255W        W 4774   4.622   6.845   8.397
 1256W        W 4775   5.539   3.302   9.045
 1257W        W 4776   8.865   4.943   9.375
 1258W        W 4777   7.419   0.300   1.922
 1259W        W 4778   5.624   8.882  11.067
 1260W        W 4779   3.055   6.056   2.717
 1261W        W 4780   1.645   6.752  11.980
 1262W        W 4781   7.601   3.578   2.469
 1263W        W 4782   1.980   7.792   3.240
 1264W        W 4783   9.194   6.702   3.553
 1265W        W 4784   3.171   8.992   2.272
 1266W        W 4785   8.670   8.407   0.269
 1267W        W 4786   2.617   0.884   1.271
 1268W        W 4787   4.813   8.737   2.690
 1269W        W 4788   4.007   8.038  10.949
 1270W        W 4789   2.729   6.362   9.366
 1271W        W 4790   5.489   5.848   9.058
 1272W        W 4791   0.416   9.009   9.456
 1273W        W 4792   9.093   0.899   9.393
 1274W        W 4793   7.639   6.271   3.680
 1275W        W 4794   3.826   3.922   2.111
 1276W        W 4795   0.396   5.149   2.604
 1277W        W 4796   8.964   8.489  10.442
 1278W        W 4797   9.837   0.431  11.486
 1279W        W 4798   2.745   1.315   8.896
 1280W        W 4799   2.682   8.827   9.114
 1281W        W 4800   8.670   9.455  11.419
 1282W        W 4801   8.726   0.353   9.083
 1283W        W 4802   5.584   3.172   0.570
 1284W        W 4803   8.050   7.093  10.965
 1285W        W 4804   6.216   4.477  10.855
 1286W        W 4805   9.710   8.169  10.216
 1287W        W 4806   3.031   9.023   2.768
 1288W        W 4807   1.438   1.761  11.047
 1289W        W 4808   0.404   3.378  11.282
 1290W        W 4809   9.725   1.238   0.915
 1291W        W 4810   6.938   0.421   1.272
 1292W        W 4811   2.031   5.165   3.187
 1293W        W 4812   2.143   2.295   0.452
 1294W        W 4813   4.346   9.442   8.537
 1295W        W 4814   0.249   1.464   3.387
 1296W        W 4815   1.809   5.194   9.768
 1297W        W 4816   9.987   5.128  10.712
 1298W        W 4817   6.962   2.067   1.036
 1299W        W 4818   2.172   6.522   9.128
 1300W        W 4819   3.913   4.258   2.902
 1301W        W 4820   3.818   2.117   9.050
 1302W        W 4821   0.625   7.193  10.443
 1303W        W 4822   7.476   7.182   0.395
 1304W        W 4823   8.114   3.309   9.918
 1305W        W 4824   0.233   2.922  10.366
 1306W        W 4825   5.239   0.701   2.454
 1307W        W 4826   8.964   0.167   0.931
 1308W        W 4827   3.786   8.560   9.061
 1309W        W 4828   7.138   4.005   1.805
 1310W        W 4829   2.814   1.787   1.956
 1311W        W 4830   8.367   7.076   2.997
 1312W        W 4831   7.332   9.848  10.533
 1313W        W 4832   3.803   0.616   2.651
 1314W        W 4833   9.391   0.606  11.694
 1315W        W 4834   3.142   4.914  11.622
 1316W        W 4835   4.752   3.120   8.137
 1317W        W 4836   3.219   4.144   3.656
 1318W        W 4837   6.964   3.687  10.124
 1319W        W 4838   6.431   9.002   9.976
 1320W        W 4839   9.975   6.512  10.916
 1321W        W 4840   5.095   2.697   9.757
 1322W        W 4841   7.879   8.567   3.531
 1323W        W 4842   6.917   3.334   2.412
 1324W        W 4843   3.869   7.135   3.750
 1325W        W 4844   1.781   9.625  10.528
 1326W        W 4845   6.701   1.698   1.393
 1327W        W 4846   2.189   7.458   8.863
 1328W        W 4847   4.947   9.035   0.409
 1329W        W 4848   9.850   0.387   0.579
 1330W        W 4849   8.881   7.677  11.198
 1331W        W 4850   5.624   9.813  11.504
 1332W        W 4851   5.068   3.016  11.979
 1333W        W 4852   7.599   0.673   3.242
 1334W        W 4853   3.991   3.231   1.859
 1335W        W 4854   7.397   3.054   0.064
 1336W        W 4855   0.727   0.570   9.004
 1337W        W 4856   2.559   1.346   9.382
 1338W        W 4857   9.251   1.467   9.527
 1339W        W 4858   0.826   1.793  11.737
 1340W        W 4859   7.058   9.787   9.699
 1341W        W 4860   0.286   9.916   9.605
 1342W        W 4861   6.173   8.104   9.702
 1343W        W 4862   3.224   9.030  10.756
 1344W        W 4863   1.580   0.774   1.362
 1345W        W 4864   8.451   3.571   2.823
 1346W        W 4865   1.397   7.040   9.107
 1347W        W 4866   0.670   7.480   2.178
 1348W        W 4867   8.494   3.630  11.212
 1349W        W 4868   3.499   5.525  11.667
 1350W        W 4869   2.312   3.161  10.083
 1351W        W 4870   0.882   6.317   1.438
 1352W        W 4871   3.489   5.765   9.801
 1353W        W 4872   8.954   1.369   2.764
 1354W        W 4873   2.603   8.491  11.316
 1355W        W 4874   1.839   9.324   2.419
 1356W        W 4875   4.517   2.395  10.098
 1357W        W 4876   7.863   3.208   2.712
 1358W        W 4877   2.260   3.794  10.908
 1359W        W 4878   1.415   9.326  11.876
 1360W        W 4879   7.336   7.973  11.808
 1361W        W 4880   4.718   1.386   0.206
 1362W        W 4881   7.515   8.385   1.645
 1363W        W 4882   4.123   2.894  10.409
 1364W        W 4883   5.622   4.166   1.533
 1365W        W 4884   3.680   0.374   0.733
 1366W        W 4885   1.711   0.020  10.844
 1367W        W 4886   9.012   6.989   8.894
 1368W        W 4887   0.983   4.059   9.014
 1369W        W 4888   9.421   0.401   0.885
 1370W        W 4889   6.573   8.017   2.460
 1371W        W 4890   2.137   0.378  10.451
 1372W        W 4891   5.206   8.990  11.419
 1373W        W 4892   2.933   3.802   8.445
 1374W        W 4893   1.881   5.422  10.784
 1375W        W 4894   2.260   3.518   1.356
 1376W        W 4895   4.353   4.005   0.636
 1377W        W 4896   4.057   6.032   3.080
 1378W        W 4897   9.095   4.989  11.215
 1379W        W 4898   1.947   6.998   9.040
 1380W        W 4899   6.581   5.479   2.217
 1381W        W 4900   8.533   3.776  11.702
 1382W        W 4901   7.026   1.896  10.605
 1383W        W 4902   5.795   2.663  11.344
 1384W        W 4903   7.441   8.125   2.954
 1385W        W 4904   6.281   6.165  10.306
 1386W        W 4905   6.500   5.775  11.067
 1387W        W 4906   3.085   2.163  11.448
 1388W        W 4907   4.347   7.608   3.208
 1389W        W 4908   7.697   4.617   0.800
 1390W        W 4909   6.662   4.123   1.660
 1391W        W 4910   4.011   2.291   1.807
 1392W        W 4911   4.757   9.600   2.486
 1393W        W 4912   0.980   1.229  10.398
 1394W        W 4913   4.431   7.427   1.925
 1395W        W 4914   4.922   7.988   3.928
 1396W        W 4915   9.403   9.687  11.760
 1397W        W 4916   4.695   2.311   0.625
 1398W        W 4917   5.354   3.442   1.830
 1399W        W 4918   1.219   0.958   0.486
 1400W        W 4919   8.296   5.653   2.472
 1401W        W 4920   0.012   0.238   1.721
 1402W        W 4921   3.617   6.891   2.483
 1403W        W 4922   1.352   4.585   0.316
 1404W        W 4923   2.972   4.688  10.535
 1405W        W 4924   8.728   7.242  11.450
 1406W        W 4925   0.734   2.104  11.099
 1407W        W 4926   1.117   2.998   3.118
 1408W        W 4927   1.023   8.382   9.343
 1409W        W 4928   1.794   7.023   2.278
 1410W        W 4929   4.581   4.132   9.154
 1411W        W 4930   6.106   7.138   0.866
 1412W        W 4931   9.229   5.240   2.702
 1413W        W 4932   4.189   6.351   9.552
 1414W        W 4933   2.470   1.685   1.134
 1415W        W 4934   4.297   3.737   9.598
 1416W        W 4935   5.912   9.446   2.990
 1417W        W 4936   8.467   6.570   1.306
 1418W        W 4937   1.389   7.128   9.916
 1419W        W 4938   3.132   9.519  10.030
 1420W        W 4939   4.191   0.408   9.150
 1421W        W 4940   3.259   1.141   1.352
 1422W        W 4941   3.205   6.528   9.317
 1423W        W 4942   8.903   4.623   9.776
 1424W        W 4943   2.193   0.122   0.428
 1425W        W 4944   3.256   1.785   2.708
 1426W        W 4945   0.427   4.004  11.885
 1427W        W 4946   5.484   5.778  10.294
 1428W        W 4947   8.854   7.924   0.208
 1429W        W 4948   2.559   9.944   1.335
 1430W        W 4949   5.475   3.978   3.406
 1431W        W 4950   3.491   0.869   0.758
 1432W        W 4951   0.195   3.304   3.246
 1433W        W 4952   5.524   1.207  10.681
 1434W        W 4953   7.779   7.463   1.278
 1435W        W 4954   4.702   3.912   1.551
 1436W        W 4955   4.032   8.180  10.002
 1437W        W 4956   8.616   5.365   0.630
 1438W        W 4957   5.052   4.644  10.719
 1439W        W 4958   9.776   8.624   2.848
 1440W        W 4959   9.008   5.485  11.344
 1441W        W 4960   9.996   3.085  11.970
 1442W        W 4961   2.279   1.249   1.451
 1443W        W 4962   6.944   6.848  10.202
 1444W        W 4963   7.653   8.846   1.853
 1445W        W 4964   2.041   1.285   0.390
 1446W        W 4965   1.577   2.766   3.060
 1447W        W 4966   5.853   0.490   8.912
 1448W        W 4967   7.872   0.798   1.223
 1449W        W 4968   1.866   5.705   0.403
 1450W        W 4969   1.766   9.856   8.800
 1451W        W 4970   2.254   2.116   1.346
 1452W        W 4971   4.910   2.785   8.938
 1453W        W 4972   2.216   1.685   9.885
 1454W        W 4973   9.302   3.142   2.876
 1455W        W 4974   2.667   9.481   9.793
 1456W        W 4975   6.985   6.008   2.340
 1457W        W 4976   6.390   6.785  11.038
 1458W        W 4977   8.347   2.868  10.079
 1459W        W 4978   0.162   9.142   1.142
 1460W        W 4979   8.175   9.298   9.138
 1461W        W 4980   3.679   1.625   2.440
 1462W        W 4981   3.678   9.060   9.847
 1463W        W 4982   1.994   8.640   3.510
 1464W        W 4983   3.913   9.202   3.577
 1465W        W 4984   6.041   5.997   2.515
 1466W        W 4985   7.481   6.087   2.425
 1467W        W 4986   5.669   7.033   9.824
 1468W        W 4987   1.767   1.783  10.125
 1469W        W 4988   9.773   9.868   2.011
 1470W        W 4989   7.838   1.602  11.872
 1471W        W 4990   8.585   5.545   1.113
 1472W        W 4991   4.918   2.657   0.311
 1473W        W 4992   2.572   1.971   8.847
 1474W        W 4993   6.254   5.884   0.454
 1475W        W 4994   8.458   3.136   8.997
 1476W        W 4995   6.093   5.439   0.248
 1477W        W 4996   9.295   3.721   3.156
 1478W        W 4997   3.028   1.066   0.899
 1479W        W 4998   8.578   8.407   1.917
 1480W        W 4999   8.461   0.036   9.680
 1481W        W 5000   9.439   1.410  11.250
 1482W        W 5001   6.830   0.240   9.508
 1483W        W 5002   7.150   4.829   3.565
 1484W        W 5003   1.427   1.496   1.048
 1485W        W 5004   8.496   0.324  11.663
 1486W        W 5005   2.288   6.036  10.029
 1487W        W 5006   5.801   7.284  10.681
 1488W        W 5007   2.715   8.863   0.547
 1489W        W 5008   6.643   4.135   0.354
 1490W        W 5009   3.756   4.706   1.667
 1491W        W 5010   6.957   3.414   3.612
 1492W        W 5011   3.181   4.145   9.660
 1493W        W 5012   0.912   9.351   2.367
 1494W        W 5013   7.387   6.546   2.062
 1495W        W 5014   9.306   3.184   9.304
 1496W        W 5015   7.161   6.097   3.713
 1497W        W 5016   2.209   4.986  11.525
 1498W        W 5017   6.458   4.851  11.224
 1499W        W 5018   9.448   8.986   0.573
 1500W        W 5019   5.045   6.708   8.672
 1501W        W 5020   1.246   2.884   0.658
 1502W        W 5021   7.109   2.497   1.328
 1503W        W 5022   1.061   7.537   3.017
 1504W        W 5023   8.114   3.813   0.959
 1505W        W 5024   7.552   0.763  10.826
 1506W        W 5025   8.560   9.863   3.017
 1507W        W 5026   7.694   4.704   2.325
 1508W        W 5027   9.412   0.468  10.655
 1509W        W 5028   0.013   3.046   2.134
 1510W        W 5029   8.526   2.312  10.524
 1511W        W 5030   3.068   5.083   3.281
 1512W        W 5031   4.851   6.083   1.434
 1513W        W 5032   4.025   3.910   1.288
 1514W        W 5033   3.501   3.729   8.472
 1515W        W 5034   3.677   0.018   1.495
 1516W        W 5035   8.478   7.036  10.117
 1517W        W 5036   5.065   5.248   1.827
 1518W        W 5037   3.345   0.891   1.789
 1519W        W 5038   9.486   2.402   1.758
 1520W        W 5039   8.285   6.675   9.053
 1521W        W 5040   8.864   3.054   2.637
 1522W        W 5041   1.755   6.363   2.927
 1523W        W 5042   4.955   0.656  10.966
 1524W        W 5043   8.938   7.100   0.792
 1525W        W 5044   4.001   4.325   0.457
 1526W        W 5045   1.531   6.903   3.537
 1527W        W 5046   9.203   6.084   1.857
 1528W        W 5047   1.331   6.661   0.364
 1529W        W 5048   7.459   0.914   0.892
 1530W        W 5049   9.814   3.192   2.905
 1531W        W 5050   4.076   3.214  10.872
 1532W        W 5051   5.420   2.313   9.968
 1533W        W 5052   8.104   8.396   9.415
 1534W        W 5053   7.597   2.328   2.232
 1535W        W 5054   7.516   1.106   8.570
 1536W        W 5055   6.106   6.719   9.688
 1537W        W 5056   7.424   8.554   9.884
 1538W        W 5057   9.252   4.486  11.104
 1539W        W 5058   3.331   7.969   0.887
 1540W        W 5059   4.243   2.587   3.113
 1541W        W 5060   0.216   1.797  10.268
 1542W        W 5061   9.184   3.134   0.829
 1543W        W 5062   3.498   1.202  10.489
 1544W        W 5063   5.942   2.734  10.312
 1545W        W 5064   4.280   4.421   8.557
 1546W        W 5065   7.403   9.572   0.230
 1547W        W 5066   5.021   6.586  10.596
 1548W        W 5067   7.856   6.334   3.214
 1549W        W 5068   1.684   5.755   9.066
 1550W        W 5069   6.397   1.364  11.509
 1551W        W 5070   0.005   5.869   0.178
 1552W        W 5071   1.847   9.202   9.595
 1553W        W 5072   5.379   8.513  11.364
 1554W        W 5073   1.867   4.699  11.253
 1555W        W 5074   4.719   1.423   0.713
 1556W        W 5075   9.492   7.505   3.391
 1557W        W 5076   5.508   2.208   1.546
 1558W        W 5077   6.930   5.531   8.527
 1559W        W 5078   9.628   6.457   8.673
 1560W        W 5079   1.347   8.448   0.129
 1561W        W 5080   6.567   7.851   9.443
 1562W        W 5081   8.486   6.980   1.015
 1563W        W 5082   9.576   4.068   2.852
 1564W        W 5083   5.062   6.414  11.076
 1565W        W 5084   5.879   1.862   1.271
 1566W        W 5085   4.632   3.562   8.437
 1567W        W 5086   8.090   9.446  11.196
 1568W        W 5087   4.007   3.271   9.507
 1569W        W 5088   9.872   1.309  11.471
 1570W        W 5089   0.218   1.033   1.009
 1571W        W 5090   6.357   3.734   0.272
 1572W        W 5091   2.623   1.946  11.575
 1573W        W 5092   7.703   2.107  11.692
 1574W        W 5093   5.138   7.071  10.001
 1575W        W 5094   3.771   1.727   0.906
 1576W        W 5095   4.171   3.188   9.971
 1577W        W 5096   0.326   3.763  10.936
 1578W        W 5097   8.526   6.604   0.081
 1579W        W 5098   1.254   1.595  11.917
 1580W        W 5099   9.504   3.127   2.386
 1581W        W 5100   2.846   0.144  11.045
 1582W        W 5101   7.541   1.178  11.979
 1583W        W 5102   2.901   4.379   0.849
 1584W        W 5103   0.891   0.099   8.908
 1585W        W 5104   7.039   5.474   1.666
 1586W        W 5105   8.831   6.899   3.228
 1587W        W 5106   8.073   0.062  10.907
 1588W        W 5107   7.228   4.638  10.191
 1589W        W 5108   4.764   3.712   9.403
 1590W        W 5109   6.740   5.193   8.900
 1591W        W 5110   5.410   7.566   1.854
 1592W        W 5111   5.779   6.166  10.454
 1593W        W 5112   7.824   6.622  10.867
 1594W        W 5113   7.483   1.855   1.992
 1595W        W 5114   9.121   3.044   9.915
 1596W        W 5115   1.158   5.739   2.237
 1597W        W 5116   2.117   2.599   1.385
 1598W        W 5117   8.776   4.317   0.481
 1599W        W 5118   8.079   2.807   8.889
 1600W        W 5119   3.577   3.635   0.667
 1601W        W 5120   3.378   0.355  11.068
 1602W        W 5121   9.669   8.593   8.570
 1603W        W 5122   0.219   0.005   0.834
 1604W        W 5123   7.029   9.029  10.480
 1605W        W 5124   4.974   4.038   3.258
 1606W        W 5125   7.129   5.971  11.486
 1607W        W 5126   3.278   0.766  11.398
 1608W        W 5127   5.199   0.059  11.342
 1609W        W 5128   3.821   8.329  10.494
 1610W        W 5129   1.794   3.121   9.378
 1611W        W 5130   9.863   8.034  10.699
 1612W        W 5131   7.408   7.487   9.990
 1613W        W 5132   4.897   5.349   1.356
 1614W        W 5133   7.522   5.592  10.228
 1615W        W 5134   4.944   7.507  11.622
 1616W        W 5135   5.165   0.722  11.951
 1617W        W 5136   9.015   3.157   8.712
 1618W        W 5137   3.063   7.874  11.530
 1619W        W 5138   4.014   2.204  10.789
 1620W        W 5139   9.350   9.960   0.655
 1621W        W 5140   9.505   6.508   2.738
 1622W        W 5141   2.300   0.116   1.894
 1623W        W 5142   8.704   1.840  11.725
 1624W        W 5143   3.738   3.686   7.991
 1625W        W 5144   8.494   0.332   0.779
 1626W        W 5145   6.634   3.220  10.458
 1627W        W 5146   7.837   6.091  10.870
 1628W        W 5147   3.216   2.894   0.289
 1629W        W 5148   2.760   6.407  11.006
 1630W        W 5149   3.656   0.988   3.029
 1631W        W 5150   7.732   8.490  11.308
 1632W        W 5151   3.664   8.818  10.594
 1633W        W 5152   9.829   9.984  11.761
 1634W        W 5153   4.593   3.270  10.252
 1635W        W 5154   1.050   9.672   0.474
 1636W        W 5155   6.626   7.625   3.168
 1637W        W 5156   1.057   2.836  10.713
 1638W        W 5157   5.440   2.738   0.288
 1639W        W 5158   3.249   8.303  10.160
 1640W        W 5159   3.569   4.238  11.287
 1641W        W 5160   0.674   4.926   0.851
 1642W        W 5161   3.531   5.912   9.241
 1643W        W 5162   4.137   0.079   1.825
 1644W        W 5163   1.804   5.877   2.727
 1645W        W 5164   0.426   9.319   8.643
 1646W        W 5165   4.186   2.255   2.699
 1647W        W 5166   3.792   6.396  10.448
 1648W        W 5167   3.830   6.116  10.013
 1649W        W 5168   2.059   1.500   0.879
 1650W        W 5169   9.634   1.019   1.386
 1651W        W 5170   4.635   7.200   3.198
 1652W        W 5171   2.692   8.977   9.628
 1653W        W 5172   6.778   9.964   1.372
 1654W        W 5173   5.190   4.974   3.315
 1655W        W 5174   3.367   1.086   0.296
 1656W        W 5175   4.317   9.116  11.210
 1657W        W 5176   3.759   9.213   1.131
 1658W        W 5177   0.501   4.225   9.527
 1659W        W 5178   1.941   2.772   2.184
 1660W        W 5179   2.299   8.866   8.762
 1661W        W 5180   1.308   7.624   9.957
 1662W        W 5181   9.996   8.075   2.228
 1663W        W 5182   8.152   5.352   0.900
 1664W        W 5183   0.942   0.888   9.986
 1665W        W 5184   1.353   4.927  11.943
 1666W        W 5185   4.191   8.540   0.668
 1667W        W 5186   5.219   5.952   0.450
 1668W        W 5187   2.616   6.428   9.981
 1669W        W 5188   0.892   7.204   9.528
 1670W        W 5189   7.931   6.834   2.093
 1671W        W 5190   0.026   2.130   9.407
 1672W        W 5191   1.676   0.024   9.307
 1673W        W 5192   8.854   0.912   2.543
 1674W        W 5193   4.546   5.156   1.753
 1675W        W 5194   7.501   9.427   0.909
 1676W        W 5195   5.546   3.880  11.859
 1677W        W 5196   6.488   5.995   2.287
 1678W        W 5197   7.447   0.309   0.066
 1679W        W 5198   6.303   0.476   9.208
 1680W        W 5199   0.592   9.053   9.962
 1681W        W 5200   7.926   0.204   2.551
 1682W        W 5201   2.857   5.567   3.188
 1683W        W 5202   7.256   1.805   2.864
 1684W        W 5203   5.958   4.561   3.106
 1685W        W 5204   0.911   2.485   9.857
 1686W        W 5205   2.897   9.582   1.444
 1687W        W 5206   5.101   4.970   0.095
 1688W        W 5207   9.596   0.082   3.372
 1689W        W 5208   5.582   2.557   9.557
 1690W        W 5209   7.415   8.868  11.054
 1691W        W 5210   6.170   4.895   3.767
 1692W        W 5211   6.913   8.236  11.737
 1693W        W 5212   6.126   7.647  10.831
 1694W        W 5213   6.398   6.974   8.725
 1695W        W 5214   3.524   7.586   0.591
 1696W        W 5215   8.021   9.540   1.620
 1697W        W 5216   7.239   6.143  10.081
 1698W        W 5217   0.912   3.978   2.935
 1699W        W 5218   4.576   6.597   2.404
 1700W        W 5219   6.673   0.567  10.471
 1701W        W 5220   8.603   9.057   9.847
 1702W        W 5221   4.313   8.731   2.885
 1703W        W 5222   7.883   8.868   0.451
 1704W        W 5223   3.384   9.145   3.137
 1705W        W 5224   9.772   6.705  10.480
 1706W        W 5225   8.655   3.160  11.826
 1707W        W 5226   2.096   1.481   1.915
 1708W        W 5227   7.200   7.069  11.464
 1709W        W 5228   0.081   7.030   3.310
 1710W        W 5229   3.003   6.395   8.629
 1711W        W 5230   0.695   7.936  10.953
 1712W        W 5231   1.212   3.099  11.156
 1713W        W 5232   1.616   1.223   8.743
 1714W        W 5233   9.786   7.497   8.968
 1715W        W 5234   5.934   9.504  11.791
 1716W        W 5235   4.038   7.161  10.627
 1717W        W 5236   3.366   0.438  10.092
 1718W        W 5237   0.850   8.501   1.290
 1719W        W 5238   8.049   0.179   9.979
 1720W        W 5239   9.555   9.243   3.469
 1721W        W 5240   4.885   8.419  11.361
 1722W        W 5241   2.668   8.279  10.384
 1723W        W 5242   6.000   9.275   1.267
 1724W        W 5243   8.178   7.456   2.690
 1725W        W 5244   0.879   4.073   1.214
 1726W        W 5245   2.087   0.778   1.276
 1727W        W 5246   9.796   8.344   3.286
 1728W        W 5247   5.220   8.022   9.576
 1729W        W 5248   8.363   1.747   0.543
 1730W        W 5249   0.466   5.664   0.325
 1731W        W 5250   0.287   7.965   0.738
 1732W        W 5251   6.304   5.888   1.136
 1733W        W 5252   8.680   8.839  10.699
 1734W        W 5253   4.378   9.730   0.590
 1735W        W 5254   5.346   7.489  10.693
 1736W        W 5255   6.560   0.244   2.121
 1737W        W 5256   3.947   5.098  10.970
 1738W        W 5257   1.748   2.648   9.080
 1739W        W 5258   7.584   0.369  10.128
 1740W        W 5259   1.620   8.031  10.492
 1741W        W 5260   4.763   6.187   4.055
 1742W        W 5261   2.136   2.526  11.563
 1743W        W 5262   0.188   7.499   3.499
 1744W        W 5263   1.426   5.366   0.165
 1745W        W 5264   7.085   7.847   3.239
 1746W        W 5265   2.275   7.408  11.563
 1747W        W 5266   5.770   9.705   8.529
 1748W        W 5267   8.654   3.264  10.005
 1749W        W 5268   4.362   7.807   9.972
 1750W        W 5269   4.590   9.520   1.369
 1751W        W 5270   3.007   1.849   9.944
 1752W        W 5271   6.323   5.061   1.459
 1753W        W 5272   4.466   5.122  10.776
 1754W        W 5273   3.396   6.798   0.798
 1755W        W 5274   9.592   1.814  11.535
 1756W        W 5275   4.938   5.776   8.574
 1757W        W 5276   3.136   5.975   1.073
 1758W        W 5277   5.133   0.130   1.688
 1759W        W 5278   1.375   0.209   2.087
 1760W        W 5279   9.097   6.721   2.494
 1761W        W 5280   7.191   0.827   2.149
 1762W        W 5281   7.699   4.557   9.504
 1763W        W 5282   3.779   4.431  10.370
 1764W        W 5283   8.448   2.658   0.521
 1765W        W 5284   1.235   3.373   2.164
 1766W        W 5285   2.794   8.847   1.945
 1767W        W 5286   1.407   9.400  10.861
 1768W        W 5287   3.272   3.185   2.910
 1769W        W 5288   2.812   5.573   8.931
 1770W        W 5289   8.421   4.502   8.321
 1771W        W 5290   1.318   6.181   2.027
 1772W        W 5291   1.995   0.487   9.470
 1773W        W 5292   1.884   9.149  10.662
 1774W        W 5293   0.013   6.510   1.406
 1775W        W 5294   9.111   6.502   3.074
 1776W        W 5295   8.805   3.127  11.329
 1777W        W 5296   5.862   4.291   3.541
 1778W        W 5297   7.256   9.049   8.792
 1779W        W 5298   0.446   5.708   2.684
 1780W        W 5299   7.683   9.877   1.823
 1781W        W 5300   0.669   5.185   2.014
 1782W        W 5301   6.435   9.773   2.902
 1783W        W 5302   7.091   1.418   1.253
 1784W        W 5303   6.845   0.077  10.573
 1785W        W 5304   1.151   3.314  10.643
 1786W        W 5305   5.433   8.889   1.852
 1787W        W 5306   1.361   3.987   1.393
 1788W        W 5307   5.079   1.733   2.340
 1789W        W 5308   7.854   9.781   3.288
 1790W        W 5309   3.252   0.905   9.873
 1791W        W 5310   6.138   0.205   0.667
 1792W        W 5311   9.866   2.733   1.757
 1793W        W 5312   5.968   6.472   3.262
 1794W        W 5313   6.349   9.048   0.192
 1795W        W 5314   4.137   7.965   8.612
 1796W        W 5315   3.147   6.067   9.557
 1797W        W 5316   7.991   1.435   0.349
 1798W        W 5317   7.537   9.849   9.498
 1799W        W 5318   1.698   7.467   0.812
 1800W        W 5319   6.037   3.703  11.849
 1801W        W 5320   5.899   0.618   3.773
 1802W        W 5321   4.639   1.417   9.906
 1803W        W 5322   2.912   1.725  11.191
 1804W        W 5323   8.015   6.982   2.570
 1805W        W 5324   3.010   5.568   9.800
 1806W        W 5325   2.797   3.061   0.547
 1807W        W 5326   4.002   1.871   9.972
 1808W        W 5327   2.704   9.312   8.211
 1809W        W 5328   5.279   6.170   8.684
 1810W        W 5329   8.038   8.890  10.415
 1811W        W 5330   1.327   4.060  10.979
 1812W        W 5331   4.972   4.490   3.526
 1813W        W 5332   8.248   4.344   3.568
 1814W        W 5333   5.667   6.194   8.304
 1815W        W 5334   8.636   0.826  11.654
 1816W        W 5335   1.273   6.543   2.848
 1817W        W 5336   3.580   5.303  10.520
 1818W        W 5337   6.645   8.129   0.520
 1819W        W 5338   6.585   6.521   8.547
 1820W        W 5339   4.489   9.260  10.742
 1821W        W 5340   0.012   8.981   8.584
 1822W        W 5341   8.856   7.390   1.793
 1823W        W 5342   8.431   4.727   9.578
 1824W        W 5343   8.808   5.783  10.961
 1825W        W 5344   3.743   5.541   2.775
 1826W        W 5345   1.236   2.212  11.110
 1827W        W 5346   6.492   2.061   9.158
 1828W        W 5347   1.002   1.699   1.223
 1829W        W 5348   1.472   4.971  11.451
 1830W        W 5349   2.772   3.127   2.508
 1831W        W 5350   0.002   3.881   1.143
 1832W        W 5351   3.407   0.256   1.140
 1833W        W 5352   3.808   1.250   1.242
 1834W        W 5353   9.154   3.715   8.822
 1835W        W 5354   3.723   7.072   1.440
 1836W        W 5355   0.462   1.821   9.371
 1837W        W 5356   4.541   8.724   0.328
 1838W        W 5357   4.634   6.869   9.999
 1839W        W 5358   3.696   0.763  11.842
 1840W        W 5359   0.167   8.040   0.255
 1841W        W 5360   3.987   0.341   2.240
 1842W        W 5361   7.606   9.787   2.760
 1843W        W 5362   4.999   6.094   0.908
 1844W        W 5363   4.789   8.319  10.880
 1845W        W 5364   6.072   1.359  10.769
 1846W        W 5365   5.988   2.331   3.195
 1847W        W 5366   5.964   4.110   8.736
 1848W        W 5367   0.686   3.602  10.605
 1849W        W 5368   4.697   6.897   2.799
 1850W        W 5369   7.547   4.887   9.877
 1851W        W 5370   5.094   6.107  10.273
 1852W        W 5371   7.302   1.152  10.520
 1853W        W 5372   9.829   7.144   1.963
 1854W        W 5373   2.523   5.970  11.654
 1855W        W 5374   6.314   7.885   3.477
 1856W        W 5375   8.676   3.544   8.654
 1857W        W 5376   2.615   4.046   0.422
 1858W        W 5377   8.256   1.468  10.470
 1859W        W 5378   8.881   5.457   9.493
 1860W        W 5379   1.209   3.743   0.469
 1861W        W 5380   8.410   5.259   2.780
 1862W        W 5381   2.753   4.029   8.871
 1863W        W 5382   0.583   0.219   0.047
 1864W        W 5383   6.869   2.856   8.890
 1865W        W 5384   1.262   5.482   9.079
 1866W        W 5385   3.713   4.283   2.442
 1867W        W 5386   0.020   1.973  10.708
 1868W        W 5387   6.096   6.533   8.730
 1869W        W 5388   5.755   8.439   0.695
 1870W        W 5389   9.728   3.255   1.753
 1871W        W 5390   4.023   9.573   1.912
 1872W        W 5391   9.318   5.698  10.995
 1873W        W 5392   2.593   8.535   0.983
 1874W        W 5393   2.429   0.346   9.237
 1875W        W 5394   8.525   6.106   2.503
 1876W        W 5395   6.803   2.017   2.754
 1877W        W 5396   0.660   3.546   0.750
 1878W        W 5397   9.004   5.334  10.808
 1879W        W 5398   5.850   5.138  10.361
 1880W        W 5399   8.904   0.183   0.410
 1881W        W 5400   2.681   3.420   1.074
 1882W        W 5401   1.950   2.601  10.705
 1883W        W 5402   7.503   1.288  10.059
 1884W        W 5403   9.505   3.652   3.628
 1885W        W 5404   6.831   5.608   2.653
 1886W        W 5405   3.301   8.997   0.910
 1887W        W 5406   7.282   5.488  11.330
 1888W        W 5407   3.806   2.512   9.453
 1889W        W 5408   9.883   9.309  11.065
 1890W        W 5409   0.041   3.622  11.857
 1891W        W 5410   6.334   9.690   1.353
 1892W        W 5411   4.691   1.471  10.532
 1893W        W 5412   5.540   4.695   2.852
 1894W        W 5413   1.823   7.828   2.583
 1895W        W 5414   2.380   4.643   2.405
 1896W        W 5415   0.866   6.533  10.948
 1897W        W 5416   9.921   5.230  11.197
 1898W        W 5417   2.223   9.667   9.989
 1899W        W 5418   3.781   2.625   1.035
 1900W        W 5419   2.378   7.030   0.682
 1901W        W 5420   8.543   6.216   0.416
 1902W        W 5421   3.901   6.687   0.905
 1903W        W 5422   0.458   4.038   9.048
 1904W        W 5423   4.208   8.849  10.676
 1905W        W 5424   3.221   0.713   3.178
 1906W        W 5425   0.336   2.087   1.306
 1907W        W 5426   9.461   9.353  10.756
 1908W        W 5427   8.003   2.019   2.196
 1909W        W 5428   6.470   9.302   1.039
 1910W        W 5429   8.509   6.810  11.605
 1911W        W 5430   2.365   8.440   0.425
 1912W        W 5431   6.813   9.801   9.243
 1913W        W 5432   7.477   2.045  10.382
 1914W        W 5433   2.565   6.999  11.311
 1915W        W 5434   4.602   4.715   9.855
 1916W        W 5435   4.593   1.286   2.957
 1917W        W 5436   0.225   0.434   9.096
 1918W        W 5437   9.425   5.842  11.470
 1919W        W 5438   1.357   9.217   1.676
 1920W        W 5439   3.541   9.275  10.294
 1921W        W 5440   4.753   9.496   0.874
 1922W        W 5441   8.585   8.173  11.499
 1923W        W 5442   0.176   3.761   9.788
 1924W        W 5443   8.526   8.562   9.729
 1925W        W 5444   8.779   5.611  11.785
 1926W        W 5445   8.916   2.598   2.007
 1927W        W 5446   4.099   7.581   9.159
 1928W        W 5447   8.501   8.013  10.510
 1929W        W 5448   7.895   5.956   1.582
 1930W        W 5449   3.226   4.221   9.143
 1931W        W 5450   8.114   6.675   8.546
 1932W        W 5451   2.671   5.259   1.163
 1933W        W 5452   5.385   9.766   1.961
 1934W        W 5453   8.030   0.663   2.323
 1935W        W 5454   0.186   6.018   8.629
 1936W        W 5455   4.593   8.476   1.478
 1937W        W 5456   8.576   8.445   9.222
 1938W        W 5457   1.604   6.762   8.707
 1939W        W 5458   2.354   3.244   0.714
 1940W        W 5459   6.651   4.527  11.986
 1941W        W 5460   0.768   2.430   2.450
 1942W        W 5461   5.053   0.839   8.971
 1943W        W 5462   4.738   2.724   3.244
 1944W        W 5463   8.058   7.696   3.135
 1945W        W 5464   8.439   4.178   1.356
 1946W        W 5465   9.990   6.845   0.511
 1947W        W 5466   1.313   6.301   9.551
 1948W        W 5467   6.406   0.999   0.850
 1949W        W 5468   1.587   7.485   2.270
 1950W        W 5469   4.209   3.599   2.195
 1951W        W 5470   1.213   8.505   9.974
 1952W        W 5471   4.780   2.012   9.431
 1953W        W 5472   5.685   9.685  10.068
 1954W        W 5473   1.903   3.929   9.823
 1955W        W 5474   9.106   6.181  10.986
 1956W        W 5475   5.971   4.428   0.378
 1957W        W 5476   8.843   7.774   1.435
 1958W        W 5477   7.381   0.809   9.881
 1959W        W 5478   0.044   9.638   0.461
 1960W        W 5479   5.148   6.520   2.302
 1961W        W 5480   7.107   1.089   1.705
 1962W        W 5481   1.207   7.087   8.625
 1963W        W 5482   4.705   7.966   1.357
 1964W        W 5483   0.703   3.896  11.396
 1965W        W 5484   0.463   2.385  11.443
 1966W        W 5485   5.856   9.391  10.806
 1967W        W 5486   5.567   1.868   0.879
 1968W        W 5487   7.338   7.666   2.763
 1969W        W 5488   4.335   3.096   2.218
 1970W        W 5489   8.883   9.214   0.936
 1971W        W 5490   0.970   5.792   2.754
 1972W        W 5491   1.615   5.018   2.484
 1973W        W 5492   4.995   2.517   4.249
 1974W        W 5493   4.642   6.992   1.198
 1975W        W 5494   2.080   3.500  11.405
 1976W        W 5495   8.319   3.888   3.249
 1977W        W 5496   6.390   8.880   3.633
 1978W        W 5497   1.385   8.130   2.744
 1979W        W 5498   3.467   4.102   8.153
 1980W        W 5499   6.357   5.699   3.628
 1981W        W 5500   8.379   4.520   0.233
 1982W        W 5501   0.038   9.826  10.228
 1983W        W 5502   5.250   3.524   0.778
 1984W        W 5503   5.627   7.806   2.272
 1985W        W 5504   5.770   7.402   0.004
 1986W        W 5505   2.690   8.614   2.897
 1987W        W 5506   2.959   1.808   3.651
 1988W        W 5507   4.471   2.345  10.600
 1989W        W 5508   5.176   9.533   2.938
 1990W        W 5509   6.872   8.971   1.597
 1991W        W 5510   8.457   7.146  10.646
 1992W        W 5511   0.130   4.055   1.724
 1993W        W 5512   9.809   1.009   3.277
 1994W        W 5513   5.095   9.155   2.615
 1995W        W 5514   1.163   8.488  10.489
 1996W        W 5515   9.584   2.386   3.519
 1997W        W 5516   0.888   0.621   0.270
 1998W        W 5517   1.584   9.056   1.249
 1999W        W 5518   5.513   7.322   3.611
 2000W        W 5519   7.490   1.085   1.373
 2001W        W 5520   6.194   0.763   0.025
 2002W        W 5521   7.802   0.372  10.584
 2003W        W 5522   0.498   1.600   1.326
 2004W        W 5523   5.471   5.085  11.316
 2005W        W 5524   2.359   4.371   0.782
 2006W        W 5525   7.655   7.614  10.427
 2007W        W 5526   4.834   9.961   0.624
 2008W        W 5527   7.276   2.120   9.063
 2009W        W 5528   7.285   5.655   3.963
 2010W        W 5529   1.207   2.225   1.308
 2011W        W 5530   4.337   5.270   3.274
 2012W        W 5531   3.336   5.920   7.953
 2013W        W 5532   1.029   7.079   3.539
 2014W        W 5533   0.502   3.616   3.607
 2015W        W 5534   8.917   7.793  11.692
 2016W        W 5535   5.496   4.239  11.487
 2017W        W 5536   2.607   7.932  10.758
 2018W        W 5537   5.616   1.062   3.570
 2019W        W 5538   4.297   4.690   1.775
 2020W        W 5539   4.950   6.809   3.272
 2021W        W 5540   9.429   7.971  11.004
 2022W        W 5541   9.336   8.987  11.146
 2023W        W 5542   5.990   8.816   0.462
 2024W        W 5543   0.400   7.599   0.399
 2025W        W 5544   8.201   2.885   9.602
 2026W        W 5545   6.154   7.940   0.575
 2027W        W 5546   2.744   7.483  11.309
 2028W        W 5547   0.332   2.639   1.965
 2029W        W 5548   6.883   6.278  11.852
 2030W        W 5549   6.855   7.329   9.077
 2031W        W 5550   2.738   9.745   8.965
 2032W        W 5551   6.753   3.591   8.508
 2033W        W 5552   1.758   8.761   9.334
 2034W        W 5553   5.637   3.829   9.926
 2035W        W 5554   5.916   7.558   1.826
 2036W        W 5555   6.282   4.118   3.802
 2037W        W 5556   6.651   7.365   9.545
 2038W        W 5557   2.273   2.786   0.472
 2039W        W 5558   8.006   2.265   9.074
 2040W        W 5559   9.114   8.184   1.641
 2041W        W 5560   0.773   5.174  11.508
 2042W        W 5561   4.984   0.526   2.960
 2043W        W 5562   6.086   7.400   0.408
 2044W        W 5563   6.330   0.849  11.540
 2045W        W 5564   3.021   6.452   0.893
 2046W        W 5565   9.959   2.173   2.120
 2047W        W 5566   8.705   3.816   9.445
 2048W        W 5567   0.846   7.099  11.830
 2049W        W 5568   2.551   3.580   2.327
 2050W        W 5569   0.890   7.003   9.039
 2051W        W 5570   1.358   7.448   9.464
 2052W        W 5571   2.986   7.077   9.296
 2053W        W 5572   2.805   3.825   9.780
 2054W        W 5573   7.200   3.226   3.187
 2055W        W 5574   5.178   7.082  11.443
 2056W        W 5575   7.175   8.712   0.676
 2057W        W 5576   6.565   3.858   2.939
 2058W        W 5577   0.009   9.576   8.810
 2059W        W 5578   0.264   7.203   2.834
 2060W        W 5579   9.719   7.727   2.505
 2061W        W 5580   2.828   3.697   1.904
 2062W        W 5581   9.235   1.805   0.481
 2063W        W 5582   9.343   2.073  10.644
 2064W        W 5583   0.182   6.605   2.131
 2065W        W 5584   3.214   4.218   8.618
 2066W        W 5585   2.862   5.968  11.269
 2067W        W 5586   8.200   5.412   0.338
 2068W        W 5587   4.583   8.519   2.292
 2069W        W 5588   4.171   7.210  11.413
 2070W        W 5589   9.671   9.099   2.991
 2071W        W 5590   5.022   8.345   1.219
 2072W        W 5591   5.444   4.940   8.760
 2073W        W 5592   1.633   8.217   1.036
 2074W        W 5593   2.652   9.040   1.021
 2075W        W 5594   9.443   5.552   2.331
 2076W        W 5595   1.795   1.369   3.523
 2077W        W 5596   0.915   6.726   3.178
 2078W        W 5597   7.093   0.850   3.111
 2079W        W 5598   0.299   2.722   3.046
 2080W        W 5599   7.977   2.148   0.912
 2081W        W 5600   1.551   7.646   1.290
 2082W        W 5601   9.205   0.380   1.348
 2083W        W 5602   6.246   3.562   3.177
 2084W        W 5603   5.178   4.451   2.034
 2085W        W 5604   5.542   3.141   3.168
 2086W        W 5605   4.880   7.418   1.007
 2087W        W 5606   6.462   9.830   3.464
 2088W        W 5607   5.160   7.275   3.252
 2089W        W 5608   3.300   2.976  11.219
 2090W        W 5609   1.174   5.807   8.657
 2091W        W 5610   0.823   1.139   0.805
 2092W        W 5611   5.444   1.380  11.147
 2093W        W 5612   9.291   7.093   1.188
 2094W        W 5613   3.624   3.422   0.215
 2095W        W 5614   2.646   4.354   1.290
 2096W        W 5615   7.743   8.439   2.670
 2097W        W 5616   9.021   2.230  11.528
 2098W        W 5617   0.658   2.452   3.414
 2099W        W 5618   6.418   7.628   1.705
 2100W        W 5619   8.262   1.176   8.541
 2101W        W 5620   0.670   4.117   1.749
 2102W        W 5621   7.437   4.930  11.384
 2103W        W 5622   9.025   1.375  10.122
 2104W        W 5623   3.243   2.487   1.064
 2105W        W 5624   6.006   8.128  10.697
 2106W        W 5625   0.419   1.346   9.193
 2107W        W 5626   2.853   6.417  10.502
 2108W        W 5627   7.148   7.356   3.474
 2109W        W 5628   7.467   1.803   9.938
 2110W        W 5629   4.931   8.389   1.901
 2111W        W 5630   7.892   8.851   2.329
 2112W        W 5631   4.004   3.103   9.014
 2113W        W 5632   9.585   4.837  11.337
 2114W        W 5633   1.809   2.156  10.952
 2115W        W 5634   0.519   1.223  10.089
 2116W        W 5635   0.073   9.333   3.198
 2117W        W 5636   4.093   4.123   0.001
 2118W        W 5637   7.336   2.690   0.408
 2119W        W 5638   9.414   6.923  10.177
 2120W        W 5639   2.194   6.116   2.967
 2121W        W 5640   5.395   7.076   8.585
 2122W        W 5641   7.207   2.106   0.561
 2123W        W 5642   8.249   3.109   0.423
 2124W        W 5643   3.536   4.056   1.508
 2125W        W 5644   9.917   2.218   1.576
 2126W        W 5645   0.734   2.839   1.692
 2127W        W 5646   5.148   3.823  11.507
 2128W        W 5647   2.460   2.771   2.307
 2129W        W 5648   5.136   8.245   0.725
 2130W        W 5649   2.783   1.357   1.390
 2131W        W 5650   6.415   7.541   0.770
 2132W        W 5651   5.695   5.612  11.969
 2133W        W 5652   8.898   2.199  10.880
 2134W        W 5653   1.706   6.571   9.718
 2135W        W 5654   6.445   3.698  10.508
 2136W        W 5655   0.832   5.401   2.440
 2137W        W 5656   0.824   1.260  11.751
 2138W        W 5657   0.354   5.093   3.129
 2139W        W 5658   9.034   5.672   9.063
 2140W        W 5659   5.634   9.850  10.991
 2141W        W 5660   5.220   4.969   0.575
 2142W        W 5661   4.283   7.803   1.614
 2143W        W 5662   2.050   4.864   2.778
 2144W        W 5663   1.770   6.921   2.836
 2145W        W 5664   8.095   8.699   0.891
 2146W        W 5665   8.262   9.147   8.641
 2147W        W 5666   1.863   5.209  11.235
 2148W        W 5667   5.445   8.435   2.125
 2149W        W 5668   3.494   2.372   8.709
 2150W        W 5669   4.855   8.331   9.049
 2151W        W 5670   1.881   9.593  11.074
 2152W        W 5671   8.952   7.148   2.765
 2153W        W 5672   2.797   3.043  10.455
 2154W        W 5673   6.671   4.309   3.149
 2155W        W 5674   9.094   4.853   3.051
 2156W        W 5675   5.873   6.163   4.023
 2157W        W 5676   8.827   7.877   1.929
 2158W        W 5677   0.820   6.101   0.888
 2159W        W 5678   1.238   2.565  10.323
 2160W        W 5679   7.276   9.865   8.993
 2161W        W 5680   0.263   9.270   1.618
 2162W        W 5681   1.566   8.899  10.947
 2163W        W 5682   3.249   5.668   1.473
 2164W        W 5683   3.338   0.397   9.039
 2165W        W 5684   3.343   9.731   3.139
 2166W        W 5685   7.248   1.566   8.682
 2167W        W 5686   2.344   4.843   9.219
 2168W        W 5687   8.533   4.823   9.007
 2169W        W 5688   0.253   8.839   0.174
 2170W        W 5689   9.840   4.157   9.814
 2171W        W 5690   5.908   1.895   0.509
 2172W        W 5691   3.566   0.174   2.459
 2173W        W 5692   4.180   0.220   0.794
 2174W        W 5693   9.369   9.035   1.070
 2175W        W 5694   3.637   9.575   9.879
 2176W        W 5695   1.045   4.739  11.568
 2177W        W 5696   7.995   6.361   1.236
 2178W        W 5697   1.335   4.244  10.501
 2179W        W 5698   9.341   2.682   0.549
 2180W        W 5699   3.862   1.228   0.740
 2181W        W 5700   2.348   5.406   1.520
 2182W        W 5701   0.572   8.160   2.920
 2183W        W 5702   4.125   1.942   8.526
 2184W        W 5703   9.544   0.575   3.062
 2185W        W 5704   0.908   6.383   9.865
 2186W        W 5705   6.161   9.972  11.781
 2187W        W 5706   6.251   6.684  10.200
 2188W        W 5707   9.248   7.109   0.375
 2189W        W 5708   2.238   9.620   0.347
 2190W        W 5709   6.576   3.344   1.691
 2191W        W 5710   8.220   4.746   0.668
 2192W        W 5711   4.506   7.633   9.484
 2193W        W 5712   7.950   1.398   9.235
 2194W        W 5713   7.099   2.612  11.652
 2195W        W 5714   3.427   6.466   3.102
 2196W        W 5715   7.097   5.194   2.786
 2197W        W 5716   7.133   2.626  11.145
 2198W        W 5717   9.832   9.419   8.360
 2199W        W 5718   8.912   4.536   8.763
 2200W        W 5719   6.241   8.281   1.803
 2201W        W 5720   3.522   7.404   2.623
 2202W        W 5721   6.478   3.191   2.210
 2203W        W 5722   6.542   5.016   0.186
 2204W        W 5723   5.963   5.645  10.431
 2205W        W 5724   9.919   0.807   9.877
 2206W        W 5725   2.178   0.631   0.473
 2207W        W 5726   2.591   8.239  11.767
 2208W        W 5727   1.246   6.808   9.551
 2209W        W 5728   2.662   9.101   1.518
 2210W        W 5729   7.531   4.272  10.465
 2211W        W 5730   8.299   1.012   1.384
 2212W        W 5731   6.302   7.417  11.894
 2213W        W 5732   0.946   2.190   0.043
 2214W        W 5733   2.749   5.030   3.677
 2215W        W 5734   5.071   8.501  10.052
 2216W        W 5735   0.283   7.393   8.861
 2217W        W 5736   7.417   2.311   9.946
 2218W        W 5737   9.221   3.778   1.753
 2219W        W 5738   0.079   1.748   1.637
 2220W        W 5739   2.444   7.968   3.393
 2221W        W 5740   9.879   2.138   1.029
 2222W        W 5741   5.498   8.783  10.064
 2223W        W 5742   5.324   4.191   2.901
 2224W        W 5743   1.144   6.934  11.275
 2225W        W 5744   3.746   5.006   0.374
 2226W        W 5745   3.580   3.082  10.347
 2227W        W 5746   8.385   0.899   9.901
 2228W        W 5747   7.590   6.056   1.161
 2229W        W 5748   2.576   6.483  11.477
 2230W        W 5749   8.951   7.915   9.750
 2231W        W 5750   7.170   9.693   1.715
 2232W        W 5751   4.628   9.739  10.759
 2233W        W 5752   4.849   9.884   9.682
 2234W        W 5753   5.455   6.663   3.241
 2235W        W 5754   9.433   7.396   2.207
 2236W        W 5755   0.003   2.997   0.520
 2237W        W 5756   4.586   6.523  10.898
 2238W        W 5757   5.327   6.167  10.709
 2239W        W 5758   3.062   2.238   3.926
 2240W        W 5759   4.480   5.070   1.259
 2241W        W 5760   1.029   5.636   0.891
 2242W        W 5761   9.440   7.037  11.793
 2243W        W 5762   2.246   0.772  11.546
 2244W        W 5763   6.780   7.702   3.655
 2245W        W 5764   4.406   8.212  11.325
 2246W        W 5765   1.632   3.912  10.240
 2247W        W 5766   3.607   9.410  10.783
 2248W        W 5767   0.962   0.877  10.789
 2249W        W 5768   5.880   9.807   9.568
 2250W        W 5769   9.570   8.914   8.952
 2251W        W 5770   7.604   6.755   9.499
 2252W        W 5771   5.497   8.510   1.110
 2253W        W 5772   7.502   2.793   1.109
 2254W        W 5773   7.388   1.863   0.030
 2255W        W 5774   8.852   3.785   0.479
 2256W        W 5775   3.348   4.984   3.782
 2257W        W 5776   0.535   9.475   9.670
 2258W        W 5777   7.368   9.346  10.792
 2259W        W 5778   8.004   3.579   1.806
 2260W        W 5779   8.053   8.228  11.002
 2261W        W 5780   7.843   9.373  10.357
 2262W        W 5781   2.794   0.975  11.450
 2263W        W 5782   0.437   8.860   8.934
 2264W        W 5783   3.620   3.106   0.631
 2265W        W 5784   1.726   5.133   2.013
 2266W        W 5785   6.682   7.120   0.804
 2267W        W 5786   9.852   8.940   2.000
 2268W        W 5787   0.813   9.741   9.274
 2269W        W 5788   2.053   4.235  11.072
 2270W        W 5789   9.444   0.154  10.257
 2271W        W 5790   4.830   4.838   2.049
 2272W        W 5791   5.952   3.262   3.513
 2273W        W 5792   1.068   3.558   8.925
 2274W        W 5793   8.214   7.994   8.598
 2275W        W 5794   2.204   9.145  11.774
 2276W        W 5795   1.204   8.865   2.064
 2277W        W 5796   1.134   8.885   3.104
 2278W        W 5797   9.811   9.278   0.792
 2279W        W 5798   8.630   1.641  11.220
 2280W        W 5799   8.682   5.231   0.144
 2281W        W 5800   5.777   1.553  10.400
 2282W        W 5801   1.014   8.992  10.503
 2283W        W 5802   7.146   4.591   9.666
 2284W        W 5803   1.363   5.289   9.548
 2285W        W 5804   0.986   1.807  10.751
 2286W        W 5805   4.606   4.842   3.400
 2287W        W 5806   2.706   3.812   2.765
 2288W        W 5807   2.325   6.836  11.748
 2289W        W 5808   8.310   8.414   1.309
 2290W        W 5809   4.232   7.703   2.303
 2291W        W 5810   2.827   2.318  11.883
 2292W        W 5811   0.916   3.146   0.940
 2293W        W 5812   6.044   2.313   8.936
 2294W        W 5813   9.267   5.509  11.863
 2295W        W 5814   1.756   0.786  11.747
 2296W        W 5815   0.969   9.289   0.147
 2297W        W 5816   8.882   2.663   3.414
 2298W        W 5817   6.272   1.263   8.587
 2299W        W 5818   5.912   5.961   3.511
 2300W        W 5819   3.531   4.588   8.384
 2301W        W 5820   8.019   9.186   0.832
 2302W        W 5821   2.340   4.433   0.243
 2303W        W 5822   9.065   8.344   2.600
 2304W        W 5823   4.138   6.252  11.118
 2305W        W 5824   5.592   8.000  11.418
 2306W        W 5825   2.665   7.260  10.318
 2307W        W 5826   6.743   0.528   9.939
 2308W        W 5827   7.765   7.827   9.097
 2309W        W 5828   2.460   8.538   9.527
 2310W        W 5829   1.067   6.041   3.443
 2311W        W 5830   7.918   3.774  10.058
 2312W        W 5831   6.800   8.296  10.349
 2313W        W 5832   3.281   7.032  10.055
 2314W        W 5833   0.199   8.982   0.660
 2315W        W 5834   8.286   3.757   9.709
 2316W        W 5835   8.545   4.377   3.152
 2317W        W 5836   8.504   6.644  10.601
 2318W        W 5837   5.312   7.562   9.847
 2319W        W 5838   9.019   7.953   2.906
 2320W        W 5839   4.178   2.507  11.983
 2321W        W 5840   7.847   9.166  10.837
 2322W        W 5841   1.312   4.030   0.896
 2323W        W 5842   3.316   5.868   3.677
 2324W        W 5843   6.058   8.601  10.916
 2325W        W 5844   6.501   2.937   1.039
 2326W        W 5845   8.923   6.730   8.400
 2327W        W 5846   6.677   3.635  11.054
 2328W        W 5847   9.800   3.935   2.370
 2329W        W 5848   8.446   3.148  10.949
 2330W        W 5849   1.319   7.015   2.074
 2331W        W 5850   3.160   3.729   2.986
 2332W        W 5851   2.412   6.186  10.673
 2333W        W 5852   0.275   7.497   0.932
 2334W        W 5853   7.872   6.948   9.894
 2335W        W 5854   9.889   8.573   9.988
 2336W        W 5855   3.299   6.158  10.064
 2337W        W 5856   5.956   8.987  10.175
 2338W        W 5857   3.833   3.816  11.290
 2339W        W 5858   7.384   4.955   9.405
 2340W        W 5859   0.352   0.227   1.331
 2341W        W 5860   3.268   0.351   8.527
 2342W        W 5861   5.474   5.723   8.552
 2343W        W 5862   7.482   1.310   9.053
 2344W        W 5863   5.702   5.384   8.923
 2345W        W 5864   9.432   7.074   2.600
 2346W        W 5865   9.919   3.430   2.445
 2347W        W 5866   7.113   6.912   1.725
 2348W        W 5867   3.704   1.268  10.940
 2349W        W 5868   7.919   6.157  11.861
 2350W        W 5869   4.429   5.324  11.249
 2351W        W 5870   6.929   6.917   9.487
 2352W        W 5871   8.444   7.513   8.809
 2353W        W 5872   4.435   2.279  11.129
 2354W        W 5873   9.533   8.747   0.129
 2355W        W 5874   4.603   9.002   1.415
 2356W        W 5875   2.845   5.251   1.637
 2357W        W 5876   1.538   0.423  11.101
 2358W        W 5877   0.250   4.590   0.518
 2359W        W 5878   3.372   5.814   0.086
 2360W        W 5879   6.045   3.710   2.725
 2361W        W 5880   1.711   8.222   3.447
 2362W        W 5881   1.972   4.891  10.780
 2363W        W 5882   3.269   1.791   2.189
 2364W        W 5883   8.425   9.222  10.434
 2365W        W 5884   4.237   8.502   3.387
 2366W        W 5885   1.907   4.193   0.987
 2367W        W 5886   8.803   1.078   0.872
 2368W        W 5887   1.594   8.884   9.934
 2369W        W 5888   5.884   0.733   3.266
 2370W        W 5889   5.526   5.379  10.653
 2371W        W 5890   7.610   9.720   1.345
 2372W        W 5891   9.411   8.028   9.509
 2373W        W 5892   0.722   5.745  10.424
 2374W        W 5893   2.080   4.156   1.950
 2375W        W 5894   3.795   1.177  10.073
 2376W        W 5895   7.351   5.121  10.314
 2377W        W 5896   7.888   0.696   9.849
 2378W        W 5897   0.620   0.226   9.383
 2379W        W 5898   9.891   8.362   1.333
 2380W        W 5899   9.445   9.879   9.353
 2381W        W 5900   8.119   7.550  11.916
 2382W        W 5901   9.477   4.501   0.913
 2383W        W 5902   0.092   3.514   1.479
 2384W        W 5903   9.855   7.897   9.791
 2385W        W 5904   8.044   5.832   9.084
 2386W        W 5905   0.437   0.168  10.412
 2387W        W 5906   5.620   4.594   9.442
 2388W        W 5907   5.625   3.515  10.803
 2389W        W 5908   9.121   7.548   9.478
 2390W        W 5909   6.676   4.803   3.797
 2391W        W 5910   1.603   1.411   3.052
 2392W        W 5911   2.584   2.298   2.239
 2393W        W 5912   0.093   6.408  10.220
 2394W        W 5913   4.939   3.196   2.026
 2395W        W 5914   8.635   0.739   1.659
 2396W        W 5915   2.060   1.370   9.500
 2397W        W 5916   5.083   4.707   9.648
 2398W        W 5917   7.304   6.559   9.150
 2399W        W 5918   2.991   1.296  10.431
 2400W        W 5919   3.635   4.682  11.569
 2401W        W 5920   3.745   1.533   9.680
 2402W        W 5921   1.965   2.146  11.872
 2403W        W 5922   3.995   5.107   3.616
 2404W        W 5923   8.059   4.097  11.085
 2405W        W 5924   7.524   4.013   2.732
 2406W        W 5925   6.196   2.973  11.388
 2407W        W 5926   9.732   7.537  10.744
 2408W        W 5927   8.754   1.720   1.769
 2409W        W 5928   7.474   5.671   1.476
 2410W        W 5929   3.015   8.281   1.136
 2411W        W 5930   4.497   1.570   8.568
 2412W        W 5931   3.136   9.989   2.174
 2413W        W 5932   0.949   2.848   2.147
 2414W        W 5933   7.131   3.928   3.721
 2415W        W 5934   5.410   1.791   3.834
 2416W        W 5935   6.961   5.577  10.920
 2417W        W 5936   7.185   5.681   3.114
 2418W        W 5937   9.424   4.125   8.652
 2419W        W 5938   7.253   3.728   9.211
 2420W        W 5939   8.581   9.797   9.234
 2421W        W 5940   9.773   5.213   2.537
 2422W        W 5941   5.128   1.002  10.406
 2423W        W 5942   8.996   5.991   3.257
 2424W        W 5943   5.076   9.667   3.480
 2425W        W 5944   1.277   8.386   3.219
 2426W        W 5945   8.532   5.734   9.774
 2427W        W 5946   7.498   7.781   9.557
 2428W        W 5947   9.303   9.305  10.233
 2429W        W 5948   3.684   7.238  11.589
 2430W        W 5949   4.598   3.598   7.935
 2431W        W 5950   4.442   7.953   9.083
 2432W        W 5951   5.930   5.997   3.005
 2433W        W 5952   6.618   9.835   8.737
 2434W        W 5953   1.521   5.779  10.886
 2435W        W 5954   0.882   1.962   9.772
 2436W        W 5955   3.638   5.769  10.327
 2437W        W 5956   2.371   9.328   0.727
 2438W        W 5957   1.128   1.086   2.477
 2439W        W 5958   1.788   3.562   2.746
 2440W        W 5959   1.869   0.822  11.196
 2441W        W 5960   4.666   4.618   9.350
 2442W        W 5961   0.815   9.285   3.341
 2443W        W 5962   6.515   7.145   0.288
 2444W        W 5963   1.399   7.077   0.646
 2445W        W 5964   1.807   7.640  11.775
 2446W        W 5965   2.060   6.999  11.306
 2447W        W 5966   3.766   1.825   1.929
 2448W        W 5967   3.078   7.697   1.890
 2449W        W 5968   2.166   8.401  10.397
 2450W        W 5969   7.476   8.975   8.333
 2451W        W 5970   7.445   9.878  10.029
 2452W        W 5971   1.472   6.630  10.989
 2453W        W 5972   7.693   9.310   2.506
 2454W        W 5973   1.651   9.770   2.259
 2455W        W 5974   8.200   6.593  10.052
 2456W        W 5975   7.625   6.978   0.819
 2457W        W 5976   8.435   5.224   9.472
 2458W        W 5977   6.100   1.014   1.311
 2459W        W 5978   5.892   7.599   0.861
 2460W        W 5979   4.096   4.131   9.348
 2461W        W 5980   7.691   9.394   2.005
 2462W        W 5981   9.359   0.422   0.358
 2463W        W 5982   5.479   3.393   8.539
 2464W        W 5983   1.453   2.201  11.916
 2465W        W 5984   6.910   1.862   0.220
 2466W        W 5985   7.230   4.068   0.726
 2467W        W 5986   7.053   8.030   9.349
 2468W        W 5987   9.409   2.208   1.304
 2469W        W 5988   1.755   3.852  11.233
 2470W        W 5989   3.641   9.770  10.402
 2471W        W 5990   2.202   6.124   2.462
 2472W        W 5991   7.447   8.704   0.221
 2473W        W 5992   1.240   4.618   2.945
 2474W        W 5993   9.349   3.829  11.772
 2475W        W 5994   6.280   0.498   2.477
 2476W        W 5995   4.794   7.631   3.480
 2477W        W 5996   3.714   2.901   0.165
 2478W        W 5997   9.489   1.102  10.307
 2479W        W 5998   7.300   7.053   9.171
 2480W        W 5999   3.587   6.322   9.607
 2481W        W 6000   5.497   6.155   3.210
 2482W        W 6001   1.470   3.902   8.780
 2483W        W 6002   6.513   4.311  11.524
 2484W        W 6003   6.000   0.520   1.492
 2485W        W 6004   6.286   4.372   9.898
 2486W        W 6005   1.893   6.998   9.981
 2487W        W 6006   2.734   5.734   1.421
 2488W        W 6007   3.400   6.936   9.581
 2489W        W 6008   2.690   9.591  10.301
 2490W        W 6009   8.423   8.978   3.125
 2491W        W 6010   9.747   6.994   9.476
 2492W        W 6011   6.191   9.346   3.786
 2493W        W 6012   5.613   8.761   3.462
 2494W        W 6013   4.934   5.893  11.989
 2495W        W 6014   4.565   1.177   1.466
 2496W        W 6015   7.131   4.353   3.363
 2497W        W 6016   3.590   4.218   3.313
 2498W        W 6017   8.804   3.456   1.042
 2499W        W 6018   5.472   8.456   9.683
 2500W        W 6019   2.644   2.221   0.441
 2501W        W 6020   3.162   0.715  11.909
 2502W        W 6021   6.064   6.882   0.406
 2503W        W 6022   8.707   9.123   0.196
 2504W        W 6023   8.455   7.533   2.274
 2505W        W 6024   0.237   6.892  10.340
 2506W        W 6025   1.444   2.874   2.098
 2507W        W 6026   0.045   3.826   3.506
 2508W        W 6027   8.588   1.220   1.889
 2509W        W 6028   9.017   6.039   0.363
 2510W        W 6029   1.110   6.542   9.131
 2511W        W 6030   5.935   3.538   8.737
 2512W        W 6031   4.071   8.923   0.318
 2513W        W 6032   8.361   1.900   1.160
 2514W        W 6033   8.722   8.236  10.065
 2515W        W 6034   8.029   2.328   3.183
 2516W        W 6035   6.911   3.403   9.445
 2517W        W 6036   0.918   6.664   8.652
 2518W        W 6037   7.926   5.007   9.521
 2519W        W 6038   8.149   0.836  11.508
 2520W        W 6039   2.724   3.569   0.591
 2521W        W 6040   0.655   8.840   0.472
 2522W        W 6041   7.364   2.237  10.844
 2523W        W 6042   4.658   3.603   1.964
 2524W        W 6043   7.215   5.971   8.549
 2525W        W 6044   1.175   7.429   0.997
 2526W        W 6045   0.572   0.835  11.962
 2527W        W 6046   1.469   3.379   8.637
 2528W        W 6047   8.973   8.193   1.160
 2529W        W 6048   3.975   3.828   2.594
 2530W        W 6049   7.256   7.538   1.203
 2531W        W 6050   9.468   8.366  11.791
 2532W        W 6051   5.107   8.093   8.600
 2533W        W 6052   4.700   3.666   0.759
 2534W        W 6053   6.325   5.693  10.069
 2535W        W 6054   5.228   1.816  11.359
 2536W        W 6055   0.743   8.093   1.592
 2537W        W 6056   3.567   7.696   9.306
 2538W        W 6057   5.893   2.334   2.718
 2539W        W 6058   7.984   4.407  10.669
 2540W        W 6059   2.686   6.105   0.622
 2541W        W 6060   7.807   9.348   3.001
 2542W        W 6061   4.533   5.252   2.252
 2543W        W 6062   3.098   1.383   1.795
 2544W        W 6063   4.955   0.034   8.597
 2545W        W 6064   7.494   2.938  11.029
 2546W        W 6065   2.327   6.666  10.994
 2547W        W 6066   1.347   7.183  11.671
 2548W        W 6067   9.503   6.948   8.737
 2549W        W 6068   6.468   1.166   2.162
 2550W        W 6069   0.638   7.121  11.337
 2551W        W 6070   2.108   8.772  10.974
 2552W        W 6071   4.423   7.370   2.720
 2553W        W 6072   5.634   4.029  10.419
 2554W        W 6073   8.032   7.312  10.239
 2555W        W 6074   0.611   8.999   0.949
 2556W        W 6075   2.727   3.138   9.240
 2557W        W 6076   5.463   0.677   2.936
 2558W        W 6077   6.027   2.777   1.124
 2559W        W 6078   7.365   3.265   2.165
 2560W        W 6079   9.284   0.898   3.351
 2561W        W 6080   5.479   4.095   9.311
 2562W        W 6081   1.061   4.512   1.007
 2563W        W 6082   7.005   2.089   1.910
 2564W        W 6083   4.226   2.302   0.446
 2565W        W 6084   6.473   5.329   0.582
 2566W        W 6085   6.510   7.986   0.984
 2567W        W 6086   5.972   8.296   0.248
 2568W        W 6087   2.556   1.250   0.882
 2569W        W 6088   6.595   6.553   3.986
 2570W        W 6089   5.872   4.841   9.038
 2571W        W 6090   5.368   0.348   8.757
 2572W        W 6091   8.382   6.327  11.624
 2573W        W 6092   6.471   9.769  10.448
 2574W        W 6093   7.188   5.654   0.534
 2575W        W 6094   0.343   6.952  11.767
 2576W        W 6095   7.080   1.602   1.769
 2577W        W 6096   8.118   1.122   2.128
 2578W        W 6097   5.714   3.069   9.500
 2579W        W 6098   8.865   9.568   2.717
 2580W        W 6099   4.095   3.618   3.059
 2581W        W 6100   9.361   4.016  10.322
 2582W        W 6101   4.143   3.335  11.436
 2583W        W 6102   6.630   7.127   2.456
 2584W        W 6103   1.854   3.096   8.849
 2585W        W 6104   8.174   2.253  10.919
 2586W        W 6105   2.241   6.960   3.013
 2587W        W 6106   7.797   1.222  11.512
 2588W        W 6107   0.400   1.151   2.029
 2589W        W 6108   8.978   1.260  11.139
 2590W        W 6109   3.615   3.191   9.836
 2591W        W 6110   3.499   4.339   1.946
 2592W        W 6111   1.330   6.624  10.063
 2593W        W 6112   2.169   8.953   2.578
 2594W        W 6113   4.345   1.139   0.992
 2595W        W 6114   1.308   2.913   8.982
 2596W        W 6115   7.030   6.521   3.064
 2597W        W 6116   5.465   6.109  11.192
 2598W        W 6117   8.495   5.947   3.350
 2599W        W 6118   7.551   3.420  10.926
 2600W        W 6119   7.074   2.536   0.824
 2601W        W 6120   3.637   2.123   2.329
 2602W        W 6121   5.651   3.611   9.450
 2603W        W 6122   4.320   3.679  10.105
 2604W        W 6123   0.781   7.896   0.534
 2605W        W 6124   6.631   2.132   2.297
 2606W        W 6125   6.543   7.902  11.016
 2607W        W 6126   9.840   4.200  10.312
 2608W        W 6127   9.723   1.219   9.600
 2609W        W 6128   9.418   2.215   0.785
 2610W        W 6129   5.208   9.248   0.817
 2611W        W 6130   1.138   0.181   9.379
 2612W        W 6131   1.174   4.753   1.439
 2613W        W 6132   9.923   8.326   9.490
 2614W        W 6133   9.934   2.629  11.307
 2615W        W 6134   3.928   5.110   2.996
 2616W        W 6135   7.063   5.996   8.052
 2617W        W 6136   9.397   7.910  11.516
 2618W        W 6137   4.715   6.014   3.583
 2619W        W 6138   4.595   2.057   1.392
 2620W        W 6139   7.583   1.747   0.505
 2621W        W 6140   3.010   5.730  11.719
 2622W        W 6141   2.101   7.902   9.141
 2623W        W 6142   6.884   1.486   3.914
 2624W        W 6143   2.552   2.835  11.745
 2625W        W 6144   3.169   3.308   1.215
 2626W        W 6145   1.849   5.948   3.811
 2627W        W 6146   1.585   4.814   9.481
 2628W        W 6147   9.933   1.485   0.457
 2629W        W 6148   1.348   9.785  10.040
 2630W        W 6149   1.249   5.792   9.578
 2631W        W 6150   9.646   3.867   9.045
 2632W        W 6151   0.986   8.478   2.771
 2633W        W 6152   7.848   5.194  10.155
 2634W        W 6153   8.189   6.156   8.345
 2635W        W 6154   7.078   6.547   9.794
 2636W        W 6155   7.392   7.030   3.126
 2637W        W 6156   0.496   7.028   3.705
 2638W        W 6157   9.764   0.653  10.359
 2639W        W 6158   2.631   7.445   1.865
 2640W        W 6159   1.710   6.156   0.191
 2641W        W 6160   2.635   5.528  11.439
 2642W        W 6161   3.170   9.450   9.026
 2643W        W 6162   1.994   5.931  10.845
 2644W        W 6163   9.006   8.364   9.514
 2645W        W 6164   3.034   7.777   0.478
 2646W        W 6165   1.293   8.791   9.533
 2647W        W 6166   9.384   3.969  11.268
 2648W        W 6167   0.265   9.387  10.120
 2649W        W 6168   1.773   3.957  10.727
 2650W        W 6169   0.242   6.580   9.417
 2651W        W 6170   7.650   0.838  10.322
 2652W        W 6171   7.788   5.133   2.052
 2653W        W 6172   5.587   1.131   3.074
 2654W        W 6173   9.932   0.845   9.266
 2655W        W 6174   3.335   2.209   3.008
 2656W        W 6175   7.567   1.651   3.390
 2657W        W 6176   2.693   0.082   2.672
 2658W        W 6177   7.859   5.357   3.389
 2659W        W 6178   8.098   8.065  11.479
 2660W        W 6179   5.319   6.219   1.282
 2661W        W 6180   4.116   7.064   3.246
 2662W        W 6181   0.353   7.699   1.418
 2663W        W 6182   5.043   3.129   3.643
 2664W        W 6183   7.495   3.166   0.733
 2665W        W 6184   2.202   7.383   1.041
 2666W        W 6185   6.774   9.356   9.549
 2667W        W 6186   1.402   1.491   2.568
 2668W        W 6187   3.554   7.794  11.667
 2669W        W 6188   9.886   9.660   3.531
 2670W        W 6189   5.570   8.798   8.863
 2671W        W 6190   5.027   6.554  10.038
 2672W        W 6191   0.530   0.193   1.837
 2673W        W 6192   2.090   8.720   0.056
 2674W        W 6193   9.733   4.949   9.632
 2675W        W 6194   9.879   7.361   9.857
 2676W        W 6195   5.655   2.660   9.068
 2677W        W 6196   7.468   1.620  10.670
 2678W        W 6197   9.255   7.508  10.882
 2679W        W 6198   7.580   5.767   9.350
 2680W        W 6199   7.754   6.524   2.445
 2681W        W 6200   0.834   6.137   1.922
 2682W        W 6201   1.698   1.958   1.037
 2683W        W 6202   2.323   7.559  10.547
 2684W        W 6203   1.016   5.372  10.211
 2685W        W 6204   7.002   7.799  10.301
 2686W        W 6205   0.924   1.759   8.511
 2687W        W 6206   5.898   1.047   0.842
 2688W        W 6207   6.578   9.802   1.807
 2689W        W 6208   2.667   9.802  11.367
 2690W        W 6209   0.929   9.993  10.250
 2691W        W 6210   6.138   6.633   0.876
 2692W        W 6211   9.399   4.394  11.572
 2693W        W 6212   8.088   3.914  10.557
 2694W        W 6213   7.978   3.706   2.780
 2695W        W 6214   0.596   3.745   2.593
 2696W        W 6215   9.285   9.761   9.949
 2697W        W 6216   0.288   1.166  11.706
 2698W        W 6217   6.739   7.028  10.641
 2699W        W 6218   8.945   4.227  10.108
 2700W        W 6219   3.124   2.391  10.581
 2701W        W 6220   4.219   0.646   0.005
 2702W        W 6221   4.359   4.030   2.866
 2703W        W 6222   0.003   9.354  10.553
 2704W        W 6223   2.120   8.610   2.187
 2705W        W 6224   0.527   3.070   9.973
 2706W        W 6225   0.593   4.964   1.549
 2707W        W 6226   5.332   5.294  10.173
 2708W        W 6227   1.093   6.556   3.628
 2709W        W 6228   1.058   5.174   1.677
 2710W        W 6229   3.419   0.335   2.901
 2711W        W 6230   8.894   6.919   1.603
 2712W        W 6231   4.481   9.520  11.785
 2713W        W 6232   0.761   5.347   2.932
 2714W        W 6233   9.639   1.724   0.792
 2715W        W 6234   7.123   7.308   2.492
 2716W        W 6235   8.306   1.913  10.265
 2717W        W 6236   6.082   2.801   2.654
 2718W        W 6237   5.496   9.082   3.053
 2719W        W 6238   6.490   9.447   0.520
 2720W        W 6239   5.681   1.418   1.102
 2721W        W 6240   0.614   2.834   1.190
 2722W        W 6241   2.446   7.029   9.227
 2723W        W 6242   5.549   9.320   8.794
 2724W        W 6243   3.894   1.263  11.823
 2725W        W 6244   7.711   7.139  11.347
 2726W        W 6245   7.280   1.151   9.483
 2727W        W 6246   6.471   5.609  10.566
 2728W        W 6247   6.250   0.806   8.815
 2729W        W 6248   2.785   0.955   3.297
 2730W        W 6249   3.030   8.073  11.997
 2731W        W 6250   2.784   7.430  10.787
 2732W        W 6251   1.126   2.766   1.228
 2733W        W 6252   8.918   4.952   1.344
 2734W        W 6253   2.662   5.967   8.604
 2735W        W 6254   4.048   7.501  10.238
 2736W        W 6255   1.185   8.308   1.903
 2737W        W 6256   6.932   8.499   1.377
 2738W        W 6257   9.577   7.808   8.617
 2739W        W 6258   0.836   0.236   2.270
 2740W        W 6259   6.696   7.209   1.712
 2741W        W 6260   1.055   8.871  10.994
 2742W        W 6261   3.744   0.615   9.268
 2743W        W 6262   5.672   4.465   1.926
 2744W        W 6263   0.079   0.864  11.294
 2745W        W 6264   1.961   3.378  10.917
 2746W        W 6265   0.174   7.753  10.997
 2747W        W 6266   4.473   5.024  10.271
 2748W        W 6267   5.469   9.679  10.524
 2749W        W 6268   9.810   5.394   9.390
 2750W        W 6269   4.681   2.070   8.549
 2751W        W 6270   5.099   0.763   1.429
 2752W        W 6271   3.156   5.594   9.321
 2753W        W 6272   0.618   6.563   0.904
 2754W        W 6273   3.664   1.639   9.172
 2755W        W 6274   9.168   0.394   3.388
 2756W        W 6275   0.780   1.188   0.286
 2757W        W 6276   6.179   4.970  10.736
 2758W        W 6277   0.402   1.447   2.471
 2759W        W 6278   5.514   0.690  10.585
 2760W        W 6279   9.976   6.430   2.943
 2761W        W 6280   9.164   5.554   1.905
 2762W        W 6281   2.820   8.477   0.208
 2763W        W 6282   9.019   6.554   0.209
 2764W        W 6283   0.839   4.121  10.777
 2765W        W 6284   4.952   0.411   0.360
 2766W        W 6285   3.477   5.099   0.794
 2767W        W 6286   4.944   6.919  10.987
 2768W        W 6287   0.231   5.931  10.459
 2769W        W 6288   8.766   2.990   1.715
 2770W        W 6289   7.659   4.267  11.793
 2771W        W 6290   3.076   2.532  11.089
 2772W        W 6291   9.820   7.997  11.829
 2773W        W 6292   6.512   6.522   9.054
 2774W        W 6293   6.141   4.168  10.430
 2775W        W 6294   0.735   8.183  10.482
 2776W        W 6295   2.035   5.535   1.912
 2777W        W 6296   1.508   8.873  10.438
 2778W        W 6297   2.216   7.702   0.054
 2779W        W 6298   9.041   8.756  11.997
 2780W        W 6299   0.901   3.900   3.441
 2781W        W 6300   9.814   7.877   3.534
 2782W        W 6301   1.790   4.222   1.522
 2783W        W 6302   8.345   0.817   0.899
 2784W        W 6303   3.974   5.982   2.595
 2785W        W 6304   4.377   6.029   1.782
 2786W        W 6305   4.563   0.827   8.819
 2787W        W 6306   3.635   5.837   0.999
 2788W        W 6307   0.386   1.349   0.641
 2789W        W 6308   7.544   6.567   1.115
 2790W        W 6309   2.663   6.152   1.127
 2791W        W 6310   0.161   8.969   2.855
 2792W        W 6311   0.547   5.718   8.875
 2793W        W 6312   8.806   1.243   9.674
 2794W        W 6313   2.636   0.197   0.701
 2795W        W 6314   6.729   7.550   1.193
 2796W        W 6315   2.696   6.652   1.274
 2797W        W 6316   6.238   8.756   1.577
 2798W        W 6317   1.766   2.819   1.693
 2799W        W 6318   4.759   2.935   9.423
 2800W        W 6319   0.641   7.520   9.212
 2801W        W 6320   3.393   3.882  10.613
 2802W        W 6321   4.256   5.817  11.393
 2803W        W 6322   6.069   9.369   9.837
 2804W        W 6323   6.241   4.598   1.275
 2805W        W 6324   8.156   4.942   3.536
 2806W        W 6325   7.880   4.396   2.682
 2807W        W 6326   9.293   0.163  11.908
 2808W        W 6327   1.301   6.021   1.111
 2809W        W 6328   4.851   6.128   1.970
 2810W        W 6329   8.873   2.744   0.773
 2811W        W 6330   5.149   6.973   0.882
 2812W        W 6331   8.552   6.964   8.693
 2813W        W 6332   9.923   8.519  10.518
 2814W        W 6333   9.025   6.819  11.341
 2815W        W 6334   6.256   1.967   1.596
 2816W        W 6335   8.138   0.708   1.785
 2817W        W 6336   8.278   0.161  10.440
 2818W        W 6337   8.215   9.265   0.333
 2819W        W 6338   5.772   0.464   2.578
 2820W        W 6339   6.551   6.700   0.570
 2821W        W 6340   4.520   1.874  10.831
 2822W        W 6341   4.489   6.096   0.800
 2823W        W 6342   0.746   4.832   2.908
 2824W        W 6343   2.395   8.854  10.556
 2825W        W 6344   9.789   6.159  10.563
 2826W        W 6345   9.797   4.911   1.361
 2827W        W 6346   9.585   2.748   2.723
 2828W        W 6347   6.888   4.588  10.577
 2829W        W 6348   2.136   2.097   8.620
 2830W        W 6349   1.238   7.718   8.556
 2831W        W 6350   2.204   2.321   9.092
 2832W        W 6351   5.778   6.878  10.361
 2833W        W 6352   9.478   0.542   2.555
 2834W        W 6353   4.158   4.609   9.584
 2835W        W 6354   3.796   1.357   3.413
 2836W        W 6355   2.291   4.865  11.996
 2837W        W 6356   3.756   6.439   2.714
 2838W        W 6357   1.539   4.129   0.421
 2839W        W 6358   2.093   2.671   3.113
 2840W        W 6359   2.288   3.438   3.629
 2841W        W 6360   1.421   8.991   0.761
 2842W        W 6361   2.703   9.257   8.745
 2843W        W 6362   3.365   8.165  11.253
 2844W        W 6363   6.407   9.232   1.570
 2845W        W 6364   2.793   5.935   3.592
 2846W        W 6365   3.794   2.227  11.723
 2847W        W 6366   7.572   2.409   0.767
 2848W        W 6367   5.608   4.442   2.415
 2849W        W 6368   8.578   1.632   9.391
 2850W        W 6369   8.918   2.386   9.204
 2851W        W 6370   8.930   1.341   9.153
 2852W        W 6371   2.212   9.691   1.636
 2853W        W 6372   9.247   1.339   0.778
 2854W        W 6373   5.428   7.414   2.787
 2855W        W 6374   6.584   4.298   2.622
 2856W        W 6375   2.144   0.014   9.576
 2857W        W 6376   2.579   8.007   0.242
 2858W        W 6377   6.461   3.393   2.695
 2859W        W 6378   5.710   5.744   0.462
 2860W        W 6379   3.153   9.513  10.528
 2861W        W 6380   4.702   4.056   8.629
 2862W        W 6381   2.414   4.100   2.367
 2863W        W 6382   0.881   4.539   0.540
 2864W        W 6383   6.402   8.832   2.611
 2865W        W 6384   8.842   8.842   9.437
 2866W        W 6385   0.623   5.599  11.832
 2867W        W 6386   3.998   6.140   8.710
 2868W        W 6387   8.127   7.481   9.221
 2869W        W 6388   6.886   3.371   8.952
 2870W        W 6389   2.881   1.817  11.995
 2871W        W 6390   5.968   6.861   1.308
 2872W        W 6391   6.933   4.095  11.341
 2873W        W 6392   5.394   6.850   9.076
 2874W        W 6393   2.748   9.298  11.188
 2875W        W 6394   5.063   0.543   1.966
 2876W        W 6395   3.760   0.569  11.352
 2877W        W 6396   1.787   8.319   2.447
 2878W        W 6397   7.259   7.658  10.761
 2879W        W 6398   0.850   1.050   1.789
 2880W        W 6399   2.010   4.478   9.545
 2881W        W 6400   3.694   1.058  11.395
 2882W        W 6401   9.565   1.893   2.898
 2883W        W 6402   8.097   1.749   2.654
 2884W        W 6403   0.885   3.466   2.933
 2885W        W 6404   6.864   1.905   8.823
 2886W        W 6405   6.597   1.658  11.868
 2887W        W 6406   2.882   8.723  10.473
 2888W        W 6407   0.640   8.030   9.327
 2889W        W 6408   7.152   4.388  11.892
 2890W        W 6409   8.965   1.449   0.072
 2891W        W 6410   7.551   0.755   0.299
 2892W        W 6411   8.672   7.586   2.751
 2893W        W 6412   5.622   7.871  10.913
 2894W        W 6413   7.854   7.842   3.585
 2895W        W 6414   9.334   5.430   8.704
 2896W        W 6415   9.232   1.165   8.760
 2897W        W 6416   8.923   8.790   2.406
 2898W        W 6417   8.268   9.668  10.220
 2899W        W 6418   8.451   3.184   1.375
 2900W        W 6419   8.568   3.066   3.576
 2901W        W 6420   6.220   6.322   3.683
 2902W        W 6421   1.399   3.137   9.772
 2903W        W 6422   3.942   6.524   3.224
 2904W        W 6423   0.944   3.715   1.586
 2905W        W 6424   1.176   7.902   9.232
 2906W        W 6425   6.933   7.075   1.257
 2907W        W 6426   9.912   5.497   0.511
 2908W        W 6427   6.059   0.914   2.285
 2909W        W 6428   5.324   6.447   2.793
 2910W        W 6429   6.974   9.126   0.961
 2911W        W 6430   5.440   9.355   1.656
 2912W        W 6431   3.751   4.179   8.611
 2913W        W 6432   1.753   1.042   9.220
 2914W        W 6433   6.216   7.546   1.244
 2915W        W 6434   7.018   5.294   9.322
 2916W        W 6435   6.986   1.432  10.818
 2917W        W 6436   9.812   9.905   2.515
 2918W        W 6437   3.954   5.813   1.490
 2919W        W 6438   6.150   3.607  10.907
 2920W        W 6439   1.294   5.928  11.498
 2921W        W 6440   6.504   5.463  11.938
 2922W        W 6441   7.760   8.474  10.286
 2923W        W 6442   3.746   2.345   0.229
 2924W        W 6443   4.914   0.543   3.526
 2925W        W 6444   9.934   6.260   2.440
 2926W        W 6445   3.169   2.237   2.513
 2927W        W 6446   0.274   0.067  10.873
 2928W        W 6447   1.113   2.804   2.626
 2929W        W 6448   0.265   6.931   1.761
 2930W        W 6449   8.575   8.434  11.040
 2931W        W 6450   8.729   4.429   2.675
 2932W        W 6451   9.294   6.059  10.535
 2933W        W 6452   9.737   0.327   9.242
 2934W        W 6453   3.577   3.513   9.377
 2935W        W 6454   8.049   7.231   0.908
 2936W        W 6455   5.573   3.427  11.585
 2937W        W 6456   0.870   5.290   9.707
 2938W        W 6457   4.577   0.038  10.077
 2939W        W 6458   5.673   5.521   9.439
 2940W        W 6459   6.197   6.169   8.378
 2941W        W 6460   6.656   6.557   2.699
 2942W        W 6461   8.571   2.185  11.264
 2943W        W 6462   0.986   0.517   1.873
 2944W        W 6463   0.228   1.223   9.651
 2945W        W 6464   3.086   3.513   2.516
 2946W        W 6465   6.233   6.709   8.240
 2947W        W 6466   3.519   7.618   2.140
 2948W        W 6467   9.404   8.492   0.746
 2949W        W 6468   5.180   4.529   8.617
 2950W        W 6469   8.947   8.893   3.255
 2951W        W 6470   7.997   1.938   0.234
 2952W        W 6471   1.468   5.565  10.008
 2953W        W 6472   6.462   8.136   0.039
 2954W        W 6473   0.908   0.616   0.777
 2955W        W 6474   5.784   9.248   3.486
 2956W        W 6475   6.039   5.738   9.091
 2957W        W 6476   1.820   0.909   9.704
 2958W        W 6477   0.364   6.132   9.698
 2959W        W 6478   5.703   1.222   2.090
 2960W        W 6479   5.406   2.262  10.869
 2961W        W 6480   1.385   2.441   0.879
 2962W        W 6481   5.285   8.966  11.981
 2963W        W 6482   2.699   0.265   2.180
 2964W        W 6483   1.688   5.635   2.273
 2965W        W 6484   9.016   6.537   2.004
 2966W        W 6485   7.037   3.024   0.965
 2967W        W 6486   7.061   9.546  11.191
 2968W        W 6487   6.491   0.221  11.284
 2969W        W 6488   3.745   1.428   0.299
 2970W        W 6489   3.877   5.554   3.267
 2971W        W 6490   8.996   8.622  11.479
 2972W        W 6491   4.464   3.054  11.156
 2973W        W 6492   8.181   6.052   2.949
 2974W        W 6493   0.737   1.160   9.588
 2975W        W 6494   7.011   6.884   2.224
 2976W        W 6495   0.522   9.296   2.053
 2977W        W 6496   2.151   2.041  11.398
 2978W        W 6497   2.634   2.429  11.403
 2979W        W 6498   7.116   4.208  10.847
 2980W        W 6499   7.833   7.110  11.870
 2981W        W 6500   6.006   4.092  11.478
 2982W        W 6501   8.732   1.767   8.914
 2983W        W 6502   1.678   1.848   2.779
 2984W        W 6503   0.250   1.137   0.208
 2985W        W 6504   7.463   3.522   3.518
 2986W        W 6505   1.490   1.246  10.493
 2987W        W 6506   6.658   3.928   8.131
 2988W        W 6507   6.075   8.772   1.067
 2989W        W 6508   8.437   7.679  11.516
 2990W        W 6509   0.253   4.675   1.272
 2991W        W 6510   9.053   1.631   3.558
 2992W        W 6511   4.208   1.131   8.564
 2993W        W 6512   0.465   9.345   2.622
 2994W        W 6513   5.778   1.833   1.809
 2995W        W 6514   7.219   9.475   9.318
 2996W        W 6515   9.774   9.407  10.037
 2997W        W 6516   1.342   5.387  11.157
 2998W        W 6517   2.320   7.179  10.895
 2999W        W 6518   9.661   6.500   0.679
 3000W        W 6519   5.637   9.839   2.811
 3001W        W 6520   4.911   4.323   9.974
 3002W        W 6521   8.400   9.535   9.727
 3003W        W 6522   0.782   3.284   1.934
 3004W        W 6523   0.352   4.817   2.154
 3005W        W 6524   6.619   6.017  11.497
 3006W        W 6525   2.280   7.199   0.099
 3007W        W 6526   3.965   7.687  11.325
 3008W        W 6527   6.048   1.694  11.659
 3009W        W 6528   7.630   6.572  10.374
 3010W        W 6529   7.573   4.217   1.646
 3011W        W 6530   3.305   2.000   9.103
 3012W        W 6531   2.261   5.255   9.527
 3013W        W 6532   9.980   6.260  11.391
 3014W        W 6533   2.141   8.218   0.009
 3015W        W 6534   0.304   9.821   2.621
 3016W        W 6535   9.711   7.383   2.944
 3017W        W 6536   2.544   3.014   8.743
 3018W        W 6537   8.580   6.440   8.693
 3019W        W 6538   9.993   4.866   2.836
 3020W        W 6539   1.286   2.455   0.360
 3021W        W 6540   1.806   4.997   0.206
 3022W        W 6541   3.946   8.023   1.986
 3023W        W 6542   3.235   1.494  10.845
 3024W        W 6543   1.020   5.003   9.289
 3025W        W 6544   7.577   6.720  11.612
 3026W        W 6545   7.376   3.192   9.268
 3027W        W 6546   0.826   5.291   8.897
 3028W        W 6547   2.576   3.663   9.317
 3029W        W 6548   7.282   3.936  11.700
 3030W        W 6549   9.619   1.909   1.856
 3031W        W 6550   0.598   7.179   3.238
 3032W        W 6551   3.066   5.298  11.987
 3033W        W 6552   5.393   7.463   0.862
 3034W        W 6553   4.216   1.807   3.006
 3035W        W 6554   7.456   7.376   1.672
 3036W        W 6555   5.749   2.125   2.274
 3037W        W 6556   1.942   5.271   0.652
 3038W        W 6557   5.802   1.005   9.028
 3039W        W 6558   2.570   2.041   3.438
 3040W        W 6559   5.564   2.754   1.346
 3041W        W 6560   2.255   0.543   2.193
 3042W        W 6561   2.695   7.399   8.965
 3043W        W 6562   4.533   9.949   1.067
 3044W        W 6563   5.191   5.048   2.779
 3045W        W 6564   7.555   5.334   2.982
 3046W        W 6565   2.717   7.767  10.283
 3047W        W 6566   6.278   0.268   8.715
 3048W        W 6567   9.205   9.772   8.458
 3049W        W 6568   0.002   1.726  11.205
 3050W        W 6569   9.931   8.856   3.387
 3051W        W 6570   7.186   4.777   3.061
 3052W        W 6571   5.568   7.893  11.924
 3053W        W 6572   7.732   8.738   9.523
 3054W        W 6573   3.512   9.309   1.975
 3055W        W 6574   8.662   4.969  10.876
 3056W        W 6575   8.759   9.479  10.124
 3057W        W 6576   8.481   4.138  10.281
 3058W        W 6577   0.303   4.546   9.139
 3059W        W 6578   9.077   9.311   0.461
 3060W        W 6579   8.810   5.114   9.880
 3061W        W 6580   1.929   0.389  11.461
 3062W        W 6581   7.523   9.085   9.228
 3063W        W 6582   7.222   0.361  11.355
 3064W        W 6583   2.153   9.937  11.489
 3065W        W 6584   4.655   6.945   0.696
 3066W        W 6585   2.752   5.985  10.236
 3067W        W 6586   6.858   1.736   3.197
 3068W        W 6587   5.280   7.010  10.511
 3069W        W 6588   8.172   9.291   2.312
 3070W        W 6589   0.554   9.976   3.463
 3071W        W 6590   8.364   7.535   1.777
 3072W        W 6591   9.019   9.819  11.454
 3073W        W 6592   4.374   8.229   1.069
 3074W        W 6593   9.147   1.822   2.571
 3075W        W 6594   1.403   7.646  11.479
 3076W        W 6595   8.391   1.123   3.359
 3077W        W 6596   3.251   0.196   3.349
 3078W        W 6597   8.394   9.365   2.764
 3079W        W 6598   7.469   7.942   1.958
 3080W        W 6599   8.170   2.687  10.548
 3081W        W 6600   6.915   1.578  11.453
 3082W        W 6601   2.260   9.898   2.897
 3083W        W 6602   9.339   7.758   9.064
 3084W        W 6603   9.838   3.255   9.376
 3085W        W 6604   8.013   5.495   9.449
 3086W        W 6605   7.927   4.353   1.997
 3087W        W 6606   6.127   2.317   9.470
 3088W        W 6607   9.506   2.279  11.742
 3089W        W 6608   0.964   9.221   0.677
 3090W        W 6609   2.105   2.216   3.421
 3091W        W 6610   2.521   6.331   0.002
 3092W        W 6611   5.582   6.596   9.573
 3093W        W 6612   7.646   0.291  11.595
 3094W        W 6613   8.236   0.200   9.180
 3095W        W 6614   4.259   3.260   8.220
 3096W        W 6615   5.355   9.808   8.805
 3097W        W 6616   0.277   9.124  11.344
 3098W        W 6617   6.368   1.967   1.085
 3099W        W 6618   1.397   4.363   9.223
 3100W        W 6619   2.257   0.332   1.439
 3101W        W 6620   7.027   5.014   8.447
 3102W        W 6621   4.051   9.443  10.504
 3103W        W 6622   3.661   6.039   8.340
 3104W        W 6623   1.360   9.019  11.388
 3105W        W 6624   5.977   1.036   9.896
 3106W        W 6625   1.844   7.879   2.014
 3107W        W 6626   0.175   6.781  11.322
 3108W        W 6627   4.173   7.009  10.156
 3109W        W 6628   7.016   5.231   3.276
 3110W        W 6629   7.128   6.059   1.437
 3111W        W 6630   1.779   8.486  10.714
 3112W        W 6631   7.432   9.428   9.782
 3113W        W 6632   6.119   4.254   1.673
 3114W        W 6633   4.296   9.410   2.341
 3115W        W 6634   7.176   5.911  10.569
 3116W        W 6635   3.355   6.364   1.824
 3117W        W 6636   3.974   2.513   2.274
 3118W        W 6637   0.294   8.153   8.949
 3119W        W 6638   0.730   6.689  10.388
 3120W        W 6639   1.246   4.632   3.478
 3121W        W 6640   0.813   9.973  10.739
 3122W        W 6641   1.065   7.776   1.355
 3123W        W 6642   7.798   0.707  11.863
 3124W        W 6643   9.507   8.981   9.876
 3125W        W 6644   3.296   8.955  11.743
 3126W        W 6645   3.156   2.794  10.189
 3127W        W 6646   9.448   4.533  10.393
 3128W        W 6647   5.221   2.035  10.392
 3129W        W 6648   9.070   5.017   8.907
 3130W        W 6649   4.010   9.843   2.342
 3131W        W 6650   5.704   7.565   1.357
 3132W        W 6651   0.492   5.658   2.148
 3133W        W 6652   4.658   7.872  11.846
 3134W        W 6653   5.072   1.178   9.818
 3135W        W 6654   4.068   9.431  11.521
 3136W        W 6655   7.451   5.172   2.430
 3137W        W 6656   4.634   2.828  10.485
 3138W        W 6657   2.385   6.504   3.252
 3139W        W 6658   0.237   9.756   1.773
 3140W        W 6659   7.805   7.845   2.732
 3141W        W 6660   1.442   2.173  10.092
 3142W        W 6661   8.565   8.589  11.792
 3143W        W 6662   3.532   4.519   0.456
 3144W        W 6663   1.468   6.400   3.342
 3145W        W 6664   8.273   7.945   2.588
 3146W        W 6665   9.215   6.041  11.885
 3147W        W 6666   9.259   0.963   2.866
 3148W        W 6667   0.350   7.807  10.524
 3149W        W 6668   1.911   2.414   0.938
 3150W        W 6669   3.574   2.577  10.353
 3151W        W 6670   6.214   2.690   0.668
 3152W        W 6671   7.641   5.307   9.143
 3153W        W 6672   9.887   7.111   0.050
 3154W        W 6673   7.940   1.639   1.816
 3155W        W 6674   2.938   8.626   9.922
 3156W        W 6675   4.983   1.365  11.356
 3157W        W 6676   4.603   6.521   1.496
 3158W        W 6677   5.667   6.858   0.758
 3159W        W 6678   5.862   0.304   9.435
 3160W        W 6679   2.246   7.927  10.198
 3161W        W 6680   0.030   4.230  10.779
 3162W        W 6681   9.877   3.444   0.285
 3163W        W 6682   8.044   5.733  10.438
 3164W        W 6683   4.756   6.288   9.406
 3165W        W 6684   8.568   0.575  11.222
 3166W        W 6685   8.931   5.754   0.792
 3167W        W 6686   6.033   6.765   9.185
 3168W        W 6687   1.296   3.092  11.673
 3169W        W 6688   4.266   5.546   1.894
 3170W        W 6689   4.121   1.326  11.242
 3171W        W 6690   9.222   4.606   0.472
 3172W        W 6691   4.799   0.904   2.185
 3173W        W 6692   6.874   2.317  10.805
 3174W        W 6693   4.880   1.590   1.379
 3175W        W 6694   5.271   0.236   0.728
 3176W        W 6695   2.238   5.060   3.646
 3177W        W 6696   3.337   6.595  11.710
 3178W        W 6697   4.669   1.752   2.725
 3179W        W 6698   3.599   1.106   9.081
 3180W        W 6699   3.521   4.533   7.884
 3181W        W 6700   2.767   3.767  11.154
 3182W        W 6701   2.672   4.305   9.832
 3183W        W 6702   1.318   2.649  11.359
 3184W        W 6703   3.277   0.797   9.384
 3185W        W 6704   5.931   5.651   3.919
 3186W        W 6705   0.851   6.982   0.370
 3187W        W 6706   1.588   3.038  10.816
 3188W        W 6707   9.218   8.359   0.267
 3189W        W 6708   6.918   5.118   2.319
 3190W        W 6709   5.428   7.098  11.009
 3191W        W 6710   6.008   9.535  11.281
 3192W        W 6711   8.160   2.641   2.459
 3193W        W 6712   5.238   9.986   0.280
 3194W        W 6713   6.941   9.834   2.185
 3195W        W 6714   5.190   5.096  10.905
 3196W        W 6715   3.826   8.858   3.114
 3197W        W 6716   9.372   3.434  11.131
 3198W        W 6717   4.449   7.074   2.291
 3199W        W 6718   0.462   6.455   1.703
 3200W        W 6719   5.438   4.492   3.304
 3201W        W 6720   0.819   1.090   9.071
 3202W        W 6721   5.073   1.441   3.103
 3203W        W 6722   6.599   9.235  11.350
 3204W        W 6723   1.782   4.265  11.523
 3205W        W 6724   8.311   7.073   0.025
 3206W        W 6725   4.583   6.378   9.874
 3207W        W 6726   6.700   3.792   9.690
 3208W        W 6727   8.643   1.084  10.317
 3209W        W 6728   3.387   2.572  11.927
 3210W        W 6729   0.421   9.669  10.561
 3211W        W 6730   1.368   5.996   3.024
 3212W        W 6731   7.332   4.458   9.191
 3213W        W 6732   5.206   1.522  10.413
 3214W        W 6733   3.595   4.970   9.195
 3215W        W 6734   8.594   4.309  11.819
 3216W        W 6735   4.348   4.275   1.454
 3217W        W 6736   9.499   1.882   3.402
 3218W        W 6737   3.076   3.802  10.218
 3219W        W 6738   6.425   6.286  11.089
 3220W        W 6739   5.287   7.785   3.557
 3221W        W 6740   0.422   4.387  10.511
 3222W        W 6741   1.379   0.312   1.582
 3223W        W 6742   1.243   2.424   2.269
 3224W        W 6743   9.968   1.721   9.822
 3225W        W 6744   1.783   7.481   9.789
 3226W        W 6745   2.351   3.374   2.769
 3227W        W 6746   5.242   3.599   3.150
 3228W        W 6747   0.518   2.144  10.067
 3229W        W 6748   1.614   1.050   2.689
 3230W        W 6749   7.539   4.770  11.889
 3231W        W 6750   6.542   7.675   0.294
 3232W        W 6751   6.723   4.801   3.284
 3233W        W 6752   6.855   9.311   3.121
 3234W        W 6753   2.079   9.251   2.990
 3235W        W 6754   0.426   6.382  11.160
 3236W        W 6755   4.168   3.090   3.077
 3237W        W 6756   2.199   5.611  11.176
 3238W        W 6757   5.690   3.584   2.203
 3239W        W 6758   9.005   1.027   0.386
 3240W        W 6759   3.132   7.106  10.531
 3241W        W 6760   4.302   4.632  11.866
 3242W        W 6761   0.695   8.290   0.849
 3243W        W 6762   0.859   7.656  10.494
 3244W        W 6763   0.869   1.527   2.675
 3245W        W 6764   4.326   2.447   8.666
 3246W        W 6765   0.098   0.694   1.412
 3247W        W 6766   0.363   1.840   0.430
 3248W        W 6767   0.247   5.631   3.405
 3249W        W 6768   4.716   1.249   3.476
 3250W        W 6769   9.524   6.647   1.140
 3251W        W 6770   6.945   0.177   1.788
 3252W        W 6771   4.190   1.615   2.536
 3253W        W 6772   5.010   5.909  11.107
 3254W        W 6773   6.666   8.225   9.038
 3255W        W 6774   8.079   9.102   1.850
 3256W        W 6775   4.360   6.240   9.069
 3257W        W 6776   7.108   1.640   9.224
 3258W        W 6777   8.924   3.995  11.049
 3259W        W 6778   2.917   6.492   3.223
 3260W        W 6779   6.046   4.380   9.171
 3261W        W 6780   1.619   3.567   9.621
 3262W        W 6781   9.831   9.520  11.988
 3263W        W 6782   6.908   7.714   0.713
 3264W        W 6783   9.829   6.902   2.876
 3265W        W 6784   2.020   0.846  10.708
 3266W        W 6785   4.132   2.021   2.230
 3267W        W 6786   6.875   7.798   8.857
 3268W        W 6787   9.470   0.787   9.031
 3269W        W 6788   0.622   4.774   9.608
 3270W        W 6789   6.660   6.088   3.714
 3271W        W 6790   8.584   5.744   2.894
 3272W        W 6791   8.503   1.280   2.409
 3273W        W 6792   9.295   2.669   1.059
 3274W        W 6793   5.978   6.106   0.819
 3275W        W 6794   1.967   1.680   1.392
 3276W        W 6795   7.908   9.742   2.330
 3277W        W 6796   6.994   6.986   0.374
 3278W        W 6797   9.345   0.078   2.307
 3279W        W 6798   0.468   0.343   0.520
 3280W        W 6799   3.731   0.722  10.313
 3281W        W 6800   2.406   0.659   3.538
 3282W        W 6801   8.746   4.121   8.495
 3283W        W 6802   6.477   4.607   1.744
 3284W        W 6803   2.487   5.483   8.511
 3285W        W 6804   7.601   2.257   0.264
 3286W        W 6805   0.727   4.009  10.297
 3287W        W 6806   3.700   1.562  11.386
 3288W        W 6807   4.903   7.235   8.630
 3289W        W 6808   1.322   6.334   8.716
 3290W        W 6809   9.567   5.021   0.570
 3291W        W 6810   4.639   2.714  11.897
 3292W        W 6811   8.073   6.509   9.555
 3293W        W 6812   1.845   3.215   1.375
 3294W        W 6813   7.674   9.859  11.867
 3295W        W 6814   7.037   4.859   0.036
 3296W        W 6815   7.571   8.430  11.794
 3297W        W 6816   9.956   0.940   0.567
 3298W        W 6817   6.292   5.384  11.404
 3299W        W 6818   5.171   4.607   9.142
 3300W        W 6819   4.131   4.117   3.329
 3301W        W 6820   4.476   3.171   1.706
 3302W        W 6821   9.942   9.445   2.712
 3303W        W 6822   7.073   8.163   1.732
 3304W        W 6823   7.721   3.074   9.677
 3305W        W 6824   0.834   9.765   0.011
 3306W        W 6825   3.458   3.850   2.516
 3307W        W 6826   5.299   7.903   9.044
 3308W        W 6827   5.898   9.630   1.688
 3309W        W 6828   3.955   2.706   0.557
 3310W        W 6829   5.079   3.332  10.580
 3311W        W 6830   6.579   7.021   4.257
 3312W        W 6831   8.123   8.606   1.808
 3313W        W 6832   3.919   0.284  11.810
 3314W        W 6833   0.319   0.412  11.236
 3315W        W 6834   7.936   1.365   1.261
 3316W        W 6835   0.160   1.720   0.925
 3317W        W 6836   3.479   8.879   3.564
 3318W        W 6837   3.837   6.377   3.766
 3319W        W 6838   6.318   0.168   9.615
 3320W        W 6839   8.077   6.428   0.345
 3321W        W 6840   6.383   4.819   9.097
 3322W        W 6841   0.799   4.864   2.395
 3323W        W 6842   2.974   2.340   3.348
 3324W        W 6843   5.450   1.486   9.674
 3325W        W 6844   6.748   5.701   4.036
 3326W        W 6845   8.525   8.039   3.016
 3327W        W 6846   9.951   9.960  11.269
 3328W        W 6847   2.173   1.035   2.133
 3329W        W 6848   2.406   6.937  10.004
 3330W        W 6849   8.929   3.469   2.923
 3331W        W 6850   7.475   3.747   1.445
 3332W        W 6851   1.073   6.608   1.830
 3333W        W 6852   6.013   2.723   9.789
 3334W        W 6853   8.819   1.488   0.563
 3335W        W 6854   9.058   9.643   2.252
 3336W        W 6855   4.725   7.031  10.495
 3337W        W 6856   3.907   5.867  11.771
 3338W        W 6857   6.117   3.179  10.525
 3339W        W 6858   9.807   8.828   9.459
 3340W        W 6859   9.259   0.868  10.915
 3341W        W 6860   5.607   8.402  11.811
 3342W        W 6861   0.646   8.680  10.689
 3343W        W 6862   7.413   9.136   0.510
 3344W        W 6863   1.166   5.054   0.995
 3345W        W 6864   4.672   1.780   8.993
 3346W        W 6865   2.064   2.640   8.667
 3347W        W 6866   5.622   5.241   0.377
 3348W        W 6867   1.206   6.251   0.079
 3349W        W 6868   5.589   9.364   9.693
 3350W        W 6869   1.749   0.877  10.252
 3351W        W 6870   6.506   2.120   0.063
 3352W        W 6871   2.303   9.941  10.991
 3353W        W 6872   5.802   9.060   0.029
 3354W        W 6873   0.215   1.660   3.881
 3355W        W 6874   3.772   3.741  11.828
 3356W        W 6875   2.223   6.000   1.957
 3357W        W 6876   8.110   7.108   8.875
 3358W        W 6877   4.886   4.042   0.463
 3359W        W 6878   5.091   6.862   0.352
 3360W        W 6879   7.950   5.475   1.387
 3361W        W 6880   6.058   5.573   0.804
 3362W        W 6881   1.022   4.129   9.539
 3363W        W 6882   3.417   0.346   9.560
 3364W        W 6883   6.317   8.631  11.408
 3365W        W 6884   8.444   2.638   9.226
 3366W        W 6885   9.458   0.322   8.781
 3367W        W 6886   7.711   5.093   1.049
 3368W        W 6887   7.978   7.598  11.247
 3369W        W 6888   3.522   6.101   1.419
 3370W        W 6889   0.778   1.668   8.981
 3371W        W 6890   6.861   7.528  11.224
 3372W        W 6891   0.847   9.670   0.949
 3373W        W 6892   4.057   3.058   0.907
 3374W        W 6893   7.827   8.243   9.821
 3375W        W 6894   1.875   7.141  11.766
 3376W        W 6895   0.127   7.848   9.330
 3377W        W 6896   5.385   4.276   9.784
 3378W        W 6897   7.513   5.756   3.510
 3379W        W 6898   8.284   4.172   0.607
 3380W        W 6899   0.957   2.310  11.542
 3381W        W 6900   4.790   6.473   0.656
 3382W        W 6901   4.692   0.854   2.679
 3383W        W 6902   6.330   7.590   9.872
 3384W        W 6903   3.669   0.483   1.729
 3385W        W 6904   9.777   6.761   2.378
 3386W        W 6905   4.733   0.337  11.384
 3387W        W 6906   7.399   8.295  10.959
 3388W        W 6907   3.768   0.059  11.376
 3389W        W 6908   0.528   3.704   1.239
 3390W        W 6909   3.190   6.004   0.560
 3391W        W 6910   7.939   8.153   1.789
 3392W        W 6911   3.916   5.909   9.558
 3393W        W 6912   9.267   5.521   3.227
 3394W        W 6913   8.547   7.464   0.828
 3395W        W 6914   9.632   5.267   0.137
 3396W        W 6915   8.126   0.656  10.298
 3397W        W 6916   2.712   4.420   8.500
 3398W        W 6917   0.480   0.844   0.575
 3399W        W 6918   6.857   6.520   3.548
 3400W        W 6919   9.566   3.367  11.875
 3401W        W 6920   9.226   8.188  10.078
 3402W        W 6921   3.044   4.365   0.356
 3403W        W 6922   4.692   6.532   3.630
 3404W        W 6923   3.653   0.745  10.823
 3405W        W 6924   9.677   1.768   1.299
 3406W        W 6925   9.838   0.251   1.191
 3407W        W 6926   2.638   0.725  11.864
 3408W        W 6927   5.159   6.292   3.723
 3409W        W 6928   8.974   9.938   9.560
 3410W        W 6929   5.724   0.127   1.829
 3411W        W 6930   4.976   9.383  11.922
 3412W        W 6931   0.331   7.983  11.763
 3413W        W 6932   7.780   6.734   9.019
 3414W        W 6933   4.510   7.906  10.914
 3415W        W 6934   8.680   0.324   3.223
 3416W        W 6935   3.061   3.375  11.456
 3417W        W 6936   2.223   5.997   0.904
 3418W        W 6937   9.064   0.766  10.422
 3419W        W 6938   8.388   9.340  11.855
 3420W        W 6939   5.200   1.939   8.507
 3421W        W 6940   0.781   8.079  11.512
 3422W        W 6941   7.932   3.414   1.318
 3423W        W 6942   2.178   4.377   2.819
 3424W        W 6943   8.021   4.660   9.881
 3425W        W 6944   3.786   8.880   0.752
 3426W        W 6945   0.434   4.244  11.092
 3427W        W 6946   4.993   2.070  11.749
 3428W        W 6947   4.939   9.980   2.150
 3429W        W 6948   4.287   9.006   3.296
 3430W        W 6949   0.275   8.793  10.286
 3431W        W 6950   2.566   4.743   2.876
 3432W        W 6951   3.143   2.182   9.561
 3433W        W 6952   6.331   2.988  10.096
 3434W        W 6953   1.459   2.088   3.262
 3435W        W 6954   2.482   2.631   9.519
 3436W        W 6955   6.616   1.783   1.902
 3437W        W 6956   2.863   5.989   0.153
 3438W        W 6957   7.401   2.677   9.585
 3439W        W 6958   3.529   4.563   8.882
 3440W        W 6959   8.499   2.626  10.955
 3441W        W 6960   0.344   5.949   0.738
 3442W        W 6961   1.245   8.057  11.770
 3443W        W 6962   9.276   3.773  10.762
 3444W        W 6963   9.604   1.742  10.904
 3445W        W 6964   1.451   3.040  10.301
 3446W        W 6965   7.245   5.041   8.913
 3447W        W 6966   1.357   9.357  10.335
 3448W        W 6967   6.366   0.966  10.615
 3449W        W 6968   3.119   9.007   9.291
 3450W        W 6969   6.335   1.774   8.721
 3451W        W 6970   3.724   8.588  10.054
 3452W        W 6971   3.757   7.881   2.496
 3453W        W 6972   1.826   1.814   9.595
 3454W        W 6973   8.088   3.076   1.731
 3455W        W 6974   6.025   1.860  10.761
 3456W        W 6975   5.946   3.342  10.031
 3457W        W 6976   6.026   9.523   9.147
 3458W        W 6977   6.003   4.137   1.177
 3459W        W 6978   9.506   5.343  10.020
 3460W        W 6979   6.387   0.165   1.116
 3461W        W 6980   0.474   9.309   0.333
 3462W        W 6981   8.004   3.229   9.268
 3463W        W 6982   1.613   2.720   2.562
 3464W        W 6983   6.897   2.396   9.256
 3465W        W 6984   3.114   9.969   9.243
 3466W        W 6985   3.451   9.434   3.557
 3467W        W 6986   5.226   6.942   2.859
 3468W        W 6987   1.851   3.806  11.738
 3469W        W 6988   8.196   1.439  10.981
 3470W        W 6989   5.103   3.508   8.197
 3471W        W 6990   0.921   2.847   3.586
 3472W        W 6991   8.731   9.321   1.424
 3473W        W 6992   5.291   4.620  11.176
 3474W        W 6993   4.847   7.744   9.851
 3475W        W 6994   7.954   2.236  10.438
 3476W        W 6995   5.994   4.760   1.696
 3477W        W 6996   1.535   4.272   9.713
 3478W        W 6997   6.188   6.383   2.821
 3479W        W 6998   5.472   3.536  10.311
 3480W        W 6999   5.383   2.914   8.734
 3481W        W 7000   7.582   8.443   2.157
 3482W        W 7001   3.658   3.468   8.881
 3483W        W 7002   3.283   4.624   3.418
 3484W        W 7003   4.592   3.586   2.928
 3485W        W 7004   3.466   7.885   0.176
 3486W        W 7005   6.871   4.730   2.669
 3487W        W 7006   2.227   4.672   3.266
 3488W        W 7007   8.468   3.400   1.879
 3489W        W 7008   4.217   7.506   0.278
 3490W        W 7009   0.315   5.431  10.474
 3491W        W 7010   2.309   0.162  10.035
 3492W        W 7011   1.308   2.362   9.085
 3493W        W 7012   7.368   6.172   3.258
 3494W        W 7013   2.740   7.014   0.261
 3495W        W 7014   3.585   5.437   3.664
 3496W        W 7015   2.707   6.895  10.720
 3497W        W 7016   1.739   8.968  11.731
 3498W        W 7017   4.098   8.545  11.681
 3499W        W 7018   5.486   2.915  11.651
 3500W        W 7019   5.468   0.460   0.288
 3501W        W 7020   0.369   4.181   1.308
 3502W        W 7021   9.731   6.125   8.298
 3503W        W 7022   4.460   7.038   8.834
 3504W        W 7023   8.896   9.495  11.888
 3505W        W 7024   6.111   5.087   0.966
 3506W        W 7025   9.000   2.655   2.907
 3507W        W 7026   2.807   3.305   1.566
 3508W        W 7027   5.681   7.090   1.752
 3509W        W 7028   5.110   7.743   3.087
 3510W        W 7029   4.196   7.347   9.759
 3511W        W 7030   3.519   6.831  11.259
 3512W        W 7031   0.875   2.768   0.310
 3513W        W 7032   1.387   1.851   9.286
 3514W        W 7033   4.252   5.589   2.884
 3515W        W 7034   9.383   7.232   9.164
 3516W        W 7035   5.207   0.039   3.154
 3517W        W 7036   6.603   6.718   1.578
 3518W        W 7037   2.140   4.755  10.312
 3519W        W 7038   3.418   0.320  11.661
 3520W        W 7039   3.491   9.451   0.756
 3521W        W 7040   5.520   1.952  11.804
 3522W        W 7041   8.500   6.871  11.096
 3523W        W 7042   8.809   0.050   2.581
 3524W        W 7043   7.317   0.114   1.444
 3525W        W 7044   2.012   8.313   9.408
 3526W        W 7045   1.987   1.420   2.684
 3527W        W 7046   4.432   7.014  10.932
 3528W        W 7047   5.168   1.407   0.463
 3529W        W 7048   9.922   8.443  11.023
 3530W        W 7049   9.957   0.374   2.714
 3531W        W 7050   6.223   6.506  11.945
 3532W        W 7051   2.893   7.772   1.045
 3533W        W 7052   5.624   0.688   2.139
 3534W        W 7053   0.321   6.104   9.166
 3535W        W 7054   1.755   9.512   1.408
 3536W        W 7055   5.067   6.997   8.198
 3537W        W 7056   9.489   8.478   9.223
 3538W        W 7057   6.695   4.444  11.054
 3539W        W 7058   1.011   0.740  11.715
 3540W        W 7059   7.158   6.509   0.391
 3541W        W 7060   8.926   3.601  11.966
 3542W        W 7061   2.382   1.188   9.868
 3543W        W 7062   1.281   8.223   1.412
 3544W        W 7063   9.394   8.596   1.799
 3545W        W 7064   5.738   3.838   8.360
 3546W        W 7065   9.879   0.187  10.532
 3547W        W 7066   8.294   4.747   2.688
 3548W        W 7067   8.950   8.229   0.667
 3549W        W 7068   6.112   0.697   0.518
 3550W        W 7069   5.470   5.068   9.246
 3551W        W 7070   5.863   6.991   8.770
 3552W        W 7071   0.617   7.862  10.086
 3553W        W 7072   6.644   5.646   3.141
 3554W        W 7073   0.358   3.955   0.792
 3555W        W 7074   2.194   1.662  11.763
 3556W        W 7075   5.116   1.582  11.822
 3557W        W 7076   7.874   6.825   3.033
 3558W        W 7077   0.961   1.457   9.935
 3559W        W 7078   0.658   9.830   1.467
 3560W        W 7079   4.352   9.144   9.470
 3561W        W 7080   7.826   3.217  11.309
 3562W        W 7081   6.921   3.774  10.627
 3563W        W 7082   6.932   8.496   0.266
 3564W        W 7083   6.920   1.047   9.925
 3565W        W 7084   1.755   2.621  10.253
 3566W        W 7085   0.922   9.556  11.131
 3567W        W 7086   6.589   7.997   9.992
 3568W        W 7087   6.961   9.709  10.207
 3569W        W 7088   1.774   8.890   1.826
 3570W        W 7089   1.114   5.064   3.224
 3571W        W 7090   9.840   6.040   0.600
 3572W        W 7091   8.650   2.992   3.080
 3573W        W 7092   4.580   7.357  10.085
 3574W        W 7093   4.570   7.006   1.696
 3575W        W 7094   4.503   9.055  10.237
 3576W        W 7095   9.339   7.212   1.690
 3577W        W 7096   8.709   4.417   9.268
 3578W        W 7097   9.795   8.777   1.009
 3579W        W 7098   9.219   0.368   9.277
 3580W        W 7099   1.379   1.176  10.007
 3581W        W 7100   8.061   8.698   9.913
 3582W        W 7101   7.743   6.259   9.248
 3583W        W 7102   4.313   8.364  10.720
 3584W        W 7103   1.758   6.120   0.696
 3585W        W 7104   1.672   0.699   8.863
 3586W        W 7105   4.179   7.848   2.796
 3587W        W 7106   6.687   9.347   3.599
 3588W        W 7107   6.437   0.905  10.109
 3589W        W 7108   4.948   8.154   3.436
 3590W        W 7109   5.225   7.433   2.316
 3591W        W 7110   5.752   7.461   8.637
 3592W        W 7111   1.740   2.052   8.937
 3593W        W 7112   2.786   0.898   9.592
 3594W        W 7113   5.003   7.324   0.528
 3595W        W 7114   9.879   9.756  10.818
 3596W        W 7115   3.217   5.133   9.543
 3597W        W 7116   1.494   9.919   1.257
 3598W        W 7117   0.446   1.691   2.968
 3599W        W 7118   7.157   9.111  11.469
 3600W        W 7119   1.961   0.295   8.990
 3601W        W 7120   7.396   5.272   3.602
 3602W        W 7121   9.591   9.695  10.404
 3603W        W 7122   4.661   0.715   1.686
 3604W        W 7123   6.957   1.315   2.185
 3605W        W 7124   1.707   5.697   0.974
 3606W        W 7125   2.334   1.150   3.423
 3607W        W 7126   6.577   4.903   0.934
 3608W        W 7127   9.520   0.120   2.864
 3609W        W 7128   5.571   8.237   2.585
 3610W        W 7129   1.341   7.611  11.997
 3611W        W 7130   6.649   3.358   0.801
 3612W        W 7131   4.769   1.139   9.338
 3613W        W 7132   2.613   2.189   1.724
 3614W        W 7133   0.698   3.234   3.340
 3615W        W 7134   8.535   8.889   1.154
 3616W        W 7135   6.067   1.252   3.295
 3617W        W 7136   5.174   7.494   3.960
 3618W        W 7137   6.122   4.612  11.541
 3619W        W 7138   2.309   9.831   0.827
 3620W        W 7139   2.418   2.467   0.862
 3621W        W 7140   7.218   2.581   3.515
 3622W        W 7141   5.597   6.593   1.991
 3623W        W 7142   4.773   2.207   3.466
 3624W        W 7143   1.818   0.017   1.673
 3625W        W 7144   6.641   8.336   9.539
 3626W        W 7145   1.318   4.171   2.663
 3627W        W 7146   6.389   3.288   8.781
 3628W        W 7147   3.225   5.583   2.727
 3629W        W 7148   5.488   5.896   3.794
 3630W        W 7149   9.583   5.117   3.068
 3631W        W 7150   5.509   9.091   0.446
 3632W        W 7151   3.622   2.091  10.449
 3633W        W 7152   6.916   7.308   9.975
 3634W        W 7153   3.013   9.413   0.989
 3635W        W 7154   3.332   3.663   9.793
 3636W        W 7155   5.690   9.950   0.989
 3637W        W 7156   8.951   5.960   9.540
 3638W        W 7157   8.599   5.725   0.254
 3639W        W 7158   7.615   3.265   1.720
 3640W        W 7159   5.259   5.894   1.674
 3641W        W 7160   7.756   0.036   9.065
 3642W        W 7161   0.541   9.173  10.479
 3643W        W 7162   1.551   5.083   1.546
 3644W        W 7163   8.336   8.872   2.634
 3645W        W 7164   4.309   0.664   0.527
 3646W        W 7165   5.214   9.317   2.150
 3647W        W 7166   4.708   3.658  11.760
 3648W        W 7167   4.500   1.914   9.853
 3649W        W 7168   8.832   2.181   2.820
 3650W        W 7169   5.272   7.608   8.577
 3651W        W 7170   0.435   1.855  11.430
 3652W        W 7171   1.846   9.061   8.945
 3653W        W 7172   0.418   7.026   0.775
 3654W        W 7173   4.191   3.344   2.637
 3655W        W 7174   8.089   3.713  11.946
 3656W        W 7175   6.780   2.309  11.310
 3657W        W 7176   0.963   2.343  10.703
 3658W        W 7177   2.910   2.775   3.643
 3659W        W 7178   6.148   9.956   2.029
 3660W        W 7179   6.757   4.640   1.331
 3661W        W 7180   6.574   8.868   3.127
 3662W        W 7181   8.142   9.193   9.995
 3663W        W 7182   3.155   7.525  10.180
 3664W        W 7183   9.671   2.810  11.714
 3665W        W 7184   9.657   4.711  10.847
 3666W        W 7185   6.033   9.914   3.181
 3667W        W 7186   1.787   8.071   1.506
 3668W        W 7187   3.653   6.656   9.985
 3669W        W 7188   1.842   1.738   2.299
 3670W        W 7189   0.646   6.016  10.858
 3671W        W 7190   7.081   0.303   3.171
 3672W        W 7191   1.611   7.372   1.760
 3673W        W 7192   4.645   8.710   8.706
 3674W        W 7193   2.248   7.063   2.518
 3675W        W 7194   7.701   7.852  10.901
 3676W        W 7195   1.294   0.432   1.085
 3677W        W 7196   0.571   0.814  11.450
 3678W        W 7197   3.178   4.738   2.066
 3679W        W 7198   7.109   5.261  11.740
 3680W        W 7199   5.135   7.861   1.075
 3681W        W 7200   4.552   0.217  10.554
 3682W        W 7201   4.953   3.101  11.027
 3683W        W 7202   8.411   9.906   1.053
 3684W        W 7203   1.675   4.462  10.826
 3685W        W 7204   8.395   0.320   2.788
 3686W        W 7205   4.021   3.364   1.343
 3687W        W 7206   0.432   1.736  10.920
 3688W        W 7207   5.139   5.688   2.117
 3689W        W 7208   6.775   5.537  11.434
 3690W        W 7209   5.553   2.611   1.852
 3691W        W 7210   0.786   4.375   9.927
 3692W        W 7211   3.010   8.790   1.294
 3693W        W 7212   9.054   9.942   9.004
 3694W        W 7213   2.247   4.436  11.692
 3695W        W 7214   6.285   9.126   9.440
 3696W        W 7215   9.403   5.667   9.613
 3697W        W 7216   8.032   6.269   8.827
 3698W        W 7217   4.245   7.481  10.963
 3699W        W 7218   8.318   6.601   3.218
 3700W        W 7219   7.413   4.059   8.848
 3701W        W 7220   7.823   2.695   9.318
 3702W        W 7221   0.443   4.926  10.527
 3703W        W 7222   3.046   8.409  11.579
 3704W        W 7223   2.258   7.430  10.018
 3705W        W 7224   8.006   7.937   1.317
 3706W        W 7225   2.174   2.021   2.568
 3707W        W 7226   6.215   5.260   9.799
 3708W        W 7227   2.419   0.251   3.231
 3709W        W 7228   0.343   6.417  11.711
 3710W        W 7229   4.709   9.658   3.074
 3711W        W 7230   2.610   0.451   0.271
 3712W        W 7231   3.900   4.628   2.140
 3713W        W 7232   2.289   5.228  10.557
 3714W        W 7233   5.377   1.095   0.852
 3715W        W 7234   9.238   1.992  10.133
 3716W        W 7235   2.270   0.919   9.427
 3717W        W 7236   1.797   8.691   0.899
 3718W        W 7237   7.257   6.830  10.619
 3719W        W 7238   4.083   8.563   2.054
 3720W        W 7239   2.849   4.622  11.043
 3721W        W 7240   4.767   5.665   1.739
 3722W        W 7241   1.676   8.843   2.353
 3723W        W 7242   0.268   8.254  10.232
 3724W        W 7243   6.684   6.681   0.088
 3725W        W 7244   6.586   5.082   9.471
 3726W        W 7245   0.435   2.093  11.890
 3727W        W 7246   7.535   8.918   2.794
 3728W        W 7247   3.678   0.075   9.961
 3729W        W 7248   2.246   6.375   1.288
 3730W        W 7249   5.464   3.638   0.323
 3731W        W 7250   3.585   5.032   2.045
 3732W        W 7251   1.147   4.311   1.711
 3733W        W 7252   5.864   8.436  11.346
 3734W        W 7253   8.711   8.576   2.896
 3735W        W 7254   0.917   7.912   2.068
 3736W        W 7255   3.216   9.947   9.767
 3737W        W 7256   7.481   6.934   2.609
 3738W        W 7257   4.853   5.289   0.422
 3739W        W 7258   2.723   8.443   3.381
 3740W        W 7259   5.474   9.507   0.173
 3741W        W 7260   2.344   4.583   1.879
 3742W        W 7261   3.516   9.305   9.429
 3743W        W 7262   5.631   3.957   2.539
 3744W        W 7263   8.881   9.735   0.656
 3745W        W 7264   3.902   2.610   8.957
 3746W        W 7265   5.998   2.784   1.640
 3747W        W 7266   9.056   0.456   2.841
 3748W        W 7267   1.223   8.215   8.817
 3749W        W 7268   6.751   1.239  10.380
 3750W        W 7269   5.145   8.592   8.672
 3751W        W 7270   9.425   4.660   1.928
 3752W        W 7271   9.768   9.782   0.916
 3753W        W 7272   4.888   0.317   1.270
 3754W        W 7273   0.290   5.533  10.969
 3755W        W 7274   8.128   4.134  11.648
 3756W        W 7275   0.371   4.709  10.070
 3757W        W 7276   2.245   8.447   2.664
 3758W        W 7277   3.976   1.864   0.443
 3759W        W 7278   3.822   2.739  11.703
 3760W        W 7279   1.247   2.098   1.822
 3761W        W 7280   6.375   4.093   9.455
 3762W        W 7281   6.349   6.086   8.864
 3763W        W 7282   6.000   9.430   0.299
 3764W        W 7283   4.895   1.125  11.808
 3765W        W 7284   5.925   5.277   1.800
 3766W        W 7285   2.870   5.970  10.745
 3767W        W 7286   1.324   2.360   2.830
 3768W        W 7287   2.255   0.064   2.412
 3769W        W 7288   7.194   9.146   0.048
 3770W        W 7289   6.907   4.927   0.548
 3771W        W 7290   6.908   5.333   0.855
 3772W        W 7291   9.040   3.873   1.269
 3773W        W 7292   4.162   0.902  11.547
 3774W        W 7293   6.800   8.774  11.414
 3775W        W 7294   6.695   9.048   8.779
 3776W        W 7295   4.608   0.310   8.853
 3777W        W 7296   8.503   8.093   9.568
 3778W        W 7297   8.924   4.400   1.319
 3779W        W 7298   1.814   9.663   2.793
 3780W        W 7299   2.693   9.261  11.710
 3781W        W 7300   2.248   9.509   9.486
 3782W        W 7301   8.002   7.916   0.364
 3783W        W 7302   6.908   4.765   9.182
 3784W        W 7303   0.121   0.109   0.221
 3785W        W 7304   7.690   5.632   1.938
 3786W        W 7305   4.618   0.817   3.190
 3787W        W 7306   4.275   1.849   1.743
 3788W        W 7307   7.193   1.355   3.091
 3789W        W 7308   2.354   9.859   3.571
 3790W        W 7309   6.835   2.891   3.336
 3791W        W 7310   0.062   7.608  11.546
 3792W        W 7311   4.952   1.356   8.884
 3793W        W 7312   7.582   7.086  10.304
 3794W        W 7313   4.811   8.970   0.953
 3795W        W 7314   2.405   0.846  11.063
 3796W        W 7315   5.072   3.102   0.508
 3797W        W 7316   5.733   6.029   9.516
 3798W        W 7317   3.218   9.944  10.778
 3799W        W 7318   1.643   2.404   1.961
 3800W        W 7319   2.243   4.022   1.364
 3801W        W 7320   0.726   8.865   2.282
 3802W        W 7321   2.201   3.197   2.322
 3803W        W 7322   6.088   2.650  11.801
 3804W        W 7323   9.732   4.562   0.434
 3805W        W 7324   1.521   4.472   0.804
 3806W        W 7325   5.159   4.095   2.419
 3807W        W 7326   8.923   7.500   0.466
 3808W        W 7327   3.311   6.611  10.370
 3809W        W 7328   4.535   2.275   1.846
 3810W        W 7329   2.849   1.479   2.781
 3811W        W 7330   5.690   4.400   8.416
 3812W        W 7331   8.360   9.063  11.398
 3813W        W 7332   8.170   1.867  11.256
 3814W        W 7333   0.347   0.699   2.903
 3815W        W 7334   5.805   5.574   2.756
 3816W        W 7335   4.729   4.340  10.976
 3817W        W 7336   1.826   2.284   2.964
 3818W        W 7337   4.430   2.776   0.393
 3819W        W 7338   8.300   3.885   8.665
 3820W        W 7339   1.224   0.631   2.312
 3821W        W 7340   2.090   7.447   2.844
 3822W        W 7341   3.469   4.739   2.516
 3823W        W 7342   7.815   9.512   0.511
 3824W        W 7343   7.619   0.748  11.366
 3825W        W 7344   5.468   8.110   3.067
 3826W        W 7345   1.364   4.425  11.825
 3827W        W 7346   9.536   1.257  10.789
 3828W        W 7347   3.936   7.504   1.893
 3829W        W 7348   6.208   0.354   3.452
 3830W        W 7349   4.674   7.461   1.467
 3831W        W 7350   3.543   3.264  10.858
 3832W        W 7351   7.892   3.980   2.345
 3833W        W 7352   2.419   1.998   0.057
 3834W        W 7353   7.325   6.996   9.856
 3835W        W 7354   3.623   2.029   9.519
 3836W        W 7355   9.266   1.350   1.280
 3837W        W 7356   5.378   9.210  10.732
 3838W        W 7357   3.583   6.414  10.917
 3839W        W 7358   2.262   3.621   0.387
 3840W        W 7359   1.275   0.326  11.514
 3841W        W 7360   3.816   3.241  11.793
 3842W        W 7361   0.389   9.466   0.818
 3843W        W 7362   2.284   3.111   9.567
 3844W        W 7363   4.341   5.917   3.935
 3845W        W 7364   1.393   5.520   2.677
 3846W        W 7365   0.043   1.273  10.960
 3847W        W 7366   6.644   6.663   1.073
 3848W        W 7367   4.539   8.802   1.888
 3849W        W 7368   5.887   4.053  10.873
 3850W        W 7369   1.720   5.671  11.372
 3851W        W 7370   0.880   1.906   2.135
 3852W        W 7371   0.872   7.110   2.821
 3853W        W 7372   6.600   5.180   2.952
 3854W        W 7373   7.718   1.970   3.026
 3855W        W 7374   2.782   5.115   9.261
 3856W        W 7375   7.477   5.224   0.166
 3857W        W 7376   0.358   3.476  10.207
 3858W        W 7377   1.125   7.462   8.990
 3859W        W 7378   0.241   3.897  10.447
 3860W        W 7379   7.425   1.678  11.560
 3861W        W 7380   8.066   2.883   1.215
 3862W        W 7381   8.945   6.974  11.831
 3863W        W 7382   5.447   3.473   3.593
 3864W        W 7383   3.745   4.381   1.178
 3865W        W 7384   2.882   1.725   9.180
 3866W        W 7385   0.162   2.380   3.417
 3867W        W 7386   9.189   5.064   1.757
 3868W        W 7387   3.514   8.741   1.295
 3869W        W 7388   5.647   2.180   4.011
 3870W        W 7389   8.929   8.791   1.914
 3871W        W 7390   1.611   9.113   2.824
 3872W        W 7391   6.666   1.913   0.653
 3873W        W 7392   0.980   2.111  10.262
 3874W        W 7393   3.909   5.489   9.972
 3875W        W 7394   3.213   1.277  11.302
 3876W        W 7395   2.136   5.107   2.332
 3877W        W 7396   3.078   9.258   0.506
 3878W        W 7397   8.270   1.455  11.549
 3879W        W 7398   1.165   7.996   0.883
 3880W        W 7399   6.707   3.816   2.473
 3881W        W 7400   5.645   8.013   9.907
 3882W        W 7401   9.375   1.394  11.760
 3883W        W 7402   4.657   8.078  10.437
 3884W        W 7403   3.722   6.331  11.917
 3885W        W 7404   8.499   7.962   1.092
 3886W        W 7405   0.408   2.853  11.236
 3887W        W 7406   1.835   8.429   0.413
 3888W        W 7407   1.870   3.460  10.059
 3889W        W 7408   8.444   9.481   0.749
 3890W        W 7409   7.003   0.139   0.848
 3891W        W 7410   7.234   8.513   2.657
 3892W        W 7411   8.808   4.081   1.694
 3893W        W 7412   7.901   4.085   3.093
 3894W        W 7413   9.205   3.517  10.190
 3895W        W 7414   4.498   0.405   2.826
 3896W        W 7415   5.566   1.596   3.253
 3897W        W 7416   4.214   4.365   0.949
 3898W        W 7417   2.632   7.698   9.792
 3899W        W 7418   4.386   0.625   2.345
 3900W        W 7419   3.729   3.639   1.695
 3901W        W 7420   4.058   3.637   9.160
 3902W        W 7421   4.733   9.180  11.503
 3903W        W 7422   5.113   8.001  11.590
 3904W        W 7423   3.542   6.857   3.463
 3905W        W 7424   9.851   7.127  11.517
 3906W        W 7425   5.252   9.754   2.476
 3907W        W 7426   9.886   6.395   9.726
 3908W        W 7427   3.275   1.554   0.132
 3909W        W 7428   2.203   7.485   0.534
 3910W        W 7429   1.335   8.447  10.966
 3911W        W 7430   3.789   3.303   8.427
 3912W        W 7431   8.775   8.529   1.470
 3913W        W 7432   7.483   3.092  10.535
 3914W        W 7433   4.329   3.798  10.608
 3915W        W 7434   6.986   8.302   2.249
 3916W        W 7435   2.993   2.304   8.840
 3917W        W 7436   0.464   8.022   2.450
 3918W        W 7437   6.062   8.911   3.227
 3919W        W 7438   7.654   0.751   1.931
 3920W        W 7439   2.767   3.491   8.848
 3921W        W 7440   4.659   9.401   9.840
 3922W        W 7441   8.984   8.686   1.006
 3923W        W 7442   5.169   8.334  10.554
 3924W        W 7443   1.831   7.088   0.332
 3925W        W 7444   9.929   7.851   1.163
 3926W        W 7445   4.154   9.357   9.938
 3927W        W 7446   3.047   5.437   3.658
 3928W        W 7447   4.207   8.933   1.077
 3929W        W 7448   6.246   6.862   2.656
 3930W        W 7449   9.129   3.137   0.008
 3931W        W 7450   3.480   6.019   2.402
 3932W        W 7451   0.143   2.589  11.786
 3933W        W 7452   0.810   6.177   9.388
 3934W        W 7453   3.373   2.673   3.298
 3935W        W 7454   7.132   1.561  10.261
 3936W        W 7455   7.888   9.668   9.888
 3937W        W 7456   5.620   0.378  11.284
 3938W        W 7457   3.756   5.459   1.810
 3939W        W 7458   7.700   3.390  11.814
 3940W        W 7459   4.038   0.183   2.758
 3941W        W 7460   9.601   2.920   9.693
 3942W        W 7461   3.793   7.671   9.812
 3943W        W 7462   2.963   2.683   2.312
 3944W        W 7463   5.637   4.727  11.623
 3945W        W 7464   4.235   4.162  11.106
 3946W        W 7465   7.605   7.999  11.381
 3947W        W 7466   1.988   1.289  10.466
 3948W        W 7467   3.569   9.036   9.002
 3949W        W 7468   5.049   9.319   1.303
 3950W        W 7469   2.923   0.466   9.857
 3951W        W 7470   8.046   4.606  11.844
 3952W        W 7471   3.050   7.111   8.761
 3953W        W 7472   9.530   4.208  10.787
 3954W        W 7473   5.476   0.298  11.777
 3955W        W 7474   9.334   7.030   3.100
 3956W        W 7475   6.519   1.662  10.619
 3957W        W 7476   2.711   4.713   0.530
 3958W        W 7477   3.497   3.187   1.641
 3959W        W 7478   4.713   9.294   3.449
 3960W        W 7479   4.841   5.163   9.951
 3961W        W 7480   1.983   6.192  10.391
 3962W        W 7481   7.274   2.915   1.587
 3963W        W 7482   2.172   6.577   2.690
 3964W        W 7483   0.449   4.152   3.412
 3965W        W 7484   5.416   6.203   9.899
 3966W        W 7485   4.720   9.132   2.264
 3967W        W 7486   0.065   5.001   9.212
 3968W        W 7487   4.438   3.286   9.234
 3969W        W 7488   4.641   7.497   8.993
 3970W        W 7489   5.941   9.126   1.769
 3971W        W 7490   7.619   3.836   0.086
 3972W        W 7491   9.581   5.590   2.826
 3973W        W 7492   6.971   6.392   1.787
 3974W        W 7493   5.417   6.085   0.002
 3975W        W 7494   4.236   9.854   0.108
 3976W        W 7495   9.062   9.967   3.034
 3977W        W 7496   7.765   4.087   0.648
 3978W        W 7497   4.454   1.513   2.089
 3979W        W 7498   6.157   1.217   0.425
 3980W        W 7499   9.280   7.882   0.518
 3981W        W 7500   9.413   8.645   2.316
 3982W        W 7501   0.646   9.354   1.304
 3983W        W 7502   2.826   6.515   0.371
 3984W        W 7503   8.739   4.223   2.197
 3985W        W 7504   3.766   7.832   1.547
 3986W        W 7505   2.545   9.421   1.896
 3987W        W 7506   2.467   2.858   2.815
 3988W        W 7507   6.334   4.522   3.467
 3989W        W 7508   9.744   2.619   2.255
 3990W        W 7509   7.843   5.103   0.545
 3991W        W 7510   5.220   3.854   1.590
 3992W        W 7511   1.367   0.268  10.248
 3993W        W 7512   8.231   8.400   2.796
 3994W        W 7513   4.931   7.356   2.777
 3995W        W 7514   3.820   2.897   3.485
 3996W        W 7515   9.861   5.119  11.711
 3997W        W 7516   6.009   5.427  10.915
 3998W        W 7517   3.907   2.759   9.950
 3999W        W 7518   0.269   2.588   9.237
 4000W        W 7519   6.359   6.073   3.257
 4001W        W 7520   7.027   7.366   3.001
 4002W        W 7521   1.449   6.896   1.607
 4003W        W 7522   2.356   4.613  11.194
 4004W        W 7523   0.371   2.836   0.199
 4005W        W 7524   3.616   3.092   1.153
 4006W        W 7525   8.420   7.574   0.341
 4007W        W 7526   4.972   5.061   9.235
 4008W        W 7527   4.282   4.502   3.639
 4009W        W 7528   1.476   5.689   3.573
 4010W        W 7529   8.463   2.341   2.028
 4011W        W 7530   4.489   7.418   0.691
 4012W        W 7531   5.561   7.978   0.813
 4013W        W 7532   1.963   4.764   0.896
 4014W        W 7533   7.440   8.067   2.452
 4015W        W 7534   4.846   9.076   9.476
 4016W        W 7535   7.618   5.617  10.722
 4017W        W 7536   9.377   4.193   1.500
 4018W        W 7537   4.158   1.721   8.982
 4019W        W 7538   7.010   2.389   8.700
 4020W        W 7539   8.852   2.128   2.287
 4021W        W 7540   7.035   8.009   1.153
 4022W        W 7541   3.113   9.787   0.296
 4023W        W 7542   8.061   4.571   3.142
 4024W        W 7543   3.169   3.402  10.534
 4025W        W 7544   3.222   7.200  11.027
 4026W        W 7545   7.401   6.243  11.814
 4027W        W 7546   0.892   5.640  11.373
 4028W        W 7547   4.291   2.721  11.499
 4029W        W 7548   8.493   8.710  10.218
 4030W        W 7549   6.848   8.790   2.296
 4031W        W 7550   0.246   7.436   1.849
 4032W        W 7551   4.968   9.072   1.770
 4033W        W 7552   3.592   0.273  10.550
 4034W        W 7553   7.038   5.789   9.395
 4035W        W 7554   2.248   6.871   1.166
 4036W        W 7555   7.164   6.499   2.524
 4037W        W 7556   4.361   1.621   1.244
 4038W        W 7557   4.149   8.745   1.556
 4039W        W 7558   1.849   7.464   9.255
 4040W        W 7559   4.200   5.778   0.524
 4041W        W 7560   7.184   0.620   3.553
 4042W        W 7561   5.803   8.605   9.292
 4043W        W 7562   5.082   9.534  11.408
 4044W        W 7563   6.403   6.946  11.767
 4045W        W 7564   1.798   9.402   1.900
 4046W        W 7565   9.430   2.282   9.228
 4047W        W 7566   2.510   4.883   1.483
 4048W        W 7567   8.519   0.424  10.027
 4049W        W 7568   0.834   9.860   2.703
 4050W        W 7569   8.807   2.659  10.057
 4051W        W 7570   5.976   0.037   1.393
 4052W        W 7571   5.461   3.134  11.157
 4053W        W 7572   8.569   4.990   0.967
 4054W        W 7573   5.699   0.017   0.494
 4055W        W 7574   3.051   2.821   8.707
 4056W        W 7575   7.134   9.996   2.716
 4057W        W 7576   0.212   5.096   0.624
 4058W        W 7577   6.550   1.631   2.382
 4059W        W 7578   1.165   3.786  10.511
 4060W        W 7579   2.273   3.334   9.052
 4061W        W 7580   4.041   5.783   9.092
 4062W        W 7581   2.048   8.758   9.739
 4063W        W 7582   6.291   6.561   4.399
 4064W        W 7583   6.658   9.951  11.942
 4065W        W 7584   0.655   0.452  10.816
 4066W        W 7585   7.090   2.347   2.335
 4067W        W 7586   2.641   7.730  11.763
 4068W        W 7587   6.865   0.419  10.957
 4069W        W 7588   6.262   1.732  11.179
 4070W        W 7589   7.028   4.127   2.832
 4071W        W 7590   1.778   4.385  10.321
 4072W        W 7591   7.959   1.137   0.816
 4073W        W 7592   4.079   5.050   9.320
 4074W        W 7593   5.168   1.871   2.840
 4075W        W 7594   0.799   2.153   0.527
 4076W        W 7595   3.915   0.360   1.217
 4077W        W 7596   7.447   3.911  10.106
 4078W        W 7597   6.467   6.252   0.834
 4079W        W 7598   6.442   8.482  10.014
 4080W        W 7599   5.774   5.467   9.962
 4081W        W 7600   0.937   0.239   3.087
 4082W        W 7601   8.634   1.740   2.642
 4083W        W 7602   2.345   6.118  11.185
 4084W        W 7603   4.243   9.908  11.533
 4085W        W 7604   2.400   8.858   3.274
 4086W        W 7605   6.459   4.629   8.244
 4087W        W 7606   6.772   5.898   1.851
 4088W        W 7607   8.001   4.175   0.168
 4089W        W 7608   7.867   6.733   3.561
 4090W        W 7609   9.248   0.871   1.071
 4091W        W 7610   0.865   0.787   3.143
 4092W        W 7611   7.331   8.427   1.077
 4093W        W 7612   9.564   0.915  11.335
 4094W        W 7613   6.961   8.068  10.773
 4095W        W 7614   7.489   2.789   2.033
 4096W        W 7615   6.414   2.567   1.398
 4097W        W 7616   3.295   1.286   2.614
 4098W        W 7617   6.304   2.487  11.348
 4099W        W 7618   7.087   0.530   2.713
 4100W        W 7619   4.228   4.528   9.068
 4101W        W 7620   8.805   9.999  11.910
 4102W        W 7621   3.221   1.764  10.416
 4103W        W 7622   3.691   8.481  10.991
 4104W        W 7623   2.979   5.972   1.823
 4105W        W 7624   3.286   4.972   1.626
 4106W        W 7625   7.507   0.321   3.840
 4107W        W 7626   2.563   3.969  10.232
 4108W        W 7627   6.144   9.716   0.845
 4109W        W 7628   4.084   1.316   2.972
 4110W        W 7629   3.646   3.827   2.993
 4111W        W 7630   9.894   2.892   3.377
 4112W        W 7631   5.387   0.413   9.671
 4113W        W 7632   9.571   5.741   1.650
 4114W        W 7633   7.612   7.511   0.784
 4115W        W 7634   6.737   7.592   2.668
 4116W        W 7635   9.316   6.666   1.600
 4117W        W 7636   1.327   1.198   1.470
 4118W        W 7637   2.329   4.092   8.574
 4119W        W 7638   4.161   0.823   9.505
 4120W        W 7639   3.088   0.273   0.467
 4121W        W 7640   4.443   1.292   8.988
 4122W        W 7641   9.415   6.167   9.703
 4123W        W 7642   8.962   2.301   1.066
 4124W        W 7643   1.289   3.441   0.058
 4125W        W 7644   0.726   3.733   0.265
 4126W        W 7645   4.578   3.355  10.755
 4127W        W 7646   7.226   8.481  11.394
 4128W        W 7647   3.545   3.828   3.932
 4129W        W 7648   6.129   5.723  11.732
 4130W        W 7649   5.400   1.209   0.045
 4131W        W 7650   6.624   4.536   9.532
 4132W        W 7651   0.939   6.963   0.878
 4133W        W 7652   3.700   8.419   3.364
 4134W        W 7653   7.146   3.488   1.747
 4135W        W 7654   6.068   6.696  11.460
 4136W        W 7655   5.232   2.766   3.333
 4137W        W 7656   6.231   7.030  10.587
 4138W        W 7657   8.717   3.957   8.973
 4139W        W 7658   0.685   8.914   2.837
 4140W        W 7659   6.236   4.058   3.280
 4141W        W 7660   5.212   3.675   9.185
 4142W        W 7661   1.160   1.472   0.606
 4143W        W 7662   6.239   1.972   2.625
 4144W        W 7663   8.889   2.911   9.148
 4145W        W 7664   2.839   4.738   0.033
 4146W        W 7665   6.008   4.801  10.030
 4147W        W 7666   1.402   0.401   3.191
 4148W        W 7667   6.054   6.633   1.767
 4149W        W 7668   5.435   6.512  10.323
 4150W        W 7669   8.291   1.274   9.588
 4151W        W 7670   5.630   5.463   1.054
 4152W        W 7671   5.299   6.545   8.251
 4153W        W 7672   7.671   7.291   9.544
 4154W        W 7673   1.632   8.883   0.230
 4155W        W 7674   7.386   6.348  10.800
 4156W        W 7675   8.088   8.421  11.902
 4157W        W 7676   0.721   0.790   2.230
 4158W        W 7677   5.956   6.860   2.229
 4159W        W 7678   8.515   8.929   1.655
 4160W        W 7679   2.178   0.384   2.783
 4161W        W 7680   1.300   7.936   3.633
 4162W        W 7681   5.578   6.577   8.674
 4163W        W 7682   9.283   7.401  10.354
 4164W        W 7683   0.125   6.026  10.939
 4165W        W 7684   2.707   1.536   3.258
 4166W        W 7685   2.887   4.795   2.478
 4167W        W 7686   4.847   5.336   3.507
 4168W        W 7687   4.902   6.003   9.815
 4169W        W 7688   3.198   0.822  10.372
 4170W        W 7689   0.395   3.338   0.236
 4171W        W 7690   9.844   7.011  10.895
 4172W        W 7691   5.337   4.868   2.246
 4173W        W 7692   4.676   1.826  11.343
 4174W        W 7693   5.863   1.301   9.449
 4175W        W 7694   6.374   0.276  10.777
 4176W        W 7695   2.832   1.978   2.979
 4177W        W 7696   7.005   1.019   2.620
 4178W        W 7697   3.841   3.670  10.802
 4179W        W 7698   2.122   8.100   8.650
 4180W        W 7699   5.911   8.217   2.188
 4181W        W 7700   6.975   9.268   8.355
 4182W        W 7701   3.254   6.735   2.165
 4183W        W 7702   9.802   5.626  10.834
 4184W        W 7703   2.835   3.810  11.652
 4185W        W 7704   8.827   1.748  10.419
 4186W        W 7705   9.319   2.589  10.013
 4187W        W 7706   3.737   4.491   9.870
 4188W        W 7707   2.656   5.145   0.265
 4189W        W 7708   6.372   9.659   9.532
 4190W        W 7709   4.520   8.728  11.481
 4191W        W 7710   8.541   8.465   0.835
 4192W        W 7711   5.968   0.434  11.659
 4193W        W 7712   9.739   3.702  10.088
 4194W        W 7713   6.110   1.557   0.836
 4195W        W 7714   9.000   7.869   8.684
 4196W        W 7715   2.293   9.459  11.373
 4197W        W 7716   0.388   4.624   2.616
 4198W        W 7717   0.791   1.961   1.599
 4199W        W 7718   5.904   6.916  11.022
 4200W        W 7719   6.985   2.010  10.037
 4201W        W 7720   8.354   1.504   1.522
 4202W        W 7721   2.154   6.796   9.572
 4203W        W 7722   1.207   0.779   9.060
 4204W        W 7723   2.251   1.783   9.232
 4205W        W 7724   2.592   7.283   2.883
 4206W        W 7725   2.324   6.711   0.285
 4207W        W 7726   0.143   0.438   9.590
 4208W        W 7727   3.613   1.503   2.954
 4209W        W 7728   8.875   9.711   1.150
 4210W        W 7729   4.441   5.943  11.841
 4211W        W 7730   8.796   5.471   2.516
 4212W        W 7731   1.465   2.638   9.842
 4213W        W 7732   9.634   0.573   1.620
 4214W        W 7733   7.927   3.509   3.819
 4215W        W 7734   6.656   8.013   1.972
 4216W        W 7735   0.461   0.195   2.906
 4217W        W 7736   5.594   2.183   9.204
 4218W        W 7737   1.555   3.795   2.347
 4219W        W 7738   5.254   2.401   8.816
 4220W        W 7739   6.469   7.889  10.489
 4221W        W 7740   7.410   7.532  11.220
 4222W        W 7741   3.571   7.071   8.594
 4223W        W 7742   6.749   0.795  11.911
 4224W        W 7743   5.272   5.659  11.645
 4225W        W 7744   3.360   4.130   0.760
 4226W        W 7745   4.251   8.567  10.236
 4227W        W 7746   8.966   0.248  10.514
 4228W        W 7747   4.399   5.404   3.787
 4229W        W 7748   6.118   6.284   9.306
 4230W        W 7749   7.632   5.896   9.842
 4231W        W 7750   1.823   4.754   3.644
 4232W        W 7751   8.212   9.862   1.956
 4233W        W 7752   7.175   4.361   1.340
 4234W        W 7753   5.743   3.347   3.986
 4235W        W 7754   9.960   5.702   2.421
 4236W        W 7755   5.571   3.070  10.483
 4237W        W 7756   6.405   7.627  11.417
 4238W        W 7757   1.095   3.728   2.523
 4239W        W 7758   8.230   8.261  10.123
 4240W        W 7759   0.829   3.288   2.456
 4241W        W 7760   3.920   9.161   8.619
 4242W        W 7761   0.261   2.587   1.459
 4243W        W 7762   8.652   9.299   9.358
 4244W        W 7763   3.104   4.086   1.224
 4245W        W 7764   1.147   1.206   2.973
 4246W        W 7765   9.078   0.981  11.872
 4247W        W 7766   3.229   1.734   3.223
 4248W        W 7767   5.691   0.958   0.381
 4249W        W 7768   8.042   3.561  10.953
 4250W        W 7769   0.837   6.151   8.845
 4251W        W 7770   2.778   7.016   1.632
 4252W        W 7771   4.365   4.754   2.289
 4253W        W 7772   5.950   0.336   0.165
 4254W        W 7773   2.707   5.148   9.768
 4255W        W 7774   0.816   2.384   1.942
 4256W        W 7775   6.233   3.164   9.637
 4257W        W 7776   1.232   1.323  10.913
 4258W        W 7777   3.080   9.530   9.516
 4259W        W 7778   8.888   4.486   3.517
 4260W        W 7779   4.669   7.143  11.382
 4261W        W 7780   8.956   7.751   0.918
 4262W        W 7781   1.271   2.243   9.595
 4263W        W 7782   3.136   3.272  10.044
 4264W        W 7783   1.098   5.749  11.959
 4265W        W 7784   4.155   8.407   0.173
 4266W        W 7785   0.032   9.107   9.092
 4267W        W 7786   6.193   1.678   9.339
 4268W        W 7787   4.682   1.734   3.243
 4269W        W 7788   7.632   0.277  11.066
 4270W        W 7789   0.926   4.340  11.229
 4271W        W 7790   5.002   3.761   1.151
 4272W        W 7791   6.705   6.023   8.468
 4273W        W 7792   4.602   3.083   2.814
 4274W        W 7793   7.828   1.507   2.292
 4275W        W 7794   6.520   4.179   1.185
 4276W        W 7795   2.359   6.636  10.444
 4277W        W 7796   2.134   8.306   0.871
 4278W        W 7797   8.089   8.378   2.275
 4279W        W 7798   1.563   3.270   3.134
 4280W        W 7799   0.885   8.393   0.375
 4281W        W 7800   5.418   1.724   1.426
 4282W        W 7801   9.016   6.118  10.068
 4283W        W 7802   2.959   6.242  11.717
 4284W        W 7803   2.861   9.738  11.826
 4285W        W 7804   4.193   6.708   9.152
 4286W        W 7805   0.907   2.082   9.265
 4287W        W 7806   9.332   1.001   2.377
 4288W        W 7807   8.070   0.012   1.449
 4289W        W 7808   8.387   2.753   0.013
 4290W        W 7809   6.121   8.132   2.642
 4291W        W 7810   4.687   6.639   9.038
 4292W        W 7811   5.975   0.792   9.449
 4293W        W 7812   7.351   9.393  10.284
 4294W        W 7813   1.086   4.182   2.207
 4295W        W 7814   7.333   4.478   2.631
 4296W        W 7815   9.214   9.299   3.029
 4297W        W 7816   1.658   5.536   3.117
 4298W        W 7817   6.902   9.984  11.451
 4299W        W 7818   2.774   9.099  10.133
 4300W        W 7819   5.073   5.927   2.924
 4301W        W 7820   3.799   3.763   3.473
 4302W        W 7821   1.867   0.223   2.135
 4303W        W 7822   5.627   3.084   2.090
 4304W        W 7823   7.819   0.278   9.521
 4305W        W 7824   9.251   1.677   8.874
 4306W        W 7825   1.803   5.223  10.303
 4307W        W 7826   5.333   7.361   9.013
 4308W        W 7827   9.766   7.510   1.539
 4309W        W 7828   3.948   7.382   2.882
 4310W        W 7829   5.481   4.776   9.967
 4311W        W 7830   3.951   0.851   2.206
 4312W        W 7831   7.064   4.017   8.458
 4313W        W 7832   9.947   5.980  10.009
 4314W        W 7833   5.074   9.126   8.649
 4315W        W 7834   3.262   1.663   9.538
 4316W        W 7835   6.784   2.365   0.431
 4317W        W 7836   9.625   9.625   3.096
 4318W        W 7837   5.610   0.842   1.254
 4319W        W 7838   3.501   6.608   1.286
 4320W        W 7839   4.670   0.402   0.805
 4321W        W 7840   1.891   0.524   1.733
 4322W        W 7841   0.754   5.535   8.433
 4323W        W 7842   5.940   7.660  11.606
 4324W        W 7843   1.932   6.926   1.773
 4325W        W 7844   3.732   0.062   3.204
 4326W        W 7845   8.512   6.024  10.219
 4327W        W 7846   9.025   0.270   9.991
 4328W        W 7847   1.747   2.803   0.628
 4329W        W 7848   7.037   7.477   0.246
 4330W        W 7849   4.901   3.976   8.149
 4331W        W 7850   1.392   7.968   2.263
 4332W        W 7851   5.176   6.422   1.730
 4333W        W 7852   9.225   1.781   1.542
 4334W        W 7853   8.512   5.739   9.272
 4335W        W 7854   8.517   4.120  11.322
 4336W        W 7855   2.518   5.584   9.968
 4337W        W 7856   6.529   0.793  11.062
 4338W        W 7857   2.233   9.864   9.089
 4339W        W 7858   6.605   4.174  10.636
 4340W        W 7859   4.616   3.901   2.411
 4341W        W 7860   2.499   1.490   0.157
 4342W        W 7861   0.112   9.527   2.233
 4343W        W 7862   0.564   5.443   0.780
 4344W        W 7863   2.885   0.488   3.530
 4345W        W 7864   8.407   1.566   0.058
 4346W        W 7865   0.322   3.271  10.749
 4347W        W 7866   2.179   4.369   3.695
 4348W        W 7867   9.421   8.851  11.638
 4349W        W 7868   5.480   2.533  10.413
 4350W        W 7869   7.952   0.408   0.299
 4351W        W 7870   2.476   9.537   3.166
 4352W        W 7871   3.605   2.976   9.311
 4353W        W 7872   8.125   9.594  10.714
 4354W        W 7873   9.915   5.743  11.320
 4355W        W 7874   6.909   5.749  11.873
 4356W        W 7875   7.756   4.713  10.311
 4357W        W 7876   1.139   0.083   3.554
 4358W        W 7877   6.643   3.500  11.924
 4359W        W 7878   6.970   5.467  10.385
 4360W        W 7879   8.094   4.716   8.689
 4361W        W 7880   9.904   8.931  11.812
 4362W        W 7881   4.357   1.038   1.940
 4363W        W 7882   3.294   9.726   1.756
 4364W        W 7883   3.306   8.831  10.221
 4365W        W 7884   6.085   3.316   1.900
 4366W        W 7885   7.687   7.314   9.025
 4367W        W 7886   4.311   2.582   0.926
 4368W        W 7887   9.543   3.251   3.333
 4369W        W 7888   7.701   9.536   9.097
 4370W        W 7889   2.085   4.104   3.269
 4371W        W 7890   4.116   4.718   1.286
 4372W        W 7891   5.985   5.647   8.564
 4373W        W 7892   0.699   4.843   3.409
 4374W        W 7893   6.971   4.502   8.309
 4375W        W 7894   0.404   1.119   1.508
 4376W        W 7895   9.757   3.773  10.598
 4377W        W 7896   7.429   7.054   1.270
 4378W        W 7897   3.345   4.658  11.124
 4379W        W 7898   5.416   0.336   1.213
 4380W        W 7899   2.452   4.709  10.712
 4381W        W 7900   4.616   6.682   0.228
 4382W        W 7901   9.445   6.401   2.227
 4383W        W 7902   8.090   0.363  11.337
 4384W        W 7903   7.834   7.980  11.892
 4385W        W 7904   6.615   2.496  11.767
 4386W        W 7905   9.332   7.985   3.331
 4387W        W 7906   9.299   4.655   9.445
 4388W        W 7907   4.711   4.817   0.453
 4389W        W 7908   2.982   5.036   4.138
 4390W        W 7909   2.400   3.091   3.253
 4391W        W 7910   4.404   6.561   1.023
 4392W        W 7911   4.268   1.535   3.452
 4393W        W 7912   7.175   3.772   2.287
 4394W        W 7913   0.019   5.101  10.179
 4395W        W 7914   8.590   7.599   9.404
 4396W        W 7915   5.076   0.782   9.490
 4397W        W 7916   3.619   4.215  11.789
 4398W        W 7917   9.585   4.103   3.391
 4399W        W 7918   2.726   7.215  11.770
 4400W        W 7919   3.217   3.759   8.885
 4401W        W 7920   2.909   3.950   2.322
 4402W        W 7921   1.737   1.260  10.949
 4403W        W 7922   3.090   0.557   0.882
 4404W        W 7923   8.472   1.861  10.784
 4405W        W 7924   0.414   4.538  11.962
 4406W        W 7925   3.060   6.336   1.416
 4407W        W 7926   6.697   0.791   9.112
 4408W        W 7927   8.497   6.251   9.743
 4409W        W 7928   6.103   7.150  10.071
 4410W        W 7929   5.688   5.731   2.279
 4411W        W 7930   5.286   2.973   0.965
 4412W        W 7931   7.869   8.973  11.315
 4413W        W 7932   0.363   8.400   2.111
 4414W        W 7933   0.956   5.492   0.406
 4415W        W 7934   7.570   0.724   9.429
 4416W        W 7935   8.205   3.215   3.118
 4417W        W 7936   0.874   7.031   2.327
 4418W        W 7937   0.333   8.163  11.277
 4419W        W 7938   7.453   3.969   3.289
 4420W        W 7939   8.050   6.865  10.472
 4421W        W 7940   9.776   0.733   1.002
 4422W        W 7941   8.544   6.637   1.831
 4423W        W 7942   8.601   9.736  10.616
 4424W        W 7943   0.342   9.218  11.839
 4425W        W 7944   6.604   6.054   2.794
 4426W        W 7945   3.211   3.245   9.037
 4427W        W 7946   9.093   4.623   2.334
 4428W        W 7947   3.954   4.238   1.744
 4429W        W 7948   2.691   7.350   8.434
 4430W        W 7949   6.408   2.471  10.049
 4431W        W 7950   9.352   0.551   2.060
 4432W        W 7951   4.641   0.698  11.714
 4433W        W 7952   0.844   6.149  11.325
 4434W        W 7953   1.362   3.509  10.112
 4435W        W 7954   6.361   1.338   9.727
 4436W        W 7955   6.518   5.284  10.966
 4437W        W 7956   3.006   7.973   8.683
 4438W        W 7957   7.567   9.375  11.259
 4439W        W 7958   9.387   6.537  11.844
 4440W        W 7959   8.211   6.391   2.139
 4441W        W 7960   7.002   8.357   3.140
 4442W        W 7961   8.252   9.501   3.221
 4443W        W 7962   8.062   6.994   9.389
 4444W        W 7963   4.636   9.972   1.600
 4445W        W 7964   9.768   0.334  10.998
 4446W        W 7965   5.823   6.899   3.574
 4447W        W 7966   5.444   0.554   3.482
 4448W        W 7967   4.609   7.186   0.245
 4449W        W 7968   7.766   1.158   9.656
 4450W        W 7969   4.866   1.297   1.863
 4451W        W 7970   5.440   1.497   8.733
 4452W        W 7971   4.026   5.174   1.005
 4453W        W 7972   9.261   8.797   2.808
 4454W        W 7973   8.089   9.709   0.100
 4455W        W 7974   6.776   7.549  10.711
 4456W        W 7975   2.422   9.471   1.217
 4457W        W 7976   7.430   0.372   0.592
 4458W        W 7977   5.962   2.831   3.232
 4459W        W 7978   8.626   6.587   2.330
 4460W        W 7979   3.944   6.788  11.592
 4461W        W 7980   6.590   0.868   0.393
 4462W        W 7981   3.112   5.155  10.370
 4463W        W 7982   7.425   9.210   3.333
 4464W        W 7983   4.517   5.862  10.977
 4465W        W 7984   4.159   8.206   2.411
 4466W        W 7985   3.060   9.770   3.576
 4467W        W 7986   4.061   7.127  11.977
 4468W        W 7987   0.878   0.654   9.495
 4469W        W 7988   2.557   9.119   2.869
 4470W        W 7989   4.477   7.385  11.806
 4471W        W 7990   7.364   2.808  10.090
 4472W        W 7991   5.224   2.789   2.197
 4473W        W 7992   2.763   9.971   9.974
 4474W        W 7993   8.507   9.766   1.542
 4475W        W 7994   0.969   9.745   3.219
 4476W        W 7995   2.361   9.636  11.853
 4477W        W 7996   1.771   9.699   9.726
 4478W        W 7997   4.515   9.319   1.836
 4479W        W 7998   5.678   4.905  10.877
 4480W        W 7999   2.419   1.207  11.732
 4481W        W 8000   4.759   2.869   2.369
 4482W        W 8001   8.679   6.139   2.010
 4483W        W 8002   0.914   5.200  11.995
 4484W        W 8003   9.027   8.568   9.020
 4485W        W 8004   4.475   2.450   2.312
 4486W        W 8005   2.425   6.999   8.714
 4487W        W 8006   3.956   7.115   8.952
 4488W        W 8007   1.769   0.363   0.335
 4489W        W 8008   3.567   9.825   9.416
 4490W        W 8009   5.130   3.630   2.228
 4491W        W 8010   9.346   4.683   1.427
 4492W        W 8011   6.993   7.770   9.780
 4493W        W 8012   3.707   6.893   2.970
 4494W        W 8013   5.757   3.612   0.756
 4495W        W 8014   3.985   6.482   8.291
 4496W        W 8015   6.071   8.645  11.896
 4497W        W 8016   0.195   9.672   1.254
 4498W        W 8017   7.259   7.284   8.707
 4499W        W 8018   0.474   8.395   0.057
 4500W        W 8019   8.959   3.085   2.158
 4501W        W 8020   2.149   7.852   9.681
 4502W        W 8021   9.179   1.780   2.064
 4503W        W 8022   9.381   5.049   2.249
 4504W        W 8023   9.857   5.584  10.333
 4505W        W 8024   2.413   0.745   3.035
 4506W        W 8025   5.525   6.626  10.818
 4507W        W 8026   7.949   7.557   8.663
 4508W        W 8027   1.817   2.694  11.186
 4509W        W 8028   6.266   3.667   2.249
 4510W        W 8029   1.613   7.951   0.612
 4511W        W 8030   5.995   4.732   2.597
 4512W        W 8031   5.959   2.346   1.367
 4513W        W 8032   2.186   1.997   0.856
 4514W        W 8033   6.181   5.197   8.806
 4515W        W 8034   6.832   6.087   9.746
 4516W        W 8035   4.743   2.639  10.942
 4517W        W 8036   8.453   3.037   0.885
 4518W        W 8037   3.057   8.007   9.187
 4519W        W 8038   9.376   7.207   9.757
 4520W        W 8039   8.579   4.558  10.582
 4521W        W 8040   6.042   6.546  10.666
 4522W        W 8041   1.708   7.976   9.982
 4523W        W 8042   4.602   4.057   1.079
 4524W        W 8043   5.922   1.538   9.910
 4525W        W 8044   8.962   2.307   0.026
 4526W        W 8045   9.338   4.866   9.979
 4527W        W 8046   2.533   6.559   0.796
 4528W        W 8047   3.072   0.105   1.489
 4529W        W 8048   4.172   0.583   1.823
 4530W        W 8049   9.157   9.769   0.218
 4531W        W 8050   2.319   4.041   9.566
 4532W        W 8051   6.632   2.207   9.651
 4533W        W 8052   8.459   2.370   0.944
 4534W        W 8053   0.268   2.346  10.978
 4535W        W 8054   0.518   8.859   1.417
 4536W        W 8055   6.722   8.464   2.704
 4537W        W 8056   8.468   3.327   9.505
 4538W        W 8057   6.708   2.842  11.426
 4539W        W 8058   2.922   7.572   9.400
 4540W        W 8059   9.716   9.019   2.495
 4541W        W 8060   4.355   7.168   9.311
 4542W        W 8061   8.060   9.767   9.409
 4543W        W 8062   3.817   7.249   9.429
 4544W        W 8063   6.463   5.412   1.087
 4545W        W 8064   5.893   3.943   0.278
 4546W        W 8065   9.523   0.875   0.120
 4547W        W 8066   8.436   8.853   2.146
 4548W        W 8067   4.155   9.268   1.483
 4549W        W 8068   9.678   8.168   0.353
 4550W        W 8069   2.127   0.883   2.619
 4551W        W 8070   9.989   6.876   1.027
 4552W        W 8071   6.084   0.476   1.997
 4553W        W 8072   6.232   9.486   8.650
 4554W        W 8073   0.027   4.138   9.337
 4555W        W 8074   0.421   6.171   0.197
 4556W        W 8075   6.122   7.493   3.104
 4557W        W 8076   0.535   1.344   8.659
 4558W        W 8077   3.162   5.683  10.255
 4559W        W 8078   5.543   2.116   3.089
 4560W        W 8079   2.058   9.125   1.085
 4561W        W 8080   0.327   8.274  10.770
 4562W        W 8081   3.438   8.059   1.868
 4563W        W 8082   0.802   0.537   2.688
 4564W        W 8083   4.258   6.485   0.542
 4565W        W 8084   0.665   1.258   3.148
 4566W        W 8085   0.558   0.655   1.647
 4567W        W 8086   7.352   2.756   3.019
 4568W        W 8087   3.428   1.560   3.672
 4569W        W 8088   7.958   2.826  11.670
 4570W        W 8089   7.342   4.406  11.422
 4571W        W 8090   4.234   0.417  11.425
 4572W        W 8091   0.060   2.877   2.614
 4573W        W 8092   3.403   9.944   0.701
 4574W        W 8093   0.021   7.594   0.071
 4575W        W 8094   5.422   6.127   2.106
 4576W        W 8095   3.063   7.245   3.441
 4577W        W 8096   7.176   5.752   1.037
 4578W        W 8097   3.328   5.948  11.048
 4579W        W 8098   4.583   0.308   1.984
 4580W        W 8099   7.601   6.600   0.109
 4581W        W 8100   6.814   0.666   1.760
 4582W        W 8101   2.681   4.941   2.024
 4583W        W 8102   8.290   4.098   9.279
 4584W        W 8103   3.803   0.583   9.815
 4585W        W 8104   3.418   5.125   2.856
 4586W        W 8105   7.011   4.380   8.822
 4587W        W 8106   5.735   7.161   9.292
 4588W        W 8107   5.015   0.366   9.182
 4589W        W 8108   9.954   5.432   1.439
 4590W        W 8109   4.661   8.018   2.324
 4591W        W 8110   6.468   8.905   0.707
 4592W        W 8111   1.935   9.490   8.463
 4593W        W 8112   9.695   0.464   8.326
 4594W        W 8113   3.228   2.877  10.704
 4595W        W 8114   4.459   3.043   1.203
 4596W        W 8115   2.727   4.550   8.992
 4597W        W 8116   2.698   4.221  11.385
 4598W        W 8117   8.859   0.525   0.021
 4599W        W 8118   8.099   4.811   1.153
 4600W        W 8119   1.998   8.865  10.243
 4601W        W 8120   9.766   9.839   1.502
 4602W        W 8121   0.395   6.148   2.198
 4603W        W 8122   0.531   2.110  10.581
 4604W        W 8123   4.565   4.353   3.217
 4605W        W 8124   8.408   7.047   1.511
 4606W        W 8125   4.072   2.283   1.307
 4607W        W 8126   7.545   0.174   3.366
 4608W        W 8127   5.999   2.039   0.030
 4609W        W 8128   3.339   8.653   3.057
 4610W        W 8129   3.699   9.898  10.907
 4611W        W 8130   3.597   6.898  10.703
 4612W        W 8131   7.085   6.524  11.438
 4613W        W 8132   9.063   5.151   0.691
 4614W        W 8133   5.226   7.610  11.176
 4615W        W 8134   1.405   4.498  11.282
 4616W        W 8135   3.721   6.380  11.402
 4617W        W 8136   3.871   5.849   3.758
 4618W        W 8137   6.288   0.899   3.597
 4619W        W 8138   5.698   2.713   0.744
 4620W        W 8139   2.009   1.261  11.411
 4621W        W 8140   3.299   8.529   0.014
 4622W        W 8141   9.513   4.188   9.430
 4623W        W 8142   0.037   5.690   1.887
 4624W        W 8143   2.463   3.363  11.097
 4625W        W 8144   6.895   5.066  10.727
 4626W        W 8145   2.304   7.196   1.549
 4627W        W 8146   4.655   9.166   8.974
 4628W        W 8147   0.421   7.599   9.679
 4629W        W 8148   9.570   6.370  10.145
 4630W        W 8149   6.751   0.272   9.002
 4631W        W 8150   1.729   4.534   3.179
 4632W        W 8151   0.155   6.579   3.554
 4633W        W 8152   5.921   2.462   0.289
 4634W        W 8153   9.554   8.008   1.484
 4635W        W 8154   3.752   2.817  10.758
 4636W        W 8155   4.281   6.181  10.634
 4637W        W 8156   6.857   3.894   8.920
 4638W        W 8157   0.942   7.947   2.609
 4639W        W 8158   1.905   4.162   2.430
 4640W        W 8159   5.979   1.173  11.778
 4641W        W 8160   6.454   3.493  10.034
 4642W        W 8161   3.324   6.401   3.599
 4643W        W 8162   7.583   4.152   1.124
 4644W        W 8163   0.765   6.633   2.672
 4645W        W 8164   8.571   8.433   2.422
 4646W        W 8165   5.763   7.459  11.171
 4647W        W 8166   5.663   9.527   0.668
 4648W        W 8167   0.033   4.900   0.165
 4649W        W 8168   7.910   6.907   0.352
 4650W        W 8169   1.067   1.300   8.668
 4651W        W 8170   3.270   1.696  11.606
 4652W        W 8171   6.525   8.822  10.967
 4653W        W 8172   8.551   4.461   0.940
 4654W        W 8173   3.207   3.311   8.518
 4655W        W 8174   2.075   6.608   2.171
 4656W        W 8175   8.107   2.358  11.442
 4657W        W 8176   5.503   6.696   1.475
 4658W        W 8177   3.197   2.297  10.079
 4659W        W 8178   0.199   0.636   2.002
 4660W        W 8179   5.207   8.123  11.085
 4661W        W 8180   1.794   6.082   9.901
 4662W        W 8181   7.828   9.897  10.389
 4663W        W 8182   6.489   4.857   9.905
 4664W        W 8183   0.881   6.480   0.483
 4665W        W 8184   2.017   7.618   1.505
 4666W        W 8185   4.257   6.254   3.528
 4667W        W 8186   6.350   6.806   3.614
 4668W        W 8187   9.670   6.671  11.304
 4669W        W 8188   6.530   3.094   9.232
 4670W        W 8189   2.045   3.687   2.265
 4671W        W 8190   7.049   0.325   2.266
 4672W        W 8191   4.764   9.883  11.587
 4673W        W 8192   4.448   6.862  11.775
 4674W        W 8193   4.783   7.426  10.960
 4675W        W 8194   0.414   1.962   2.346
 4676W        W 8195   7.459   4.241   2.173
 4677W        W 8196   0.394   6.400  10.637
 4678W        W 8197   9.030   8.159  11.277
 4679W        W 8198   3.866   9.043  10.994
 4680W        W 8199   1.832   4.037   9.320
 4681W        W 8200   0.852   4.037   0.696
 4682W        W 8201   9.228   8.907  10.628
 4683W        W 8202   0.203   7.607   2.343
 4684W        W 8203   0.683   2.991   2.852
 4685W        W 8204   7.564   9.597   3.678
 4686W        W 8205   4.781   2.751   1.844
 4687W        W 8206   8.182   4.878  10.536
 4688W        W 8207   0.375   2.141   1.829
 4689W        W 8208   3.022   6.060   9.046
 4690W        W 8209   4.008   3.746   0.359
 4691W        W 8210   4.096   6.988   8.456
 4692W        W 8211   5.116   9.469   9.598
 4693W        W 8212   0.656   2.579  11.876
 4694W        W 8213   6.063   7.812   0.097
 4695W        W 8214   4.199   3.999   8.832
 4696W        W 8215   0.449   1.957   3.437
 4697W        W 8216   3.350   9.810  11.801
 4698W        W 8217   2.899   5.188   2.812
 4699W        W 8218   3.062   1.250   9.321
 4700W        W 8219   8.903   7.162  10.966
 4701W        W 8220   8.414   0.282   1.766
 4702W        W 8221   4.631   2.472   9.569
 4703W        W 8222   9.367   9.079   2.037
 4704W        W 8223   5.545   2.846   9.992
 4705W        W 8224   9.586   8.215   2.523
 4706W        W 8225   8.959   9.310   1.866
 4707W        W 8226   8.784   1.160   1.388
 4708W        W 8227   9.045   3.159   3.354
 4709W        W 8228   7.508   6.489   2.889
 4710W        W 8229   4.551   9.579  11.239
 4711W        W 8230   9.752   0.419   0.015
 4712W        W 8231   4.725   4.392   2.302
 4713W        W 8232   6.840   3.620   0.396
 4714W        W 8233   4.148   4.669   3.159
 4715W        W 8234   4.698   5.731   1.091
 4716W        W 8235   7.608   7.999   0.953
 4717W        W 8236   6.966   8.953   2.766
 4718W        W 8237   5.847   0.285  10.826
 4719W        W 8238   1.764   0.108   0.794
 4720W        W 8239   3.379   1.475   0.676
 4721W        W 8240   4.005   7.593  11.813
 4722W        W 8241   3.891   8.957   9.387
 4723W        W 8242   2.634   1.606  10.162
 4724W        W 8243   6.234   8.629   9.570
 4725W        W 8244   0.971   3.665  11.020
 4726W        W 8245   1.874   7.454  10.791
 4727W        W 8246   7.918   8.199   3.151
 4728W        W 8247   7.906   1.013   8.892
 4729W        W 8248   8.452   5.940   8.779
 4730W        W 8249   3.372   1.189  11.780
 4731W        W 8250   6.962   1.121   3.548
 4732W        W 8251   6.707   0.724   2.307
 4733W        W 8252   0.947   2.076   3.265
 4734W        W 8253   4.103   4.804  10.572
 4735W        W 8254   8.050   4.902   1.669
 4736W        W 8255   5.484   0.647   9.221
 4737W        W 8256   7.924   0.278   2.023
 4738W        W 8257   2.122   5.098   8.631
 4739W        W 8258   0.725   8.891  11.968
 4740W        W 8259   1.006   4.988  11.097
 4741W        W 8260   3.960   9.365   0.581
 4742W        W 8261   7.129   6.042   0.227
 4743W        W 8262   4.759   9.850   0.107
 4744W        W 8263   3.222   9.929  11.324
 4745W        W 8264   3.323   4.585  11.985
 4746W        W 8265   5.078   2.346   3.064
 4747W        W 8266   6.184   1.918   2.118
 4748W        W 8267   0.023   4.136   3.118
 4749W        W 8268   1.382   7.439   3.429
 4750W        W 8269   9.897   2.045   0.501
 4751W        W 8270   8.087   8.201   0.884
 4752W        W 8271   9.969   3.131  11.431
 4753W        W 8272   4.985   3.184   8.580
 4754W        W 8273   8.282   0.037   3.432
 4755W        W 8274   5.547   3.847   8.858
 4756W        W 8275   0.842   1.704   0.265
 4757W        W 8276   9.451   0.875   0.616
 4758W        W 8277   3.725   6.520   0.427
 4759W        W 8278   4.933   5.623  10.161
 4760W        W 8279   8.443   5.974  11.255
 4761W        W 8280   4.978   4.765  10.214
 4762W        W 8281   9.895   0.282  10.014
 4763W        W 8282   1.300   5.497   1.311
 4764W        W 8283   8.816   7.301   1.258
 4765W        W 8284   1.875   9.349   0.106
 4766W        W 8285   4.864   0.020   2.754
 4767W        W 8286   6.407   2.640   0.209
 4768W        W 8287   0.854   9.064   1.721
 4769W        W 8288   6.302   2.213   0.506
 4770W        W 8289   2.035   9.915   1.225
 4771W        W 8290   9.934   2.157  11.996
 4772W        W 8291   6.670   0.187   2.617
 4773W        W 8292   7.617   5.146   1.560
 4774W        W 8293   1.654   1.164   0.737
 4775W        W 8294   0.972   9.278  11.621
 4776W        W 8295   9.463   5.848  10.103
 4777W        W 8296   1.738   0.652   0.837
 4778W        W 8297   7.005   8.183   3.650
 4779W        W 8298   0.755   3.696   9.340
 4780W        W 8299   5.025   3.450  10.040
 4781W        W 8300   8.517   7.525   3.233
 4782W        W 8301   8.708   0.198   1.362
 4783W        W 8302   5.960   2.319   1.864
 4784W        W 8303   7.228   9.431   2.310
 4785W        W 8304   4.079   6.706   2.316
 4786W        W 8305   0.250   0.928   2.455
 4787W        W 8306   3.138   2.331   0.313
 4788W        W 8307   0.674   3.844   9.825
 4789W        W 8308   5.986   4.600   0.848
 4790W        W 8309   6.806   9.463   1.399
 4791W        W 8310   3.497   7.302   3.154
 4792W        W 8311   8.521   4.840  11.863
 4793W        W 8312   4.145   6.507  10.073
 4794W        W 8313   1.907   3.003   3.424
 4795W        W 8314   0.835   0.491  10.321
 4796W        W 8315   2.303   1.910   2.079
 4797W        W 8316   7.568   3.377  10.061
 4798W        W 8317   8.495   4.114  10.804
 4799W        W 8318   9.889   7.244   2.471
 4800W        W 8319   8.495   8.962   0.654
 4801W        W 8320   7.653   9.011  10.000
 4802W        W 8321   8.503   0.764   2.170
 4803W        W 8322   1.230   1.970   2.517
 4804W        W 8323   8.991   3.601  11.449
 4805W        W 8324   9.864   4.538   1.732
 4806W        W 8325   2.046   4.610   4.138
 4807W        W 8326   0.512   1.630   1.880
 4808W        W 8327   9.082   2.600   1.520
 4809W        W 8328   8.750   1.929   0.806
 4810W        W 8329   6.596   6.322   8.062
 4811W        W 8330   4.701   0.823   0.202
 4812W        W 8331   5.902   0.886  10.887
 4813W        W 8332   3.930   7.965   1.076
 4814W        W 8333   1.648   1.667   0.613
 4815W        W 8334   5.824   7.840   8.973
 4816W        W 8335   0.684   1.039   2.695
 4817W        W 8336   8.988   0.617   0.691
 4818W        W 8337   0.367   9.505   3.571
 4819W        W 8338   6.297   1.140   9.217
 4820W        W 8339   2.514   6.387   2.115
 4821W        W 8340   8.522   4.226   9.750
 4822W        W 8341   2.762   2.446   2.734
 4823W        W 8342   5.254   9.163   3.546
 4824W        W 8343   1.629   6.595   9.208
 4825W        W 8344   5.175   1.566   0.958
 4826W        W 8345   8.379   6.225   9.233
 4827W        W 8346   0.293   3.091   9.144
 4828W        W 8347   7.441   9.954   2.295
 4829W        W 8348   4.870   0.140  10.948
 4830W        W 8349   3.998   7.547   0.756
 4831W        W 8350   5.656   2.004   8.732
 4832W        W 8351   3.558   2.166   1.317
 4833W        W 8352   8.077   6.716   0.805
 4834W        W 8353   5.792   1.926   9.602
 4835W        W 8354   3.690   1.035   9.588
 4836W        W 8355   4.784   8.891  11.919
 4837W        W 8356   3.189   3.362   0.479
 4838W        W 8357   4.761   4.424   1.719
 4839W        W 8358   2.921   4.745   9.974
 4840W        W 8359   5.671   8.808  10.564
 4841W        W 8360   4.897   4.873   1.527
 4842W        W 8361   9.548   1.342   9.131
 4843W        W 8362   2.301   9.489   2.597
 4844W        W 8363   9.359   2.772   8.981
 4845W        W 8364   6.441   3.804  11.536
 4846W        W 8365   9.296   7.706   1.811
 4847W        W 8366   7.496   8.585   3.169
 4848W        W 8367   8.970   2.302   0.530
 4849W        W 8368   6.151   6.204  11.553
 4850W        W 8369   0.688   7.790   1.028
 4851W        W 8370   0.370   7.118   0.251
 4852W        W 8371   6.430   2.032  11.556
 4853W        W 8372   1.265   0.965   1.001
 4854W        W 8373   8.948   0.364   1.800
 4855W        W 8374   5.297   2.987   8.225
 4856W        W 8375   9.328   5.995   8.738
 4857W        W 8376   9.549   9.018   1.558
 4858W        W 8377   1.361   8.753   9.006
 4859W        W 8378   8.021   3.673  11.448
 4860W        W 8379   3.410   6.036  11.609
 4861W        W 8380   3.580   5.529   2.290
 4862W        W 8381   1.021   7.439  11.188
 4863W        W 8382   4.419   9.118   0.660
 4864W        W 8383   0.652   0.001  11.212
 4865W        W 8384   1.617   6.770  11.471
 4866W        W 8385   1.784   0.342   1.251
 4867W        W 8386   3.974   6.755  11.026
 4868W        W 8387   2.287   9.163   9.899
 4869W        W 8388   7.099   7.178  10.963
 4870W        W 8389   1.371   5.820   0.378
 4871W        W 8390   8.217   6.510   2.696
 4872W        W 8391   7.094   2.391  10.348
 4873W        W 8392   1.204   1.736   2.990
 4874W        W 8393   4.021   2.852   1.441
 4875W        W 8394   2.789   2.048  10.376
 4876W        W 8395   2.682   7.289   2.370
 4877W        W 8396   2.837   9.924   3.136
 4878W        W 8397   3.468   1.228   2.147
 4879W        W 8398   5.004   5.278  11.386
 4880W        W 8399   4.963   6.565   1.141
 4881W        W 8400   8.630   9.698   3.573
 4882W        W 8401   0.432   8.963   3.327
 4883W        W 8402   1.679   8.448  10.210
 4884W        W 8403   8.098   1.148  11.922
 4885W        W 8404   0.143   5.280   2.174
 4886W        W 8405   3.691   2.306   9.934
 4887W        W 8406   7.576   4.376  10.973
 4888W        W 8407   6.558   0.497   0.766
 4889W        W 8408   4.084   9.560  11.012
 4890W        W 8409   8.437   2.231   0.237
 4891W        W 8410   4.617   0.932  11.261
 4892W        W 8411   7.685   1.829   9.054
 4893W        W 8412   5.527   6.005   2.680
 4894W        W 8413   5.803   4.336  10.061
 4895W        W 8414   4.374   6.683  11.322
 4896W        W 8415   9.977   7.335   0.547
 4897W        W 8416   6.451   0.371   0.271
 4898W        W 8417   9.042   9.282   9.742
 4899W        W 8418   5.586   1.480  11.630
 4900W        W 8419   9.965   4.401   3.553
 4901W        W 8420   6.938   5.657   3.563
 4902W        W 8421   5.127   2.557  11.740
 4903W        W 8422   1.426   5.511   1.832
 4904W        W 8423   6.945   6.166  11.064
 4905W        W 8424   2.240   4.886   0.492
 4906W        W 8425   5.207   3.793   9.671
 4907W        W 8426   9.783   8.977  10.313
 4908W        W 8427   6.571   6.537  11.518
 4909W        W 8428   2.862   0.251   8.870
 4910W        W 8429   1.851   4.250   0.025
 4911W        W 8430   0.979   0.574  11.192
 4912W        W 8431   2.980   2.679   9.522
 4913W        W 8432   6.906   3.379   1.306
 4914W        W 8433   7.254   8.533  10.370
 4915W        W 8434   8.400   1.946   9.762
 4916W        W 8435   7.289   7.626   9.105
 4917W        W 8436   1.272   8.078   9.701
 4918W        W 8437   1.378   5.046  10.013
 4919W        W 8438   2.196   1.277   9.006
 4920W        W 8439   0.178   2.747   0.955
 4921W        W 8440   0.189   8.037   3.239
 4922W        W 8441   1.987   5.549   3.521
 4923W        W 8442   3.428   9.088  11.258
 4924W        W 8443   9.020   5.595   9.968
 4925W        W 8444   0.922   9.365   2.866
 4926W        W 8445   5.134   6.418   9.092
 4927W        W 8446   9.941   8.567   2.366
 4928W        W 8447   4.364   7.298   3.639
 4929W        W 8448   2.793   8.192   0.670
 4930W        W 8449   5.634   7.636   3.221
 4931W        W 8450   0.748   8.547   3.215
 4932W        W 8451   4.774   1.332   2.467
 4933W        W 8452   3.812   5.123   2.491
 4934W        W 8453   8.971   8.772   0.507
 4935W        W 8454   2.899   5.563   0.432
 4936W        W 8455   8.469   9.419   1.907
 4937W        W 8456   3.695   7.172   0.945
 4938W        W 8457   7.666   8.446   0.675
 4939W        W 8458   4.197   8.056  11.769
 4940W        W 8459   0.458   2.177   9.006
 4941W        W 8460   5.236   6.071   9.443
 4942W        W 8461   1.147   7.469   1.988
 4943W        W 8462   4.142   9.887   9.149
 4944W        W 8463   0.415   6.660   3.098
 4945W        W 8464   7.987   6.129  11.359
 4946W        W 8465   3.525   5.116  11.337
 4947W        W 8466   3.835   0.978   1.736
 4948W        W 8467   8.449   2.531   2.897
 4949W        W 8468   6.248   8.501   2.979
 4950W        W 8469   3.908   8.624   2.576
 4951W        W 8470   2.181   8.648   1.278
 4952W        W 8471   5.635   5.131   2.569
 4953W        W 8472   7.083   7.355   2.003
 4954W        W 8473   1.489   3.320   0.537
 4955W        W 8474   8.489   1.103  11.223
 4956W        W 8475   9.100   3.475   2.440
 4957W        W 8476   9.543   9.508   0.429
 4958W        W 8477   6.631   2.679   2.283
 4959W        W 8478   9.898   8.457   1.860
 4960W        W 8479   4.567   9.805   3.554
 4961W        W 8480   4.627   1.957   2.249
 4962W        W 8481   6.206   7.825   2.142
 4963W        W 8482   3.084   4.307  10.143
 4964W        W 8483   4.767   6.256   8.717
 4965W        W 8484   1.392   5.341  10.608
 4966W        W 8485   1.291   9.783   9.018
 4967W        W 8486   7.147   2.037   9.560
 4968W        W 8487   1.997   5.617  10.004
 4969W        W 8488   4.111   5.577  10.911
 4970W        W 8489   5.336   3.393   1.296
 4971W        W 8490   3.688   8.545   0.374
 4972W        W 8491   7.819   2.162   1.741
 4973W        W 8492   2.372   3.317  10.588
 4974W        W 8493   4.096   3.342   3.492
 4975W        W 8494   2.717   3.801   1.421
 4976W        W 8495   4.988   8.208   2.921
 4977W        W 8496   8.939   2.732  11.707
 4978W        W 8497   6.089   9.038   2.265
 4979W        W 8498   3.250   5.099  10.904
 4980W        W 8499   8.796   4.957   2.647
 4981W        W 8500   5.760   5.469  11.465
 4982W        W 8501   0.816   3.759   2.109
 4983W        W 8502   9.722   1.911  10.265
 4984W        W 8503   6.572   6.542   9.570
 4985W        W 8504   6.366   0.241  10.248
 4986W        W 8505   1.680   7.891   9.473
 4987W        W 8506   1.636   0.281  11.857
 4988W        W 8507   8.973   6.888   9.929
 4989W        W 8508   8.965   8.266  11.838
 4990W        W 8509   3.795   1.150   2.574
 4991W        W 8510   7.436   6.170   4.154
 4992W        W 8511   5.231   4.139   0.816
 4993W        W 8512   0.484   9.633   3.067
 4994W        W 8513   8.674   9.967  10.165
 4995W        W 8514   6.431   7.092   1.258
 4996W        W 8515   1.758   7.582   0.295
 4997W        W 8516   6.268   1.898   9.788
 4998W        W 8517   7.135   2.324   0.073
 4999W        W 8518   0.915   3.397  11.460
 5000W        W 8519   1.512   9.749   3.428
 5001W        W 8520   1.729   5.927   1.729
 5002W        W 8521   1.710   1.763   0.092
 5003W        W 8522   7.605   6.823   1.678
 5004W        W 8523   7.119   0.727  10.300
 5005W        W 8524   8.184   5.878   2.021
 5006W        W 8525   9.791   7.201  10.350
 5007W        W 8526   9.737   6.193   1.079
 5008W        W 8527   6.090   5.165   2.831
 5009W        W 8528   3.761   6.676   1.750
 5010W        W 8529   8.314   3.196  10.452
 5011W        W 8530   5.804   4.494  11.165
 5012W        W 8531   8.032   1.875   9.425
 5013W        W 8532   1.366   7.589  10.466
 5014W        W 8533   1.221   8.724   1.586
 5015W        W 8534   1.417   5.409   0.671
 5016W        W 8535   7.432   8.076  10.508
 5017W        W 8536   3.617   9.568  11.312
 5018W        W 8537   8.750   2.140  10.085
 5019W        W 8538   9.490   6.013   2.559
 5020W        W 8539   0.336   8.419   1.605
 5021W        W 8540   0.789   5.323   1.245
 5022W        W 8541   6.712   1.388   0.407
 5023W        W 8542   5.321   0.237   2.694
 5024W        W 8543   4.630   8.789  10.972
 5025W        W 8544   0.263   2.449   2.440
 5026W        W 8545   2.089   3.584   9.457
 5027W        W 8546   9.385   4.993   1.040
 5028W        W 8547   5.940   6.068   0.064
 5029W        W 8548   0.466   3.649   1.766
 5030W        W 8549   1.816   7.184   1.321
 5031W        W 8550   0.174   7.234   1.360
 5032W        W 8551   1.092   0.220  11.968
 5033W        W 8552   4.206   0.833   2.859
 5034W        W 8553   7.960   7.179   1.701
 5035W        W 8554   6.909   6.180   4.163
 5036W        W 8555   2.549   5.125   3.217
 5037W        W 8556   3.089   4.435   8.162
 5038W        W 8557   9.195   2.273   3.212
 5039W        W 8558   5.175   2.537   0.725
 5040W        W 8559   6.828   6.991   3.802
 5041W        W 8560   0.719   5.295  10.756
 5042W        W 8561   5.132   1.050   2.798
 5043W        W 8562   4.982   6.659   4.046
 5044W        W 8563   0.159   3.460   0.702
 5045W        W 8564   8.000   4.261  10.191
 5046W        W 8565   5.277   7.167   9.504
 5047W        W 8566   8.088   3.470   2.317
 5048W        W 8567   6.455   9.720  11.456
 5049W        W 8568   5.847   9.975   8.960
 5050W        W 8569   9.373   6.900   2.091
 5051W        W 8570   9.236   7.889   2.319
 5052W        W 8571   2.087   6.922   3.473
 5053W        W 8572   4.262   6.539   1.867
 5054W        W 8573   5.391   2.280   2.608
 5055W        W 8574   6.047   5.496   1.365
 5056W        W 8575   7.135   7.548  11.648
 5057W        W 8576   0.999   0.012   1.809
 5058W        W 8577   7.303   6.064   9.051
 5059W        W 8578   8.744   9.403   3.174
 5060W        W 8579   3.888   8.963  11.485
 5061W        W 8580   9.562   7.508   0.294
 5062W        W 8581   1.918   6.430  10.836
 5063W        W 8582   1.306   9.851  10.572
 5064W        W 8583   7.875   9.268   9.557
 5065W        W 8584   8.351   6.304   0.873
 5066W        W 8585   3.190   8.053   2.326
 5067W        W 8586   5.897   1.019  10.392
 5068W        W 8587   1.647   2.767   1.190
 5069W        W 8588   2.682   9.332   9.264
 5070W        W 8589   3.299   4.639   9.660
 5071W        W 8590   5.206   7.858   2.606
 5072W        W 8591   2.289   6.000   3.473
 5073W        W 8592   6.573   9.257  10.415
 5074W        W 8593   6.459   2.455   2.753
 5075W        W 8594   1.315   8.476   2.366
 5076W        W 8595   6.445   5.019   2.494
 5077W        W 8596   0.840   4.404   3.197
 5078W        W 8597   5.825   4.911   2.148
 5079W        W 8598   7.836   2.608   9.889
 5080W        W 8599   6.082   9.460  10.347
 5081W        W 8600   7.871   3.463  10.467
 5082W        W 8601   2.530   2.589   3.334
 5083W        W 8602   9.571   6.761   0.247
 5084W        W 8603   7.788   5.599   2.438
 5085W        W 8604   3.458   0.997   3.507
 5086W        W 8605   9.456   4.352   0.064
 5087W        W 8606   5.740   8.559   2.992
 5088W        W 8607   8.374   7.078   2.019
 5089W        W 8608   8.704   9.258   2.333
 5090W        W 8609   3.552   8.280   2.773
 5091W        W 8610   8.718   2.906   9.624
 5092W        W 8611   3.190   2.960   0.859
 5093W        W 8612   4.830   0.389   9.685
 5094W        W 8613   3.775   7.242  11.068
 5095W        W 8614   4.435   5.482  10.045
 5096W        W 8615   3.550   8.232   1.305
 5097W        W 8616   3.684   5.432   9.460
 5098W        W 8617   1.222   1.948   0.829
 5099W        W 8618   4.262   2.308   9.232
 5100W        W 8619   1.970   1.051   3.083
 5101W        W 8620   9.722   3.589  11.458
 5102W        W 8621   4.529   5.595   0.186
 5103W        W 8622   3.859   8.184  11.405
 5104W        W 8623   8.763   7.045   0.283
 5105W        W 8624   1.165   3.458   3.370
 5106W        W 8625   0.790   0.865   8.583
 5107W        W 8626   9.503   9.433   9.619
 5108W        W 8627   4.053   0.944   3.344
 5109W        W 8628   7.965   8.764   3.035
 5110W        W 8629   7.569   4.375   9.953
 5111W        W 8630   0.515   3.029   0.654
 5112W        W 8631   8.156   6.250   3.608
 5113W        W 8632   0.407   3.350   9.574
 5114W        W 8633   0.905   2.208   8.754
 5115W        W 8634   5.584   8.266   8.744
 5116W        W 8635   1.548   7.434   2.808
 5117W        W 8636   5.838   8.923   9.690
 5118W        W 8637   3.153   4.734   9.184
 5119W        W 8638   8.406   5.711   1.560
 5120W        W 8639   3.988   4.687   2.650
 5121W        W 8640   2.209   6.224   0.428
 5122W        W 8641   6.789   0.588  11.444
 5123W        W 8642   2.919   8.960   0.089
 5124W        W 8643   1.364   0.641   0.082
 5125W        W 8644   9.843   4.834   2.188
 5126W        W 8645   6.327   5.607   2.689
 5127W        W 8646   3.474   0.590   0.305
 5128W        W 8647   2.139   9.197   1.577
 5129W        W 8648   8.638   2.264   1.454
 5130W        W 8649   9.480   5.330  11.432
 5131W        W 8650   4.162   0.846   1.381
 5132W        W 8651   8.453   3.518   0.691
 5133W        W 8652   7.306   0.635   1.564
 5134W        W 8653   9.031   5.873   2.293
 5135W        W 8654   8.575   9.666   0.254
 5136W        W 8655   5.916   3.013   8.806
 5137W        W 8656   9.955   5.501   9.846
 5138W        W 8657   1.039   0.348   9.866
 5139W        W 8658   3.137   6.843   8.346
 5140W        W 8659   8.251   0.658   3.175
 5141W        W 8660   4.492   3.219   0.683
 5142W        W 8661   2.656   5.557  10.940
 5143W        W 8662   1.690   3.170  11.332
 5144W        W 8663   2.140   0.406  11.964
 5145W        W 8664   7.896   3.026   2.213
 5146W        W 8665   5.733   9.874   2.312
 5147W        W 8666   3.513   2.675   1.462
 5148W        W 8667   9.640   9.965   0.239
 5149W        W 8668   8.296   5.098   9.945
 5150W        W 8669   6.166   9.017  10.639
 5151W        W 8670   5.901   6.352  11.113
 5152W        W 8671   0.449   1.553  11.999
 5153W        W 8672   6.167   4.715   0.023
 5154W        W 8673   6.283   4.193   0.724
 5155W        W 8674   9.421   9.331   8.682
 5156W        W 8675   9.419   7.089  11.174
 5157W        W 8676   5.667   1.437   0.585
 5158W        W 8677   4.190   5.056   9.852
 5159W        W 8678   7.700   4.793   9.030
 5160W        W 8679   1.296   7.133   0.161
 5161W        W 8680   2.400   5.240   2.745
 5162W        W 8681   5.408   4.891  10.462
 5163W        W 8682   9.429   5.517   0.718
 5164W        W 8683   2.326   7.847   1.831
 5165W        W 8684   6.753   1.466   8.594
 5166W        W 8685   4.264   6.406   2.769
 5167W        W 8686   6.911   8.733  10.050
 5168W        W 8687   4.290   8.912   2.417
 5169W        W 8688   0.763   6.117  11.824
 5170W        W 8689   9.807   4.637  10.016
 5171W        W 8690   7.649   1.011   2.365
 5172W        W 8691   6.085   2.851   2.135
 5173W        W 8692   7.917   9.424  11.669
 5174W        W 8693   3.762   1.970   2.817
 5175W        W 8694   2.833   5.091  11.258
 5176W        W 8695   3.865   4.184   3.752
 5177W        W 8696   9.011   9.866   1.609
 5178W        W 8697   8.962   8.072  10.769
 5179W        W 8698   8.416   5.204   2.280
 5180W        W 8699   4.504   4.233   9.662
 5181W        W 8700   8.835   3.729   2.072
 5182W        W 8701   5.918   6.926  11.916
 5183W        W 8702   1.083   5.007   0.457
 5184W        W 8703   1.871   7.670  11.266
 5185W        W 8704   3.828   3.010   2.361
 5186W        W 8705   2.937   8.895   3.273
 5187W        W 8706   5.624   7.074   4.034
 5188W        W 8707   5.566   2.616   2.987
 5189W        W 8708   1.730   0.134   2.607
 5190W        W 8709   0.542   3.506   8.921
 5191W        W 8710   8.026   1.203   2.657
 5192W        W 8711   7.660   9.759  10.931
 5193W        W 8712   5.120   3.515   4.001
 5194W        W 8713   3.894   9.891   0.510
 5195W        W 8714   6.971   9.043   9.206
 5196W        W 8715   2.197   3.866   2.785
 5197W        W 8716   7.388   3.613   0.470
 5198W        W 8717   9.999   5.947   1.431
 5199W        W 8718   9.621   1.440   1.671
 5200W        W 8719   6.876   9.823   3.149
 5201W        W 8720   7.868   7.666   1.761
 5202W        W 8721   6.447   7.293  10.995
 5203W        W 8722   1.694   5.365   8.727
 5204W        W 8723   1.822   5.507   1.444
 5205W        W 8724   9.753   8.063   9.063
 5206W        W 8725   1.532   0.178   9.763
 5207W        W 8726   0.693   7.294   1.224
 5208W        W 8727   2.377   4.737   9.831
 5209W        W 8728   2.055   4.068   0.485
 5210W        W 8729   7.236   5.569   8.944
 5211W        W 8730   9.766   0.821  10.870
 5212W        W 8731   8.043   6.109  10.054
 5213W        W 8732   2.199   4.237  10.554
 5214W        W 8733   3.942   5.404  11.414
 5215W        W 8734   1.372   8.423   0.633
 5216W        W 8735   5.528   1.822  10.043
 5217W        W 8736   8.296   2.379  10.057
 5218W        W 8737   9.525   1.418   2.168
 5219W        W 8738   3.775   2.216   0.748
 5220W        W 8739   1.772   1.562   9.111
 5221W        W 8740   3.474   6.196   8.818
 5222W        W 8741   3.027   1.838   8.627
 5223W        W 8742   9.307   6.336  11.404
 5224W        W 8743   0.165   0.630   0.221
 5225W        W 8744   4.585   2.167   3.006
 5226W        W 8745   9.819   9.403   1.798
 5227W        W 8746   8.960   5.113  11.719
 5228W        W 8747   2.199   3.738   0.887
 5229W        W 8748   3.500   1.856   9.995
 5230W        W 8749   4.625   9.553   9.347
 5231W        W 8750   6.281   3.772   1.730
 5232W        W 8751   2.272   8.368   3.164
 5233W        W 8752   7.908   2.271   2.672
 5234W        W 8753   5.287   5.024   1.230
 5235W        W 8754   4.217   5.486   9.557
 5236W        W 8755   4.196   4.581  10.117
 5237W        W 8756   9.355   9.919   1.200
 5238W        W 8757   5.505   2.343   1.059
 5239W        W 8758   2.639   0.485  10.280
 5240W        W 8759   8.505   5.481  11.257
 5241W        W 8760   4.908   7.031  11.872
 5242W        W 8761   6.007   1.809   3.139
 5243W        W 8762   3.960   0.354   0.316
 5244W        W 8763   9.068   5.400   1.135
 5245W        W 8764   1.671   6.175  11.213
 5246W        W 8765   0.417   3.031  11.710
 5247W        W 8766   9.120   9.491   9.254
 5248W        W 8767   3.085   0.398   2.492
 5249W        W 8768   5.016   6.316   3.248
 5250W        W 8769   6.491   3.621   9.233
 5251W        W 8770   1.421   2.948   3.559
 5252W        W 8771   1.673   8.074  11.003
 5253W        W 8772   3.155   5.558  10.740
 5254W        W 8773   8.599   3.391   2.369
 5255W        W 8774   1.388   6.975   1.129
 5256W        W 8775   9.194   4.224   1.995
 5257W        W 8776   1.191   3.093   1.686
 5258W        W 8777   4.209   9.402   9.032
 5259W        W 8778   8.306   7.504   1.276
 5260W        W 8779   3.492   8.212   9.320
 5261W        W 8780   3.156   5.945   8.435
 5262W        W 8781   5.502   6.569   4.093
 5263W        W 8782   6.780   4.012  11.856
 5264W        W 8783   0.790   7.068   1.826
 5265W        W 8784   7.710   5.613   0.444
 5266W        W 8785   2.161   0.909   0.043
 5267W        W 8786   0.056   2.849  10.867
 5268W        W 8787   8.665   9.432   8.849
 5269W        W 8788   5.946   4.044   2.110
 5270W        W 8789   7.637   6.517   0.610
 5271W        W 8790   2.709   7.726   2.681
 5272W        W 8791   5.723   9.402   2.122
 5273W        W 8792   1.300   6.093  10.033
 5274W        W 8793   1.176   6.707  11.817
 5275W        W 8794   3.337   6.704   8.871
 5276W        W 8795   2.677   5.684   2.727
 5277W        W 8796   3.471   8.181   8.790
 5278W        W 8797   8.087   5.654  10.961
 5279W        W 8798   9.343   6.200   9.207
 5280W        W 8799   4.953   1.839   0.230
 5281W        W 8800   7.727   7.321   2.864
 5282W        W 8801   2.700   4.262  11.905
 5283W        W 8802   8.812   3.887   2.607
 5284W        W 8803   4.936   9.214  11.016
 5285W        W 8804   0.245   8.532   3.106
 5286W        W 8805   6.466   4.138   2.131
 5287W        W 8806   4.035   4.350  11.529
 5288W        W 8807   1.420   9.731   1.794
 5289W        W 8808   8.352   3.057   2.654
 5290W        W 8809   3.304   1.873   1.688
 5291W        W 8810   8.465   3.100   8.461
 5292W        W 8811   8.420   4.452   1.852
 5293W        W 8812   7.523   6.395   8.717
 5294W        W 8813   0.740   4.510   1.408
 5295W        W 8814   1.150   8.038  10.207
 5296W        W 8815   2.246   2.935  10.936
 5297W        W 8816   4.291   3.657  11.084
 5298W        W 8817   3.528   0.103   0.176
 5299W        W 8818   5.181   4.107  11.083
 5300W        W 8819   4.521   1.361  11.548
 5301W        W 8820   9.138   2.219   9.685
 5302W        W 8821   1.803   6.219   8.865
 5303W        W 8822   5.475   3.338   9.849
 5304W        W 8823   6.645   2.715  10.963
 5305W        W 8824   6.057   4.959   0.467
 5306W        W 8825   3.196   1.229   3.106
 5307W        W 8826   4.988   8.536   9.523
 5308W        W 8827   0.719   1.683  10.322
 5309W        W 8828   8.848   3.246   0.456
 5310W        W 8829   8.106   9.792   2.812
 5311W        W 8830   9.874   3.385  10.969
 5312W        W 8831   0.011   8.823   1.504
 5313W        W 8832   1.163   8.017  10.729
 5314W        W 8833   0.842   8.402  11.101
 5315W        W 8834   3.647   0.039   1.986
 5316W        W 8835   3.221   2.001  10.895
 5317W        W 8836   4.079   0.901   9.002
 5318W        W 8837   0.066   1.012  10.507
 5319W        W 8838   4.134   5.811  10.326
 5320W        W 8839   9.742   6.981   1.469
 5321W        W 8840   4.322   1.163   0.464
 5322W        W 8841   1.616   7.230  11.241
 5323W        W 8842   8.387   0.255   2.281
 5324W        W 8843   6.164   6.380   0.425
 5325W        W 8844   9.019   2.167   1.784
 5326W        W 8845   8.204   1.947  11.761
 5327W        W 8846   4.995   4.335  11.521
 5328W        W 8847   0.292   2.353   0.309
 5329W        W 8848   1.954   2.279   3.910
 5330W        W 8849   4.766   5.550   9.644
 5331W        W 8850   3.708   9.521   1.527
 5332W        W 8851   9.201   1.877  11.903
 5333W        W 8852   3.917   6.286   4.294
 5334W        W 8853   2.670   7.509   0.218
 5335W        W 8854   1.389   0.849  11.373
 5336W        W 8855   2.691   2.925  11.255
 5337W        W 8856   2.572   8.046   9.397
 5338W        W 8857   2.192   3.471  11.908
 5339W        W 8858   9.145   7.436  11.999
 5340W        W 8859   4.585   3.171  11.659
 5341W        W 8860   3.593   7.400   0.070
 5342W        W 8861   8.116   7.582  10.710
 5343W        W 8862   8.696   6.521  10.140
 5344W        W 8863   3.924   5.416   4.051
 5345W        W 8864   0.997   9.337   9.015
 5346W        W 8865   0.857   2.598  11.120
 5347W        W 8866   4.183   6.327  11.648
 5348W        W 8867   5.082   8.793   2.217
 5349W        W 8868   6.180   4.567   8.688
 5350W        W 8869   1.761   6.662  10.386
 5351W        W 8870   6.771   8.459   0.891
 5352W        W 8871   4.598   8.396  11.867
 5353W        W 8872   8.910   4.618   1.804
 5354W        W 8873   2.346   0.786   1.721
 5355W        W 8874   4.678   5.460   9.125
 5356W        W 8875   8.398   5.817   0.715
 5357W        W 8876   2.442   0.355  11.299
 5358W        W 8877   5.738   6.839   8.264
 5359W        W 8878   7.949   9.096   3.440
 5360W        W 8879   8.960   6.671  10.843
 5361W        W 8880   5.641   2.725  10.858
 5362W        W 8881   6.545   6.556  10.598
 5363W        W 8882   3.304   7.568  10.678
 5364W        W 8883   3.216   4.330   2.366
 5365W        W 8884   7.360   9.714   3.206
 5366W        W 8885   8.541   2.334  11.750
 5367W        W 8886   8.904   1.753   9.790
 5368W        W 8887   3.496   5.053   8.613
 5369W        W 8888   2.261   2.622   9.982
 5370W        W 8889   0.878   7.570   3.512
 5371W        W 8890   8.370   0.833   2.684
 5372W        W 8891   2.973   9.970   1.003
 5373W        W 8892   1.907   0.475   9.984
 5374W        W 8893   1.260   4.640   2.396
 5375W        W 8894   5.992   3.183  11.813
 5376W        W 8895   5.244   6.137   4.202
 5377W        W 8896   5.970   2.264   0.873
 5378W        W 8897   7.531   3.566   2.985
 5379W        W 8898   2.672   2.906   1.005
 5380W        W 8899   1.445   0.744   1.854
 5381W        W 8900   2.515   1.028   0.385
 5382W        W 8901   3.265   1.472   8.900
 5383W        W 8902   1.786   4.718   9.946
 5384W        W 8903   0.045   1.713  11.748
 5385W        W 8904   6.152   6.005  10.765
 5386W        W 8905   8.226   8.567  11.403
 5387W        W 8906   1.462   0.855  10.851
 5388W        W 8907   6.856   9.055   0.412
 5389W        W 8908   0.098   4.802  11.416
 5390W        W 8909   0.434   5.874  11.309
 5391W        W 8910   2.577   1.310   1.926
 5392W        W 8911   6.668   6.426  10.085
 5393W        W 8912   6.732   3.898   0.815
 5394W        W 8913   6.565   5.256   3.490
 5395W        W 8914   6.658   9.848  10.993
 5396W        W 8915   4.473   5.824   8.806
 5397W        W 8916   2.245   5.614   2.387
 5398W        W 8917   7.024   0.713   9.507
 5399W        W 8918   0.326   3.329   2.744
 5400W        W 8919   6.516   2.254   8.662
 5401W        W 8920   6.961   6.244   0.966
 5402W        W 8921   6.174   1.869  10.276
 5403W        W 8922   9.365   9.229   0.017
 5404W        W 8923   6.775   5.910  10.208
 5405W        W 8924   2.185   4.297  10.022
 5406W        W 8925   6.703   5.801   0.825
 5407W        W 8926   8.916   5.993  11.457
 5408W        W 8927   6.527   8.076   2.987
 5409W        W 8928   6.491   0.659   1.286
 5410W        W 8929   2.941   3.252  10.952
 5411W        W 8930   2.316   9.261  10.907
 5412W        W 8931   1.268   6.221   0.639
 5413W        W 8932   7.718   2.667   3.396
 5414W        W 8933   1.700   3.230   2.370
 5415W        W 8934   1.728   1.247   2.230
 5416W        W 8935   5.569   4.451   1.113
 5417W        W 8936   2.041   6.437  11.928
 5418W        W 8937   0.882   8.860   9.184
 5419W        W 8938   8.048   5.604   9.938
 5420W        W 8939   6.936   8.249   8.577
 5421W        W 8940   5.341   1.042  11.557
 5422W        W 8941   5.042   1.709   9.944
 5423W        W 8942   9.453   1.423   2.698
 5424W        W 8943   5.979   0.518  10.401
 5425W        W 8944   8.447   9.727   2.403
 5426W        W 8945   1.205   2.520   3.331
 5427W        W 8946   9.456   6.523  10.832
 5428W        W 8947   6.065   7.984  11.210
 5429W        W 8948   2.275   7.952   2.824
 5430W        W 8949   1.289   1.320   9.131
 5431W        W 8950   5.286   1.983   9.571
 5432W        W 8951   5.722   8.105   9.403
 5433W        W 8952   6.434   2.071   3.094
 5434W        W 8953   1.174   8.958   2.579
 5435W        W 8954   3.567   5.065   3.334
 5436W        W 8955   2.639   6.333   2.636
 5437W        W 8956   9.022   4.177   9.583
 5438W        W 8957   3.379   4.723  10.196
 5439W        W 8958   2.660   9.207   2.356
 5440W        W 8959   2.257   2.166   9.585
 5441W        W 8960   2.708   7.425   0.707
 5442W        W 8961   0.224   1.727   8.890
 5443W        W 8962   5.422   1.457   2.716
 5444W        W 8963   9.205   1.815   1.022
 5445W        W 8964   5.451   1.813   0.298
 5446W        W 8965   6.140   2.322  10.527
 5447W        W 8966   1.515   8.307   9.231
 5448W        W 8967   9.183   6.656   0.681
 5449W        W 8968   9.933   4.776   8.749
 5450W        W 8969   1.879   4.692   9.070
 5451W        W 8970   9.457   2.227   0.267
 5452W        W 8971   0.578   4.663  11.419
 5453W        W 8972   7.769   9.239   1.295
 5454W        W 8973   6.531   1.308  11.012
 5455W        W 8974   0.115   2.891   9.614
 5456W        W 8975   4.807   6.404   8.230
 5457W        W 8976   2.854   6.815  10.201
 5458W        W 8977   3.210   8.751   0.471
 5459W        W 8978   3.603   7.106   2.021
 5460W        W 8979   7.973   4.161   9.693
 5461W        W 8980   2.155   8.314   1.758
 5462W        W 8981   9.388   4.734   3.449
 5463W        W 8982   9.979   3.281   9.902
 5464W        W 8983   2.661   7.167   1.142
 5465W        W 8984   0.032   4.264   0.145
 5466W        W 8985   4.348   5.437  11.741
 5467W        W 8986   8.916   4.622  11.537
 5468W        W 8987   9.605   6.615   3.250
 5469W        W 8988   4.683   3.404   2.434
 5470W        W 8989   2.290   2.789   1.826
 5471W        W 8990   1.889   9.162   0.587
 5472W        W 8991   9.092   1.728  11.415
 5473W        W 8992   5.495   5.973   0.866
 5474W        W 8993   9.819   2.517   0.684
 5475W        W 8994   9.750   5.728   8.611
 5476W        W 8995   9.968   1.061   1.779
 5477W        W 8996   0.363   1.399  10.544
 5478W        W 8997   7.657   7.552  11.667
 5479W        W 8998   2.647   8.491   1.499
 5480W        W 8999   3.964   1.361   2.108
 5481W        W 9000   6.084   8.070  10.196
 5482W        W 9001   1.206   5.158   2.178
 5483W        W 9002   7.082   1.527   9.757
 5484W        W 9003   9.947   4.260   0.781
 5485W        W 9004   1.170   4.024  10.034
 5486W        W 9005   9.829   2.262   2.622
 5487W        W 9006   5.265   5.193   9.684
 5488W        W 9007   6.048   7.937   1.507
 5489W        W 9008   8.128   5.926   0.287
 5490W        W 9009   8.972   0.897   2.030
 5491W        W 9010   4.141   8.859   9.829
 5492W        W 9011   9.505   8.405   3.692
 5493W        W 9012   9.829   1.303  11.985
 5494W        W 9013   2.049   6.500   0.857
 5495W        W 9014   5.586   4.408   8.920
 5496W        W 9015   5.109   0.176  10.048
 5497W        W 9016   9.500   3.576   2.130
 5498W        W 9017   0.876   5.626   1.809
 5499W        W 9018   9.031   7.497   3.134
 5500W        W 9019   5.739   1.818  11.248
 5501W        W 9020   0.753   2.423   1.434
 5502W        W 9021   6.142   5.717   9.588
 5503W        W 9022   5.954   1.478   8.942
 5504W        W 9023   9.829   0.881   2.772
 5505W        W 9024   6.371   3.819   8.778
 5506W        W 9025   9.415   4.435   3.870
 5507W        W 9026   8.883   7.977   9.203
 5508W        W 9027   7.088   0.960   0.292
 5509W        W 9028   3.778   9.452   3.138
 5510W        W 9029   9.932   8.162   8.587
 5511W        W 9030   1.111   7.471   2.499
 5512W        W 9031   5.168   1.890   3.347
 5513W        W 9032   8.505   7.118   3.528
 5514W        W 9033   3.149   4.396  11.540
 5515W        W 9034   4.513   3.825   0.197
 5516W        W 9035   7.468   1.313   1.984
 5517W        W 9036   0.332   5.182   8.812
 5518W        W 9037   7.399   5.691  11.988
 5519W        W 9038   9.039   0.413  11.016
 5520W        W 9039   9.017   5.818   1.458
 5521W        W 9040   3.489   1.933   0.399
 5522W        W 9041   8.343   7.089   0.535
 5523W        W 9042   4.160   7.943  10.459
 5524W        W 9043   0.019   2.212   9.976
 5525W        W 9044   8.178   0.564  10.868
 5526W        W 9045   5.234   8.740   0.732
 5527W        W 9046   7.097   1.647   0.758
 5528W        W 9047   7.875   1.141   1.695
 5529W        W 9048   6.393   4.631  10.373
 5530W        W 9049   6.909   6.298   9.291
 5531W        W 9050   0.178   7.327  10.647
 5532W        W 9051   4.176   7.326   1.459
 5533W        W 9052   9.671   2.846  10.558
 5534W        W 9053   9.711   4.918   3.813
 5535W        W 9054   9.490   5.201  10.921
 5536W        W 9055   5.300   4.464  11.916
 5537W        W 9056   8.372   9.814  11.663
 5538W        W 9057   5.242   9.748   0.838
 5539W        W 9058   0.393   9.950   8.983
 5540W        W 9059   3.807   9.734   8.506
 5541W        W 9060   6.595   4.223   8.552
 5542W        W 9061   1.498   9.389   8.769
 5543W        W 9062   6.017   5.163  11.803
 5544W        W 9063   7.743   1.590  11.161
 5545W        W 9064   7.570   5.380   9.716
 5546W        W 9065   3.471   2.528  11.412
 5547W        W 9066   7.807   8.437   1.240
 5548W        W 9067   6.082   4.218   2.583
 5549W        W 9068   4.100   7.026   1.899
 5550W        W 9069   9.321   3.872   9.834
 5551W        W 9070   5.337   0.290  10.872
 5552W        W 9071   6.662   4.651   2.209
 5553W        W 9072   5.947   8.593   2.505
 5554W        W 9073   2.388   5.731   0.457
 5555W        W 9074   5.800   4.328  11.907
 5556W        W 9075   4.187   0.834  10.065
 5557W        W 9076   3.628   4.670   3.022
 5558W        W 9077   7.294   0.831   9.013
 5559W        W 9078   5.331   8.938   9.554
 5560W        W 9079   1.380   9.913   2.971
 5561W        W 9080   0.131   4.573   9.629
 5562W        W 9081   3.491   6.512   8.423
 5563W        W 9082   2.236   5.175  10.037
 5564W        W 9083   4.360   6.081   1.282
 5565W        W 9084   3.225   7.878   1.427
 5566W        W 9085   6.439   6.312   1.859
 5567W        W 9086   2.466   4.832   0.974
 5568W        W 9087   8.796   5.376   1.596
 5569W        W 9088   7.144   9.729   1.124
 5570W        W 9089   2.374   2.299  10.583
 5571W        W 9090   7.491   8.626   9.029
 5572W        W 9091   2.910   3.142  11.953
 5573W        W 9092   4.374   4.839   0.826
 5574W        W 9093   6.458   0.390  11.767
 5575W        W 9094   3.923   8.503   1.096
 5576W        W 9095   2.503   5.506   3.557
 5577W        W 9096   6.485   8.942   1.978
 5578W        W 9097   1.045   1.144   3.481
 5579W        W 9098   8.678   2.820  10.526
 5580W        W 9099   3.630   4.911   1.235
 5581W        W 9100   7.334   5.184  10.916
 5582W        W 9101   7.422   3.506  11.425
 5583W        W 9102   2.130   3.261   1.808
 5584W        W 9103   3.211   3.661   1.563
 5585W        W 9104   4.376   1.111  11.951
 5586W        W 9105   7.137   7.298  10.430
 5587W        W 9106   0.866   3.479  10.132
 5588W        W 9107   8.014   7.218   3.343
 5589W        W 9108   0.786   2.027   2.773
 5590W        W 9109   4.043   9.383   0.077
 5591W        W 9110   7.664   6.423   9.885
 5592W        W 9111   8.195   5.149  11.006
 5593W        W 9112   4.474   5.373   0.809
 5594W        W 9113   7.897   2.082   9.935
 5595W        W 9114   3.244   5.398   1.909
 5596W        W 9115   4.223   0.479   3.252
 5597W        W 9116   7.690   2.154   3.535
 5598W        W 9117   7.974   0.234   3.074
 5599W        W 9118   7.316   0.298   9.699
 5600W        W 9119   8.838   3.501   1.553
 5601W        W 9120   8.410   1.231   9.063
 5602W        W 9121   4.784   5.749   0.592
 5603W        W 9122   5.769   3.712   1.706
 5604W        W 9123   9.430   3.304  10.632
 5605W        W 9124   6.470   2.583   9.055
 5606W        W 9125   1.430   7.638  10.966
 5607W        W 9126   4.805   4.853  11.135
 5608W        W 9127   4.286   9.018  11.830
 5609W        W 9128   9.388   2.846   1.965
 5610W        W 9129   5.460   5.408   1.542
 5611W        W 9130   2.722   5.687   0.901
 5612W        W 9131   1.138   2.795   9.469
 5613W        W 9132   4.616   4.984  11.592
 5614W        W 9133   5.563   9.366   2.610
 5615W        W 9134   9.011   8.670   9.918
 5616W        W 9135   3.720   1.753  11.914
 5617W        W 9136   6.980   3.889   1.288
 5618W        W 9137   4.716   8.558   3.160
 5619W        W 9138   6.610   1.152   1.282
 5620W        W 9139   5.346   8.404   9.177
 5621W        W 9140   6.087   2.814   9.276
 5622W        W 9141   9.289   6.726   9.246
 5623W        W 9142   3.151   8.499   2.096
 5624W        W 9143   7.067   1.812   2.340
 5625W        W 9144   5.682   7.054  11.483
 5626W        W 9145   5.889   8.656   1.949
 5627W        W 9146   7.601   8.888   0.942
 5628W        W 9147   6.020   8.424   3.518
 5629W        W 9148   5.914   8.485   9.939
 5630W        W 9149   1.739   3.556   9.078
 5631W        W 9150   9.077   1.783   3.072
 5632W        W 9151   1.079   1.950   3.769
 5633W        W 9152   9.043   0.817  11.367
 5634W        W 9153   0.967   3.777  11.820
 5635W        W 9154   7.283   0.365  10.630
 5636W        W 9155   2.330   8.780   1.762
 5637W        W 9156   5.834   6.089   8.766
 5638W        W 9157   1.138   9.806   2.278
 5639W        W 9158   7.326   8.136   8.927
 5640W        W 9159   4.234   7.460   8.661
 5641W        W 9160   9.058   8.941   1.455
 5642W        W 9161   0.293   5.167   1.153
 5643W        W 9162   0.507   9.808  10.060
 5644W        W 9163   5.186   3.557  11.076
 5645W        W 9164   0.865   4.405   2.645
 5646W        W 9165   1.898   2.163  10.432
 5647W        W 9166   7.088   5.134   9.812
 5648W        W 9167   1.319   7.047   3.090
 5649W        W 9168   2.979   4.596   3.832
 5650W        W 9169   5.955   3.655  10.434
 5651W        W 9170   7.398   4.745  10.652
 5652W        W 9171   7.932   3.074  10.786
 5653W        W 9172   1.299   0.861   8.559
 5654W        W 9173   6.719   8.837   9.592
 5655W        W 9174   6.709   7.747  11.813
 5656W        W 9175   3.785   2.371   3.225
 5657W        W 9176   4.082   0.317  10.187
 5658W        W 9177   2.125   2.318   1.823
 5659W        W 9178   1.735   2.255   9.396
 5660W        W 9179   4.699   5.663   3.150
 5661W        W 9180   3.045   0.890   2.250
 5662W        W 9181   6.948   9.096  10.985
 5663W        W 9182   4.919   2.851   1.331
 5664W        W 9183   1.878   6.811   3.903
 5665W        W 9184   3.350   2.524   9.187
 5666W        W 9185   5.028   9.533   0.421
 5667W        W 9186   1.350   1.765   9.804
 5668W        W 9187   4.488   4.976   9.008
 5669W        W 9188   1.645   9.974  11.378
 5670W        W 9189   0.534   4.214   0.343
 5671W        W 9190   7.276   9.304   1.363
 5672W        W 9191   9.769   2.681   9.277
 5673W        W 9192   0.831   5.826   1.328
 5674W        W 9193   1.427   9.339   0.395
 5675W        W 9194   0.138   6.421   0.826
 5676W        W 9195   9.392   8.323   2.975
 5677W        W 9196   3.714   2.914   2.929
 5678W        W 9197   1.113   6.507   1.037
 5679W        W 9198   9.353   8.242   8.772
 5680W        W 9199   3.757   2.780   1.894
 5681W        W 9200   5.431   4.148   0.307
 5682W        W 9201   7.887   8.293   8.942
 5683W        W 9202   9.435   6.678   9.734
 5684W        W 9203   1.739   1.700  10.639
 5685W        W 9204   2.937   4.789   1.193
 5686W        W 9205   0.748   7.566   1.687
 5687W        W 9206   9.569   4.391   2.334
 5688W        W 9207   3.787   4.642   3.532
 5689W        W 9208   8.061   3.723   0.448
 5690W        W 9209   5.181   7.788   0.528
 5691W        W 9210   5.181   7.794   4.394
 5692W        W 9211   5.234   3.833  10.654
 5693W        W 9212   6.209   7.296   2.195
 5694W        W 9213   7.769   0.404   1.540
 5695W        W 9214   0.865   6.172   2.435
 5696W        W 9215   6.823   4.429   0.852
 5697W        W 9216   3.317   4.508   1.436
 5698W        W 9217   9.422   0.133   1.762
 5699W        W 9218   2.679   5.990   9.709
 5700W        W 9219   2.757   4.633   3.346
 5701W        W 9220   9.691   8.867  10.810
 5702W        W 9221   0.847   5.849   9.877
 5703W        W 9222   5.117   5.698  10.637
 5704W        W 9223   5.328   5.697   9.808
 5705W        W 9224   6.712   5.735   0.332
 5706W        W 9225   1.533   4.812  10.459
 5707W        W 9226   6.919   2.586   1.839
 5708W        W 9227   1.118   9.579   1.390
 5709W        W 9228   7.531   0.501   2.391
 5710W        W 9229   1.748   8.550  11.275
 5711W        W 9230   1.386   9.533  11.374
 5712W        W 9231   7.830   0.532   9.042
 5713W        W 9232   1.863   9.567   0.900
 5714W        W 9233   6.047   5.322   2.347
 5715W        W 9234   1.949   0.898   8.479
 5716W        W 9235   1.732   1.740  11.584
 5717W        W 9236   4.268   9.491   3.258
 5718W        W 9237   2.486   1.248  10.472
 5719W        W 9238   3.187   5.234   1.208
 5720W        W 9239   5.922   9.017   2.748
 5721W        W 9240   6.641   6.232   1.384
 5722W        W 9241   1.935   3.090  10.440
 5723W        W 9242   2.244   8.995   9.325
 5724W        W 9243   5.116   9.351   9.103
 5725W        W 9244   6.170   9.850   9.990
 5726W        W 9245   7.132   6.083   2.815
 5727W        W 9246   2.875   4.607   1.679
 5728W        W 9247   5.973   5.017  11.269
 5729W        W 9248   3.243   2.805   1.883
 5730W        W 9249   0.441   6.915   8.722
 5731W        W 9250   7.133   3.984   0.215
 5732W        W 9251   5.106   6.163  11.563
 5733W        W 9252   7.132   8.534   9.432
 5734W        W 9253   9.796   9.839   9.757
 5735W        W 9254   7.528   6.315  11.298
 5736W        W 9255   1.974   0.570   3.277
 5737W        W 9256   8.775   7.588  10.714
 5738W        W 9257   3.265   6.314   0.145
 5739W        W 9258   1.255   6.026   9.123
 5740W        W 9259   5.517   9.378  11.194
 5741W        W 9260   1.558   1.380   9.562
 5742W        W 9261   0.498   6.417   8.559
 5743W        W 9262   9.517   4.006   1.042
 5744W        W 9263   3.286   6.881   1.676
 5745W        W 9264   5.058   3.143   3.017
 5746W        W 9265   5.025   0.475  10.483
 5747W        W 9266   8.340   2.674   3.367
 5748W        W 9267   3.197   6.388  11.275
 5749W        W 9268   3.159   6.028   3.227
 5750W        W 9269   4.924   3.281   9.063
 5751W        W 9270   3.662   4.005   9.578
 5752W        W 9271   7.947   1.002  11.065
 5753W        W 9272   6.978   9.473   8.849
 5754W        W 9273   6.476   0.808   9.594
 5755W        W 9274   8.888   0.794   9.935
 5756W        W 9275   6.156   7.210   9.566
 5757W        W 9276   6.231   1.503   1.338
 5758W        W 9277   8.483   3.989   0.182
 5759W        W 9278   3.517   8.028  10.791
 5760W        W 9279   3.171   6.916   3.051
 5761W        W 9280   1.324   4.169   3.221
 5762W        W 9281   1.740   4.075   2.905
 5763W        W 9282   2.722   5.497  10.432
 5764W        W 9283   1.388   7.850   1.756
 5765W        W 9284   4.650   2.248   0.120
 5766W        W 9285   7.517   1.419   0.969
 5767W        W 9286   3.631   8.334   2.257
 5768W        W 9287   5.386   0.235   2.198
 5769W        W 9288   2.706   8.225   2.520
 5770W        W 9289   7.687   7.002   8.589
 5771W        W 9290   6.765   2.177   3.452
 5772W        W 9291   1.277   8.495  11.476
 5773W        W 9292   2.523   7.627   1.373
 5774W        W 9293   2.740   8.821  10.958
 5775W        W 9294   9.652   5.961   2.088
 5776W        W 9295   5.938   1.395   2.827
 5777W        W 9296   5.875   8.420   1.459
 5778W        W 9297   0.441   6.802   1.300
 5779W        W 9298   3.920   0.173   9.515
 5780W        W 9299   4.293   6.202   2.259
 5781W        W 9300   9.964   6.405   0.234
 5782W        W 9301   4.620   8.262   9.983
 5783W        W 9302   9.043   9.430  11.058
 5784W        W 9303   2.330   3.645   9.897
 5785W        W 9304   3.369   5.545   3.213
 5786W        W 9305   4.703   8.106   9.501
 5787W        W 9306   6.808   5.155   1.336
 5788W        W 9307   4.316   5.937   9.848
 5789W        W 9308   8.348   5.319  11.763
 5790W        W 9309   5.719   8.887  11.564
 5791W        W 9310   2.769   0.951  10.107
 5792W        W 9311   9.131   6.495   8.816
 5793W        W 9312   6.688   6.248   0.377
 5794W        W 9313   6.399   1.647   3.423
 5795W        W 9314   4.204   4.771   0.352
 5796W        W 9315   7.066   8.851   3.278
 5797W        W 9316   6.518   5.992   9.360
 5798W        W 9317   4.924   2.625   3.731
 5799W        W 9318   6.635   8.032   1.475
 5800W        W 9319   0.174   4.683  10.938
 5801W        W 9320   0.305   4.202  10.027
 5802W        W 9321   4.580   1.406  11.034
 5803W        W 9322   3.552   8.577  11.514
 5804W        W 9323   5.617   2.455  11.872
 5805W        W 9324   5.640   6.369   9.130
 5806W        W 9325   5.515   3.862   1.142
 5807W        W 9326   4.827   4.191   2.788
 5808W        W 9327   0.932   0.159   0.456
 5809W        W 9328   4.523   5.971   2.669
 5810W        W 9329   4.489   3.565   1.233
 5811W        W 9330   0.901   9.468  10.081
 5812W        W 9331   9.355   9.684   2.673
 5813W        W 9332   1.421   0.668   9.904
 5814W        W 9333   3.195   9.988  10.274
 5815W        W 9334   9.471   8.450  11.272
 5816W        W 9335   7.050   3.303  10.762
 5817W        W 9336   9.825   6.176   3.382
 5818W        W 9337   8.432   1.747   2.166
 5819W        W 9338   4.215   1.540   0.137
 5820W        W 9339   3.714   7.562   8.813
 5821W        W 9340   1.270   1.676  10.312
 5822W        W 9341   9.282   3.962   2.420
 5823W        W 9342   7.276   5.285   1.208
 5824W        W 9343   5.394   2.595   3.943
 5825W        W 9344   7.148   6.730  11.903
 5826W        W 9345   2.643   9.884   9.460
 5827W        W 9346   4.633   2.594   2.772
 5828W        W 9347   6.975   3.136  11.747
 5829W        W 9348   1.800   3.737   1.231
 5830W        W 9349   0.860   6.240   2.994
 5831W        W 9350   4.092   9.073   1.982
 5832W        W 9351   6.325   9.963   9.136
 5833W        W 9352   9.741   3.743   9.532
 5834W        W 9353   2.619   8.352   2.008
 5835W        W 9354   3.975   9.010  10.264
 5836W        W 9355   4.181   6.917   2.760
 5837W        W 9356   3.112   4.161  11.057
 5838W        W 9357   0.318   3.132   1.733
 5839W        W 9358   1.775   8.086   3.933
 5840W        W 9359   1.014   2.949  10.057
 5841W        W 9360   7.057   3.175  11.243
 5842W        W 9361   0.868   5.987   0.374
 5843W        W 9362   3.108   3.853   0.399
 5844W        W 9363   0.946   1.101  11.271
 5845W        W 9364   0.882   7.024  10.841
 5846W        W 9365   6.709   7.030  11.356
 5847W        W 9366   6.549   3.318  11.441
 5848W        W 9367   3.468   2.599   2.288
 5849W        W 9368   9.186   4.325   3.110
 5850W        W 9369   8.440   7.410  11.076
 5851W        W 9370   8.236   8.850  10.951
 5852W        W 9371   0.188   8.932  10.789
 5853W        W 9372   4.721   3.485  11.276
 5854W        W 9373   3.746   7.164   9.917
 5855W        W 9374   3.777   5.888  11.276
 5856W        W 9375   5.696   5.969  11.604
 5857W        W 9376   1.230   8.857  11.850
 5858W        W 9377   1.268   1.910  11.515
 5859W        W 9378   2.856   7.229   9.827
 5860W        W 9379   4.632   4.119   3.657
 5861W        W 9380   6.062   9.503   2.505
 5862W        W 9381   8.972   4.104  11.557
 5863W        W 9382   3.427   2.711   9.756
 5864W        W 9383   7.923   3.581   3.302
 5865W        W 9384   0.914   7.723   9.634
 5866W        W 9385   4.726   1.959  10.325
 5867W        W 9386   8.681   6.710   2.804
 5868W        W 9387   3.111   0.624   1.403
 5869W        W 9388   4.617   2.866   9.931
 5870W        W 9389   5.092   0.697  10.004
 5871W        W 9390   7.410   6.783  11.107
 5872W        W 9391   4.427   8.218   1.899
 5873W        W 9392   9.887   6.662  11.778
 5874W        W 9393   1.360   1.712   8.787
 5875W        W 9394   4.329   6.549   8.672
 5876W        W 9395   9.105   4.011   3.536
 5877W        W 9396   2.769   2.663   1.826
 5878W        W 9397   0.837   2.513   2.952
 5879W        W 9398   5.978   3.230   2.922
 5880W        W 9399   6.893   6.846   8.908
 5881W        W 9400   9.871   5.926   9.479
 5882W        W 9401   7.424   8.003  10.014
 5883W        W 9402   9.912   2.059   3.745
 5884W        W 9403   0.294   7.431  10.150
 5885W        W 9404   4.623   6.214  11.343
 5886W        W 9405   4.123   3.572   0.851
 5887W        W 9406   3.071   0.418  10.638
 5888W        W 9407   6.773   1.207   9.462
 5889W        W 9408   5.344   2.315   3.535
 5890W        W 9409   5.638   4.781   0.149
 5891W        W 9410   1.826   9.995  10.172
 5892W        W 9411   5.133   4.560   2.573
 5893W        W 9412   7.324   2.651   9.079
 5894W        W 9413   2.850   0.438   2.998
 5895W        W 9414   0.222   8.995   2.356
 5896W        W 9415   7.934   6.898   1.266
 5897W        W 9416   0.841   1.386   2.187
 5898W        W 9417   0.922   8.444  11.841
 5899W        W 9418   7.291   1.183  11.510
 5900W        W 9419   9.154   6.549  10.384
 5901W        W 9420   2.637   9.746   2.292
 5902W        W 9421   2.617   3.167   2.009
 5903W        W 9422   7.146   5.667   9.887
 5904W        W 9423   3.865   4.723   0.796
 5905W        W 9424   2.408   0.610   9.807
 5906W        W 9425   0.430   0.839   9.338
 5907W        W 9426   0.856   1.216   1.300
 5908W        W 9427   3.978   9.507   9.479
 5909W        W 9428   7.513   8.173   0.259
 5910W        W 9429   2.352   5.125  11.057
 5911W        W 9430   0.153   0.657   8.142
 5912W        W 9431   9.867   2.716  10.070
 5913W        W 9432   6.487   5.472   1.702
 5914W        W 9433   5.027   1.570   9.392
 5915W        W 9434   1.338   0.458   0.569
 5916W        W 9435   9.986   1.581   9.337
 5917W        W 9436   0.597   6.547   9.048
 5918W        W 9437   5.116   4.835  11.602
 5919W        W 9438   7.192   4.863   1.507
 5920W        W 9439   6.526   8.587   8.629
 5921W        W 9440   8.142   2.362   9.562
 5922W        W 9441   1.628   7.153  10.386
 5923W        W 9442   6.264   9.449   2.017
 5924W        W 9443   3.118   8.969   8.749
 5925W        W 9444   5.560   8.047   1.308
 5926W        W 9445   5.750   4.120   0.738
 5927W        W 9446   2.810   9.555   2.746
 5928W        W 9447   1.231   5.929   1.607
 5929W        W 9448   1.881   3.315   0.874
 5930W        W 9449   8.647   6.254   2.984
 5931W        W 9450   3.434   5.284   9.997
 5932W        W 9451   8.849   6.141   9.054
 5933W        W 9452   8.120   4.571   9.205
 5934W        W 9453   8.862   2.765   0.243
 5935W        W 9454   6.239   2.134   3.570
 5936W        W 9455   0.532   5.209  10.085
 5937W        W 9456   3.552   8.699   8.612
 5938W        W 9457   5.503   5.318   2.084
 5939W        W 9458   1.695   4.238   3.601
 5940W        W 9459   9.569   6.999   0.751
 5941W        W 9460   1.351   9.481   0.929
 5942W        W 9461   7.671   5.598   0.957
 5943W        W 9462   0.767   3.274   1.416
 5944W        W 9463   9.196   9.653   3.412
 5945W        W 9464   1.336   7.003   2.579
 5946W        W 9465   3.051   4.230   3.180
 5947W        W 9466   3.558   2.953   8.757
 5948W        W 9467   5.296   1.238   1.406
 5949W        W 9468   4.473   0.219   0.359
 5950W        W 9469   2.285   5.618   3.088
 5951W        W 9470   8.981   8.369   3.279
 5952W        W 9471   6.222   9.087  11.678
 5953W        W 9472   7.166   8.659   1.898
 5954W        W 9473   1.390   4.743   1.912
 5955W        W 9474   3.210   7.074  11.899
 5956W        W 9475   5.934   2.254   9.998
 5957W        W 9476   3.003   7.421   1.426
 5958W        W 9477   1.842   6.588   0.414
 5959W        W 9478   4.236   2.152   3.379
 5960W        W 9479   1.073   0.757   1.433
 5961W        W 9480   8.293   0.657  11.989
 5962W        W 9481   4.030   5.073  11.922
 5963W        W 9482   2.656   5.562   9.435
 5964W        W 9483   4.695   4.412   0.739
 5965W        W 9484   5.696   6.257   1.622
 5966W        W 9485   7.491   1.008   2.844
 5967W        W 9486   1.629   7.369   8.779
 5968W        W 9487   1.899   9.124  11.277
 5969W        W 9488   8.483   8.014   0.578
 5970W        W 9489   3.662   6.092   3.376
 5971W        W 9490   6.708   2.843   0.593
 5972W        W 9491   5.690   2.618   2.345
 5973W        W 9492   4.409   2.774   9.066
 5974W        W 9493   6.546   8.390   3.422
 5975W        W 9494   4.115   6.630   0.077
 5976W        W 9495   3.308   5.684   8.837
 5977W        W 9496   2.629   1.804   9.620
 5978W        W 9497   0.311   2.214   2.916
 5979W        W 9498   5.155   1.944   9.040
 5980W        W 9499   1.860   7.599  10.298
 5981W        W 9500   0.033   1.642   2.134
 5982W        W 9501   3.364   9.891   8.785
 5983W        W 9502   5.890   4.143   9.602
 5984W        W 9503   1.947   6.422   3.553
 5985W        W 9504   5.320   1.516   1.872
 5986W        W 9505   4.603   1.764  11.866
 5987W        W 9506   8.579   0.873   9.403
 5988W        W 9507   0.632   9.149  10.979
 5989W        W 9508   2.743   2.170  10.941
 5990W        W 9509   9.156   4.835  10.725
 5991W        W 9510   4.999   7.844  10.712
 5992W        W 9511   9.390   5.542  10.518
 5993W        W 9512   0.711   3.107  10.450
 5994W        W 9513   5.557   1.668   9.210
 5995W        W 9514   3.220   8.650  11.122
 5996W        W 9515   1.500   4.950  10.946
 5997W        W 9516   9.726   6.142  11.826
 5998W        W 9517   4.876   7.141   3.672
 5999W        W 9518   7.966   0.437   3.570
 6000W        W 9519   3.351   4.383  10.638
 6001W        W 9520   4.507   3.021   8.623
 6002W        W 9521   6.416   9.503  11.953
 6003W        W 9522   2.724   2.296   9.826
 6004W        W 9523   3.095   7.566   2.401
 6005W        W 9524   5.111   8.502  11.807
 6006W        W 9525   9.832   8.860  11.304
 6007W        W 9526   7.623   3.984  11.325
 6008W        W 9527   4.484   4.156  10.212
 6009W        W 9528   7.010   8.267   9.876
 6010W        W 9529   9.798   3.422   1.088
 6011W        W 9530   3.719   9.788   2.769
 6012W        W 9531   8.866   3.838  10.463
 6013W        W 9532   9.948   4.889   3.365
 6014W        W 9533   4.968   9.037   3.104
 6015W        W 9534   8.978   0.335  11.528
 6016W        W 9535   2.720   2.890   9.921
 6017W        W 9536   9.068   3.018  10.897
 6018W        W 9537   9.325   2.301   2.717
 6019W        W 9538   1.452   1.000   3.736
 6020W        W 9539   0.349   8.848   1.893
 6021W        W 9540   9.350   2.255   2.213
 6022W        W 9541   3.664   0.683   8.736
 6023W        W 9542   0.406   2.656   8.747
 6024W        W 9543   8.776   0.660   1.169
 6025W        W 9544   6.189   7.133   1.705
 6026W        W 9545   6.470   2.862   1.817
 6027W        W 9546   8.281   0.498   9.586
 6028W        W 9547   7.174   9.984   0.390
 6029W        W 9548   4.936   2.277  11.286
 6030W        W 9549   4.092   5.318  10.456
 6031W        W 9550   5.457   8.275   3.542
 6032W        W 9551   7.993   6.069   2.481
 6033W        W 9552   9.755   6.642   1.861
 6034W        W 9553   7.793   8.615  10.795
 6035W        W 9554   5.654   6.250   0.450
 6036W        W 9555   5.006   1.689  10.907
 6037W        W 9556   7.120   2.847   2.383
 6038W        W 9557   9.801   4.380  11.232
 6039W        W 9558   7.999   5.832   3.387
 6040W        W 9559   6.753   6.445   2.228
 6041W        W 9560   2.615   8.200   9.889
 6042W        W 9561   4.382   5.536   1.416
 6043W        W 9562   4.320   6.439   4.009
 6044W        W 9563   3.779   1.608  10.372
 6045W        W 9564   3.074   7.199   2.028
 6046W        W 9565   2.557   7.892   8.912
 6047W        W 9566   4.705   8.502   0.779
 6048W        W 9567   2.952   1.594   0.950
 6049W        W 9568   4.073   3.222   0.394
 6050W        W 9569   3.513   2.319   1.847
 6051W        W 9570   0.276   8.615   1.037
 6052W        W 9571   1.211   8.004   0.302
 6053W        W 9572   4.524   4.500  11.427
 6054W        W 9573   2.127   2.884   0.977
 6055W        W 9574   9.946   5.937   2.875
 6056W        W 9575   0.898   4.496  10.411
 6057W        W 9576   4.986   4.210   9.462
 6058W        W 9577   3.278   8.860   1.759
 6059W        W 9578   0.354   8.145   1.200
 6060W        W 9579   2.194   5.887   1.442
 6061W        W 9580   0.972   1.584   9.441
 6062W        W 9581   1.395   2.190   8.578
 6063W        W 9582   4.576   8.719   9.247
 6064W        W 9583   5.573   2.966   3.654
 6065W        W 9584   0.816   8.723   9.663
 6066W        W 9585   0.800   8.238   9.803
 6067W        W 9586   8.768   9.036  11.691
 6068W        W 9587   0.463   3.726   3.109
 6069W        W 9588   4.659   3.758   4.010
 6070W        W 9589   5.707   2.527   8.573
 6071W        W 9590   0.542   9.824   0.462
 6072W        W 9591   2.438   1.713   1.627
 6073W        W 9592   6.464   5.611   8.711
 6074W        W 9593   0.069   4.365   2.165
 6075W        W 9594   0.318   8.101   9.733
 6076W        W 9595   6.927   3.076   1.958
 6077W        W 9596   3.069   7.997   9.708
 6078W        W 9597   8.037   0.910   0.359
 6079W        W 9598   7.088   0.221  10.157
 6080W        W 9599   5.539   3.496   2.728
 6081W        W 9600   7.899   2.829   0.726
 6082W        W 9601   2.265   6.295   9.585
 6083W        W 9602   6.722   3.110   9.807
 6084W        W 9603   5.717   3.200   1.574
 6085W        W 9604   0.599   4.364   2.205
 6086W        W 9605   6.528   7.364  10.301
 6087W        W 9606   0.222   5.090   9.699
 6088W        W 9607   9.827   2.619   0.187
 6089W        W 9608   3.711   4.965   9.686
 6090W        W 9609   7.748   2.712   1.577
 6091W        W 9610   3.262   7.723   3.302
 6092W        W 9611   9.103   1.332   1.768
 6093W        W 9612   7.977   7.360   2.193
 6094W        W 9613   9.302   1.070   9.831
 6095W        W 9614   7.946   1.825  10.751
 6096W        W 9615   5.267   2.913   9.284
 6097W        W 9616   3.149   0.427   1.909
 6098W        W 9617   1.501   0.912   3.235
 6099W        W 9618   1.325   9.351   3.194
 6100W        W 9619   5.033   3.704   2.713
 6101W        W 9620   5.710   9.914   0.004
 6102W        W 9621   1.362   1.694   2.106
 6103W        W 9622   6.668   5.560   9.703
 6104W        W 9623   3.788   1.854   3.327
 6105W        W 9624   9.818   5.270   8.815
 6106W        W 9625   2.367   2.247   2.984
 6107W        W 9626   6.639   7.541   2.161
 6108W        W 9627   2.138   8.201  11.171
 6109W        W 9628   6.018   5.841  11.226
 6110W        W 9629   8.072   8.926  11.792
 6111W        W 9630   2.758   9.888   1.823
 6112W        W 9631   0.092   7.350   9.372
 6113W        W 9632   1.843   8.503   8.879
 6114W        W 9633   3.591   1.419   1.678
 6115W        W 9634   0.209   3.818   0.321
 6116W        W 9635   2.555   4.182   3.116
 6117W        W 9636   4.755   4.463   8.319
 6118W        W 9637   1.800   6.669   1.296
 6119W        W 9638   1.509   1.322   0.269
 6120W        W 9639   8.120   2.354   1.357
 6121W        W 9640   6.156   9.053   8.931
 6122W        W 9641   6.744   3.713   1.986
 6123W        W 9642   3.790   5.484   0.664
 6124W        W 9643   5.065   9.657  10.081
 6125W        W 9644   1.501   6.231  10.557
 6126W        W 9645   4.499   8.089   3.205
 6127W        W 9646   0.440   5.071  11.127
 6128W        W 9647   7.894   9.975   3.781
 6129W        W 9648   6.938   3.617  11.518
 6130W        W 9649   6.278   4.161  11.968
 6131W        W 9650   8.055   4.320   1.027
 6132W        W 9651   5.945   1.326  11.267
 6133W        W 9652   4.820   6.395   2.787
 6134W        W 9653   5.675   8.891   1.413
 6135W        W 9654   0.416   6.628   0.425
 6136W        W 9655   1.169   6.578   2.334
 6137W        W 9656   9.623   1.858   2.383
 6138W        W 9657   7.366   6.099   0.701
 6139W        W 9658   4.007   1.086  10.554
 6140W        W 9659   0.825   5.651   9.316
 6141W        W 9660   9.981   1.943   3.213
 6142W        W 9661   0.533   5.204   9.307
 6143W        W 9662   1.732   3.287  11.846
 6144W        W 9663   5.169   5.551   9.337
 6145W        W 9664   5.953   3.759   3.633
 6146W        W 9665   8.843   5.319   3.037
 6147W        W 9666   1.867   4.544   0.439
 6148W        W 9667   2.557   8.751  11.810
 6149W        W 9668   6.577   0.233   3.110
 6150W        W 9669   7.370   3.600  10.486
 6151W        W 9670   9.404   2.760   3.200
 6152W        W 9671   8.900   3.488  10.951
 6153W        W 9672   1.693   8.079  11.512
 6154W        W 9673   7.517   0.302   2.867
 6155W        W 9674   6.497   8.713   9.137
 6156W        W 9675   1.068   9.071   1.203
 6157W        W 9676   9.899   4.276   8.845
 6158W        W 9677   8.040   6.711  11.349
 6159W        W 9678   0.402   5.013  11.805
 6160W        W 9679   1.893   4.650   2.222
 6161W        W 9680   9.924   2.864   8.818
 6162W        W 9681   0.572   0.902  10.471
 6163W        W 9682   4.490   9.774   2.044
 6164W        W 9683   6.254   1.360  10.266
 6165W        W 9684   9.322   2.659   0.035
 6166W        W 9685   1.022   9.874  11.548
 6167W        W 9686   6.432   0.272   1.628
 6168W        W 9687   6.362   5.184  10.293
 6169W        W 9688   9.515   3.583   2.699
 6170W        W 9689   6.416   2.972   3.008
 6171W        W 9690   6.990   1.153   0.774
 6172W        W 9691   6.660   6.068  10.669
 6173W        W 9692   3.107   4.694   2.929
 6174W        W 9693   2.626   9.944   0.230
 6175W        W 9694   1.966   7.841   1.035
 6176W        W 9695   1.214   9.998  11.081
 6177W        W 9696   9.347   7.452   0.781
 6178W        W 9697   3.339   0.794   2.678
 6179W        W 9698   1.876   1.027   1.716
 6180W        W 9699   7.095   3.222  10.242
 6181W        W 9700   8.923   2.620  11.205
 6182W        W 9701   4.381   0.353   1.404
 6183W        W 9702   7.052   4.164  10.339
 6184W        W 9703   5.047   8.335   2.439
 6185W        W 9704   3.453   7.439   1.658
 6186W        W 9705   0.384   6.881  10.852
 6187W        W 9706   4.943   7.332   1.885
 6188W        W 9707   1.803   6.146   9.389
 6189W        W 9708   3.077   6.369   8.112
 6190W        W 9709   0.460   0.927  10.962
 6191W        W 9710   1.932   1.679  11.127
 6192W        W 9711   9.604   9.471   2.285
 6193W        W 9712   9.632   9.404   9.143
 6194W        W 9713   9.290   3.091  11.506
 6195W        W 9714   7.289   5.127   1.943
 6196W        W 9715   3.549   3.571  10.245
 6197W        W 9716   0.777   2.123   1.039
 6198W        W 9717   8.899   5.136   2.156
 6199W        W 9718   7.586   7.241  10.805
 6200W        W 9719   3.342   5.417   4.097
 6201W        W 9720   8.653   5.320   9.015
 6202W        W 9721   4.708   6.376  11.836
 6203W        W 9722   2.045   5.031   1.342
 6204W        W 9723   4.611   9.752   8.882
 6205W        W 9724   7.058   3.612   2.807
 6206W        W 9725   4.606   0.649   9.298
 6207W        W 9726   1.348   1.099  11.839
 6208W        W 9727   7.344   0.613   8.544
 6209W        W 9728   1.874   1.317   9.980
 6210W        W 9729   8.515   9.316  10.935
 6211W        W 9730   2.225   1.744  10.438
 6212W        W 9731   8.529   7.125   9.185
 6213W        W 9732   8.477   3.611  10.703
 6214W        W 9733   2.252   9.370   8.964
 6215W        W 9734   2.635   2.505   1.326
 6216W        W 9735   1.700   3.782   3.316
 6217W        W 9736   4.689   7.805   2.798
 6218W        W 9737   5.155   7.970   1.596
 6219W        W 9738   3.365   3.053  11.746
 6220W        W 9739   5.634   1.012   2.566
 6221W        W 9740   3.684   7.819   3.007
 6222W        W 9741   1.787   6.152   2.192
 6223W        W 9742   7.732   2.101  11.162
 6224W        W 9743   4.575   0.110   9.321
 6225W        W 9744   3.581   3.382  11.370
 6226W        W 9745   8.323   7.997   3.482
 6227W        W 9746   1.474   7.851   3.146
 6228W        W 9747   3.454   7.158   9.097
 6229W        W 9748   0.869   0.299   1.403
 6230W        W 9749   5.763   5.058   9.657
 6231W        W 9750   7.998   8.798   9.066
 6232W        W 9751   5.287   4.061   8.469
 6233W        W 9752   6.150   7.328   9.043
 6234W        W 9753   3.093   2.343   1.530
 6235W        W 9754   7.204   1.462   0.289
 6236W        W 9755   2.885   6.573   1.835
 6237W        W 9756   7.882   0.679   2.804
 6238W        W 9757   4.998   5.723   3.897
 6239W        W 9758   2.397   3.035   1.403
 6240W        W 9759   5.450   4.002   2.016
 6241W        W 9760   8.474   7.528  10.329
 6242W        W 9761   7.546   7.631   3.232
 6243W        W 9762   2.670   6.050   3.097
 6244W        W 9763   4.621   0.880   9.762
 6245W        W 9764   5.226   9.815  11.812
 6246W        W 9765   0.434   7.019   9.235
 6247W        W 9766   6.485   3.662   1.250
 6248W        W 9767   6.204   4.986   3.273
 6249W        W 9768   6.587   4.025  10.141
 6250W        W 9769   5.598   8.940   2.317
 6251W        W 9770   0.725   1.689   0.788
 6252W        W 9771   2.518   0.423  10.782
 6253W        W 9772   4.882   3.274   1.033
 6254W        W 9773   0.898   4.865  10.044
 6255W        W 9774   3.153   8.389   1.604
 6256W        W 9775   0.826   3.130   9.161
 6257W        W 9776   6.152   4.530   2.148
 6258W        W 9777   5.637   0.974   8.554
 6259W        W 9778   9.382   4.373   9.900
 6260W        W 9779   1.937   0.905   3.643
 6261W        W 9780   4.634   8.804   3.578
 6262W        W 9781   9.955   8.457   0.040
 6263W        W 9782   7.614   5.833  11.546
 6264W        W 9783   2.543   1.705   0.627
 6265W        W 9784   6.963   2.882   9.397
 6266W        W 9785   9.442   8.733   3.282
 6267W        W 9786   9.962   4.356   2.668
 6268W        W 9787   0.935   8.314   3.625
 6269W        W 9788   0.385   5.701  10.023
 6270W        W 9789   4.775   7.213   9.634
 6271W        W 9790   9.398   1.389   3.244
 6272W        W 9791   2.551   4.216  10.912
 6273W        W 9792   9.456   6.078   3.052
 6274W        W 9793   4.167   2.313   9.748
 6275W        W 9794   3.522   5.069  11.926
 6276W        W 9795   3.175   6.560   2.657
 6277W        W 9796   3.504   6.093   4.083
 6278W        W 9797   0.363   8.596   9.822
 6279W        W 9798   3.144   9.422  11.523
 6280W        W 9799   4.427   3.715   3.435
 6281W        W 9800   9.234   9.427   1.398
 6282W        W 9801   8.288   1.010  10.674
 6283W        W 9802   0.351   8.707  11.666
 6284W        W 9803   3.328   6.120  10.567
 6285W        W 9804   4.085   5.103   2.049
 6286W        W 9805   7.384   5.896  11.054
 6287W        W 9806   7.867   2.822   0.202
 6288W        W 9807   7.261   9.172   1.857
 6289W        W 9808   1.855   6.941  10.830
 6290W        W 9809   4.222   1.911  10.419
 6291W        W 9810   6.451   3.213   0.328
 6292W        W 9811   8.187   9.918   0.573
 6293W        W 9812   1.738   0.869   0.331
 6294W        W 9813   9.475   1.002   1.882
 6295W        W 9814   5.522   9.616   9.251
 6296W        W 9815   4.522   7.566  10.531
 6297W        W 9816   0.423   7.904   1.953
 6298W        W 9817   5.953   6.168   2.040
 6299W        W 9818   6.609   0.691   2.842
 6300W        W 9819   2.256   9.856  10.477
 6301W        W 9820   3.144   5.504  11.265
 6302W        W 9821   7.636   2.208   9.473
 6303W        W 9822   9.659   4.052   1.902
 6304W        W 9823   3.093   8.481   8.536
 6305W        W 9824   7.258   3.583   8.660
 6306W        W 9825   8.365   5.189   1.389
 6307W        W 9826   8.174   9.745   8.894
 6308W        W 9827   1.411   3.202   1.048
 6309W        W 9828   5.550   7.625   9.400
 6310W        W 9829   7.782   3.318   0.318
 6311W        W 9830   3.167   4.074  11.950
 6312W        W 9831   6.325   5.037   2.001
 6313W        W 9832   8.281   9.355   1.230
 6314W        W 9833   8.267   8.925   9.483
 6315W        W 9834   9.905   1.313   2.506
 6316W        W 9835   7.221   3.138   9.753
 6317W        W 9836   7.911   1.094   3.156
 6318W        W 9837   1.844   9.528  11.624
 6319W        W 9838   2.106   8.304   9.907
 6320W        W 9839   5.092   4.131   8.956
 6321W        W 9840   4.236   1.569   0.754
 6322W        W 9841   2.644   5.143  11.753
 6323W        W 9842   1.672   2.167   0.543
 6324W        W 9843   0.864   4.703   1.904
 6325W        W 9844   7.424   9.480   8.535
 6326W        W 9845   9.355   1.603  10.456
 6327W        W 9846   8.281   0.484   1.302
 6328W        W 9847   1.173   2.642  11.880
 6329W        W 9848   9.049   1.885   9.306
 6330W        W 9849   1.707   2.505   3.470
 6331W        W 9850   2.696   3.470  10.200
 6332W        W 9851   3.470   5.872   1.903
 6333W        W 9852   8.929   7.805  10.271
 6334W        W 9853   6.076   2.141   8.432
 6335W        W 9854   7.255   1.783  11.092
 6336W        W 9855   6.852   9.572   2.667
 6337W        W 9856   5.587   8.395  10.876
 6338W        W 9857   2.911   1.347   0.483
 6339W        W 9858   5.141   9.687  10.925
 6340W        W 9859   0.295   8.538   8.564
 6341W        W 9860   4.287   9.697   2.766
 6342W        W 9861   3.529   9.685   2.311
 6343W        W 9862   0.201   3.828  11.431
 6344W        W 9863   8.867   7.005   2.128
 6345W        W 9864   4.187   1.264   9.760
 6346W        W 9865   7.357   6.652   3.460
 6347W        W 9866   1.286   1.921   0.326
 6348W        W 9867   6.540   9.511   9.986
 6349W        W 9868   4.937   2.205   9.886
 6350W        W 9869   4.930   5.920   9.066
 6351W        W 9870   7.474   0.447   1.096
 6352W        W 9871   8.743   0.813   3.048
 6353W        W 9872   8.068   6.620   1.667
 6354W        W 9873   1.427   9.216   9.281
 6355W        W 9874   1.733   5.749  10.416
 6356W        W 9875   6.869   6.083   3.257
 6357W        W 9876   3.012   5.315   8.531
 6358W        W 9877   6.446   3.177  10.947
 6359W        W 9878   5.494   0.209  10.387
 6360W        W 9879   1.306   3.275   2.689
 6361W        W 9880   5.124   2.018   0.671
 6362W        W 9881   3.244   6.789   0.318
 6363W        W 9882   1.822   3.751   1.748
 6364W        W 9883   0.374   5.677   1.200
 6365W        W 9884   4.632   1.041  10.251
 6366W        W 9885   7.372   5.220   0.692
 6367W        W 9886   1.066   3.614   1.079
 6368W        W 9887   3.446   8.484   0.858
 6369W        W 9888   4.355   2.893   3.536
 6370W        W 9889   2.261   0.845  10.244
 6371W        W 9890   3.082   8.002  10.536
 6372W        W 9891   9.845   8.651   0.507
 6373W        W 9892   2.843   6.711  11.872
 6374W        W 9893   6.125   0.547   9.893
 6375W        W 9894   8.763   0.874  10.859
 6376W        W 9895   7.999   2.568   1.991
 6377W        W 9896   2.539   0.151  11.769
 6378W        W 9897   9.769   2.572   1.253
 6379W        W 9898   2.900   6.933   0.733
 6380W        W 9899   2.337   1.734   2.958
 6381W        W 9900   8.965   3.416   9.627
 6382W        W 9901   0.645   6.352   3.469
 6383W        W 9902   6.061   9.216   0.756
 6384W        W 9903   6.431   9.384  10.893
 6385W        W 9904   5.122   4.017   3.783
 6386W        W 9905   9.964   2.333   8.908
 6387W        W 9906   4.033   8.303   2.959
 6388W        W 9907   0.249   6.728   2.615
 6389W        W 9908   2.176   5.347   0.177
 6390W        W 9909   4.867   6.676  11.460
 6391W        W 9910   0.005   1.372   1.317
 6392W        W 9911   7.990   3.325   0.815
 6393W        W 9912   5.513   1.213  10.110
 6394W        W 9913   8.394   5.979  10.726
 6395W        W 9914   8.587   5.007  11.376
 6396W        W 9915   7.011   6.397  10.467
 6397W        W 9916   8.097   7.713   0.826
 6398W        W 9917   4.798   4.603  11.936
 6399W        W 9918   4.033   1.319   9.289
 6400W        W 9919   7.378   2.388   1.753
 6401W        W 9920   2.435   7.855   0.840
 6402W        W 9921   5.120   2.413   9.325
 6403W        W 9922   8.059   0.884   9.358
 6404W        W 9923   7.154   0.821  11.164
 6405W        W 9924   1.729   0.589   2.833
 6406W        W 9925   0.833   1.618   3.447
 6407W        W 9926   6.580   8.602  11.852
 6408W        W 9927   9.322   8.993   9.393
 6409W        W 9928   3.021   0.206  11.976
 6410W        W 9929   1.590   6.597   1.983
 6411W        W 9930   7.553   1.606   9.491
 6412W        W 9931   1.151   5.072   2.702
 6413W        W 9932   8.646   6.678   0.624
 6414W        W 9933   2.340   2.803  10.448
 6415W        W 9934   9.174   2.895  10.408
 6416W        W 9935   0.950   6.842   1.387
 6417W        W 9936   5.799   0.858  11.413
 6418W        W 9937   3.986   0.761   0.904
 6419W        W 9938   7.365   8.917   2.309
 6420W        W 9939   3.187   9.372   0.022
 6421W        W 9940   1.592   6.298  11.717
 6422W        W 9941   3.076   3.671   9.358
 6423W        W 9942   6.903   6.671  10.975
 6424W        W 9943   2.326   2.488   0.032
 6425W        W 9944   9.781   4.585   9.251
 6426W        W 9945   2.454   8.681  10.060
 6427W        W 9946   4.497   4.353   0.275
 6428W        W 9947   1.349   3.720   2.961
 6429W        W 9948   9.360   2.114  11.158
 6430W        W 9949   5.977   2.950   0.280
 6431W        W 9950   5.680   5.826  10.827
 6432W        W 9951   0.755   3.164  10.979
 6433W        W 9952   2.753   9.673   0.645
 6434W        W 9953   8.428   4.354   8.831
 6435W        W 9954   7.644   6.063  10.392
 6436W        W 9955   0.751   8.610  10.182
 6437W        W 9956   3.241   2.682   2.772
 6438W        W 9957   9.436   0.132  11.378
 6439W        W 9958   2.702   9.426   0.202
 6440W        W 9959   8.220   1.739   8.966
 6441W        W 9960   5.928   3.150  10.995
 6442W        W 9961   9.510   5.764   0.259
 6443W        W 9962   0.021   0.465   3.233
 6444W        W 9963   7.593   1.892   2.507
 6445W        W 9964   8.147   3.204  11.939
 6446W        W 9965   1.637   8.426   9.710
 6447W        W 9966   7.985   1.589   9.833
 6448W        W 9967   1.230   5.796  10.432
 6449W        W 9968   8.475   5.509  10.217
 6450W        W 9969   8.325   5.845  11.792
 6451W        W 9970   9.613   2.387  10.367
 6452W        W 9971   4.709   0.175   3.230
 6453W        W 9972   8.638   5.608   2.036
 6454W        W 9973   8.912   0.456   2.309
 6455W        W 9974   2.886   1.873   1.398
 6456W        W 9975   1.956   3.199   0.353
 6457W        W 9976   3.334   7.432   9.692
 6458W        W 9977   2.084   2.927  11.943
 6459W        W 9978   3.947   4.298   8.152
 6460W        W 9979   5.752   1.998   3.535
 6461W        W 9980   9.556   3.128  10.158
 6462W        W 9981   8.779   1.327  11.613
 6463W        W 9982   0.412   6.204   1.225
 6464W        W 9983   1.264   7.554   0.515
 6465W        W 9984   0.966   6.236  10.499
 6466W        W 9985   8.030   4.432   1.514
 6467W        W 9986   2.426   1.232   2.903
 6468W        W 9987   0.921   1.629  11.245
 6469W        W 9988   0.060   8.204   2.740
 6470W        W 9989   1.553   4.933   0.634
 6471W        W 9990   3.360   9.421   2.716
 6472W        W 9991   7.387   2.307   2.750
 6473W        W 9992   1.576   4.263   2.028
 6474W        W 9993   3.559   7.600   1.153
 6475W        W 9994   9.162   5.051   0.208
 6476W        W 9995   6.904   0.923  10.746
 6477W        W 9996   4.321   9.835   9.674
 6478W        W 9997   3.691   1.780  10.860
 6479W        W 9998   0.747   6.703   9.499
 6480W        W 9999   6.522   9.416   9.085
 6481W        W10000   2.627   4.989  10.282
 6482W        W10001   5.741   5.764   1.768
 6483W        W10002   2.813   8.370   8.942
 6484W        W10003   4.202   7.107   0.981
 6485W        W10004   6.464   2.349   1.879
 6486W        W10005   8.302   7.977   9.109
 6487W        W10006   5.936   2.194  11.549
 6488W        W10007   8.332   4.090   2.786
 6489W        W10008   5.195   7.472   1.407
 6490W        W10009   3.088   5.719   2.264
 6491W        W10010   1.810   7.266   3.231
 6492W        W10011   9.370   9.613   1.850
 6493W        W10012   5.231   6.925   1.950
 6494W        W10013   0.154   5.395   0.035
 6495W        W10014   8.554   0.706   0.427
 6496W        W10015   0.116   5.009   1.737
 6497W        W10016   7.829   1.485   8.720
 6498W        W10017   7.164   8.180   0.654
 6499W        W10018   9.220   6.237   1.208
 6500W        W10019   0.463   8.549   3.666
 6501W        W10020   8.005   7.794  10.063
 6502W        W10021   2.388   7.528   9.359
 6503W        W10022   3.196   5.205   8.991
 6504W        W10023   6.072   7.698   9.405
 6505W        W10024   2.909   8.889  11.442
 6506W        W10025   2.946   5.125   0.755
 6507W        W10026   5.105   0.670   0.929
 6508W        W10027   2.285   3.970  11.997
 6509W        W10028   5.637   4.990   0.847
 6510W        W10029   0.927   9.491  10.612
 6511W        W10030   7.466   1.152   3.453
 6512W        W10031   2.299   4.320   9.142
 6513W        W10032   5.019   9.951  10.496
 6514W        W10033   9.874   7.699  10.279
 6515W        W10034   5.844   1.537   0.111
 6516W        W10035   4.967   2.469  10.329
 6517W        W10036   5.998   3.857   9.167
 6518W        W10037   6.797   1.082  11.424
 6519W        W10038   7.618   3.666   0.939
 6520W        W10039   6.138   0.407   2.954
 6521W        W10040   4.246   7.985   0.629
 6522W        W10041   9.980   3.023   1.357
 6523W        W10042   2.662   0.832   9.105
 6524W        W10043   2.643   5.937   2.292
 6525W        W10044   5.666   7.694   0.405
 6526W        W10045   2.593   5.588  11.995
 6527W        W10046   6.153   9.816  10.865
 6528W        W10047   7.476   8.157   3.444
 6529W        W10048   9.420   4.602   8.893
 6530W        W10049   5.479   6.897   2.424
 6531W        W10050   1.612   7.858   8.959
 6532W        W10051   7.663   5.855   8.764
 6533W        W10052   5.465   9.344  11.695
 6534W        W10053   9.392   7.884  10.498
 6535W        W10054   9.013   4.091   0.085
 6536W        W10055   1.618   8.077   8.493
 6537W        W10056   8.075   8.866   1.377
 6538W        W10057   1.423   3.935  11.964
 6539W        W10058   4.718   4.521   8.851
 6540W        W10059   2.966   8.461   9.438
 6541W        W10060   2.767   4.156   9.355
 6542W        W10061   1.460   2.549  10.816
 6543W        W10062   2.218   5.786   9.561
 6544W        W10063   1.811   4.720  11.774
 6545W        W10064   8.077   2.798  11.176
 6546W        W10065   3.884   0.914   0.316
 6547W        W10066   3.666   3.344   3.209
 6548W        W10067   9.637   7.571   9.459
 6549W        W10068   5.652   6.403   3.641
 6550W        W10069   8.520   6.783   9.635
 6551W        W10070   7.671   6.124   8.318
 6552W        W10071   2.201   0.372   0.926
 6553W        W10072   3.179   9.498  11.029
 6554W        W10073   9.797   0.855   2.245
 6555W        W10074   4.469   0.230  11.848
 6556W        W10075   3.631   9.322  11.775
 6557W        W10076   7.414   3.283   1.239
 6558W        W10077   8.612   3.960   3.639
 6559W        W10078   0.066   9.019   9.852
 6560W        W10079   4.390   6.125   8.377
 6561W        W10080   1.812   9.540   9.202
 6562W        W10081   2.720   2.659   9.068
 6563W        W10082   3.670   7.078   0.454
 6564W        W10083   5.306   5.555   2.608
 6565W        W10084   7.741   5.329  11.164
 6566W        W10085   7.489   7.076   2.113
 6567W        W10086   5.010   6.046   2.448
 6568W        W10087   7.189   3.749  11.057
 6569W        W10088   9.982   3.630   1.971
 6570W        W10089   4.608   0.538  10.157
 6571W        W10090   5.595   3.001   2.652
 6572W        W10091   2.726   2.533  10.280
 6573W        W10092   9.665   9.290  11.541
 6574W        W10093   5.367   5.396   3.597
 6575W        W10094   9.654   7.535  11.245
 6576W        W10095   6.800   5.008   1.825
 6577W        W10096   7.628   2.741   2.558
 6578W        W10097   8.798   0.440   9.575
 6579W        W10098   7.496   7.910   1.451
 6580W        W10099   2.436   8.413  10.825
 6581W        W10100   4.772   3.825  10.881
 6582W        W10101   6.446   1.200  12.000
 6583W        W10102   7.173   9.884  11.888
 6584W        W10103   3.498   5.535   8.392
 6585W        W10104   5.177   0.878   0.437
 6586W        W10105   5.385   8.431   8.255
 6587W        W10106   0.742   0.333  11.581
 6588W        W10107   4.814   6.129  10.688
 6589W        W10108   9.751   5.668   3.304
 6590W        W10109   6.069   0.585   1.005
 6591W        W10110   0.344   7.092   2.259
 6592W        W10111   4.623   3.209   0.176
 6593W        W10112   5.031   5.246   2.326
 6594W        W10113   6.290   9.379   3.301
 6595W        W10114   2.581   5.612   1.915
 6596W        W10115   1.232   2.590   1.703
 6597W        W10116   4.211   2.993  11.958
 6598W        W10117   4.750   5.715  11.495
 6599W        W10118   7.638   4.883   3.346
 6600W        W10119   6.799   2.906   1.442
 6601W        W10120   7.628   4.857   2.810
 6602W        W10121   5.481   8.165   0.345
 6603W        W10122   4.068   4.110   9.898
 6604W        W10123   4.512   9.576  10.295
 6605W        W10124   1.827   9.334  10.105
 6606W        W10125   9.594   6.243   1.570
 6607W        W10126   8.912   7.468   9.020
 6608W        W10127   2.566   4.152   1.761
 6609W        W10128   2.802   4.321   2.682
 6610W        W10129   3.326   3.828   2.029
 6611W        W10130   3.967   0.249   3.641
 6612W        W10131   5.367   5.552  11.123
 6613W        W10132   9.190   2.705   2.423
 6614W        W10133   5.622   3.804  11.241
 6615W        W10134   4.845   0.409   2.429
 6616W        W10135   5.762   1.375   1.590
 6617W        W10136   2.770   5.101  10.757
 6618W        W10137   0.313   8.454   0.542
 6619W        W10138   1.797   1.929   1.826
 6620W        W10139   7.279   2.188  11.398
 6621W        W10140   7.015   4.462   0.381
 6622W        W10141   0.754   6.644  11.487
 6623W        W10142   4.483   5.868   9.370
 6624W        W10143   1.440   9.821  11.835
 6625W        W10144   4.916   1.146   1.095
 6626W        W10145   1.639   5.753  11.883
 6627W        W10146   0.528   2.295   9.559
 6628W        W10147   8.569   0.224  10.853
 6629W        W10148   5.537   9.622   3.261
 6630W        W10149   0.813   7.397  10.010
 6631W        W10150   0.745   1.340  10.846
 6632W        W10151   4.180   2.021   0.009
 6633W        W10152   8.371   5.422   3.265
 6634W        W10153   7.351   1.409   2.507
 6635W        W10154   7.192   4.710   2.212
 6636W        W10155   4.589   4.606  10.518
 6637W        W10156   3.971   7.258   2.371
 6638W        W10157   5.375   8.443   1.609
 6639W        W10158   7.965   8.053  10.514
 6640W        W10159   4.207   3.439   8.709
 6641W        W10160   0.896   6.898   9.950
 6642W        W10161   7.897   6.076   0.730
 6643W        W10162   1.747   9.066   3.322
 6644W        W10163   3.820   7.623  10.711
 6645W        W10164   5.062   6.700   9.534
 6646W        W10165   5.025   1.170  10.878
 6647W        W10166   7.054   7.796   2.271
 6648W        W10167   9.978   8.572   9.005
 6649W        W10168   1.646   3.409   3.652
 6650W        W10169   3.889   7.502   3.372
 6651W        W10170   6.980   8.609   8.948
 6652W        W10171   6.028   8.149  11.730
 6653W        W10172   5.806   4.084   3.014
 6654W        W10173   4.859   5.063   0.918
 6655W        W10174   0.165   3.652   9.248
 6656W        W10175   5.035   8.536   0.304
 6657W        W10176   0.536   7.648  11.362
 6658W        W10177   4.558   9.366   0.251
 6659W        W10178   1.368   7.144  10.816
 6660W        W10179   2.415   9.668   8.570
 6661W        W10180   4.713   1.872   0.932
 6662W        W10181   5.950   3.442   0.303
 6663W        W10182   4.402   4.036   8.211
 6664W        W10183   5.525   0.952   9.655
 6665W        W10184   8.342   6.201   1.632
 6666W        W10185   8.399   3.679   1.372
 6667W        W10186   1.659   6.567   2.481
 6668W        W10187   0.330   2.237   0.804
 6669W        W10188   4.824   5.448  10.955
 6670W        W10189   1.246   0.718   2.820
 6671W        W10190   9.213   9.212   2.508
 6672W        W10191   6.735   2.187   1.483
 6673W        W10192   1.673   8.038   0.081
 6674W        W10193   5.966   3.622   1.239
 6675W        W10194   2.088   7.985  10.704
 6676W        W10195   1.807   1.213   1.234
 6677W        W10196   8.149   8.401   0.432
 6678W        W10197   0.675   5.343   3.427
 6679W        W10198   2.179   5.502   1.057
 6680W        W10199   6.366   4.045  11.089
 6681W        W10200   5.896   7.226   2.698
 6682W        W10201   0.383   0.436   2.440
 6683W        W10202   1.095   8.990  10.009
 6684W        W10203   3.363   9.721   1.210
 6685W        W10204   6.682   0.695   3.358
 6686W        W10205   4.083   9.814  10.128
 6687W        W10206   4.598   6.009  10.249
 6688W        W10207   0.537   7.971   3.607
 6689W        W10208   2.587   4.474  10.291
 6690W        W10209   6.157   5.697   2.051
 6691W        W10210   6.201   2.664   8.521
 6692W        W10211   3.604   4.817  10.672
 6693W        W10212   0.953   7.996   3.218
 6694W        W10213   8.017   5.565   2.911
 6695W        W10214   3.650   6.843   0.009
 6696W        W10215   2.880   1.362   9.790
 6697W        W10216   7.192   4.807   0.983
 6698W        W10217   6.680   1.721   9.531
 6699W        W10218   7.069   3.174   0.446
 6700W        W10219   6.490   6.986   9.245
 6701W        W10220   6.980   0.338  11.833
 6702W        W10221   7.657   5.936   2.906
 6703W        W10222   0.247   0.593  10.230
 6704W        W10223   3.522   4.065  10.073
 6705ION    NA+10224   4.469   0.493  10.978
 6706ION    NA+10225   7.936   4.217   8.822
 6707ION    NA+10226   6.272   8.423   0.733
 6708ION    NA+10227   3.385   1.628   1.240
 6709ION    NA+10228   3.871   6.191   1.814
 6710ION    NA+10229   2.263   5.732  10.447
 6711ION    NA+10230   4.579   6.515  10.370
 6712ION    NA+10231   6.613   5.042  11.678
 6713ION    NA+10232   9.513   3.076   8.548
 6714ION    NA+10233   4.656   8.757   9.829
 6715ION    NA+10234   6.137   3.661   9.627
 6716ION    NA+10235   4.729   7.882   0.755
 6717ION    NA+10236   7.903   5.612  11.959
 6718ION    NA+10237   0.854   3.159  11.955
 6719ION    NA+10238   0.021   9.970   3.053
 6720ION    NA+10239   7.566   8.956  11.741
 6721ION    NA+10240   1.707   7.043   9.507
 6722ION    NA+10241   4.047   2.381  10.295
 6723ION    NA+10242   3.800   0.194   8.880
 6724ION    NA+10243   3.876   8.471   9.565
 6725ION    NA+10244   6.953   1.210   8.994
 6726ION    NA+10245   3.602   5.500  11.000
 6727ION    NA+10246   7.431   4.096   9.559
 6728ION    NA+10247   5.363   9.259  10.172
 6729ION    NA+10248   6.912   9.537  10.682
 6730ION    NA+10249   3.130   0.934   8.926
 6731ION    NA+10250   0.273   5.419  11.505
 6732ION    NA+10251   9.313   3.419   1.302
 6733ION    NA+10252   8.110   1.605   3.157
 6734ION    NA+10253   2.609   5.043   8.798
 6735ION    NA+10254   6.344   0.871   1.752
 6736ION    NA+10255   8.656   1.378  10.765
 6737ION    NA+10256   5.345   8.694   2.663
 6738ION    NA+10257   1.866   4.695   1.717
 6739ION    NA+10258   7.292   9.368   2.834
 6740ION    NA+10259   1.747   9.743   0.434
 6741ION    NA+10260   7.915   7.891   2.231
 6742ION    NA+10261   2.767   6.766   2.333
 6743ION    NA+10262   1.557   6.591   0.836
 6744ION    NA+10263   1.339   8.626   1.111
 6745ION    NA+10264   2.154   5.912   0.017
 6746ION    NA+10265   8.166   4.792   2.155
 6747ION    NA+10266   8.896   9.009  10.263
 6748ION    NA+10267   8.396   7.998  11.971
 6749ION    NA+10268   8.425   8.022   1.619
 6750ION    NA+10269   6.005   6.665   3.987
 6751ION    NA+10270   4.220   9.473   1.010
 6752ION    NA+10271   0.904   3.252   9.653
 6753ION    NA+10272   1.367   0.508   3.703
 6754ION    NA+10273   4.109   5.530   2.384
 6755ION    NA+10274   8.683   2.741   1.243
 6756ION    NA+10275   6.404   8.463   2.257
 6757ION    NA+10276   7.780   4.842  10.988
 6758ION    NA+10277   4.188   5.271   0.408
 6759ION    NA+10278   0.594   4.907   0.302
 6760ION    NA+10279   1.832   0.127   3.099
 6761ION    NA+10280   3.820   4.963  10.185
 6762ION    NA+10281   9.709   7.901   2.992
 6763ION    NA+10282   5.150   5.832   3.417
 6764ION    NA+10283   3.590   9.593   0.242
 6765ION    NA+10284   0.275   0.443   8.599
 6766ION    NA+10285   8.733   7.963   2.403
 6767ION    NA+10286   3.853   6.304   9.169
 6768ION    NA+10287   4.327   0.392   9.731
 6769ION    NA+10288   8.033   7.862   9.549
 6770ION    NA+10289   2.767   1.882   2.468
 6771ION    NA+10290   3.023   2.709  11.591
 6772ION    NA+10291   7.567   2.571  10.473
 6773ION    NA+10292   2.150   5.767   8.878
 6774ION    NA+10293   5.292   4.564   1.537
 6775ION    NA+10294   6.545   6.964   9.866
 6776ION    CL-10295   8.596   4.720   2.249
 6777ION    CL-10296   0.229   1.197   2.905
 6778ION    CL-10297   5.155   8.830   1.337
 6779ION    CL-10298   6.115   0.535  11.178
 6780ION    CL-10299   4.939   4.642   3.026
 6781ION    CL-10300   6.117   3.889  10.008
 6782ION    CL-10301   1.123   3.637   9.689
 6783ION    CL-10302   2.356   5.371   9.014
 6784ION    CL-10303   3.944   5.855   2.109
 6785ION    CL-10304   1.871   1.801   3.245
 6786ION    CL-10305   6.417   8.556   0.334
 6787ION    CL-10306   4.339   8.467   9.622
 6788ION    CL-10307   4.494   1.563   9.432
 6789ION    CL-10308   2.715   5.345   2.340
 6790ION    CL-10309   0.899   4.686   0.058
 6791ION    CL-10310   7.015   1.018   8.569
 6792ION    CL-10311   7.755   4.127   9.233
 6793ION    CL-10312   4.708   7.712   0.340
 6794ION    CL-10313   2.164   8.522  11.575
 6795ION    CL-10314   4.219   6.689  10.566
 6796ION    CL-10315   2.190   9.127   2.104
 6797ION    CL-10316   7.725   9.194   0.085
 6798ION    CL-10317   9.193   2.697   9.507
 6799ION    CL-10318   5.056   4.252   1.306
 6800ION    CL-10319   1.410   0.007   0.313
 6801ION    CL-10320   9.002   3.063   1.284
 6802ION    CL-10321   3.299   3.662   3.506
 6803ION    CL-10322   5.704   7.309   2.225
 6804ION    CL-10323   3.206   4.906   0.378
 6805ION    CL-10324   0.231   0.522   0.924
 6806ION    CL-10325   6.191   2.396   2.317
 6807ION    CL-10326   4.924   4.973   8.720
 6808ION    CL-10327   9.050   1.238  10.618
 6809ION    CL-10328   7.502   4.317   0.279
 6810ION    CL-10329   7.770   5.139  10.657
 6811ION    CL-10330   5.572   6.698   0.239
 6812ION    CL-10331   0.996   8.700   0.825
 6813ION    CL-10332   0.830   8.358   2.297
 6814ION    CL-10333   6.620   1.511   9.072
 6815ION    CL-10334   1.306   4.535  10.091
 6816ION    CL-10335   0.095   7.709   2.858
 6817ION    CL-10336   4.344   4.675  10.991
 6818ION    CL-10337   4.376   0.064  11.068
 6819ION    CL-10338   3.460   8.662   9.566
 6820ION    CL-10339   3.157   7.284   0.393
 6821ION    CL-10340   2.015   6.016  11.605
 6822ION    CL-10341   2.443   1.575   2.444
 6823ION    CL-10342   5.478   4.921   1.746
 6824ION    CL-10343   8.355   7.979   2.084
 6825ION    CL-10344   7.076   4.117   9.838
 6826ION    CL-10345   9.900   0.699   8.737
 6827ION    CL-10346   5.238   8.613   3.093
 6828ION    CL-10347   5.740   3.188   1.064
 6829ION    CL-10348   6.729   3.384   3.144
 6830ION    CL-10349   7.521   9.948   0.863
 6831ION    CL-10350   8.912   9.309  10.592
 6832ION    CL-10351   8.462   9.209   3.566
 6833ION    CL-10352   3.703   6.715   9.257
 6834ION    CL-10353   0.107   3.807   2.739
 6835ION    CL-10354   6.351   7.814   8.968
 6836ION    CL-10355   4.600   3.346   9.734
 6837ION    CL-10356   5.009   9.034   9.983
 6838ION    CL-10357   5.671   0.255   3.095
 6839ION    CL-10358   5.754   3.603   3.191
 6840ION    CL-10359   5.012   7.594   9.364
 6841ION    CL-10360   9.537   5.710   9.122
 6842ION    CL-10361   9.830   2.491   3.071
 6843ION    CL-10362   2.685   4.686  11.553
 6844ION    CL-10363   7.773   2.545  10.864
 6845ION    CL-10364   1.681   8.572   1.411
 6846ION    CL-10365   9.620   3.718   1.464
  10.00000  10.00000  12.00000
