Protein in INSANE! Membrane UpperLeaflet>POPC=1.0 LowerLeaflet>POPC=1.0
10365
    1AU     AUC    1   5.039   5.102   6.061
    1AU     AUC    2   5.216   5.016   5.787
    1AU     AUC    3   5.337   5.160   6.040
    1AU     AUC    4   4.722   5.076   6.064
    1AU     AUC    5   4.875   5.240   6.317
    1AU     AUC    6   4.865   5.310   6.014
    1AU     AUC    7   5.150   5.266   5.839
    1AU     AUC    8   4.921   4.913   6.282
    1AU     AUC    9   5.248   4.891   6.116
    1AU     AUC   10   5.187   5.097   6.317
    1AU     AUC   11   5.143   5.336   6.193
    1AU     AUC   12   4.954   4.853   5.967
    1AU     AUC   13   4.876   5.077   5.808
    1AU     AUC   14   5.453   4.916   5.496
    1AU     AUC   15   5.561   5.102   5.694
    1AU     AUC   16   5.641   5.306   5.965
    1AU     AUC   17   4.319   5.051   6.036
    1AU     AUC   18   4.480   5.234   6.274
    1AU     AUC   19   4.697   5.417   6.553
    1AU     AUC   20   4.648   5.593   5.915
    1AU     AUC   21   4.900   5.506   5.653
    1AU     AUC   22   5.218   5.477   5.517
    1AU     AUC   23   4.756   4.729   6.505
    1AU     AUC   24   5.113   4.642   6.393
    1AU     AUC   25   5.463   4.684   6.179
    1AU     AUC   26   5.353   5.120   6.635
    1AU     AUC   27   5.375   5.413   6.474
    1AU     AUC   28   5.280   5.643   6.292
    1AU     AUC   29   4.895   4.576   5.887
    1AU     AUC   30   4.763   4.798   5.683
    1AU     AUC   31   4.691   5.018   5.517
    1AU     AUC   32   5.555   5.189   6.336
    1AU     AUC   33   5.477   5.462   6.167
    1AU     AUC   34   5.176   4.716   5.680
    1AU     AUC   35   5.122   4.995   5.477
    1AU     AUC   36   5.001   5.280   6.628
    1AU     AUC   37   4.990   5.567   6.471
    1AU     AUC   38   4.556   4.759   5.939
    1AU     AUC   39   4.489   5.022   5.819
    1AU     AUC   40   5.399   5.220   5.483
    1AU     AUC   41   5.440   5.442   5.747
    1AU     AUC   42   4.460   5.334   5.980
    1AU     AUC   43   4.678   5.555   6.275
    1AU     AUC   44   5.476   4.784   5.830
    1AU     AUC   45   5.598   5.003   6.023
    1AU     AUC   46   4.539   4.890   6.255
    1AU     AUC   47   4.679   5.079   6.537
    1AU     AUC   48   4.923   5.631   6.093
    1AU     AUC   49   5.173   5.601   5.884
    1AU     AUC   50   5.037   4.911   6.590
    1AU     AUC   51   5.393   4.875   6.442
    1AU     AUC   52   4.685   5.300   5.667
    1AU     AUC   53   4.962   5.218   5.456
    1AU     AUC   54   4.827   4.630   6.185
    1AU     AUC   55   5.207   4.604   6.014
    1AU    AUSL   56   5.810   5.181   6.342
    1AU    AUSL   57   5.725   4.967   6.731
    1AU     AUL   58   6.071   4.868   6.669
    1AU       S   59   6.110   5.281   6.891
    1AU     LIG   60   6.213   5.188   7.370
    1AU     LIG   61   5.979   4.922   7.700
    1AU     LIG   62   5.674   4.638   7.960
    1AU       S   63   6.342   4.884   6.238
    1AU     LIG   64   6.778   4.680   5.617
    1AU     LIG   65   6.775   4.829   5.117
    1AU     LIG   66   6.560   5.175   4.885
    1AU    AUSL   67   5.697   5.384   6.717
    1AU    AUSL   68   5.415   5.739   6.697
    1AU     AUL   69   5.762   5.729   6.828
    1AU       S   70   6.139   4.740   6.232
    1AU     LIG   71   6.202   4.140   5.510
    1AU     LIG   72   6.104   4.207   4.866
    1AU     LIG   73   5.645   4.308   4.621
    1AU       S   74   5.120   5.504   7.425
    1AU     LIG   75   4.647   5.495   7.685
    1AU     LIG   76   4.174   5.542   7.757
    1AU     LIG   77   3.791   5.510   7.486
    1AU    AUSL   78   5.693   5.613   6.357
    1AU    AUSL   79   5.577   5.509   5.954
    1AU     AUL   80   5.987   5.163   6.330
    1AU       S   81   6.038   4.646   6.256
    1AU     LIG   82   5.772   4.073   5.687
    1AU     LIG   83   5.383   3.859   5.146
    1AU     LIG   84   5.080   4.242   4.836
    1AU       S   85   5.230   6.006   5.312
    1AU     LIG   86   4.821   5.978   4.784
    1AU     LIG   87   4.915   6.351   4.636
    1AU     LIG   88   5.307   6.182   4.800
    1AU    AUSL   89   5.183   4.729   5.227
    1AU    AUSL   90   4.996   5.083   5.382
    1AU     AUL   91   5.016   4.828   4.985
    1AU       S   92   5.495   4.328   5.312
    1AU     LIG   93   6.126   4.312   5.922
    1AU     LIG   94   6.513   4.552   5.970
    1AU     LIG   95   6.779   4.969   6.006
    1AU       S   96   6.096   5.328   5.408
    1AU     LIG   97   6.197   5.778   5.724
    1AU     LIG   98   5.887   6.153   5.917
    1AU     LIG   99   5.476   6.401   6.053
    1AU    AUSL  100   4.997   4.593   5.591
    1AU    AUSL  101   5.429   4.658   5.588
    1AU     AUL  102   5.065   4.458   5.306
    1AU       S  103   5.949   4.416   5.271
    1AU     LIG  104   6.624   4.225   5.622
    1AU     LIG  105   6.732   4.152   6.124
    1AU     LIG  106   6.791   4.289   6.605
    1AU       S  107   5.454   4.239   5.377
    1AU     LIG  108   5.527   3.763   5.946
    1AU     LIG  109   5.401   3.569   6.416
    1AU     LIG  110   5.323   3.089   6.467
    1AU    AUSL  111   4.700   4.776   5.332
    1AU    AUSL  112   4.612   4.595   5.765
    1AU     AUL  113   4.606   4.518   5.346
    1AU       S  114   4.208   4.342   6.382
    1AU     LIG  115   3.834   4.610   6.735
    1AU     LIG  116   3.471   4.933   6.924
    1AU     LIG  117   3.451   5.401   7.084
    1AU       S  118   5.451   4.424   5.054
    1AU     LIG  119   5.836   4.759   4.796
    1AU     LIG  120   6.178   5.470   4.940
    1AU     LIG  121   6.105   5.866   5.237
    1AU    AUSL  122   5.002   5.595   6.838
    1AU    AUSL  123   5.083   5.779   6.445
    1AU     AUL  124   5.146   5.970   6.743
    1AU       S  125   5.112   5.161   7.392
    1AU     LIG  126   5.413   4.441   7.555
    1AU     LIG  127   5.436   3.969   7.362
    1AU     LIG  128   5.397   3.516   7.151
    1AU       S  129   5.408   5.300   7.091
    1AU     LIG  130   5.608   4.380   7.093
    1AU     LIG  131   5.332   3.932   6.879
    1AU     LIG  132   4.955   3.628   6.845
    1AU    AUSL  133   5.276   5.313   6.681
    1AU    AUSL  134   4.652   5.351   6.784
    1AU     AUL  135   4.954   5.609   6.991
    1AU       S  136   4.260   5.652   6.853
    1AU     LIG  137   4.084   6.289   6.540
    1AU     LIG  138   4.013   6.638   6.140
    1AU     LIG  139   3.943   6.745   5.652
    1AU       S  140   5.051   5.064   7.385
    1AU     LIG  141   4.605   4.442   7.416
    1AU     LIG  142   4.145   4.131   7.475
    1AU     LIG  143   3.937   3.825   7.108
    1AU    AUSL  144   4.260   4.615   6.017
    1AU    AUSL  145   4.539   4.275   6.047
    1AU     AUL  146   4.377   4.345   5.749
    1AU       S  147   4.262   4.295   6.551
    1AU     LIG  148   4.413   3.990   7.077
    1AU     LIG  149   4.794   3.714   7.346
    1AU     LIG  150   5.163   3.632   7.658
    1AU       S  151   4.275   4.018   6.056
    1AU     LIG  152   4.637   3.980   6.661
    1AU     LIG  153   4.877   4.144   7.129
    1AU     LIG  154   5.019   4.133   7.581
    1AU    AUSL  155   4.260   4.758   5.589
    1AU    AUSL  156   4.012   5.249   6.239
    1AU     AUL  157   3.899   4.637   6.090
    1AU       S  158   3.793   5.808   6.060
    1AU     LIG  159   3.606   6.186   6.346
    1AU     LIG  160   3.664   6.249   6.849
    1AU     LIG  161   3.877   5.873   7.131
    1AU       S  162   4.143   4.377   6.377
    1AU     LIG  163   4.501   4.490   6.932
    1AU     LIG  164   4.576   4.899   7.372
    1AU     LIG  165   4.722   5.017   7.818
    1AU    AUSL  166   5.404   5.593   5.346
    1AU    AUSL  167   5.673   5.266   5.316
    1AU     AUL  168   5.712   5.541   5.138
    1AU       S  169   6.174   5.324   5.441
    1AU     LIG  170   6.541   5.553   5.317
    1AU     LIG  171   6.599   5.795   4.953
    1AU     LIG  172   6.597   5.670   4.516
    1AU       S  173   5.388   5.536   4.798
    1AU     LIG  174   5.585   5.656   4.432
    1AU     LIG  175   5.966   5.875   4.424
    1AU     LIG  176   6.203   6.065   4.758
    1AU    AUSL  177   5.586   4.873   5.216
    1AU    AUSL  178   5.826   5.172   5.721
    1AU     AUL  179   5.961   4.966   5.180
    1AU       S  180   5.391   5.140   4.705
    1AU     LIG  181   5.628   4.814   4.354
    1AU     LIG  182   5.894   4.409   4.208
    1AU     LIG  183   5.770   3.969   4.084
    1AU       S  184   6.311   4.788   5.397
    1AU     LIG  185   6.316   4.697   4.948
    1AU     LIG  186   6.233   4.929   4.552
    1AU     LIG  187   5.961   5.226   4.312
    1AU    AUSL  188   5.774   5.584   5.595
    1AU    AUSL  189   5.390   5.841   5.697
    1AU     AUL  190   5.658   5.834   5.615
    1AU       S  191   4.999   5.977   5.201
    1AU     LIG  192   4.092   5.680   5.207
    1AU     LIG  193   3.719   5.172   5.097
    1AU     LIG  194   3.466   5.004   5.596
    1AU       S  195   5.265   5.655   4.910
    1AU     LIG  196   4.227   5.340   4.926
    1AU     LIG  197   3.802   4.757   5.340
    1AU     LIG  198   3.479   4.615   5.915
    1AU    AUSL  199   4.309   5.765   6.113
    1AU    AUSL  200   4.662   5.783   6.646
    1AU     AUL  201   4.369   5.939   6.510
    1AU       S  202   4.718   5.344   7.237
    1AU     LIG  203   4.246   5.243   7.363
    1AU     LIG  204   4.104   4.770   7.205
    1AU     LIG  205   4.047   4.320   7.039
    1AU       S  206   4.228   5.915   6.081
    1AU     LIG  207   3.850   5.421   6.646
    1AU     LIG  208   3.898   5.190   7.005
    1AU     LIG  209   3.684   5.018   7.390
    1AU    AUSL  210   4.106   5.386   5.853
    1AU    AUSL  211   4.502   5.473   5.867
    1AU     AUL  212   4.079   5.536   6.281
    1AU       S  213   3.813   5.807   5.614
    1AU     LIG  214   4.121   6.040   4.936
    1AU     LIG  215   4.222   5.678   4.554
    1AU     LIG  216   4.100   5.259   4.295
    1AU       S  217   4.256   5.883   5.619
    1AU     LIG  218   3.737   6.017   5.219
    1AU     LIG  219   3.398   6.037   5.052
    1AU     LIG  220   3.281   6.399   5.062
    1AU    AUSL  221   4.497   5.487   6.371
    1AU    AUSL  222   4.334   4.995   6.255
    1AU     AUL  223   4.049   5.468   5.856
    1AU       S  224   3.647   5.017   6.130
    1AU     LIG  225   3.514   5.451   5.449
    1AU     LIG  226   3.625   5.611   4.952
    1AU     LIG  227   3.754   5.894   4.614
    1AU       S  228   4.158   6.166   6.006
    1AU     LIG  229   4.440   6.711   5.870
    1AU     LIG  230   4.838   6.638   5.503
    1AU     LIG  231   5.179   6.505   5.176
    1AU    AUSL  232   5.771   4.855   5.997
    1AU    AUSL  233   5.982   5.463   6.037
    1AU     AUL  234   6.089   5.308   5.901
    1AU       S  235   6.311   4.618   5.513
    1AU     LIG  236   6.810   5.127   5.500
    1AU     LIG  237   7.217   5.200   5.790
    1AU     LIG  238   7.492   5.367   6.180
    1AU       S  239   6.165   5.553   6.473
    1AU     LIG  240   6.535   5.301   6.362
    1AU     LIG  241   6.977   5.364   6.253
    1AU     LIG  242   7.109   5.679   5.958
    1AU    AUSL  243   5.835   4.777   5.567
    1AU    AUSL  244   5.660   4.450   5.902
    1AU     AUL  245   5.836   4.550   5.698
    1AU       S  246   6.387   4.914   5.405
    1AU     LIG  247   6.536   5.369   5.803
    1AU     LIG  248   6.631   5.734   6.142
    1AU     LIG  249   7.002   5.968   6.383
    1AU       S  250   5.906   4.505   5.209
    1AU     LIG  251   5.819   5.220   4.826
    1AU     LIG  252   5.727   5.909   4.888
    1AU     LIG  253   5.652   6.241   5.322
    1AU    AUSL  254   4.300   4.777   6.645
    1AU    AUSL  255   4.071   4.971   5.911
    1AU     AUL  256   4.114   4.836   6.423
    1AU       S  257   3.901   4.411   5.717
    1AU     LIG  258   3.306   4.544   5.493
    1AU     LIG  259   2.971   4.925   5.586
    1AU     LIG  260   2.961   5.400   5.462
    1AU       S  261   3.695   5.002   6.502
    1AU     LIG  262   3.267   5.305   6.215
    1AU     LIG  263   3.214   5.651   5.835
    1AU     LIG  264   3.383   6.040   5.598
    1AU    AUSL  265   4.272   5.222   6.626
    1AU    AUSL  266   4.694   4.931   6.689
    1AU     AUL  267   4.403   5.049   6.913
    1AU       S  268   4.272   5.519   6.969
    1AU     LIG  269   3.876   5.869   6.632
    1AU     LIG  270   3.383   5.617   6.604
    1AU     LIG  271   3.003   5.339   6.857
    1AU       S  272   3.675   4.958   6.388
    1AU     LIG  273   3.646   4.352   6.365
    1AU     LIG  274   3.948   3.913   6.459
    1AU     LIG  275   4.364   3.643   6.434
    1AU    AUSL  276   5.096   5.716   6.021
    1AU    AUSL  277   4.727   5.861   6.218
    1AU     AUL  278   5.006   6.072   6.264
    1AU       S  279   5.381   5.492   7.068
    1AU     LIG  280   5.791   5.027   7.182
    1AU     LIG  281   6.071   4.573   7.076
    1AU     LIG  282   6.312   4.130   6.902
    1AU       S  283   5.136   4.093   6.239
    1AU     LIG  284   5.530   4.057   6.409
    1AU     LIG  285   5.906   4.005   6.228
    1AU     LIG  286   6.085   3.778   5.884
    1AU    AUSL  287   4.723   5.823   5.788
    1AU    AUSL  288   4.953   5.524   5.212
    1AU     AUL  289   4.727   5.968   5.545
    1AU       S  290   4.799   4.212   5.644
    1AU     LIG  291   4.906   3.919   5.238
    1AU     LIG  292   4.758   3.888   4.788
    1AU     LIG  293   4.393   4.046   4.582
    1AU       S  294   4.659   5.484   4.808
    1AU     LIG  295   4.286   4.935   4.662
    1AU     LIG  296   4.081   4.432   4.739
    1AU     LIG  297   4.015   3.947   4.922
    1AU    AUSL  298   5.041   5.609   5.612
    1AU    AUSL  299   5.453   5.913   6.125
    1AU     AUL  300   5.165   6.044   5.809
    1AU       S  301   5.104   5.935   5.325
    1AU     LIG  302   4.284   4.968   5.194
    1AU     LIG  303   4.098   4.139   5.416
    1AU     LIG  304   3.624   3.973   5.662
    1AU       S  305   4.802   4.212   5.600
    1AU     LIG  306   4.191   4.525   5.206
    1AU     LIG  307   3.939   5.152   5.506
    1AU     LIG  308   3.612   5.400   5.894
    1AU    AUSL  309   5.299   4.878   6.759
    1AU    AUSL  310   5.625   4.741   6.384
    1AU     AUL  311   5.664   4.706   6.804
    1AU       S  312   5.338   4.824   7.115
    1AU     LIG  313   5.234   5.167   7.830
    1AU     LIG  314   5.072   5.659   7.889
    1AU     LIG  315   4.859   5.921   7.502
    1AU       S  316   6.155   5.317   6.711
    1AU     LIG  317   6.264   5.803   6.867
    1AU     LIG  318   6.174   6.215   6.600
    1AU     LIG  319   6.000   6.551   6.284
    1AU    AUSL  320   4.954   4.609   6.814
    1AU    AUSL  321   4.995   5.128   6.941
    1AU     AUL  322   4.853   4.865   7.003
    1AU       S  323   5.158   4.547   7.144
    1AU     LIG  324   5.500   4.896   7.546
    1AU     LIG  325   5.633   5.322   7.556
    1AU     LIG  326   5.871   5.555   7.264
    1AU       S  327   4.473   5.673   7.061
    1AU     LIG  328   4.344   5.880   7.415
    1AU     LIG  329   4.484   5.945   7.865
    1AU     LIG  330   4.463   5.618   8.189
    1AU    AUSL  331   5.339   4.471   6.604
    1AU    AUSL  332   4.908   4.374   6.457
    1AU     AUL  333   5.067   4.278   6.730
    1AU       S  334   4.801   3.793   6.197
    1AU     LIG  335   5.107   3.408   6.043
    1AU     LIG  336   5.591   3.259   6.058
    1AU     LIG  337   5.908   3.509   6.323
    1AU       S  338   5.263   4.663   7.165
    1AU     LIG  339   4.997   4.658   7.616
    1AU     LIG  340   4.739   4.420   7.889
    1AU     LIG  341   4.558   4.005   7.706
    1AU    AUSL  342   4.638   5.207   5.186
    1AU    AUSL  343   5.300   5.226   5.135
    1AU     AUL  344   5.027   5.285   5.013
    1AU       S  345   4.622   5.134   4.928
    1AU     LIG  346   4.579   4.573   4.873
    1AU     LIG  347   4.463   4.101   5.112
    1AU     LIG  348   4.246   3.686   5.426
    1AU       S  349   6.177   4.910   5.806
    1AU     LIG  350   6.355   4.350   6.372
    1AU     LIG  351   5.928   4.296   6.636
    1AU     LIG  352   5.814   3.847   6.785
    1AU    AUSL  353   4.593   5.555   5.455
    1AU    AUSL  354   4.443   5.148   5.575
    1AU     AUL  355   4.324   5.379   5.415
    1AU       S  356   4.543   5.666   5.069
    1AU     LIG  357   4.527   6.171   5.178
    1AU     LIG  358   4.478   6.325   5.618
    1AU     LIG  359   4.658   6.282   5.997
    1AU       S  360   4.260   5.801   5.629
    1AU     LIG  361   4.066   6.302   5.405
    1AU     LIG  362   4.336   6.731   5.334
    1AU     LIG  363   4.607   7.103   5.491
    1AU    AUSL  364   4.942   4.406   6.020
    1AU    AUSL  365   4.570   4.608   6.348
    1AU     AUL  366   4.670   4.226   6.298
    1AU       S  367   4.002   4.201   5.952
    1AU     LIG  368   3.668   4.296   5.304
    1AU     LIG  369   3.424   4.690   5.026
    1AU     LIG  370   3.313   5.114   4.785
    1AU       S  371   4.818   3.884   5.973
    1AU     LIG  372   4.717   3.615   5.602
    1AU     LIG  373   4.593   3.523   5.118
    1AU     LIG  374   4.728   3.413   4.688
    1AU    AUSL  375   5.336   4.457   6.179
    1AU    AUSL  376   5.256   4.288   5.754
    1AU     AUL  377   5.429   4.215   5.939
    1AU       S  378   5.065   3.874   5.862
    1AU     LIG  379   5.280   3.554   5.569
    1AU     LIG  380   5.603   3.170   5.540
    1AU     LIG  381   5.762   2.764   5.313
    1AU       S  382   5.841   4.053   5.233
    1AU     LIG  383   5.733   3.853   4.798
    1AU     LIG  384   5.876   3.616   4.462
    1AU     LIG  385   6.067   3.233   4.569
    2POPC   NC3  386   3.509   1.394   8.111
    2POPC   PO4  387   3.093   0.790   8.207
    2POPC   GL1  388   3.259   0.854   7.765
    2POPC   GL2  389   3.575   1.034   7.719
    2POPC   C1A  390   3.102   0.878   7.306
    2POPC   D2A  391   3.067   0.857   6.826
    2POPC   C3A  392   3.342   0.957   6.458
    2POPC   C4A  393   3.304   0.898   5.988
    2POPC   C1B  394   3.488   1.223   7.308
    2POPC   C2B  395   3.430   1.310   6.854
    2POPC   C3B  396   3.694   1.332   6.486
    2POPC   C4B  397   3.747   1.143   6.086
    3POPC   NC3  398   7.258   0.306   8.128
    3POPC   PO4  399   7.848   9.940   8.018
    3POPC   GL1  400   7.586   0.203   7.728
    3POPC   GL2  401   7.375   0.525   7.691
    3POPC   C1A  402   7.431   0.161   7.313
    3POPC   D2A  403   7.535   0.426   6.943
    3POPC   C3A  404   7.362   0.369   6.542
    3POPC   C4A  405   7.398   0.084   6.176
    3POPC   C1B  406   7.199   0.614   7.304
    3POPC   C2B  407   7.250   0.821   6.935
    3POPC   C3B  408   7.115   0.840   6.493
    3POPC   C4B  409   7.256   0.728   6.076
    4POPC   NC3  410   1.094   1.435   8.146
    4POPC   PO4  411   0.718   0.820   8.088
    4POPC   GL1  412   0.869   1.112   7.789
    4POPC   GL2  413   1.204   1.032   7.841
    4POPC   C1A  414   1.109   1.288   7.406
    4POPC   D2A  415   1.352   1.400   7.011
    4POPC   C3A  416   1.199   1.299   6.582
    4POPC   C4A  417   1.003   1.439   6.173
    4POPC   C1B  418   1.322   0.821   7.486
    4POPC   C2B  419   1.259   0.873   7.064
    4POPC   C3B  420   1.466   0.787   6.692
    4POPC   C4B  421   1.380   0.929   6.297
    5POPC   NC3  422   0.657   5.137   8.089
    5POPC   PO4  423   0.107   4.650   7.955
    5POPC   GL1  424   0.465   4.786   7.636
    5POPC   GL2  425   0.731   5.056   7.603
    5POPC   C1A  426   0.597   4.866   7.164
    5POPC   D2A  427   0.444   5.003   6.742
    5POPC   C3A  428   0.709   4.957   6.379
    5POPC   C4A  429   0.746   4.859   5.953
    5POPC   C1B  430   0.371   5.261   7.414
    5POPC   C2B  431   0.149   5.343   7.016
    5POPC   C3B  432   0.064   5.349   6.568
    5POPC   C4B  433   0.229   5.073   6.226
    6POPC   NC3  434   6.294   7.570   8.602
    6POPC   PO4  435   5.766   7.749   8.167
    6POPC   GL1  436   5.659   8.037   7.755
    6POPC   GL2  437   5.637   8.406   7.828
    6POPC   C1A  438   5.719   8.057   7.269
    6POPC   D2A  439   5.521   8.009   6.843
    6POPC   C3A  440   5.809   7.873   6.506
    6POPC   C4A  441   6.265   7.755   6.491
    6POPC   C1B  442   5.449   8.484   7.416
    6POPC   C2B  443   5.642   8.475   6.982
    6POPC   C3B  444   5.663   8.360   6.500
    6POPC   C4B  445   5.659   8.389   6.003
    7POPC   NC3  446   0.323   8.152   8.231
    7POPC   PO4  447   0.851   7.708   8.158
    7POPC   GL1  448   0.481   7.885   7.834
    7POPC   GL2  449   0.378   8.287   7.743
    7POPC   C1A  450   0.225   7.908   7.439
    7POPC   D2A  451   0.405   7.858   7.015
    7POPC   C3A  452   0.148   7.921   6.628
    7POPC   C4A  453   0.187   7.738   6.202
    7POPC   C1B  454   0.485   8.322   7.269
    7POPC   C2B  455   0.462   8.315   6.788
    7POPC   C3B  456   0.575   8.149   6.376
    7POPC   C4B  457   0.850   8.322   6.008
    8POPC   NC3  458   8.572   6.419   8.149
    8POPC   PO4  459   9.241   6.300   8.348
    8POPC   GL1  460   9.072   6.423   7.930
    8POPC   GL2  461   8.943   6.747   7.802
    8POPC   C1A  462   8.967   6.355   7.476
    8POPC   D2A  463   8.692   6.530   7.153
    8POPC   C3A  464   8.735   6.528   6.705
    8POPC   C4A  465   8.993   6.437   6.325
    8POPC   C1B  466   8.958   6.913   7.333
    8POPC   C2B  467   9.097   6.899   6.856
    8POPC   C3B  468   8.889   6.943   6.440
    8POPC   C4B  469   8.666   6.773   6.072
    9POPC   NC3  470   2.556   6.268   8.088
    9POPC   PO4  471   2.632   6.917   8.063
    9POPC   GL1  472   2.528   6.641   7.676
    9POPC   GL2  473   2.794   6.377   7.656
    9POPC   C1A  474   2.512   6.734   7.195
    9POPC   D2A  475   2.563   6.546   6.786
    9POPC   C3A  476   2.409   6.769   6.444
    9POPC   C4A  477   2.633   6.813   6.070
    9POPC   C1B  478   2.978   6.705   7.394
    9POPC   C2B  479   3.024   6.781   6.929
    9POPC   C3B  480   2.954   6.686   6.468
    9POPC   C4B  481   2.697   6.342   6.290
   10POPC   NC3  482   7.528   9.593   8.004
   10POPC   PO4  483   6.949   9.891   8.152
   10POPC   GL1  484   7.157   9.864   7.726
   10POPC   GL2  485   7.195   9.495   7.636
   10POPC   C1A  486   7.033   9.829   7.272
   10POPC   D2A  487   7.128   0.079   6.899
   10POPC   C3A  488   7.050   9.919   6.509
   10POPC   C4A  489   6.831   9.944   6.118
   10POPC   C1B  490   7.492   9.608   7.295
   10POPC   C2B  491   7.350   9.602   6.857
   10POPC   C3B  492   7.450   9.574   6.414
   10POPC   C4B  493   7.679   9.672   6.006
   11POPC   NC3  494   7.986   4.818   8.088
   11POPC   PO4  495   8.015   4.162   8.336
   11POPC   GL1  496   8.188   4.340   7.900
   11POPC   GL2  497   8.513   4.360   7.784
   11POPC   C1A  498   8.170   4.213   7.427
   11POPC   D2A  499   8.317   4.027   7.012
   11POPC   C3A  500   8.217   4.235   6.571
   11POPC   C4A  501   7.953   4.165   6.156
   11POPC   C1B  502   8.558   4.540   7.350
   11POPC   C2B  503   8.636   4.423   6.914
   11POPC   C3B  504   8.553   4.648   6.528
   11POPC   C4B  505   8.313   4.515   6.147
   12POPC   NC3  506   3.332   2.047   8.221
   12POPC   PO4  507   3.800   2.561   8.175
   12POPC   GL1  508   3.636   2.248   7.879
   12POPC   GL2  509   3.534   1.888   7.767
   12POPC   C1A  510   3.489   2.321   7.481
   12POPC   D2A  511   3.362   2.449   7.095
   12POPC   C3A  512   3.281   2.157   6.805
   12POPC   C4A  513   3.421   2.218   6.388
   12POPC   C1B  514   3.774   1.653   7.416
   12POPC   C2B  515   3.919   1.593   6.946
   12POPC   C3B  516   3.639   1.809   6.625
   12POPC   C4B  517   3.226   1.750   6.489
   13POPC   NC3  518   9.244   5.934   8.075
   13POPC   PO4  519   9.513   5.351   8.186
   13POPC   GL1  520   9.280   5.473   7.827
   13POPC   GL2  521   9.507   5.709   7.662
   13POPC   C1A  522   8.987   5.481   7.464
   13POPC   D2A  523   8.998   5.323   7.020
   13POPC   C3A  524   9.136   5.642   6.702
   13POPC   C4A  525   9.207   5.941   6.326
   13POPC   C1B  526   9.315   5.798   7.239
   13POPC   C2B  527   8.914   5.970   7.060
   13POPC   C3B  528   8.785   6.027   6.613
   13POPC   C4B  529   8.499   6.200   6.320
   14POPC   NC3  530   2.005   4.409   8.327
   14POPC   PO4  531   1.430   4.260   8.020
   14POPC   GL1  532   1.696   4.349   7.710
   14POPC   GL2  533   1.937   4.571   7.834
   14POPC   C1A  534   1.691   4.402   7.264
   14POPC   D2A  535   1.639   4.209   6.834
   14POPC   C3A  536   1.738   4.468   6.468
   14POPC   C4A  537   1.763   4.221   6.080
   14POPC   C1B  538   2.151   4.292   7.515
   14POPC   C2B  539   2.101   4.135   7.062
   14POPC   C3B  540   2.096   4.107   6.581
   14POPC   C4B  541   2.216   4.405   6.242
   15POPC   NC3  542   4.348   9.060   8.120
   15POPC   PO4  543   3.879   8.544   8.233
   15POPC   GL1  544   3.902   8.799   7.780
   15POPC   GL2  545   4.043   9.150   7.701
   15POPC   C1A  546   3.755   8.960   7.335
   15POPC   D2A  547   3.940   8.821   6.920
   15POPC   C3A  548   4.160   9.021   6.529
   15POPC   C4A  549   4.160   9.156   6.043
   15POPC   C1B  550   4.261   8.926   7.351
   15POPC   C2B  551   4.474   8.645   7.080
   15POPC   C3B  552   4.512   8.637   6.624
   15POPC   C4B  553   4.476   8.774   6.182
   16POPC   NC3  554   0.349   1.169   7.917
   16POPC   PO4  555   0.685   1.677   8.047
   16POPC   GL1  556   0.431   1.646   7.653
   16POPC   GL2  557   0.142   1.416   7.542
   16POPC   C1A  558   0.610   1.435   7.272
   16POPC   D2A  559   0.867   1.213   6.956
   16POPC   C3A  560   0.696   1.220   6.522
   16POPC   C4A  561   0.401   1.495   6.329
   16POPC   C1B  562   0.243   1.038   7.289
   16POPC   C2B  563   0.355   1.137   6.888
   16POPC   C3B  564   0.204   1.041   6.480
   16POPC   C4B  565   0.166   0.968   6.031
   17POPC   NC3  566   7.953   5.768   8.075
   17POPC   PO4  567   8.628   5.884   8.066
   17POPC   GL1  568   8.351   5.780   7.737
   17POPC   GL2  569   8.197   6.147   7.801
   17POPC   C1A  570   8.508   5.641   7.293
   17POPC   D2A  571   8.612   5.604   6.835
   17POPC   C3A  572   8.286   5.735   6.507
   17POPC   C4A  573   8.010   5.527   6.185
   17POPC   C1B  574   8.486   6.148   7.420
   17POPC   C2B  575   8.414   6.125   6.959
   17POPC   C3B  576   8.088   6.206   6.635
   17POPC   C4B  577   7.991   6.070   6.208
   18POPC   NC3  578   5.758   0.432   8.346
   18POPC   PO4  579   6.219   9.912   8.318
   18POPC   GL1  580   6.042   0.300   7.935
   18POPC   GL2  581   5.730   0.532   7.856
   18POPC   C1A  582   5.859   0.278   7.450
   18POPC   D2A  583   5.982   9.996   7.108
   18POPC   C3A  584   6.081   0.059   6.674
   18POPC   C4A  585   5.916   0.022   6.285
   18POPC   C1B  586   5.555   0.685   7.439
   18POPC   C2B  587   5.790   0.733   7.038
   18POPC   C3B  588   5.787   0.494   6.630
   18POPC   C4B  589   5.976   0.532   6.227
   19POPC   NC3  590   9.545   6.587   8.129
   19POPC   PO4  591   0.224   6.273   8.167
   19POPC   GL1  592   9.967   6.483   7.797
   19POPC   GL2  593   9.814   6.785   7.748
   19POPC   C1A  594   9.818   6.516   7.303
   19POPC   D2A  595   9.906   6.397   6.841
   19POPC   C3A  596   9.854   6.555   6.386
   19POPC   C4A  597   9.935   6.359   5.930
   19POPC   C1B  598   9.413   6.761   7.505
   19POPC   C2B  599   9.308   6.512   7.113
   19POPC   C3B  600   9.404   6.545   6.645
   19POPC   C4B  601   9.367   6.856   6.289
   20POPC   NC3  602   9.593   0.956   8.446
   20POPC   PO4  603   9.967   1.417   8.036
   20POPC   GL1  604   9.642   1.341   7.717
   20POPC   GL2  605   9.306   1.251   7.871
   20POPC   C1A  606   9.726   1.219   7.287
   20POPC   D2A  607   9.854   0.962   6.933
   20POPC   C3A  608   9.706   1.075   6.517
   20POPC   C4A  609   9.699   0.804   6.148
   20POPC   C1B  610   9.212   1.170   7.411
   20POPC   C2B  611   9.337   1.151   6.939
   20POPC   C3B  612   9.403   1.482   6.591
   20POPC   C4B  613   9.447   1.585   6.137
   21POPC   NC3  614   1.888   8.046   8.053
   21POPC   PO4  615   2.360   7.572   8.096
   21POPC   GL1  616   2.195   7.791   7.684
   21POPC   GL2  617   1.878   8.041   7.555
   21POPC   C1A  618   2.281   7.956   7.272
   21POPC   D2A  619   2.062   7.913   6.886
   21POPC   C3A  620   2.337   7.948   6.541
   21POPC   C4A  621   2.461   8.092   6.112
   21POPC   C1B  622   1.515   8.324   7.395
   21POPC   C2B  623   1.360   8.284   6.955
   21POPC   C3B  624   1.654   8.147   6.613
   21POPC   C4B  625   1.972   8.179   6.288
   22POPC   NC3  626   4.160   1.495   8.199
   22POPC   PO4  627   4.716   1.102   8.402
   22POPC   GL1  628   4.610   1.358   7.989
   22POPC   GL2  629   4.293   1.193   7.820
   22POPC   C1A  630   4.616   1.386   7.485
   22POPC   D2A  631   4.378   1.280   7.073
   22POPC   C3A  632   4.542   1.127   6.668
   22POPC   C4A  633   4.662   1.242   6.204
   22POPC   C1B  634   4.027   1.218   7.448
   22POPC   C2B  635   3.893   1.095   6.998
   22POPC   C3B  636   3.980   0.917   6.594
   22POPC   C4B  637   4.177   1.203   6.313
   23POPC   NC3  638   7.724   7.006   8.075
   23POPC   PO4  639   8.321   7.493   8.130
   23POPC   GL1  640   8.052   7.308   7.836
   23POPC   GL2  641   8.231   7.454   7.612
   23POPC   C1A  642   7.942   7.122   7.398
   23POPC   D2A  643   8.113   7.169   6.960
   23POPC   C3A  644   7.919   7.114   6.541
   23POPC   C4A  645   7.672   7.029   6.175
   23POPC   C1B  646   8.268   7.655   7.246
   23POPC   C2B  647   8.432   7.592   6.849
   23POPC   C3B  648   8.316   7.663   6.412
   23POPC   C4B  649   8.322   7.452   5.998
   24POPC   NC3  650   9.234   3.510   8.044
   24POPC   PO4  651   8.752   3.958   8.030
   24POPC   GL1  652   8.883   3.671   7.709
   24POPC   GL2  653   8.843   3.274   7.817
   24POPC   C1A  654   9.168   3.757   7.346
   24POPC   D2A  655   9.360   3.632   6.942
   24POPC   C3A  656   9.085   3.734   6.590
   24POPC   C4A  657   8.737   3.513   6.360
   24POPC   C1B  658   9.053   3.277   7.410
   24POPC   C2B  659   8.956   3.354   6.964
   24POPC   C3B  660   9.117   3.226   6.539
   24POPC   C4B  661   8.808   2.996   6.274
   25POPC   NC3  662   0.199   1.810   8.112
   25POPC   PO4  663   0.466   2.219   8.459
   25POPC   GL1  664   0.407   2.174   7.862
   25POPC   GL2  665   0.690   2.108   7.653
   25POPC   C1A  666   0.188   2.116   7.441
   25POPC   D2A  667   9.987   2.177   7.008
   25POPC   C3A  668   0.158   1.955   6.629
   25POPC   C4A  669   0.208   1.977   6.169
   25POPC   C1B  670   0.645   2.051   7.206
   25POPC   C2B  671   0.640   2.107   6.765
   25POPC   C3B  672   0.684   1.929   6.365
   25POPC   C4B  673   0.620   1.730   5.933
   26POPC   NC3  674   9.876   4.375   8.249
   26POPC   PO4  675   9.355   4.729   7.946
   26POPC   GL1  676   9.674   4.574   7.683
   26POPC   GL2  677   9.833   4.235   7.760
   26POPC   C1A  678   9.633   4.640   7.245
   26POPC   D2A  679   9.434   4.628   6.847
   26POPC   C3A  680   9.584   4.503   6.449
   26POPC   C4A  681   9.542   4.658   6.027
   26POPC   C1B  682   9.921   4.226   7.320
   26POPC   C2B  683   9.895   4.375   6.883
   26POPC   C3B  684   0.020   4.182   6.514
   26POPC   C4B  685   9.926   3.810   6.281
   27POPC   NC3  686   7.282   0.962   8.120
   27POPC   PO4  687   7.692   1.418   7.809
   27POPC   GL1  688   7.250   1.345   7.673
   27POPC   GL2  689   7.129   1.001   7.642
   27POPC   C1A  690   7.141   1.281   7.215
   27POPC   D2A  691   7.342   1.287   6.784
   27POPC   C3A  692   7.027   1.346   6.454
   27POPC   C4A  693   6.978   1.160   6.027
   27POPC   C1B  694   7.540   0.967   7.383
   27POPC   C2B  695   7.757   0.929   6.982
   27POPC   C3B  696   7.624   0.863   6.567
   27POPC   C4B  697   7.460   1.172   6.281
   28POPC   NC3  698   9.293   4.962   8.335
   28POPC   PO4  699   8.616   4.920   8.084
   28POPC   GL1  700   8.880   4.742   7.704
   28POPC   GL2  701   9.106   5.003   7.591
   28POPC   C1A  702   9.063   4.604   7.258
   28POPC   D2A  703   8.964   4.812   6.830
   28POPC   C3A  704   9.115   4.770   6.376
   28POPC   C4A  705   9.084   4.776   5.888
   28POPC   C1B  706   8.691   5.055   7.366
   28POPC   C2B  707   8.523   5.043   6.953
   28POPC   C3B  708   8.715   5.169   6.553
   28POPC   C4B  709   8.741   5.572   6.334
   29POPC   NC3  710   6.002   8.897   8.450
   29POPC   PO4  711   5.454   9.258   8.266
   29POPC   GL1  712   5.688   9.235   7.882
   29POPC   GL2  713   5.883   8.918   7.870
   29POPC   C1A  714   5.796   9.215   7.447
   29POPC   D2A  715   5.965   9.110   7.033
   29POPC   C3A  716   5.728   9.184   6.643
   29POPC   C4A  717   5.391   9.145   6.319
   29POPC   C1B  718   5.913   8.713   7.448
   29POPC   C2B  719   6.143   8.630   7.075
   29POPC   C3B  720   5.977   8.707   6.676
   29POPC   C4B  721   5.757   8.802   6.286
   30POPC   NC3  722   5.036   8.894   8.191
   30POPC   PO4  723   4.441   8.668   7.910
   30POPC   GL1  724   4.831   8.785   7.716
   30POPC   GL2  725   4.907   9.167   7.733
   30POPC   C1A  726   4.923   8.877   7.281
   30POPC   D2A  727   4.912   9.299   7.106
   30POPC   C3A  728   4.835   9.244   6.677
   30POPC   C4A  729   4.909   8.907   6.412
   30POPC   C1B  730   5.326   9.017   7.554
   30POPC   C2B  731   5.473   8.931   7.116
   30POPC   C3B  732   5.384   8.783   6.675
   30POPC   C4B  733   5.271   8.603   6.256
   31POPC   NC3  734   5.896   9.681   8.056
   31POPC   PO4  735   5.392   0.075   8.306
   31POPC   GL1  736   5.602   0.024   7.828
   31POPC   GL2  737   5.783   9.749   7.559
   31POPC   C1A  738   5.386   0.042   7.411
   31POPC   D2A  739   5.523   0.234   7.009
   31POPC   C3A  740   5.484   0.026   6.588
   31POPC   C4A  741   5.566   9.641   6.324
   31POPC   C1B  742   6.137   9.541   7.263
   31POPC   C2B  743   6.265   9.571   6.847
   31POPC   C3B  744   6.042   9.554   6.456
   31POPC   C4B  745   5.887   9.271   6.130
   32POPC   NC3  746   7.146   2.436   8.171
   32POPC   PO4  747   7.201   3.122   8.154
   32POPC   GL1  748   7.360   2.846   7.879
   32POPC   GL2  749   7.609   2.990   7.705
   32POPC   C1A  750   7.225   2.679   7.491
   32POPC   D2A  751   7.273   2.730   7.048
   32POPC   C3A  752   7.062   2.658   6.646
   32POPC   C4A  753   7.146   2.932   6.304
   32POPC   C1B  754   7.768   2.790   7.313
   32POPC   C2B  755   7.732   2.565   6.915
   32POPC   C3B  756   7.563   2.696   6.531
   32POPC   C4B  757   7.614   2.860   6.111
   33POPC   NC3  758   8.983   9.272   8.384
   33POPC   PO4  759   9.222   8.573   8.294
   33POPC   GL1  760   9.057   8.799   7.901
   33POPC   GL2  761   8.715   8.826   8.035
   33POPC   C1A  762   9.105   8.935   7.406
   33POPC   D2A  763   9.170   8.739   6.992
   33POPC   C3A  764   9.160   8.988   6.630
   33POPC   C4A  765   8.981   9.008   6.242
   33POPC   C1B  766   8.608   8.877   7.588
   33POPC   C2B  767   8.684   8.874   7.118
   33POPC   C3B  768   8.707   8.745   6.665
   33POPC   C4B  769   8.468   8.673   6.267
   34POPC   NC3  770   5.049   0.391   8.201
   34POPC   PO4  771   4.655   0.866   7.915
   34POPC   GL1  772   4.914   0.552   7.707
   34POPC   GL2  773   4.800   0.201   7.652
   34POPC   C1A  774   5.091   0.481   7.282
   34POPC   D2A  775   5.299   0.675   6.926
   34POPC   C3A  776   5.274   0.534   6.475
   34POPC   C4A  777   5.095   0.531   6.036
   34POPC   C1B  778   4.730   0.125   7.188
   34POPC   C2B  779   5.018   0.229   6.803
   34POPC   C3B  780   5.039   0.097   6.322
   34POPC   C4B  781   4.872   0.104   5.845
   35POPC   NC3  782   0.319   6.769   8.245
   35POPC   PO4  783   0.862   6.623   8.115
   35POPC   GL1  784   0.793   6.449   7.725
   35POPC   GL2  785   0.473   6.509   7.783
   35POPC   C1A  786   0.771   6.623   7.313
   35POPC   D2A  787   0.764   6.921   6.970
   35POPC   C3A  788   0.779   6.682   6.601
   35POPC   C4A  789   0.663   6.789   6.191
   35POPC   C1B  790   0.302   6.464   7.392
   35POPC   C2B  791   0.447   6.420   6.949
   35POPC   C3B  792   0.329   6.447   6.517
   35POPC   C4B  793   0.195   6.095   6.268
   36POPC   NC3  794   7.614   8.618   7.948
   36POPC   PO4  795   7.835   9.247   8.068
   36POPC   GL1  796   7.538   9.112   7.764
   36POPC   GL2  797   7.214   9.003   7.905
   36POPC   C1A  798   7.618   9.085   7.309
   36POPC   D2A  799   7.842   9.090   6.907
   36POPC   C3A  800   7.636   9.037   6.506
   36POPC   C4A  801   7.542   9.182   6.064
   36POPC   C1B  802   7.224   8.801   7.480
   36POPC   C2B  803   7.291   8.726   7.043
   36POPC   C3B  804   7.032   8.679   6.663
   36POPC   C4B  805   7.210   8.848   6.296
   37POPC   NC3  806   1.965   8.731   8.178
   37POPC   PO4  807   2.268   8.235   7.868
   37POPC   GL1  808   1.967   8.543   7.696
   37POPC   GL2  809   2.019   8.933   7.712
   37POPC   C1A  810   1.946   8.669   7.265
   37POPC   D2A  811   2.036   8.979   6.949
   37POPC   C3A  812   2.052   8.779   6.545
   37POPC   C4A  813   1.687   8.627   6.311
   37POPC   C1B  814   2.206   9.248   7.393
   37POPC   C2B  815   2.422   9.317   6.974
   37POPC   C3B  816   2.281   9.271   6.549
   37POPC   C4B  817   1.929   9.170   6.238
   38POPC   NC3  818   0.705   6.201   8.167
   38POPC   PO4  819   0.469   5.582   8.004
   38POPC   GL1  820   0.523   5.977   7.758
   38POPC   GL2  821   0.870   5.916   7.743
   38POPC   C1A  822   0.646   6.104   7.331
   38POPC   D2A  823   0.557   5.841   6.974
   38POPC   C3A  824   0.593   5.992   6.582
   38POPC   C4A  825   0.737   6.264   6.265
   38POPC   C1B  826   0.726   5.609   7.407
   38POPC   C2B  827   0.686   5.357   7.033
   38POPC   C3B  828   0.677   5.448   6.578
   38POPC   C4B  829   0.386   5.607   6.247
   39POPC   NC3  830   2.122   7.168   8.139
   39POPC   PO4  831   1.536   7.677   8.119
   39POPC   GL1  832   1.746   7.573   7.713
   39POPC   GL2  833   2.006   7.316   7.679
   39POPC   C1A  834   1.919   7.583   7.263
   39POPC   D2A  835   1.787   7.430   6.836
   39POPC   C3A  836   1.892   7.680   6.468
   39POPC   C4A  837   2.060   7.651   6.034
   39POPC   C1B  838   2.266   7.144   7.371
   39POPC   C2B  839   2.156   7.079   6.939
   39POPC   C3B  840   2.224   7.272   6.527
   39POPC   C4B  841   2.251   7.153   6.085
   40POPC   NC3  842   6.536   0.111   8.018
   40POPC   PO4  843   6.957   0.647   7.993
   40POPC   GL1  844   6.900   0.321   7.700
   40POPC   GL2  845   6.587   0.470   7.655
   40POPC   C1A  846   6.830   0.294   7.246
   40POPC   D2A  847   6.822   0.544   6.865
   40POPC   C3A  848   6.866   0.404   6.415
   40POPC   C4A  849   6.706   0.688   6.103
   40POPC   C1B  850   6.339   0.339   7.343
   40POPC   C2B  851   6.224   0.450   6.956
   40POPC   C3B  852   6.385   0.545   6.561
   40POPC   C4B  853   6.400   0.269   6.240
   41POPC   NC3  854   8.911   7.360   8.174
   41POPC   PO4  855   8.456   6.860   8.203
   41POPC   GL1  856   8.619   7.147   7.795
   41POPC   GL2  857   9.029   7.270   7.693
   41POPC   C1A  858   8.684   7.390   7.364
   41POPC   D2A  859   8.985   7.350   7.046
   41POPC   C3A  860   8.867   7.413   6.650
   41POPC   C4A  861   8.783   7.498   6.232
   41POPC   C1B  862   9.207   7.627   7.392
   41POPC   C2B  863   9.376   7.694   6.928
   41POPC   C3B  864   9.213   7.737   6.455
   41POPC   C4B  865   9.228   7.719   5.961
   42POPC   NC3  866   2.445   3.717   8.207
   42POPC   PO4  867   1.834   3.989   8.382
   42POPC   GL1  868   1.812   3.886   7.920
   42POPC   GL2  869   1.849   3.508   7.833
   42POPC   C1A  870   1.781   3.889   7.461
   42POPC   D2A  871   2.037   3.636   7.169
   42POPC   C3A  872   1.867   3.637   6.742
   42POPC   C4A  873   1.666   3.820   6.380
   42POPC   C1B  874   1.679   3.359   7.406
   42POPC   C2B  875   1.555   3.165   6.988
   42POPC   C3B  876   1.720   3.159   6.545
   42POPC   C4B  877   2.007   3.396   6.269
   43POPC   NC3  878   1.033   3.087   8.106
   43POPC   PO4  879   0.729   2.528   7.979
   43POPC   GL1  880   0.944   2.777   7.695
   43POPC   GL2  881   1.309   2.783   7.766
   43POPC   C1A  882   0.917   2.740   7.271
   43POPC   D2A  883   0.816   2.567   6.898
   43POPC   C3A  884   0.954   2.777   6.552
   43POPC   C4A  885   1.056   2.654   6.125
   43POPC   C1B  886   1.512   2.730   7.351
   43POPC   C2B  887   1.329   2.687   6.941
   43POPC   C3B  888   1.466   2.678   6.528
   43POPC   C4B  889   1.455   2.946   6.172
   44POPC   NC3  890   9.417   1.840   7.973
   44POPC   PO4  891   9.969   2.249   8.072
   44POPC   GL1  892   9.746   2.171   7.698
   44POPC   GL2  893   9.854   1.822   7.689
   44POPC   C1A  894   9.542   2.241   7.272
   44POPC   D2A  895   9.575   2.471   6.842
   44POPC   C3A  896   9.913   2.396   6.484
   44POPC   C4A  897   9.821   2.279   5.984
   44POPC   C1B  898   9.882   1.724   7.233
   44POPC   C2B  899   9.921   1.464   6.834
   44POPC   C3B  900   9.895   1.553   6.389
   44POPC   C4B  901   9.707   1.956   6.351
   45POPC   NC3  902   0.316   2.563   8.203
   45POPC   PO4  903   0.517   3.193   8.150
   45POPC   GL1  904   0.366   2.946   7.776
   45POPC   GL2  905   0.147   2.625   7.711
   45POPC   C1A  906   0.238   3.041   7.342
   45POPC   D2A  907   0.518   2.971   6.988
   45POPC   C3A  908   0.532   3.063   6.563
   45POPC   C4A  909   0.586   2.848   6.181
   45POPC   C1B  910   0.410   2.556   7.304
   45POPC   C2B  911   0.312   2.523   6.835
   45POPC   C3B  912   0.426   2.414   6.407
   45POPC   C4B  913   0.255   2.525   5.993
   46POPC   NC3  914   8.157   7.152   8.372
   46POPC   PO4  915   7.908   6.578   8.072
   46POPC   GL1  916   8.173   6.822   7.769
   46POPC   GL2  917   8.452   6.609   7.701
   46POPC   C1A  918   8.417   6.959   7.344
   46POPC   D2A  919   8.608   7.021   6.912
   46POPC   C3A  920   8.428   7.164   6.495
   46POPC   C4A  921   8.202   6.979   6.115
   46POPC   C1B  922   8.143   6.527   7.362
   46POPC   C2B  923   8.249   6.643   6.948
   46POPC   C3B  924   8.271   6.675   6.521
   46POPC   C4B  925   7.933   6.567   6.266
   47POPC   NC3  926   4.999   1.470   8.396
   47POPC   PO4  927   4.489   1.836   8.156
   47POPC   GL1  928   4.757   1.815   7.806
   47POPC   GL2  929   5.061   1.838   8.006
   47POPC   C1A  930   4.814   1.844   7.344
   47POPC   D2A  931   5.022   1.896   6.919
   47POPC   C3A  932   4.751   2.022   6.560
   47POPC   C4A  933   4.816   2.376   6.287
   47POPC   C1B  934   5.270   1.983   7.604
   47POPC   C2B  935   5.476   2.084   7.189
   47POPC   C3B  936   5.448   2.142   6.725
   47POPC   C4B  937   5.225   1.912   6.373
   48POPC   NC3  938   2.625   4.587   7.984
   48POPC   PO4  939   2.740   5.234   8.102
   48POPC   GL1  940   2.571   5.161   7.700
   48POPC   GL2  941   2.440   4.816   7.559
   48POPC   C1A  942   2.656   5.218   7.270
   48POPC   D2A  943   2.433   5.045   6.949
   48POPC   C3A  944   2.542   5.036   6.523
   48POPC   C4A  945   2.630   5.076   6.061
   48POPC   C1B  946   2.381   4.582   7.152
   48POPC   C2B  947   2.446   4.558   6.682
   48POPC   C3B  948   2.705   4.610   6.281
   48POPC   C4B  949   2.944   4.504   5.880
   49POPC   NC3  950   4.304   2.279   8.212
   49POPC   PO4  951   3.754   1.780   8.221
   49POPC   GL1  952   4.040   1.936   7.914
   49POPC   GL2  953   4.228   1.695   7.731
   49POPC   C1A  954   3.967   2.116   7.501
   49POPC   D2A  955   3.789   2.054   7.068
   49POPC   C3A  956   4.098   2.004   6.649
   49POPC   C4A  957   4.329   2.144   6.245
   49POPC   C1B  958   4.278   1.748   7.304
   49POPC   C2B  959   4.496   1.761   6.929
   49POPC   C3B  960   4.437   1.609   6.536
   49POPC   C4B  961   4.335   1.647   6.123
   50POPC   NC3  962   6.382   7.302   8.013
   50POPC   PO4  963   6.870   7.114   8.440
   50POPC   GL1  964   6.813   7.153   7.810
   50POPC   GL2  965   7.042   7.370   7.655
   50POPC   C1A  966   6.629   7.279   7.353
   50POPC   D2A  967   6.412   7.342   6.914
   50POPC   C3A  968   6.585   7.348   6.481
   50POPC   C4A  969   6.683   7.115   6.093
   50POPC   C1B  970   7.068   7.488   7.244
   50POPC   C2B  971   6.974   7.324   6.865
   50POPC   C3B  972   7.047   7.530   6.482
   50POPC   C4B  973   6.833   7.613   6.077
   51POPC   NC3  974   9.715   2.633   8.044
   51POPC   PO4  975   9.185   3.077   8.222
   51POPC   GL1  976   9.345   2.942   7.743
   51POPC   GL2  977   9.595   2.669   7.578
   51POPC   C1A  978   9.305   2.877   7.247
   51POPC   D2A  979   9.472   3.118   6.916
   51POPC   C3A  980   9.544   2.897   6.551
   51POPC   C4A  981   9.305   2.915   6.168
   51POPC   C1B  982   9.888   2.655   7.237
   51POPC   C2B  983   9.984   2.925   6.880
   51POPC   C3B  984   0.073   2.880   6.441
   51POPC   C4B  985   9.805   2.765   6.115
   52POPC   NC3  986   6.683   1.871   8.339
   52POPC   PO4  987   7.085   1.385   8.166
   52POPC   GL1  988   6.807   1.587   7.915
   52POPC   GL2  989   6.788   1.966   7.846
   52POPC   C1A  990   6.784   1.566   7.485
   52POPC   D2A  991   6.571   1.364   7.171
   52POPC   C3A  992   6.623   1.523   6.734
   52POPC   C4A  993   6.815   1.803   6.405
   52POPC   C1B  994   6.485   1.997   7.490
   52POPC   C2B  995   6.345   1.831   7.058
   52POPC   C3B  996   6.329   1.952   6.601
   52POPC   C4B  997   6.566   2.285   6.339
   53POPC   NC3  998   0.228   3.492   7.938
   53POPC   PO4  999   9.882   3.006   8.260
   53POPC   GL1 1000   9.853   3.082   7.804
   53POPC   GL2 1001   9.691   3.420   7.776
   53POPC   C1A 1002   9.746   3.157   7.353
   53POPC   D2A 1003   9.975   3.423   7.040
   53POPC   C3A 1004   9.755   3.463   6.637
   53POPC   C4A 1005   9.711   3.257   6.235
   53POPC   C1B 1006   9.702   3.718   7.386
   53POPC   C2B 1007   9.775   3.896   6.951
   53POPC   C3B 1008   9.539   3.986   6.569
   53POPC   C4B 1009   9.440   3.684   6.237
   54POPC   NC3 1010   6.992   8.760   8.458
   54POPC   PO4 1011   6.426   9.064   8.357
   54POPC   GL1 1012   6.455   8.963   7.890
   54POPC   GL2 1013   6.768   8.730   7.840
   54POPC   C1A 1014   6.336   9.066   7.420
   54POPC   D2A 1015   6.528   9.119   6.979
   54POPC   C3A 1016   6.268   9.113   6.621
   54POPC   C4A 1017   6.256   8.850   6.278
   54POPC   C1B 1018   6.844   9.120   7.571
   54POPC   C2B 1019   7.104   9.247   7.177
   54POPC   C3B 1020   7.088   9.176   6.707
   54POPC   C4B 1021   6.732   8.997   6.418
   55POPC   NC3 1022   9.664   0.341   7.801
   55POPC   PO4 1023   9.259   0.729   8.192
   55POPC   GL1 1024   9.541   0.821   7.768
   55POPC   GL2 1025   9.911   0.844   7.682
   55POPC   C1A 1026   9.485   0.753   7.295
   55POPC   D2A 1027   9.586   0.527   6.897
   55POPC   C3A 1028   9.373   0.701   6.546
   55POPC   C4A 1029   9.218   0.627   6.134
   55POPC   C1B 1030   9.957   0.568   7.280
   55POPC   C2B 1031   0.011   0.229   6.942
   55POPC   C3B 1032   9.952   0.401   6.527
   55POPC   C4B 1033   9.594   0.301   6.308
   56POPC   NC3 1034   0.089   5.842   8.030
   56POPC   PO4 1035   9.553   6.185   7.833
   56POPC   GL1 1036   9.942   6.030   7.573
   56POPC   GL2 1037   0.157   5.708   7.538
   56POPC   C1A 1038   0.125   6.048   7.159
   56POPC   D2A 1039   0.087   5.878   6.745
   56POPC   C3A 1040   9.726   6.038   6.512
   56POPC   C4A 1041   9.697   5.951   6.098
   56POPC   C1B 1042   9.812   5.636   7.250
   56POPC   C2B 1043   9.649   5.586   6.828
   56POPC   C3B 1044   9.573   5.551   6.384
   56POPC   C4B 1045   9.342   5.622   5.947
   57POPC   NC3 1046   8.153   9.579   8.128
   57POPC   PO4 1047   8.636   0.017   7.972
   57POPC   GL1 1048   8.271   9.841   7.677
   57POPC   GL2 1049   8.265   9.436   7.646
   57POPC   C1A 1050   7.918   9.971   7.353
   57POPC   D2A 1051   7.713   9.958   6.911
   57POPC   C3A 1052   7.843   9.932   6.447
   57POPC   C4A 1053   8.169   9.845   6.133
   57POPC   C1B 1054   8.011   9.467   7.250
   57POPC   C2B 1055   8.035   9.564   6.784
   57POPC   C3B 1056   7.951   9.426   6.358
   57POPC   C4B 1057   8.091   9.384   5.907
   58POPC   NC3 1058   3.783   7.534   8.059
   58POPC   PO4 1059   3.467   6.995   8.073
   58POPC   GL1 1060   3.603   7.280   7.624
   58POPC   GL2 1061   3.500   7.622   7.472
   58POPC   C1A 1062   3.800   7.411   7.152
   58POPC   D2A 1063   3.610   7.515   6.721
   58POPC   C3A 1064   3.443   7.203   6.396
   58POPC   C4A 1065   3.485   6.731   6.263
   58POPC   C1B 1066   3.191   7.630   7.131
   58POPC   C2B 1067   3.132   7.745   6.703
   58POPC   C3B 1068   3.388   7.804   6.350
   58POPC   C4B 1069   3.752   7.660   6.239
   59POPC   NC3 1070   8.819   2.234   7.848
   59POPC   PO4 1071   9.000   1.623   8.061
   59POPC   GL1 1072   9.112   1.646   7.607
   59POPC   GL2 1073   8.809   1.638   7.437
   59POPC   C1A 1074   9.376   1.642   7.212
   59POPC   D2A 1075   9.533   1.923   6.848
   59POPC   C3A 1076   9.218   1.980   6.484
   59POPC   C4A 1077   8.979   1.739   6.162
   59POPC   C1B 1078   9.026   2.032   7.259
   59POPC   C2B 1079   8.959   2.236   6.866
   59POPC   C3B 1080   8.695   2.046   6.549
   59POPC   C4B 1081   8.511   1.709   6.328
   60POPC   NC3 1082   6.711   1.075   8.189
   60POPC   PO4 1083   6.085   0.796   8.268
   60POPC   GL1 1084   6.338   0.865   7.862
   60POPC   GL2 1085   6.605   1.089   7.688
   60POPC   C1A 1086   6.248   0.830   7.393
   60POPC   D2A 1087   6.356   0.932   6.960
   60POPC   C3A 1088   6.073   0.936   6.614
   60POPC   C4A 1089   6.225   0.975   6.191
   60POPC   C1B 1090   6.766   0.893   7.290
   60POPC   C2B 1091   6.832   1.063   6.862
   60POPC   C3B 1092   6.620   1.035   6.496
   60POPC   C4B 1093   6.542   1.385   6.224
   61POPC   NC3 1094   1.054   4.060   7.875
   61POPC   PO4 1095   0.919   4.691   7.941
   61POPC   GL1 1096   0.863   4.456   7.585
   61POPC   GL2 1097   1.217   4.394   7.527
   61POPC   C1A 1098   0.864   4.423   7.123
   61POPC   D2A 1099   0.843   4.652   6.769
   61POPC   C3A 1100   0.827   4.449   6.390
   61POPC   C4A 1101   1.006   4.405   5.989
   61POPC   C1B 1102   1.257   4.108   7.178
   61POPC   C2B 1103   1.133   4.185   6.732
   61POPC   C3B 1104   1.320   4.206   6.337
   61POPC   C4B 1105   1.336   3.962   5.948
   62POPC   NC3 1106   7.611   3.321   8.160
   62POPC   PO4 1107   7.162   3.785   7.975
   62POPC   GL1 1108   7.410   3.481   7.713
   62POPC   GL2 1109   7.165   3.251   7.579
   62POPC   C1A 1110   7.683   3.323   7.349
   62POPC   D2A 1111   7.577   3.126   6.897
   62POPC   C3A 1112   7.648   3.284   6.416
   62POPC   C4A 1113   7.854   3.246   5.923
   62POPC   C1B 1114   7.268   3.524   7.185
   62POPC   C2B 1115   7.375   3.574   6.753
   62POPC   C3B 1116   7.100   3.448   6.414
   62POPC   C4B 1117   7.007   3.656   6.012
   63POPC   NC3 1118   1.919   2.866   8.214
   63POPC   PO4 1119   2.495   3.248   8.263
   63POPC   GL1 1120   2.294   3.079   7.842
   63POPC   GL2 1121   2.166   2.741   7.772
   63POPC   C1A 1122   2.122   3.087   7.367
   63POPC   D2A 1123   2.063   3.192   6.917
   63POPC   C3A 1124   2.207   2.954   6.526
   63POPC   C4A 1125   2.153   2.933   6.068
   63POPC   C1B 1126   2.038   2.581   7.360
   63POPC   C2B 1127   1.897   2.707   6.939
   63POPC   C3B 1128   1.967   2.502   6.546
   63POPC   C4B 1129   1.805   2.583   6.126
   64POPC   NC3 1130   8.058   7.822   7.932
   64POPC   PO4 1131   8.263   8.402   8.285
   64POPC   GL1 1132   8.404   8.451   7.826
   64POPC   GL2 1133   8.327   8.125   7.642
   64POPC   C1A 1134   8.404   8.478   7.324
   64POPC   D2A 1135   8.408   8.121   7.025
   64POPC   C3A 1136   8.418   8.315   6.647
   64POPC   C4A 1137   8.373   8.165   6.256
   64POPC   C1B 1138   7.985   8.086   7.297
   64POPC   C2B 1139   7.958   7.833   6.878
   64POPC   C3B 1140   7.882   7.966   6.457
   64POPC   C4B 1141   8.023   7.884   6.038
   65POPC   NC3 1142   4.253   9.786   8.187
   65POPC   PO4 1143   4.763   9.303   8.223
   65POPC   GL1 1144   4.467   9.463   7.838
   65POPC   GL2 1145   4.404   9.845   7.712
   65POPC   C1A 1146   4.469   9.395   7.394
   65POPC   D2A 1147   4.462   9.667   7.017
   65POPC   C3A 1148   4.396   9.480   6.572
   65POPC   C4A 1149   4.610   9.306   6.207
   65POPC   C1B 1150   4.055   9.685   7.483
   65POPC   C2B 1151   3.936   9.790   7.061
   65POPC   C3B 1152   4.134   9.903   6.641
   65POPC   C4B 1153   4.054   9.810   6.178
   66POPC   NC3 1154   2.062   1.230   8.093
   66POPC   PO4 1155   1.559   0.819   8.130
   66POPC   GL1 1156   1.752   0.965   7.762
   66POPC   GL2 1157   2.116   0.972   7.633
   66POPC   C1A 1158   1.656   1.192   7.398
   66POPC   D2A 1159   1.743   1.068   6.998
   66POPC   C3A 1160   1.709   1.228   6.568
   66POPC   C4A 1161   1.965   1.091   6.208
   66POPC   C1B 1162   2.157   1.271   7.268
   66POPC   C2B 1163   2.135   1.356   6.814
   66POPC   C3B 1164   2.050   1.597   6.421
   66POPC   C4B 1165   1.978   1.585   5.957
   67POPC   NC3 1166   7.364   4.202   7.999
   67POPC   PO4 1167   7.524   4.788   8.006
   67POPC   GL1 1168   7.738   4.485   7.723
   67POPC   GL2 1169   7.791   4.063   7.747
   67POPC   C1A 1170   7.680   4.351   7.312
   67POPC   D2A 1171   7.886   4.268   6.962
   67POPC   C3A 1172   7.697   4.144   6.598
   67POPC   C4A 1173   7.485   4.372   6.258
   67POPC   C1B 1174   7.608   3.857   7.365
   67POPC   C2B 1175   7.365   4.032   7.000
   67POPC   C3B 1176   7.207   4.020   6.559
   67POPC   C4B 1177   7.425   3.819   6.279
   68POPC   NC3 1178   2.076   5.397   8.188
   68POPC   PO4 1179   2.263   4.779   8.211
   68POPC   GL1 1180   2.090   5.056   7.831
   68POPC   GL2 1181   1.764   5.059   7.708
   68POPC   C1A 1182   2.136   5.200   7.375
   68POPC   D2A 1183   2.019   5.363   6.963
   68POPC   C3A 1184   2.042   5.034   6.632
   68POPC   C4A 1185   2.161   4.908   6.206
   68POPC   C1B 1186   1.631   4.990   7.269
   68POPC   C2B 1187   1.565   5.102   6.816
   68POPC   C3B 1188   1.622   5.001   6.363
   68POPC   C4B 1189   1.738   4.734   6.008
   69POPC   NC3 1190   7.929   2.774   8.017
   69POPC   PO4 1191   8.485   2.479   8.025
   69POPC   GL1 1192   8.339   2.728   7.693
   69POPC   GL2 1193   8.145   3.028   7.638
   69POPC   C1A 1194   8.296   2.664   7.252
   69POPC   D2A 1195   8.431   2.387   6.908
   69POPC   C3A 1196   8.120   2.443   6.606
   69POPC   C4A 1197   7.935   2.500   6.198
   69POPC   C1B 1198   8.152   3.194   7.250
   69POPC   C2B 1199   8.054   2.974   6.886
   69POPC   C3B 1200   8.011   2.934   6.457
   69POPC   C4B 1201   8.307   2.855   6.169
   70POPC   NC3 1202   1.142   7.335   8.190
   70POPC   PO4 1203   1.697   6.816   8.187
   70POPC   GL1 1204   1.553   7.104   7.763
   70POPC   GL2 1205   1.272   7.384   7.708
   70POPC   C1A 1206   1.512   7.287   7.286
   70POPC   D2A 1207   1.261   7.190   6.912
   70POPC   C3A 1208   1.407   7.284   6.487
   70POPC   C4A 1209   1.764   7.260   6.219
   70POPC   C1B 1210   1.006   7.496   7.318
   70POPC   C2B 1211   0.893   7.512   6.875
   70POPC   C3B 1212   0.871   7.201   6.505
   70POPC   C4B 1213   0.931   7.220   6.030
   71POPC   NC3 1214   0.657   9.667   8.231
   71POPC   PO4 1215   1.255   9.269   8.153
   71POPC   GL1 1216   1.320   9.421   7.729
   71POPC   GL2 1217   1.014   9.622   7.760
   71POPC   C1A 1218   1.247   9.344   7.269
   71POPC   D2A 1219   0.960   9.099   6.969
   71POPC   C3A 1220   0.943   9.240   6.512
   71POPC   C4A 1221   0.921   9.314   6.050
   71POPC   C1B 1222   1.286   9.848   7.460
   71POPC   C2B 1223   1.355   9.922   7.019
   71POPC   C3B 1224   1.072   9.939   6.665
   71POPC   C4B 1225   0.877   9.840   6.293
   72POPC   NC3 1226   6.744   6.804   8.143
   72POPC   PO4 1227   6.217   6.942   7.775
   72POPC   GL1 1228   6.553   6.804   7.515
   72POPC   GL2 1229   6.831   6.633   7.655
   72POPC   C1A 1230   6.555   6.855   7.062
   72POPC   D2A 1231   6.736   6.902   6.678
   72POPC   C3A 1232   6.480   6.732   6.368
   72POPC   C4A 1233   6.313   6.785   5.925
   72POPC   C1B 1234   6.813   6.442   7.207
   72POPC   C2B 1235   6.663   6.385   6.741
   72POPC   C3B 1236   6.580   6.236   6.283
   72POPC   C4B 1237   6.634   6.123   5.822
   73POPC   NC3 1238   7.575   6.329   7.867
   73POPC   PO4 1239   7.190   6.864   7.993
   73POPC   GL1 1240   7.270   6.881   7.598
   73POPC   GL2 1241   7.628   6.790   7.629
   73POPC   C1A 1242   7.049   6.911   7.188
   73POPC   D2A 1243   7.140   6.618   6.834
   73POPC   C3A 1244   7.003   6.545   6.385
   73POPC   C4A 1245   6.800   6.598   5.995
   73POPC   C1B 1246   7.669   6.724   7.200
   73POPC   C2B 1247   7.780   6.695   6.781
   73POPC   C3B 1248   7.501   6.642   6.480
   73POPC   C4B 1249   7.472   6.238   6.320
   74POPC   NC3 1250   6.181   2.690   8.102
   74POPC   PO4 1251   6.691   2.319   8.223
   74POPC   GL1 1252   6.760   2.515   7.795
   74POPC   GL2 1253   6.854   2.878   7.789
   74POPC   C1A 1254   6.546   2.541   7.373
   74POPC   D2A 1255   6.467   2.335   6.954
   74POPC   C3A 1256   6.241   2.559   6.606
   74POPC   C4A 1257   6.120   2.527   6.174
   74POPC   C1B 1258   6.836   2.959   7.302
   74POPC   C2B 1259   6.644   2.823   6.889
   74POPC   C3B 1260   6.614   2.855   6.419
   74POPC   C4B 1261   6.415   2.884   5.993
   75POPC   NC3 1262   3.556   0.525   8.159
   75POPC   PO4 1263   3.906   1.086   8.138
   75POPC   GL1 1264   3.997   0.749   7.787
   75POPC   GL2 1265   3.705   0.519   7.684
   75POPC   C1A 1266   3.973   0.720   7.325
   75POPC   D2A 1267   3.553   0.734   7.088
   75POPC   C3A 1268   3.560   0.552   6.675
   75POPC   C4A 1269   3.698   0.655   6.239
   75POPC   C1B 1270   3.322   0.424   7.452
   75POPC   C2B 1271   3.156   0.391   7.036
   75POPC   C3B 1272   3.177   0.205   6.637
   75POPC   C4B 1273   3.219   0.479   6.276
   76POPC   NC3 1274   2.493   2.047   8.239
   76POPC   PO4 1275   3.011   2.441   8.324
   76POPC   GL1 1276   3.058   2.316   7.844
   76POPC   GL2 1277   2.839   2.014   7.812
   76POPC   C1A 1278   3.004   2.190   7.351
   76POPC   D2A 1279   2.744   2.079   6.937
   76POPC   C3A 1280   2.856   2.118   6.468
   76POPC   C4A 1281   3.048   2.053   6.035
   76POPC   C1B 1282   2.666   1.817   7.421
   76POPC   C2B 1283   2.480   1.645   7.048
   76POPC   C3B 1284   2.545   1.605   6.588
   76POPC   C4B 1285   2.829   1.632   6.210
   77POPC   NC3 1286   1.402   4.707   7.925
   77POPC   PO4 1287   1.474   5.279   8.052
   77POPC   GL1 1288   1.238   5.118   7.686
   77POPC   GL2 1289   1.120   5.434   7.660
   77POPC   C1A 1290   1.113   4.838   7.304
   77POPC   D2A 1291   1.331   4.623   6.952
   77POPC   C3A 1292   1.257   4.695   6.492
   77POPC   C4A 1293   1.240   4.863   6.043
   77POPC   C1B 1294   1.222   5.311   7.211
   77POPC   C2B 1295   1.065   5.100   6.839
   77POPC   C3B 1296   1.141   5.205   6.434
   77POPC   C4B 1297   1.333   5.385   6.099
   78POPC   NC3 1298   8.028   0.865   8.153
   78POPC   PO4 1299   8.019   1.536   8.236
   78POPC   GL1 1300   8.164   1.243   7.842
   78POPC   GL2 1301   8.482   1.328   7.727
   78POPC   C1A 1302   8.081   1.056   7.385
   78POPC   D2A 1303   8.308   0.994   6.971
   78POPC   C3A 1304   8.140   0.876   6.542
   78POPC   C4A 1305   7.894   0.956   6.124
   78POPC   C1B 1306   8.277   1.523   7.354
   78POPC   C2B 1307   7.962   1.422   7.008
   78POPC   C3B 1308   7.897   1.343   6.551
   78POPC   C4B 1309   8.201   1.338   6.188
   79POPC   NC3 1310   1.942   0.572   8.063
   79POPC   PO4 1311   1.948   9.925   8.092
   79POPC   GL1 1312   1.659   0.061   7.757
   79POPC   GL2 1313   1.589   0.445   7.715
   79POPC   C1A 1314   1.767   0.126   7.321
   79POPC   D2A 1315   2.153   0.245   7.052
   79POPC   C3A 1316   2.098   0.233   6.607
   79POPC   C4A 1317   2.044   0.182   6.172
   79POPC   C1B 1318   1.833   0.654   7.354
   79POPC   C2B 1319   2.160   0.799   7.038
   79POPC   C3B 1320   2.007   0.801   6.627
   79POPC   C4B 1321   1.754   0.583   6.293
   80POPC   NC3 1322   5.149   9.616   8.340
   80POPC   PO4 1323   4.635   0.100   8.221
   80POPC   GL1 1324   4.833   9.786   7.971
   80POPC   GL2 1325   5.129   9.885   7.894
   80POPC   C1A 1326   4.865   9.704   7.487
   80POPC   D2A 1327   5.076   9.788   7.064
   80POPC   C3A 1328   4.819   9.775   6.670
   80POPC   C4A 1329   4.601   9.832   6.243
   80POPC   C1B 1330   5.323   9.540   7.636
   80POPC   C2B 1331   5.420   9.437   7.184
   80POPC   C3B 1332   5.290   9.467   6.723
   80POPC   C4B 1333   5.067   9.542   6.299
   81POPC   NC3 1334   1.042   8.842   8.140
   81POPC   PO4 1335   1.570   8.400   8.100
   81POPC   GL1 1336   1.526   8.848   7.863
   81POPC   GL2 1337   1.195   8.938   7.672
   81POPC   C1A 1338   1.619   9.034   7.429
   81POPC   D2A 1339   1.384   8.792   7.095
   81POPC   C3A 1340   1.291   8.815   6.631
   81POPC   C4A 1341   1.378   9.044   6.211
   81POPC   C1B 1342   1.025   8.610   7.420
   81POPC   C2B 1343   0.888   8.552   7.002
   81POPC   C3B 1344   0.747   8.749   6.640
   81POPC   C4B 1345   0.946   8.764   6.253
   82POPC   NC3 1346   9.523   8.924   8.199
   82POPC   PO4 1347   9.965   8.454   8.163
   82POPC   GL1 1348   9.835   8.680   7.818
   82POPC   GL2 1349   9.511   8.543   7.839
   82POPC   C1A 1350   9.995   8.836   7.395
   82POPC   D2A 1351   9.991   9.169   7.042
   82POPC   C3A 1352   9.847   8.987   6.629
   82POPC   C4A 1353   9.862   8.724   6.179
   82POPC   C1B 1354   9.505   8.625   7.395
   82POPC   C2B 1355   9.670   8.643   6.977
   82POPC   C3B 1356   9.493   8.636   6.519
   82POPC   C4B 1357   9.501   9.072   6.243
   83POPC   NC3 1358   2.496   5.615   7.966
   83POPC   PO4 1359   1.954   5.741   8.455
   83POPC   GL1 1360   1.809   5.726   7.903
   83POPC   GL2 1361   2.058   5.582   7.692
   83POPC   C1A 1362   1.854   6.010   7.487
   83POPC   D2A 1363   2.108   6.070   7.084
   83POPC   C3A 1364   2.043   5.855   6.705
   83POPC   C4A 1365   1.677   5.989   6.455
   83POPC   C1B 1366   1.683   5.524   7.386
   83POPC   C2B 1367   1.577   5.623   6.920
   83POPC   C3B 1368   1.773   5.478   6.496
   83POPC   C4B 1369   2.236   5.398   6.323
   84POPC   NC3 1370   7.470   5.240   7.998
   84POPC   PO4 1371   7.562   5.871   7.869
   84POPC   GL1 1372   7.785   5.463   7.620
   84POPC   GL2 1373   7.785   5.058   7.642
   84POPC   C1A 1374   7.726   5.275   7.163
   84POPC   D2A 1375   7.721   5.317   6.676
   84POPC   C3A 1376   7.666   5.753   6.478
   84POPC   C4A 1377   7.589   5.830   6.017
   84POPC   C1B 1378   7.558   4.833   7.343
   84POPC   C2B 1379   7.625   4.721   6.910
   84POPC   C3B 1380   7.459   4.877   6.525
   84POPC   C4B 1381   7.455   4.885   6.115
   85POPC   NC3 1382   1.269   6.670   8.299
   85POPC   PO4 1383   0.756   7.093   8.343
   85POPC   GL1 1384   0.934   7.023   7.837
   85POPC   GL2 1385   1.213   6.747   7.792
   85POPC   C1A 1386   1.112   6.989   7.375
   85POPC   D2A 1387   1.239   6.676   7.033
   85POPC   C3A 1388   1.275   6.787   6.581
   85POPC   C4A 1389   1.121   6.594   6.191
   85POPC   C1B 1390   1.564   6.550   7.577
   85POPC   C2B 1391   1.665   6.401   7.174
   85POPC   C3B 1392   1.639   6.429   6.728
   85POPC   C4B 1393   1.593   6.493   6.309
   86POPC   NC3 1394   0.312   8.740   8.059
   86POPC   PO4 1395   0.297   9.357   8.127
   86POPC   GL1 1396   0.709   9.191   7.910
   86POPC   GL2 1397   0.692   8.844   7.739
   86POPC   C1A 1398   0.785   9.260   7.455
   86POPC   D2A 1399   0.501   9.308   7.080
   86POPC   C3A 1400   0.427   9.167   6.665
   86POPC   C4A 1401   0.537   9.054   6.241
   86POPC   C1B 1402   0.541   8.832   7.296
   86POPC   C2B 1403   0.258   8.750   6.940
   86POPC   C3B 1404   0.263   8.714   6.491
   86POPC   C4B 1405   0.428   8.567   6.121
   87POPC   NC3 1406   0.458   7.433   8.242
   87POPC   PO4 1407   9.920   7.025   8.234
   87POPC   GL1 1408   0.111   7.183   7.854
   87POPC   GL2 1409   0.028   7.526   7.788
   87POPC   C1A 1410   0.188   6.963   7.430
   87POPC   D2A 1411   0.138   6.838   6.982
   87POPC   C3A 1412   0.352   6.995   6.593
   87POPC   C4A 1413   0.397   7.244   6.215
   87POPC   C1B 1414   0.367   7.433   7.455
   87POPC   C2B 1415   0.417   7.325   6.998
   87POPC   C3B 1416   0.490   7.554   6.594
   87POPC   C4B 1417   0.802   7.684   6.291
   88POPC   NC3 1418   8.217   0.276   7.986
   88POPC   PO4 1419   7.634   0.619   8.134
   88POPC   GL1 1420   7.842   0.699   7.723
   88POPC   GL2 1421   8.197   0.661   7.656
   88POPC   C1A 1422   7.827   0.517   7.338
   88POPC   D2A 1423   8.070   0.527   6.960
   88POPC   C3A 1424   7.902   0.411   6.592
   88POPC   C4A 1425   7.714   0.494   6.201
   88POPC   C1B 1426   8.319   0.317   7.356
   88POPC   C2B 1427   8.258   0.033   6.977
   88POPC   C3B 1428   8.346   0.095   6.543
   88POPC   C4B 1429   8.223   0.376   6.197
   89POPC   NC3 1430   5.042   1.045   8.060
   89POPC   PO4 1431   5.447   1.565   8.225
   89POPC   GL1 1432   5.411   1.525   7.761
   89POPC   GL2 1433   5.078   1.410   7.718
   89POPC   C1A 1434   5.252   1.577   7.285
   89POPC   D2A 1435   4.882   1.421   7.025
   89POPC   C3A 1436   4.945   1.492   6.585
   89POPC   C4A 1437   5.352   1.395   6.419
   89POPC   C1B 1438   5.078   1.073   7.399
   89POPC   C2B 1439   4.863   0.914   7.044
   89POPC   C3B 1440   5.022   0.979   6.621
   89POPC   C4B 1441   5.106   1.003   6.205
   90POPC   NC3 1442   5.347   7.945   8.153
   90POPC   PO4 1443   4.874   8.444   8.258
   90POPC   GL1 1444   4.798   8.275   7.841
   90POPC   GL2 1445   5.144   8.242   7.785
   90POPC   C1A 1446   4.856   8.359   7.390
   90POPC   D2A 1447   5.142   8.330   7.039
   90POPC   C3A 1448   4.979   8.457   6.675
   90POPC   C4A 1449   4.780   8.332   6.296
   90POPC   C1B 1450   5.236   7.975   7.428
   90POPC   C2B 1451   5.075   7.821   7.024
   90POPC   C3B 1452   4.938   7.934   6.635
   90POPC   C4B 1453   5.245   8.114   6.409
   91POPC   NC3 1454   9.658   7.455   8.266
   91POPC   PO4 1455   9.225   7.034   8.112
   91POPC   GL1 1456   9.544   7.205   7.840
   91POPC   GL2 1457   9.487   7.544   7.796
   91POPC   C1A 1458   9.723   7.203   7.428
   91POPC   D2A 1459   9.617   6.938   7.055
   91POPC   C3A 1460   9.579   7.137   6.655
   91POPC   C4A 1461   9.866   7.109   6.286
   91POPC   C1B 1462   9.718   7.739   7.425
   91POPC   C2B 1463   9.975   7.580   7.094
   91POPC   C3B 1464   9.998   7.437   6.663
   91POPC   C4B 1465   9.699   7.594   6.336
   92POPC   NC3 1466   7.887   1.822   7.900
   92POPC   PO4 1467   7.625   2.419   7.981
   92POPC   GL1 1468   7.933   2.412   7.626
   92POPC   GL2 1469   8.265   2.214   7.641
   92POPC   C1A 1470   8.001   2.239   7.201
   92POPC   D2A 1471   7.773   1.993   6.900
   92POPC   C3A 1472   7.664   2.190   6.511
   92POPC   C4A 1473   7.729   2.047   6.098
   92POPC   C1B 1474   8.468   2.009   7.263
   92POPC   C2B 1475   8.288   1.814   6.873
   92POPC   C3B 1476   8.059   1.861   6.478
   92POPC   C4B 1477   8.290   2.154   6.234
   93POPC   NC3 1478   1.240   8.044   8.125
   93POPC   PO4 1479   0.696   8.495   8.130
   93POPC   GL1 1480   0.894   8.226   7.747
   93POPC   GL2 1481   1.027   7.856   7.705
   93POPC   C1A 1482   0.975   8.109   7.277
   93POPC   D2A 1483   0.887   8.025   6.836
   93POPC   C3A 1484   1.031   8.323   6.547
   93POPC   C4A 1485   1.318   8.280   6.247
   93POPC   C1B 1486   1.397   7.812   7.404
   93POPC   C2B 1487   1.370   7.738   6.939
   93POPC   C3B 1488   1.304   7.798   6.472
   93POPC   C4B 1489   1.602   7.886   6.109
   94POPC   NC3 1490   0.798   2.117   8.163
   94POPC   PO4 1491   1.385   1.800   8.226
   94POPC   GL1 1492   1.136   1.893   7.833
   94POPC   GL2 1493   1.159   2.269   7.814
   94POPC   C1A 1494   1.072   1.805   7.355
   94POPC   D2A 1495   0.942   1.705   6.893
   94POPC   C3A 1496   1.192   1.806   6.497
   94POPC   C4A 1497   1.077   1.936   6.052
   94POPC   C1B 1498   1.177   2.318   7.366
   94POPC   C2B 1499   1.139   2.178   6.935
   94POPC   C3B 1500   1.078   2.292   6.500
   94POPC   C4B 1501   1.410   2.283   6.189
   95POPC   NC3 1502   8.303   3.870   8.095
   95POPC   PO4 1503   8.058   3.222   8.099
   95POPC   GL1 1504   8.015   3.525   7.775
   95POPC   GL2 1505   8.381   3.502   7.725
   95POPC   C1A 1506   8.088   3.695   7.351
   95POPC   D2A 1507   7.893   3.586   6.957
   95POPC   C3A 1508   8.059   3.751   6.585
   95POPC   C4A 1509   7.896   3.673   6.193
   95POPC   C1B 1510   8.585   3.537   7.320
   95POPC   C2B 1511   8.428   3.539   6.918
   95POPC   C3B 1512   8.326   3.309   6.583
   95POPC   C4B 1513   8.287   3.356   6.153
   96POPC   NC3 1514   8.195   8.867   8.171
   96POPC   PO4 1515   7.895   8.260   7.917
   96POPC   GL1 1516   7.967   8.568   7.586
   96POPC   GL2 1517   8.012   8.908   7.700
   96POPC   C1A 1518   7.809   8.596   7.173
   96POPC   D2A 1519   7.937   8.339   6.831
   96POPC   C3A 1520   7.959   8.507   6.413
   96POPC   C4A 1521   7.653   8.678   6.107
   96POPC   C1B 1522   8.179   8.954   7.298
   96POPC   C2B 1523   8.239   8.759   6.897
   96POPC   C3B 1524   8.242   9.031   6.552
   96POPC   C4B 1525   8.050   8.965   6.180
   97POPC   NC3 1526   3.415   8.258   8.203
   97POPC   PO4 1527   3.346   7.606   7.936
   97POPC   GL1 1528   3.668   7.968   7.829
   97POPC   GL2 1529   3.590   8.318   7.735
   97POPC   C1A 1530   3.863   7.994   7.425
   97POPC   D2A 1531   3.635   7.910   7.046
   97POPC   C3A 1532   3.795   8.001   6.658
   97POPC   C4A 1533   3.731   8.206   6.290
   97POPC   C1B 1534   3.355   8.103   7.436
   97POPC   C2B 1535   3.181   8.141   7.035
   97POPC   C3B 1536   3.298   8.233   6.609
   97POPC   C4B 1537   3.256   8.331   6.178
   98POPC   NC3 1538   2.302   9.639   8.068
   98POPC   PO4 1539   2.943   9.935   8.135
   98POPC   GL1 1540   2.952   9.572   7.816
   98POPC   GL2 1541   2.608   9.502   7.685
   98POPC   C1A 1542   3.072   9.609   7.375
   98POPC   D2A 1543   2.825   9.651   6.978
   98POPC   C3A 1544   2.813   9.828   6.545
   98POPC   C4A 1545   2.489   9.927   6.248
   98POPC   C1B 1546   2.735   9.209   7.375
   98POPC   C2B 1547   2.910   9.131   6.970
   98POPC   C3B 1548   2.858   9.324   6.563
   98POPC   C4B 1549   2.610   9.415   6.166
   99POPC   NC3 1550   3.272   9.600   8.220
   99POPC   PO4 1551   3.954   9.378   8.140
   99POPC   GL1 1552   3.790   9.754   7.915
   99POPC   GL2 1553   3.496   9.602   7.775
   99POPC   C1A 1554   3.618   9.994   7.511
   99POPC   D2A 1555   3.407   9.940   7.090
   99POPC   C3A 1556   3.647   0.030   6.700
   99POPC   C4A 1557   3.622   0.163   6.273
   99POPC   C1B 1558   3.592   9.486   7.350
   99POPC   C2B 1559   3.337   9.444   6.966
   99POPC   C3B 1560   3.290   9.661   6.587
   99POPC   C4B 1561   3.548   9.672   6.224
  100POPC   NC3 1562   8.889   4.446   8.107
  100POPC   PO4 1563   9.472   4.530   8.425
  100POPC   GL1 1564   9.346   4.232   7.955
  100POPC   GL2 1565   9.020   4.227   7.689
  100POPC   C1A 1566   9.429   4.197   7.439
  100POPC   D2A 1567   9.280   4.137   7.000
  100POPC   C3A 1568   9.086   4.298   6.610
  100POPC   C4A 1569   9.160   4.325   6.130
  100POPC   C1B 1570   8.732   4.059   7.375
  100POPC   C2B 1571   8.811   3.882   6.990
  100POPC   C3B 1572   8.622   3.941   6.605
  100POPC   C4B 1573   8.693   4.223   6.281
  101POPC   NC3 1574   7.542   1.520   8.230
  101POPC   PO4 1575   7.142   2.015   8.370
  101POPC   GL1 1576   7.287   1.871   7.909
  101POPC   GL2 1577   7.245   2.198   7.713
  101POPC   C1A 1578   7.255   1.789   7.400
  101POPC   D2A 1579   7.102   1.729   6.921
  101POPC   C3A 1580   7.384   1.732   6.516
  101POPC   C4A 1581   7.238   1.647   6.075
  101POPC   C1B 1582   7.481   2.276   7.303
  101POPC   C2B 1583   7.304   2.227   6.878
  101POPC   C3B 1584   7.148   2.192   6.446
  101POPC   C4B 1585   7.311   2.439   6.138
  102POPC   NC3 1586   1.147   0.612   8.148
  102POPC   PO4 1587   0.953   0.024   8.101
  102POPC   GL1 1588   1.103   0.257   7.748
  102POPC   GL2 1589   0.926   0.568   7.685
  102POPC   C1A 1590   1.262   0.345   7.319
  102POPC   D2A 1591   1.114   0.397   6.891
  102POPC   C3A 1592   1.324   0.353   6.483
  102POPC   C4A 1593   1.301   0.076   6.137
  102POPC   C1B 1594   0.814   0.862   7.353
  102POPC   C2B 1595   0.748   0.740   6.925
  102POPC   C3B 1596   0.972   0.795   6.589
  102POPC   C4B 1597   0.885   0.851   6.186
  103POPC   NC3 1598   1.794   2.065   8.228
  103POPC   PO4 1599   2.289   1.629   8.159
  103POPC   GL1 1600   2.312   1.926   7.775
  103POPC   GL2 1601   2.081   2.211   7.773
  103POPC   C1A 1602   2.209   2.039   7.319
  103POPC   D2A 1603   2.035   1.962   6.906
  103POPC   C3A 1604   2.294   2.068   6.576
  103POPC   C4A 1605   2.424   1.916   6.200
  103POPC   C1B 1606   1.687   2.249   7.532
  103POPC   C2B 1607   1.632   2.286   7.077
  103POPC   C3B 1608   1.606   2.146   6.637
  103POPC   C4B 1609   1.875   2.059   6.239
  104POPC   NC3 1610   7.774   8.050   8.316
  104POPC   PO4 1611   7.211   8.472   8.172
  104POPC   GL1 1612   7.316   8.164   7.821
  104POPC   GL2 1613   7.510   8.336   7.543
  104POPC   C1A 1614   7.331   7.884   7.433
  104POPC   D2A 1615   7.534   8.059   7.042
  104POPC   C3A 1616   7.366   7.934   6.597
  104POPC   C4A 1617   7.276   7.843   6.164
  104POPC   C1B 1618   7.096   8.322   7.354
  104POPC   C2B 1619   7.095   8.250   6.914
  104POPC   C3B 1620   7.459   8.423   6.631
  104POPC   C4B 1621   7.198   8.336   6.294
  105POPC   NC3 1622   3.073   7.235   8.057
  105POPC   PO4 1623   3.088   7.934   8.236
  105POPC   GL1 1624   2.852   7.632   7.834
  105POPC   GL2 1625   3.033   7.412   7.572
  105POPC   C1A 1626   2.560   7.554   7.453
  105POPC   D2A 1627   2.394   7.517   7.021
  105POPC   C3A 1628   2.651   7.576   6.660
  105POPC   C4A 1629   2.531   7.595   6.231
  105POPC   C1B 1630   2.799   7.176   7.222
  105POPC   C2B 1631   2.634   7.074   6.807
  105POPC   C3B 1632   2.752   7.159   6.401
  105POPC   C4B 1633   3.023   7.461   6.265
  106POPC   NC3 1634   3.141   5.443   8.024
  106POPC   PO4 1635   2.821   5.931   7.953
  106POPC   GL1 1636   2.643   5.870   7.560
  106POPC   GL2 1637   2.370   6.064   7.588
  106POPC   C1A 1638   2.427   5.679   7.193
  106POPC   D2A 1639   2.468   5.522   6.751
  106POPC   C3A 1640   2.809   5.437   6.414
  106POPC   C4A 1641   3.042   4.971   6.489
  106POPC   C1B 1642   2.575   6.227   7.208
  106POPC   C2B 1643   2.574   6.032   6.792
  106POPC   C3B 1644   2.479   5.878   6.383
  106POPC   C4B 1645   2.461   5.992   5.960
  107POPC   NC3 1646   0.524   4.504   8.107
  107POPC   PO4 1647   0.221   3.908   8.177
  107POPC   GL1 1648   0.523   4.054   7.841
  107POPC   GL2 1649   0.340   4.277   7.675
  107POPC   C1A 1650   0.679   4.029   7.375
  107POPC   D2A 1651   0.806   3.903   7.002
  107POPC   C3A 1652   0.627   4.040   6.630
  107POPC   C4A 1653   0.400   3.959   6.251
  107POPC   C1B 1654   0.376   4.424   7.278
  107POPC   C2B 1655   0.399   4.447   6.848
  107POPC   C3B 1656   0.332   4.594   6.453
  107POPC   C4B 1657   0.020   4.573   6.148
  108POPC   NC3 1658   7.145   7.313   8.144
  108POPC   PO4 1659   7.738   7.555   8.198
  108POPC   GL1 1660   7.625   7.614   7.765
  108POPC   GL2 1661   7.545   7.303   7.696
  108POPC   C1A 1662   7.746   7.612   7.305
  108POPC   D2A 1663   7.464   7.564   6.918
  108POPC   C3A 1664   7.553   7.462   6.464
  108POPC   C4A 1665   7.656   7.525   6.014
  108POPC   C1B 1666   7.466   7.190   7.265
  108POPC   C2B 1667   7.429   7.058   6.838
  108POPC   C3B 1668   7.186   7.033   6.479
  108POPC   C4B 1669   7.186   7.201   6.107
  109POPC   NC3 1670   6.568   9.599   8.284
  109POPC   PO4 1671   6.222   9.862   7.791
  109POPC   GL1 1672   6.575   9.917   7.551
  109POPC   GL2 1673   6.702   9.629   7.740
  109POPC   C1A 1674   6.512   9.934   7.107
  109POPC   D2A 1675   6.606   0.095   6.739
  109POPC   C3A 1676   6.474   9.819   6.447
  109POPC   C4A 1677   6.309   9.806   6.026
  109POPC   C1B 1678   6.656   9.492   7.288
  109POPC   C2B 1679   6.811   9.594   6.843
  109POPC   C3B 1680   6.834   9.482   6.375
  109POPC   C4B 1681   6.426   9.350   6.206
  110POPC   NC3 1682   3.877   3.000   8.047
  110POPC   PO4 1683   4.437   2.726   8.248
  110POPC   GL1 1684   4.219   2.631   7.849
  110POPC   GL2 1685   3.905   2.625   7.660
  110POPC   C1A 1686   4.353   2.437   7.461
  110POPC   D2A 1687   4.288   2.219   7.065
  110POPC   C3A 1688   4.318   2.463   6.655
  110POPC   C4A 1689   4.387   2.655   6.226
  110POPC   C1B 1690   3.883   2.539   7.189
  110POPC   C2B 1691   3.763   2.424   6.736
  110POPC   C3B 1692   3.894   2.456   6.311
  110POPC   C4B 1693   3.936   2.889   6.131
  111POPC   NC3 1694   1.568   9.646   8.117
  111POPC   PO4 1695   2.175   9.199   8.118
  111POPC   GL1 1696   1.905   9.448   7.773
  111POPC   GL2 1697   2.092   9.744   7.616
  111POPC   C1A 1698   1.721   9.576   7.328
  111POPC   D2A 1699   1.862   9.816   6.915
  111POPC   C3A 1700   1.639   9.926   6.494
  111POPC   C4A 1701   1.716   9.833   6.006
  111POPC   C1B 1702   2.341   9.771   7.218
  111POPC   C2B 1703   2.343   9.785   6.746
  111POPC   C3B 1704   2.070   9.690   6.370
  111POPC   C4B 1705   2.160   9.545   5.936
  112POPC   NC3 1706   9.505   8.186   8.265
  112POPC   PO4 1707   0.037   7.756   8.269
  112POPC   GL1 1708   9.933   8.028   7.888
  112POPC   GL2 1709   9.593   8.035   7.810
  112POPC   C1A 1710   9.888   8.285   7.481
  112POPC   D2A 1711   9.885   8.127   7.046
  112POPC   C3A 1712   9.941   8.377   6.650
  112POPC   C4A 1713   9.929   8.209   6.218
  112POPC   C1B 1714   9.350   8.133   7.461
  112POPC   C2B 1715   9.351   8.229   7.040
  112POPC   C3B 1716   9.512   8.115   6.636
  112POPC   C4B 1717   9.373   8.180   6.217
  113POPC   NC3 1718   0.036   9.698   7.975
  113POPC   PO4 1719   0.437   0.056   8.389
  113POPC   GL1 1720   0.472   9.942   7.855
  113POPC   GL2 1721   0.487   9.614   7.720
  113POPC   C1A 1722   0.758   9.970   7.462
  113POPC   D2A 1723   0.884   9.682   7.117
  113POPC   C3A 1724   0.650   9.637   6.713
  113POPC   C4A 1725   0.454   9.566   6.301
  113POPC   C1B 1726   0.194   9.577   7.366
  113POPC   C2B 1727   0.198   9.727   6.938
  113POPC   C3B 1728   0.024   9.492   6.608
  113POPC   C4B 1729   0.069   9.216   6.243
  114POPC   NC3 1730   3.672   8.973   8.192
  114POPC   PO4 1731   3.123   8.583   8.084
  114POPC   GL1 1732   3.367   8.764   7.754
  114POPC   GL2 1733   3.460   9.104   7.755
  114POPC   C1A 1734   3.406   8.594   7.330
  114POPC   D2A 1735   3.603   8.429   6.965
  114POPC   C3A 1736   3.592   8.653   6.561
  114POPC   C4A 1737   3.434   8.799   6.168
  114POPC   C1B 1738   3.258   9.104   7.359
  114POPC   C2B 1739   3.370   8.927   6.944
  114POPC   C3B 1740   3.364   9.140   6.540
  114POPC   C4B 1741   3.730   9.202   6.291
  115POPC   NC3 1742   3.401   2.687   8.344
  115POPC   PO4 1743   3.479   3.271   8.086
  115POPC   GL1 1744   3.190   2.959   7.859
  115POPC   GL2 1745   3.418   2.707   7.823
  115POPC   C1A 1746   3.057   2.697   7.451
  115POPC   D2A 1747   2.858   2.584   7.033
  115POPC   C3A 1748   3.065   2.592   6.628
  115POPC   C4A 1749   3.087   2.537   6.171
  115POPC   C1B 1750   3.528   2.860   7.378
  115POPC   C2B 1751   3.503   2.875   6.876
  115POPC   C3B 1752   3.492   2.767   6.400
  115POPC   C4B 1753   3.475   2.834   5.923
  116POPC   NC3 1754   3.215   3.645   8.074
  116POPC   PO4 1755   2.692   4.106   8.068
  116POPC   GL1 1756   2.795   3.700   7.791
  116POPC   GL2 1757   2.783   3.329   7.872
  116POPC   C1A 1758   2.947   3.388   7.410
  116POPC   D2A 1759   2.960   3.138   7.011
  116POPC   C3A 1760   2.949   3.427   6.602
  116POPC   C4A 1761   2.992   3.578   6.146
  116POPC   C1B 1762   2.450   3.446   7.529
  116POPC   C2B 1763   2.504   3.410   7.074
  116POPC   C3B 1764   2.418   3.419   6.612
  116POPC   C4B 1765   2.549   3.271   6.182
  117POPC   NC3 1766   5.683   1.983   8.164
  117POPC   PO4 1767   6.269   1.569   8.160
  117POPC   GL1 1768   5.932   1.657   7.849
  117POPC   GL2 1769   5.993   2.029   7.761
  117POPC   C1A 1770   5.751   1.691   7.414
  117POPC   D2A 1771   5.831   1.792   6.969
  117POPC   C3A 1772   5.701   1.723   6.567
  117POPC   C4A 1773   5.934   1.770   6.214
  117POPC   C1B 1774   6.018   2.132   7.320
  117POPC   C2B 1775   5.963   2.265   6.907
  117POPC   C3B 1776   5.896   2.202   6.487
  117POPC   C4B 1777   5.612   2.201   6.166
  118POPC   NC3 1778   2.699   2.817   8.295
  118POPC   PO4 1779   2.149   2.405   8.228
  118POPC   GL1 1780   2.538   2.431   7.909
  118POPC   GL2 1781   2.703   2.744   7.803
  118POPC   C1A 1782   2.546   2.425   7.424
  118POPC   D2A 1783   2.338   2.408   6.978
  118POPC   C3A 1784   2.537   2.522   6.575
  118POPC   C4A 1785   2.626   2.751   6.159
  118POPC   C1B 1786   2.613   2.957   7.407
  118POPC   C2B 1787   2.479   2.909   6.971
  118POPC   C3B 1788   2.723   2.986   6.587
  118POPC   C4B 1789   3.041   3.053   6.219
  119POPC   NC3 1790   2.744   1.098   8.049
  119POPC   PO4 1791   3.115   1.662   8.082
  119POPC   GL1 1792   2.880   1.467   7.721
  119POPC   GL2 1793   2.490   1.395   7.715
  119POPC   C1A 1794   2.953   1.388   7.275
  119POPC   D2A 1795   2.963   1.555   6.870
  119POPC   C3A 1796   2.928   1.250   6.521
  119POPC   C4A 1797   2.844   0.829   6.322
  119POPC   C1B 1798   2.591   1.053   7.400
  119POPC   C2B 1799   2.600   1.129   6.926
  119POPC   C3B 1800   2.427   1.103   6.479
  119POPC   C4B 1801   2.403   1.364   6.123
  120POPC   NC3 1802   1.525   5.648   8.300
  120POPC   PO4 1803   1.217   6.207   8.264
  120POPC   GL1 1804   1.259   6.237   7.837
  120POPC   GL2 1805   1.386   5.927   7.702
  120POPC   C1A 1806   1.163   6.296   7.380
  120POPC   D2A 1807   1.305   6.117   6.950
  120POPC   C3A 1808   1.181   6.222   6.537
  120POPC   C4A 1809   1.319   6.100   6.110
  120POPC   C1B 1810   1.187   5.798   7.317
  120POPC   C2B 1811   1.059   5.671   6.896
  120POPC   C3B 1812   1.248   5.701   6.515
  120POPC   C4B 1813   0.937   5.788   6.259
  121POPC   NC3 1814   4.575   7.318   8.251
  121POPC   PO4 1815   5.160   7.514   8.165
  121POPC   GL1 1816   4.854   7.757   7.873
  121POPC   GL2 1817   4.557   7.550   7.777
  121POPC   C1A 1818   4.737   7.825   7.393
  121POPC   D2A 1819   4.599   7.639   6.939
  121POPC   C3A 1820   4.641   7.520   6.464
  121POPC   C4A 1821   4.689   7.391   5.987
  121POPC   C1B 1822   4.243   7.644   7.431
  121POPC   C2B 1823   4.138   7.812   7.020
  121POPC   C3B 1824   4.124   7.599   6.622
  121POPC   C4B 1825   3.948   7.211   6.437
  122POPC   NC3 1826   1.673   6.312   8.193
  122POPC   PO4 1827   2.204   5.963   8.065
  122POPC   GL1 1828   2.055   6.381   7.829
  122POPC   GL2 1829   2.012   6.781   7.771
  122POPC   C1A 1830   2.122   6.473   7.387
  122POPC   D2A 1831   2.082   6.580   6.931
  122POPC   C3A 1832   2.124   6.334   6.527
  122POPC   C4A 1833   2.236   6.429   6.087
  122POPC   C1B 1834   1.831   6.897   7.333
  122POPC   C2B 1835   1.684   6.912   6.897
  122POPC   C3B 1836   1.900   6.850   6.491
  122POPC   C4B 1837   1.873   6.787   6.005
  123POPC   NC3 1838   4.414   8.302   8.185
  123POPC   PO4 1839   4.239   7.623   8.172
  123POPC   GL1 1840   4.251   7.974   7.819
  123POPC   GL2 1841   4.085   8.306   7.799
  123POPC   C1A 1842   4.368   8.165   7.394
  123POPC   D2A 1843   4.613   8.159   6.985
  123POPC   C3A 1844   4.420   8.025   6.605
  123POPC   C4A 1845   4.526   7.907   6.162
  123POPC   C1B 1846   3.962   8.486   7.382
  123POPC   C2B 1847   4.087   8.314   6.994
  123POPC   C3B 1848   4.058   8.434   6.604
  123POPC   C4B 1849   4.244   8.329   6.239
  124POPC   NC3 1850   0.627   0.349   8.072
  124POPC   PO4 1851   9.992   0.146   8.051
  124POPC   GL1 1852   0.192   0.351   7.706
  124POPC   GL2 1853   0.412   0.668   7.696
  124POPC   C1A 1854   0.274   0.079   7.351
  124POPC   D2A 1855   0.581   0.110   6.978
  124POPC   C3A 1856   0.400   0.076   6.563
  124POPC   C4A 1857   0.032   9.935   6.343
  124POPC   C1B 1858   0.449   0.536   7.272
  124POPC   C2B 1859   0.264   0.645   6.858
  124POPC   C3B 1860   0.467   0.600   6.464
  124POPC   C4B 1861   0.824   0.347   6.369
  125POPC   NC3 1862   5.939   1.227   8.163
  125POPC   PO4 1863   5.397   0.747   8.184
  125POPC   GL1 1864   5.533   1.036   7.833
  125POPC   GL2 1865   5.875   1.004   7.720
  125POPC   C1A 1866   5.583   1.194   7.365
  125POPC   D2A 1867   5.368   1.203   6.943
  125POPC   C3A 1868   5.557   0.964   6.593
  125POPC   C4A 1869   5.574   0.816   6.167
  125POPC   C1B 1870   6.111   1.316   7.466
  125POPC   C2B 1871   6.091   1.365   7.006
  125POPC   C3B 1872   6.138   1.438   6.558
  125POPC   C4B 1873   5.824   1.275   6.259
  126POPC   NC3 1874   4.298   0.785   8.200
  126POPC   PO4 1875   3.830   0.265   8.441
  126POPC   GL1 1876   4.053   0.241   7.992
  126POPC   GL2 1877   4.382   0.397   7.869
  126POPC   C1A 1878   4.074   0.210   7.511
  126POPC   D2A 1879   3.804   0.285   7.128
  126POPC   C3A 1880   4.042   0.410   6.764
  126POPC   C4A 1881   4.119   0.313   6.331
  126POPC   C1B 1882   4.465   0.528   7.406
  126POPC   C2B 1883   4.524   0.526   6.952
  126POPC   C3B 1884   4.546   0.230   6.612
  126POPC   C4B 1885   4.621   0.374   6.203
  127POPC   NC3 1886   9.750   4.950   8.046
  127POPC   PO4 1887   0.379   4.880   8.352
  127POPC   GL1 1888   0.190   5.144   7.891
  127POPC   GL2 1889   9.885   5.378   7.811
  127POPC   C1A 1890   9.978   4.983   7.442
  127POPC   D2A 1891   0.097   4.808   7.068
  127POPC   C3A 1892   9.920   4.851   6.665
  127POPC   C4A 1893   9.711   5.040   6.330
  127POPC   C1B 1894   9.559   5.244   7.469
  127POPC   C2B 1895   9.645   5.116   7.043
  127POPC   C3B 1896   9.373   5.128   6.700
  127POPC   C4B 1897   9.167   5.272   6.352
  128POPC   NC3 1898   9.710   9.959   8.368
  128POPC   PO4 1899   9.372   9.371   8.172
  128POPC   GL1 1900   9.588   9.505   7.844
  128POPC   GL2 1901   9.837   9.224   7.859
  128POPC   C1A 1902   9.697   9.728   7.444
  128POPC   D2A 1903   9.716   9.609   7.036
  128POPC   C3A 1904   9.662   9.902   6.703
  128POPC   C4A 1905   9.330   9.851   6.420
  128POPC   C1B 1906   9.591   9.147   7.470
  128POPC   C2B 1907   9.476   9.147   7.024
  128POPC   C3B 1908   9.479   9.401   6.633
  128POPC   C4B 1909   9.685   9.557   6.233
  129POPC   NC3 1910   2.647   8.007   8.072
  129POPC   PO4 1911   2.342   8.535   8.366
  129POPC   GL1 1912   2.672   8.496   7.836
  129POPC   GL2 1913   2.965   8.249   7.746
  129POPC   C1A 1914   2.628   8.355   7.327
  129POPC   D2A 1915   2.364   8.336   6.916
  129POPC   C3A 1916   2.430   8.450   6.464
  129POPC   C4A 1917   2.775   8.516   6.168
  129POPC   C1B 1918   2.885   7.933   7.429
  129POPC   C2B 1919   2.719   7.930   7.020
  129POPC   C3B 1920   2.798   8.150   6.650
  129POPC   C4B 1921   2.916   7.965   6.268
  130POPC   NC3 1922   9.037   9.723   7.946
  130POPC   PO4 1923   8.540   9.302   8.241
  130POPC   GL1 1924   8.760   9.303   7.836
  130POPC   GL2 1925   9.125   9.279   7.745
  130POPC   C1A 1926   8.750   9.338   7.381
  130POPC   D2A 1927   8.976   9.290   6.985
  130POPC   C3A 1928   8.713   9.261   6.619
  130POPC   C4A 1929   8.447   9.554   6.420
  130POPC   C1B 1930   9.251   9.512   7.350
  130POPC   C2B 1931   9.193   9.788   6.970
  130POPC   C3B 1932   8.876   9.776   6.632
  130POPC   C4B 1933   8.943   9.537   6.233
  131POPC   NC3 1934   8.770   2.820   8.152
  131POPC   PO4 1935   9.270   2.301   7.901
  131POPC   GL1 1936   9.102   2.505   7.533
  131POPC   GL2 1937   8.870   2.748   7.666
  131POPC   C1A 1938   8.830   2.622   7.182
  131POPC   D2A 1939   8.981   2.841   6.837
  131POPC   C3A 1940   9.118   2.600   6.537
  131POPC   C4A 1941   9.448   2.421   6.313
  131POPC   C1B 1942   8.620   3.033   7.422
  131POPC   C2B 1943   8.553   3.051   6.998
  131POPC   C3B 1944   8.492   2.824   6.649
  131POPC   C4B 1945   8.619   2.513   6.380
  132POPC   NC3 1946   2.726   8.753   8.252
  132POPC   PO4 1947   3.233   9.146   8.238
  132POPC   GL1 1948   2.940   9.032   7.840
  132POPC   GL2 1949   2.565   9.011   7.838
  132POPC   C1A 1950   2.929   8.742   7.443
  132POPC   D2A 1951   2.954   8.582   6.981
  132POPC   C3A 1952   3.071   8.713   6.553
  132POPC   C4A 1953   2.967   8.999   6.193
  132POPC   C1B 1954   2.425   8.791   7.485
  132POPC   C2B 1955   2.506   8.811   7.070
  132POPC   C3B 1956   2.597   8.885   6.645
  132POPC   C4B 1957   2.455   8.922   6.217
  133POPC   NC3 1958   2.827   0.391   8.146
  133POPC   PO4 1959   2.332   0.848   8.075
  133POPC   GL1 1960   2.455   0.572   7.809
  133POPC   GL2 1961   2.808   0.618   7.671
  133POPC   C1A 1962   2.381   0.544   7.406
  133POPC   D2A 1963   2.680   0.648   7.100
  133POPC   C3A 1964   2.529   0.656   6.704
  133POPC   C4A 1965   2.334   0.590   6.314
  133POPC   C1B 1966   2.793   0.228   7.363
  133POPC   C2B 1967   2.680   0.184   6.881
  133POPC   C3B 1968   2.752   0.318   6.399
  133POPC   C4B 1969   2.947   0.167   5.981
  134POPC   NC3 1970   5.754   3.141   8.043
  134POPC   PO4 1971   5.785   2.443   8.097
  134POPC   GL1 1972   5.812   2.725   7.751
  134POPC   GL2 1973   6.084   2.550   7.602
  134POPC   C1A 1974   5.943   2.984   7.390
  134POPC   D2A 1975   6.167   2.755   7.076
  134POPC   C3A 1976   6.186   3.041   6.715
  134POPC   C4A 1977   6.014   3.005   6.319
  134POPC   C1B 1978   5.730   2.548   7.260
  134POPC   C2B 1979   5.735   2.710   6.797
  134POPC   C3B 1980   5.646   2.670   6.353
  134POPC   C4B 1981   5.383   2.733   5.984
  135POPC   NC3 1982   8.603   5.402   8.047
  135POPC   PO4 1983   7.923   5.294   8.099
  135POPC   GL1 1984   8.243   5.183   7.779
  135POPC   GL2 1985   8.287   4.826   7.678
  135POPC   C1A 1986   8.205   5.220   7.341
  135POPC   D2A 1987   8.150   5.453   6.949
  135POPC   C3A 1988   8.216   5.222   6.576
  135POPC   C4A 1989   8.154   4.990   6.228
  135POPC   C1B 1990   8.068   4.718   7.282
  135POPC   C2B 1991   8.133   4.712   6.822
  135POPC   C3B 1992   7.894   4.613   6.444
  135POPC   C4B 1993   7.847   4.629   5.973
  136POPC   NC3 1994   6.826   8.226   8.051
  136POPC   PO4 1995   6.748   7.593   8.059
  136POPC   GL1 1996   6.848   7.869   7.665
  136POPC   GL2 1997   6.614   8.180   7.586
  136POPC   C1A 1998   6.803   7.918   7.203
  136POPC   D2A 1999   6.706   7.760   6.801
  136POPC   C3A 2000   6.790   7.992   6.424
  136POPC   C4A 2001   6.472   7.995   6.093
  136POPC   C1B 2002   6.249   8.093   7.267
  136POPC   C2B 2003   6.034   8.171   6.848
  136POPC   C3B 2004   6.167   8.277   6.429
  136POPC   C4B 2005   6.569   8.468   6.473
  137POPC   NC3 2006   8.877   0.434   8.084
  137POPC   PO4 2007   9.422   9.987   8.006
  137POPC   GL1 2008   9.183   0.242   7.686
  137POPC   GL2 2009   8.836   0.298   7.595
  137POPC   C1A 2010   9.271   0.264   7.232
  137POPC   D2A 2011   9.075   0.430   6.849
  137POPC   C3A 2012   9.043   0.267   6.444
  137POPC   C4A 2013   9.215   0.122   6.023
  137POPC   C1B 2014   8.769   0.161   7.176
  137POPC   C2B 2015   8.567   0.439   6.891
  137POPC   C3B 2016   8.597   0.567   6.483
  137POPC   C4B 2017   8.735   0.471   6.053
  138POPC   NC3 2018   5.568   7.330   8.137
  138POPC   PO4 2019   6.099   7.211   8.373
  138POPC   GL1 2020   5.945   7.370   7.831
  138POPC   GL2 2021   6.057   7.709   7.750
  138POPC   C1A 2022   6.111   7.435   7.346
  138POPC   D2A 2023   6.000   7.673   6.965
  138POPC   C3A 2024   5.936   7.379   6.610
  138POPC   C4A 2025   6.173   7.142   6.279
  138POPC   C1B 2026   5.646   7.603   7.481
  138POPC   C2B 2027   5.507   7.540   7.026
  138POPC   C3B 2028   5.368   7.607   6.558
  138POPC   C4B 2029   5.421   7.397   6.134
  139POPC   NC3 2030   0.409   3.548   8.428
  139POPC   PO4 2031   0.990   3.673   8.108
  139POPC   GL1 2032   0.846   3.418   7.774
  139POPC   GL2 2033   0.595   3.609   7.622
  139POPC   C1A 2034   0.716   3.191   7.413
  139POPC   D2A 2035   0.515   3.471   7.100
  139POPC   C3A 2036   0.744   3.498   6.714
  139POPC   C4A 2037   0.664   3.525   6.297
  139POPC   C1B 2038   0.229   3.816   7.392
  139POPC   C2B 2039   0.271   3.971   7.000
  139POPC   C3B 2040   0.247   3.689   6.667
  139POPC   C4B 2041   0.188   3.380   6.351
  140POPC   NC3 2042   8.740   8.307   8.284
  140POPC   PO4 2043   9.246   7.763   8.239
  140POPC   GL1 2044   9.075   7.909   7.843
  140POPC   GL2 2045   9.078   8.269   7.883
  140POPC   C1A 2046   8.811   7.968   7.436
  140POPC   D2A 2047   8.892   7.852   6.995
  140POPC   C3A 2048   8.733   7.923   6.582
  140POPC   C4A 2049   8.857   8.004   6.158
  140POPC   C1B 2050   8.930   8.467   7.489
  140POPC   C2B 2051   8.842   8.368   7.049
  140POPC   C3B 2052   9.035   8.340   6.638
  140POPC   C4B 2053   8.938   8.494   6.240
  141POPC   NC3 2054   6.867   3.412   8.028
  141POPC   PO4 2055   6.208   3.148   8.037
  141POPC   GL1 2056   6.383   3.016   7.624
  141POPC   GL2 2057   6.605   3.293   7.610
  141POPC   C1A 2058   6.395   3.193   7.159
  141POPC   D2A 2059   6.641   3.318   6.745
  141POPC   C3A 2060   6.416   3.310   6.330
  141POPC   C4A 2061   6.143   3.293   5.922
  141POPC   C1B 2062   6.778   3.508   7.254
  141POPC   C2B 2063   6.897   3.756   6.880
  141POPC   C3B 2064   6.724   3.786   6.472
  141POPC   C4B 2065   6.519   3.713   6.080
  142POPC   NC3 2066   1.447   3.764   8.256
  142POPC   PO4 2067   1.511   3.089   8.174
  142POPC   GL1 2068   1.359   3.311   7.794
  142POPC   GL2 2069   1.355   3.666   7.735
  142POPC   C1A 2070   1.218   3.145   7.394
  142POPC   D2A 2071   1.014   3.145   6.981
  142POPC   C3A 2072   1.209   3.217   6.586
  142POPC   C4A 2073   0.998   3.166   6.210
  142POPC   C1B 2074   1.091   3.632   7.348
  142POPC   C2B 2075   1.240   3.630   6.905
  142POPC   C3B 2076   1.142   3.723   6.464
  142POPC   C4B 2077   0.892   3.974   6.205
  143POPC   NC3 2078   8.691   1.305   8.193
  143POPC   PO4 2079   8.457   0.687   8.086
  143POPC   GL1 2080   8.685   0.829   7.709
  143POPC   GL2 2081   9.037   0.775   7.715
  143POPC   C1A 2082   8.688   1.117   7.327
  143POPC   D2A 2083   8.629   1.417   6.983
  143POPC   C3A 2084   8.537   1.241   6.566
  143POPC   C4A 2085   8.722   1.292   6.136
  143POPC   C1B 2086   8.958   0.688   7.273
  143POPC   C2B 2087   8.829   0.891   6.870
  143POPC   C3B 2088   8.935   0.938   6.431
  143POPC   C4B 2089   9.274   1.122   6.208
  144POPC   NC3 2090   1.954   3.836   3.780
  144POPC   PO4 2091   1.945   3.078   3.931
  144POPC   GL1 2092   1.976   3.443   4.144
  144POPC   GL2 2093   1.640   3.597   4.125
  144POPC   C1A 2094   2.212   3.502   4.539
  144POPC   D2A 2095   2.368   3.582   4.983
  144POPC   C3A 2096   2.347   3.304   5.347
  144POPC   C4A 2097   2.227   3.358   5.787
  144POPC   C1B 2098   1.739   3.698   4.549
  144POPC   C2B 2099   1.861   3.447   4.940
  144POPC   C3B 2100   1.870   3.465   5.431
  144POPC   C4B 2101   1.816   3.681   5.879
  145POPC   NC3 2102   2.526   2.077   4.047
  145POPC   PO4 2103   2.532   1.492   3.742
  145POPC   GL1 2104   2.422   1.571   4.186
  145POPC   GL2 2105   2.740   1.749   4.362
  145POPC   C1A 2106   2.330   1.710   4.619
  145POPC   D2A 2107   2.693   1.646   4.897
  145POPC   C3A 2108   2.658   1.630   5.345
  145POPC   C4A 2109   2.537   1.683   5.755
  145POPC   C1B 2110   2.995   1.996   4.668
  145POPC   C2B 2111   3.104   2.128   5.104
  145POPC   C3B 2112   2.977   1.993   5.521
  145POPC   C4B 2113   3.049   1.619   5.745
  146POPC   NC3 2114   7.360   7.060   3.808
  146POPC   PO4 2115   7.711   6.641   4.042
  146POPC   GL1 2116   7.424   6.712   4.362
  146POPC   GL2 2117   7.121   6.913   4.260
  146POPC   C1A 2118   7.476   6.657   4.827
  146POPC   D2A 2119   7.593   6.884   5.211
  146POPC   C3A 2120   7.458   6.636   5.545
  146POPC   C4A 2121   7.336   6.679   5.992
  146POPC   C1B 2122   7.013   6.886   4.725
  146POPC   C2B 2123   7.080   6.763   5.193
  146POPC   C3B 2124   6.998   6.436   5.553
  146POPC   C4B 2125   7.140   6.202   5.938
  147POPC   NC3 2126   5.652   9.238   4.031
  147POPC   PO4 2127   5.383   8.640   3.908
  147POPC   GL1 2128   5.664   8.761   4.286
  147POPC   GL2 2129   5.974   8.874   4.404
  147POPC   C1A 2130   5.661   8.868   4.769
  147POPC   D2A 2131   5.875   8.972   5.139
  147POPC   C3A 2132   5.657   8.769   5.461
  147POPC   C4A 2133   5.464   8.866   5.861
  147POPC   C1B 2134   6.114   8.615   4.715
  147POPC   C2B 2135   6.271   8.663   5.091
  147POPC   C3B 2136   6.274   8.730   5.503
  147POPC   C4B 2137   5.999   8.867   5.829
  148POPC   NC3 2138   0.981   5.094   3.809
  148POPC   PO4 2139   1.575   5.295   3.967
  148POPC   GL1 2140   1.178   5.275   4.238
  148POPC   GL2 2141   1.242   4.944   4.329
  148POPC   C1A 2142   0.965   5.196   4.688
  148POPC   D2A 2143   0.936   5.038   5.139
  148POPC   C3A 2144   1.012   5.169   5.607
  148POPC   C4A 2145   0.819   5.357   6.013
  148POPC   C1B 2146   1.425   5.005   4.773
  148POPC   C2B 2147   1.440   5.081   5.240
  148POPC   C3B 2148   1.530   5.123   5.697
  148POPC   C4B 2149   1.827   5.290   6.016
  149POPC   NC3 2150   6.513   8.115   3.913
  149POPC   PO4 2151   6.134   8.612   4.026
  149POPC   GL1 2152   6.323   8.303   4.369
  149POPC   GL2 2153   6.445   7.927   4.390
  149POPC   C1A 2154   6.491   8.230   4.814
  149POPC   D2A 2155   6.301   8.184   5.237
  149POPC   C3A 2156   6.467   8.228   5.617
  149POPC   C4A 2157   6.322   8.468   5.958
  149POPC   C1B 2158   6.803   7.853   4.727
  149POPC   C2B 2159   6.803   7.998   5.156
  149POPC   C3B 2160   6.839   7.868   5.589
  149POPC   C4B 2161   6.902   8.157   5.923
  150POPC   NC3 2162   9.063   2.463   3.991
  150POPC   PO4 2163   8.933   3.111   3.964
  150POPC   GL1 2164   8.988   3.113   4.390
  150POPC   GL2 2165   8.987   2.757   4.440
  150POPC   C1A 2166   8.727   3.211   4.717
  150POPC   D2A 2167   8.503   3.135   5.094
  150POPC   C3A 2168   8.822   3.050   5.401
  150POPC   C4A 2169   8.936   2.901   5.792
  150POPC   C1B 2170   9.054   2.826   4.895
  150POPC   C2B 2171   8.913   2.528   5.219
  150POPC   C3B 2172   9.012   2.380   5.632
  150POPC   C4B 2173   9.009   2.474   6.063
  151POPC   NC3 2174   8.086   2.251   3.974
  151POPC   PO4 2175   8.720   2.149   4.134
  151POPC   GL1 2176   8.530   1.827   4.389
  151POPC   GL2 2177   8.172   1.906   4.351
  151POPC   C1A 2178   8.480   1.724   4.816
  151POPC   D2A 2179   8.577   1.740   5.244
  151POPC   C3A 2180   8.209   1.830   5.489
  151POPC   C4A 2181   8.166   1.772   5.927
  151POPC   C1B 2182   8.048   2.226   4.654
  151POPC   C2B 2183   8.007   2.153   5.071
  151POPC   C3B 2184   8.096   2.352   5.412
  151POPC   C4B 2185   8.114   2.252   5.787
  152POPC   NC3 2186   8.784   4.148   3.985
  152POPC   PO4 2187   8.984   4.789   3.862
  152POPC   GL1 2188   8.966   4.538   4.274
  152POPC   GL2 2189   9.078   4.210   4.378
  152POPC   C1A 2190   9.125   4.559   4.727
  152POPC   D2A 2191   9.309   4.570   5.149
  152POPC   C3A 2192   8.960   4.543   5.447
  152POPC   C4A 2193   8.693   4.457   5.817
  152POPC   C1B 2194   8.872   4.082   4.792
  152POPC   C2B 2195   8.787   4.057   5.255
  152POPC   C3B 2196   8.961   4.037   5.668
  152POPC   C4B 2197   8.985   3.853   6.077
  153POPC   NC3 2198   7.329   7.780   4.186
  153POPC   PO4 2199   7.668   7.357   3.655
  153POPC   GL1 2200   7.566   7.226   4.224
  153POPC   GL2 2201   7.628   7.558   4.535
  153POPC   C1A 2202   7.453   7.127   4.650
  153POPC   D2A 2203   7.516   7.367   5.017
  153POPC   C3A 2204   7.236   7.247   5.333
  153POPC   C4A 2205   7.473   7.111   5.699
  153POPC   C1B 2206   7.320   7.813   4.813
  153POPC   C2B 2207   7.258   7.779   5.228
  153POPC   C3B 2208   7.553   7.617   5.505
  153POPC   C4B 2209   7.210   7.542   5.752
  154POPC   NC3 2210   1.181   3.494   3.831
  154POPC   PO4 2211   0.592   3.693   3.820
  154POPC   GL1 2212   0.871   3.710   4.217
  154POPC   GL2 2213   1.166   3.495   4.335
  154POPC   C1A 2214   0.841   3.643   4.690
  154POPC   D2A 2215   0.970   3.397   5.088
  154POPC   C3A 2216   0.900   3.614   5.464
  154POPC   C4A 2217   0.965   3.590   5.897
  154POPC   C1B 2218   1.335   3.521   4.775
  154POPC   C2B 2219   1.461   3.632   5.200
  154POPC   C3B 2220   1.397   3.567   5.634
  154POPC   C4B 2221   1.413   3.457   6.111
  155POPC   NC3 2222   0.208   4.894   4.161
  155POPC   PO4 2223   0.788   4.606   3.834
  155POPC   GL1 2224   0.783   4.678   4.262
  155POPC   GL2 2225   0.715   4.994   4.299
  155POPC   C1A 2226   0.728   4.744   4.725
  155POPC   D2A 2227   0.426   4.958   5.033
  155POPC   C3A 2228   0.533   4.995   5.463
  155POPC   C4A 2229   0.303   4.760   5.751
  155POPC   C1B 2230   0.447   5.245   4.623
  155POPC   C2B 2231   0.107   5.361   4.965
  155POPC   C3B 2232   0.183   5.518   5.395
  155POPC   C4B 2233   0.343   5.352   5.791
  156POPC   NC3 2234   9.077   8.126   3.728
  156POPC   PO4 2235   8.614   7.772   3.878
  156POPC   GL1 2236   8.736   7.910   4.266
  156POPC   GL2 2237   9.078   7.876   4.241
  156POPC   C1A 2238   8.532   8.063   4.670
  156POPC   D2A 2239   8.433   8.360   5.039
  156POPC   C3A 2240   8.751   8.355   5.409
  156POPC   C4A 2241   8.600   8.369   5.849
  156POPC   C1B 2242   9.063   8.184   4.576
  156POPC   C2B 2243   9.301   8.324   4.944
  156POPC   C3B 2244   9.283   8.400   5.388
  156POPC   C4B 2245   9.103   8.262   5.784
  157POPC   NC3 2246   7.609   2.636   3.889
  157POPC   PO4 2247   7.044   2.267   3.894
  157POPC   GL1 2248   7.240   2.388   4.277
  157POPC   GL2 2249   7.273   2.704   4.276
  157POPC   C1A 2250   7.199   2.461   4.727
  157POPC   D2A 2251   7.014   2.408   5.125
  157POPC   C3A 2252   7.176   2.526   5.517
  157POPC   C4A 2253   7.246   2.845   5.778
  157POPC   C1B 2254   7.651   2.610   4.540
  157POPC   C2B 2255   7.658   2.586   4.976
  157POPC   C3B 2256   7.605   2.335   5.344
  157POPC   C4B 2257   7.643   2.452   5.768
  158POPC   NC3 2258   5.038   0.567   4.062
  158POPC   PO4 2259   5.168   9.951   3.939
  158POPC   GL1 2260   5.233   0.169   4.398
  158POPC   GL2 2261   5.294   0.550   4.511
  158POPC   C1A 2262   5.119   0.246   4.869
  158POPC   D2A 2263   5.290   0.494   5.241
  158POPC   C3A 2264   5.338   0.270   5.638
  158POPC   C4A 2265   5.547   0.300   6.065
  158POPC   C1B 2266   4.980   0.764   4.761
  158POPC   C2B 2267   4.798   0.613   5.136
  158POPC   C3B 2268   4.854   0.585   5.580
  158POPC   C4B 2269   4.645   0.796   5.927
  159POPC   NC3 2270   1.344   6.673   4.024
  159POPC   PO4 2271   0.858   6.225   3.875
  159POPC   GL1 2272   0.990   6.342   4.272
  159POPC   GL2 2273   1.339   6.331   4.419
  159POPC   C1A 2274   0.855   6.641   4.592
  159POPC   D2A 2275   0.918   6.865   5.004
  159POPC   C3A 2276   1.120   6.662   5.358
  159POPC   C4A 2277   0.942   6.769   5.755
  159POPC   C1B 2278   1.346   6.698   4.725
  159POPC   C2B 2279   1.492   6.941   5.096
  159POPC   C3B 2280   1.646   6.843   5.519
  159POPC   C4B 2281   1.428   6.512   5.777
  160POPC   NC3 2282   0.582   5.817   3.796
  160POPC   PO4 2283   0.504   5.131   3.862
  160POPC   GL1 2284   0.668   5.465   4.156
  160POPC   GL2 2285   0.384   5.636   4.239
  160POPC   C1A 2286   0.750   5.639   4.602
  160POPC   D2A 2287   0.622   5.471   5.043
  160POPC   C3A 2288   0.742   5.599   5.467
  160POPC   C4A 2289   0.635   5.842   5.861
  160POPC   C1B 2290   0.249   5.751   4.654
  160POPC   C2B 2291   0.347   5.967   5.021
  160POPC   C3B 2292   0.409   6.005   5.442
  160POPC   C4B 2293   0.132   5.882   5.798
  161POPC   NC3 2294   0.563   7.546   3.853
  161POPC   PO4 2295   0.068   7.066   3.843
  161POPC   GL1 2296   0.223   7.324   4.166
  161POPC   GL2 2297   0.518   7.117   4.183
  161POPC   C1A 2298   0.276   7.469   4.594
  161POPC   D2A 2299   0.144   7.648   5.019
  161POPC   C3A 2300   0.337   7.503   5.426
  161POPC   C4A 2301   0.576   7.552   5.828
  161POPC   C1B 2302   0.675   7.147   4.609
  161POPC   C2B 2303   0.654   7.361   5.014
  161POPC   C3B 2304   0.747   7.194   5.445
  161POPC   C4B 2305   0.494   7.040   5.762
  162POPC   NC3 2306   3.986   3.618   3.905
  162POPC   PO4 2307   4.306   4.057   3.802
  162POPC   GL1 2308   4.385   3.710   4.201
  162POPC   GL2 2309   4.420   3.340   4.212
  162POPC   C1A 2310   4.215   3.509   4.645
  162POPC   D2A 2311   4.052   3.358   5.077
  162POPC   C3A 2312   3.601   3.345   5.288
  162POPC   C4A 2313   3.376   3.296   5.720
  162POPC   C1B 2314   4.469   3.034   4.517
  162POPC   C2B 2315   4.461   3.035   4.985
  162POPC   C3B 2316   4.216   2.969   5.390
  162POPC   C4B 2317   3.878   3.131   5.668
  163POPC   NC3 2318   8.121   7.043   3.870
  163POPC   PO4 2319   7.756   7.639   4.073
  163POPC   GL1 2320   8.098   7.372   4.261
  163POPC   GL2 2321   8.429   7.505   4.298
  163POPC   C1A 2322   8.354   7.123   4.624
  163POPC   D2A 2323   8.426   6.940   5.057
  163POPC   C3A 2324   8.091   6.953   5.373
  163POPC   C4A 2325   7.956   7.221   5.723
  163POPC   C1B 2326   8.177   7.618   4.683
  163POPC   C2B 2327   8.112   7.360   5.045
  163POPC   C3B 2328   8.346   7.399   5.428
  163POPC   C4B 2329   8.070   7.684   5.590
  164POPC   NC3 2330   8.162   7.804   3.970
  164POPC   PO4 2331   7.539   8.153   3.933
  164POPC   GL1 2332   7.743   8.090   4.314
  164POPC   GL2 2333   8.032   8.267   4.189
  164POPC   C1A 2334   8.007   8.108   4.699
  164POPC   D2A 2335   8.047   7.958   5.135
  164POPC   C3A 2336   8.306   8.117   5.486
  164POPC   C4A 2337   8.494   7.888   5.820
  164POPC   C1B 2338   7.858   8.568   4.497
  164POPC   C2B 2339   7.905   8.531   4.982
  164POPC   C3B 2340   8.017   8.533   5.431
  164POPC   C4B 2341   8.070   8.404   5.903
  165POPC   NC3 2342   6.397   0.528   3.898
  165POPC   PO4 2343   6.094   1.058   4.070
  165POPC   GL1 2344   6.382   0.812   4.332
  165POPC   GL2 2345   6.676   0.573   4.323
  165POPC   C1A 2346   6.530   0.831   4.743
  165POPC   D2A 2347   6.420   0.572   5.066
  165POPC   C3A 2348   6.344   0.766   5.422
  165POPC   C4A 2349   6.271   0.632   5.819
  165POPC   C1B 2350   6.629   0.299   4.668
  165POPC   C2B 2351   6.606   0.074   5.061
  165POPC   C3B 2352   6.675   0.270   5.398
  165POPC   C4B 2353   6.547   0.205   5.777
  166POPC   NC3 2354   3.203   8.791   3.952
  166POPC   PO4 2355   3.810   8.980   4.013
  166POPC   GL1 2356   3.458   8.939   4.364
  166POPC   GL2 2357   3.384   9.253   4.544
  166POPC   C1A 2358   3.284   8.839   4.810
  166POPC   D2A 2359   3.377   9.191   5.078
  166POPC   C3A 2360   3.402   9.263   5.529
  166POPC   C4A 2361   3.336   9.277   5.974
  166POPC   C1B 2362   3.789   9.143   4.722
  166POPC   C2B 2363   3.812   8.897   5.083
  166POPC   C3B 2364   3.627   8.750   5.437
  166POPC   C4B 2365   3.735   8.972   5.800
  167POPC   NC3 2366   7.163   9.303   3.839
  167POPC   PO4 2367   6.954   9.923   3.921
  167POPC   GL1 2368   7.077   9.639   4.273
  167POPC   GL2 2369   7.438   9.515   4.215
  167POPC   C1A 2370   7.148   9.404   4.698
  167POPC   D2A 2371   7.321   9.299   5.117
  167POPC   C3A 2372   7.125   9.436   5.521
  167POPC   C4A 2373   7.175   9.577   5.980
  167POPC   C1B 2374   7.438   9.824   4.564
  167POPC   C2B 2375   7.548   9.811   4.996
  167POPC   C3B 2376   7.573   9.671   5.404
  167POPC   C4B 2377   7.384   9.943   5.693
  168POPC   NC3 2378   9.015   7.487   3.922
  168POPC   PO4 2379   8.567   7.090   4.002
  168POPC   GL1 2380   8.823   7.071   4.358
  168POPC   GL2 2381   8.926   7.395   4.395
  168POPC   C1A 2382   8.835   7.162   4.824
  168POPC   D2A 2383   8.828   7.322   5.230
  168POPC   C3A 2384   8.830   7.015   5.576
  168POPC   C4A 2385   9.057   7.130   5.973
  168POPC   C1B 2386   8.905   7.703   4.714
  168POPC   C2B 2387   8.907   7.999   5.063
  168POPC   C3B 2388   8.944   7.861   5.499
  168POPC   C4B 2389   8.797   7.500   5.724
  169POPC   NC3 2390   3.936   8.053   4.046
  169POPC   PO4 2391   3.284   7.849   3.874
  169POPC   GL1 2392   3.467   8.123   4.237
  169POPC   GL2 2393   3.635   8.473   4.207
  169POPC   C1A 2394   3.452   8.218   4.687
  169POPC   D2A 2395   3.232   8.116   5.073
  169POPC   C3A 2396   3.374   8.187   5.492
  169POPC   C4A 2397   3.475   7.964   5.874
  169POPC   C1B 2398   3.722   8.628   4.652
  169POPC   C2B 2399   3.794   8.366   5.056
  169POPC   C3B 2400   3.888   8.276   5.499
  169POPC   C4B 2401   3.673   8.444   5.854
  170POPC   NC3 2402   7.313   0.925   3.906
  170POPC   PO4 2403   7.441   1.561   3.862
  170POPC   GL1 2404   7.386   1.250   4.289
  170POPC   GL2 2405   7.717   1.207   4.465
  170POPC   C1A 2406   7.403   1.014   4.775
  170POPC   D2A 2407   7.470   1.142   5.239
  170POPC   C3A 2408   7.248   0.846   5.529
  170POPC   C4A 2409   6.825   0.699   5.612
  170POPC   C1B 2410   7.410   1.524   4.708
  170POPC   C2B 2411   7.141   1.511   5.067
  170POPC   C3B 2412   7.233   1.541   5.529
  170POPC   C4B 2413   7.443   1.242   5.779
  171POPC   NC3 2414   2.246   6.227   3.998
  171POPC   PO4 2415   1.608   6.294   3.996
  171POPC   GL1 2416   1.883   6.127   4.331
  171POPC   GL2 2417   1.961   5.777   4.355
  171POPC   C1A 2418   2.131   6.073   4.744
  171POPC   D2A 2419   1.942   5.993   5.195
  171POPC   C3A 2420   2.061   5.911   5.651
  171POPC   C4A 2421   2.033   5.807   6.138
  171POPC   C1B 2422   1.654   5.904   4.717
  171POPC   C2B 2423   1.417   5.987   5.103
  171POPC   C3B 2424   1.517   6.036   5.551
  171POPC   C4B 2425   1.618   5.738   5.873
  172POPC   NC3 2426   0.769   4.119   3.871
  172POPC   PO4 2427   1.448   3.846   3.720
  172POPC   GL1 2428   1.283   3.994   4.119
  172POPC   GL2 2429   1.175   4.350   4.114
  172POPC   C1A 2430   1.209   3.982   4.584
  172POPC   D2A 2431   1.079   3.902   5.057
  172POPC   C3A 2432   1.056   4.107   5.497
  172POPC   C4A 2433   0.659   3.991   5.743
  172POPC   C1B 2434   1.182   4.496   4.560
  172POPC   C2B 2435   1.178   4.595   5.001
  172POPC   C3B 2436   1.191   4.664   5.451
  172POPC   C4B 2437   1.428   4.438   5.749
  173POPC   NC3 2438   2.137   7.234   3.787
  173POPC   PO4 2439   2.438   6.632   3.915
  173POPC   GL1 2440   2.142   6.600   4.329
  173POPC   GL2 2441   1.766   6.632   4.364
  173POPC   C1A 2442   2.081   6.800   4.748
  173POPC   D2A 2443   1.993   7.074   5.106
  173POPC   C3A 2444   2.290   7.094   5.442
  173POPC   C4A 2445   2.282   6.770   5.703
  173POPC   C1B 2446   1.754   6.407   4.758
  173POPC   C2B 2447   1.682   6.444   5.194
  173POPC   C3B 2448   1.903   6.405   5.585
  173POPC   C4B 2449   1.801   6.213   5.965
  174POPC   NC3 2450   7.117   4.569   3.981
  174POPC   PO4 2451   7.498   4.049   3.906
  174POPC   GL1 2452   7.396   4.195   4.293
  174POPC   GL2 2453   7.704   4.099   4.388
  174POPC   C1A 2454   7.428   4.278   4.770
  174POPC   D2A 2455   7.355   4.090   5.189
  174POPC   C3A 2456   7.111   4.190   5.529
  174POPC   C4A 2457   7.175   4.119   5.954
  174POPC   C1B 2458   7.948   4.321   4.657
  174POPC   C2B 2459   7.993   4.352   5.090
  174POPC   C3B 2460   7.689   4.433   5.380
  174POPC   C4B 2461   7.603   4.237   5.756
  175POPC   NC3 2462   4.162   7.333   4.155
  175POPC   PO4 2463   3.943   6.776   4.126
  175POPC   GL1 2464   3.884   6.986   4.541
  175POPC   GL2 2465   3.933   7.364   4.614
  175POPC   C1A 2466   3.969   6.979   5.014
  175POPC   D2A 2467   4.124   7.259   5.364
  175POPC   C3A 2468   4.207   7.156   5.794
  175POPC   C4A 2469   4.381   7.054   6.230
  175POPC   C1B 2470   4.122   7.555   4.942
  175POPC   C2B 2471   4.417   7.678   5.272
  175POPC   C3B 2472   4.358   7.665   5.706
  175POPC   C4B 2473   4.212   7.527   6.122
  176POPC   NC3 2474   8.634   4.915   4.137
  176POPC   PO4 2475   8.235   5.382   3.732
  176POPC   GL1 2476   8.207   5.207   4.150
  176POPC   GL2 2477   8.085   4.857   4.029
  176POPC   C1A 2478   8.324   5.235   4.629
  176POPC   D2A 2479   8.128   5.244   5.063
  176POPC   C3A 2480   8.275   5.259   5.505
  176POPC   C4A 2481   8.414   5.331   5.937
  176POPC   C1B 2482   8.090   4.802   4.485
  176POPC   C2B 2483   8.220   4.762   4.902
  176POPC   C3B 2484   8.065   4.802   5.339
  176POPC   C4B 2485   8.255   4.809   5.742
  177POPC   NC3 2486   0.320   4.736   3.703
  177POPC   PO4 2487   0.244   4.114   3.968
  177POPC   GL1 2488   0.404   4.313   4.386
  177POPC   GL2 2489   0.752   4.180   4.386
  177POPC   C1A 2490   0.355   4.428   4.886
  177POPC   D2A 2491   0.703   4.570   5.198
  177POPC   C3A 2492   0.715   4.492   5.601
  177POPC   C4A 2493   0.499   4.389   6.010
  177POPC   C1B 2494   0.810   4.232   4.813
  177POPC   C2B 2495   0.620   4.075   5.214
  177POPC   C3B 2496   0.288   4.269   5.480
  177POPC   C4B 2497   0.098   4.100   5.870
  178POPC   NC3 2498   8.684   9.711   4.087
  178POPC   PO4 2499   9.280   9.385   3.855
  178POPC   GL1 2500   9.124   9.547   4.260
  178POPC   GL2 2501   9.092   9.919   4.356
  178POPC   C1A 2502   8.993   9.528   4.681
  178POPC   D2A 2503   9.153   9.364   5.046
  178POPC   C3A 2504   8.978   9.521   5.439
  178POPC   C4A 2505   8.955   9.281   5.796
  178POPC   C1B 2506   8.831   0.009   4.744
  178POPC   C2B 2507   8.936   9.977   5.203
  178POPC   C3B 2508   8.881   9.982   5.687
  178POPC   C4B 2509   8.711   9.989   6.172
  179POPC   NC3 2510   3.508   7.449   3.728
  179POPC   PO4 2511   4.091   7.665   3.800
  179POPC   GL1 2512   3.690   7.630   4.161
  179POPC   GL2 2513   3.635   7.313   4.216
  179POPC   C1A 2514   3.390   7.733   4.567
  179POPC   D2A 2515   3.182   7.606   5.002
  179POPC   C3A 2516   3.393   7.643   5.448
  179POPC   C4A 2517   3.407   7.445   5.908
  179POPC   C1B 2518   3.449   7.250   4.626
  179POPC   C2B 2519   3.605   7.323   5.073
  179POPC   C3B 2520   3.654   7.194   5.525
  179POPC   C4B 2521   3.743   7.081   5.980
  180POPC   NC3 2522   9.922   2.669   3.853
  180POPC   PO4 2523   0.038   3.269   4.230
  180POPC   GL1 2524   9.709   3.110   4.388
  180POPC   GL2 2525   9.462   2.868   4.291
  180POPC   C1A 2526   9.644   2.971   4.767
  180POPC   D2A 2527   9.560   3.077   5.141
  180POPC   C3A 2528   9.784   2.853   5.444
  180POPC   C4A 2529   9.586   3.095   5.774
  180POPC   C1B 2530   9.426   2.529   4.645
  180POPC   C2B 2531   9.425   2.512   5.095
  180POPC   C3B 2532   9.291   2.766   5.447
  180POPC   C4B 2533   9.442   2.591   5.814
  181POPC   NC3 2534   0.990   1.238   4.029
  181POPC   PO4 2535   0.848   0.694   3.655
  181POPC   GL1 2536   1.182   0.793   4.137
  181POPC   GL2 2537   1.465   0.992   4.331
  181POPC   C1A 2538   1.050   0.953   4.615
  181POPC   D2A 2539   1.228   1.239   4.936
  181POPC   C3A 2540   1.213   1.157   5.382
  181POPC   C4A 2541   1.161   1.093   5.827
  181POPC   C1B 2542   1.655   1.344   4.690
  181POPC   C2B 2543   1.644   1.506   5.164
  181POPC   C3B 2544   1.623   1.361   5.620
  181POPC   C4B 2545   1.524   1.364   6.092
  182POPC   NC3 2546   2.178   1.689   3.509
  182POPC   PO4 2547   1.922   1.795   4.100
  182POPC   GL1 2548   1.879   2.014   4.453
  182POPC   GL2 2549   1.715   2.275   4.334
  182POPC   C1A 2550   1.889   1.872   4.875
  182POPC   D2A 2551   2.283   1.894   5.099
  182POPC   C3A 2552   2.390   2.115   5.448
  182POPC   C4A 2553   2.160   2.029   5.800
  182POPC   C1B 2554   1.772   2.519   4.713
  182POPC   C2B 2555   1.953   2.331   5.112
  182POPC   C3B 2556   1.845   2.009   5.401
  182POPC   C4B 2557   1.707   2.253   5.756
  183POPC   NC3 2558   7.810   1.290   3.987
  183POPC   PO4 2559   8.364   1.498   3.701
  183POPC   GL1 2560   8.252   1.432   4.181
  183POPC   GL2 2561   8.440   1.192   4.337
  183POPC   C1A 2562   8.144   1.363   4.682
  183POPC   D2A 2563   8.178   1.426   5.167
  183POPC   C3A 2564   7.931   1.399   5.612
  183POPC   C4A 2565   7.746   1.535   6.060
  183POPC   C1B 2566   8.533   1.041   4.787
  183POPC   C2B 2567   8.518   1.044   5.255
  183POPC   C3B 2568   8.423   1.153   5.712
  183POPC   C4B 2569   8.414   0.875   6.101
  184POPC   NC3 2570   8.229   8.938   3.850
  184POPC   PO4 2571   7.589   9.108   3.845
  184POPC   GL1 2572   7.936   9.147   4.209
  184POPC   GL2 2573   8.226   8.926   4.336
  184POPC   C1A 2574   8.060   9.277   4.647
  184POPC   D2A 2575   7.819   9.366   5.007
  184POPC   C3A 2576   7.972   9.288   5.414
  184POPC   C4A 2577   7.853   8.954   5.707
  184POPC   C1B 2578   8.267   8.783   4.724
  184POPC   C2B 2579   8.226   8.934   5.114
  184POPC   C3B 2580   8.460   8.758   5.426
  184POPC   C4B 2581   8.334   8.807   5.799
  185POPC   NC3 2582   8.135   9.491   3.702
  185POPC   PO4 2583   8.373   0.104   3.933
  185POPC   GL1 2584   8.231   9.816   4.259
  185POPC   GL2 2585   7.939   9.653   4.198
  185POPC   C1A 2586   8.424   9.664   4.675
  185POPC   D2A 2587   8.630   9.603   5.051
  185POPC   C3A 2588   8.499   9.765   5.432
  185POPC   C4A 2589   8.548   9.638   5.868
  185POPC   C1B 2590   7.941   9.791   4.676
  185POPC   C2B 2591   8.065   9.777   5.149
  185POPC   C3B 2592   8.021   9.805   5.614
  185POPC   C4B 2593   7.858   0.126   5.883
  186POPC   NC3 2594   5.020   2.139   3.884
  186POPC   PO4 2595   5.176   1.454   4.036
  186POPC   GL1 2596   5.143   1.736   4.363
  186POPC   GL2 2597   5.162   2.088   4.363
  186POPC   C1A 2598   4.963   1.772   4.766
  186POPC   D2A 2599   5.094   1.928   5.178
  186POPC   C3A 2600   4.823   1.975   5.554
  186POPC   C4A 2601   4.747   1.935   6.028
  186POPC   C1B 2602   4.976   2.287   4.753
  186POPC   C2B 2603   4.826   2.371   5.180
  186POPC   C3B 2604   5.097   2.411   5.553
  186POPC   C4B 2605   5.164   2.209   5.940
  187POPC   NC3 2606   3.381   2.901   3.846
  187POPC   PO4 2607   4.038   3.156   3.937
  187POPC   GL1 2608   3.766   3.032   4.261
  187POPC   GL2 2609   3.599   2.724   4.294
  187POPC   C1A 2610   3.518   3.066   4.666
  187POPC   D2A 2611   3.271   2.817   4.949
  187POPC   C3A 2612   3.294   2.891   5.393
  187POPC   C4A 2613   3.003   2.787   5.739
  187POPC   C1B 2614   3.724   2.546   4.708
  187POPC   C2B 2615   3.555   2.430   5.123
  187POPC   C3B 2616   3.328   2.387   5.506
  187POPC   C4B 2617   3.494   2.332   5.904
  188POPC   NC3 2618   2.907   8.125   3.786
  188POPC   PO4 2619   2.311   8.047   3.994
  188POPC   GL1 2620   2.592   8.202   4.273
  188POPC   GL2 2621   2.981   8.333   4.234
  188POPC   C1A 2622   2.433   8.178   4.703
  188POPC   D2A 2623   2.210   8.046   5.077
  188POPC   C3A 2624   2.449   8.132   5.427
  188POPC   C4A 2625   2.502   8.437   5.733
  188POPC   C1B 2626   2.952   8.161   4.626
  188POPC   C2B 2627   2.860   8.455   4.951
  188POPC   C3B 2628   2.888   8.395   5.391
  188POPC   C4B 2629   2.937   8.193   5.802
  189POPC   NC3 2630   9.343   5.092   3.930
  189POPC   PO4 2631   9.981   5.298   4.173
  189POPC   GL1 2632   9.622   5.037   4.358
  189POPC   GL2 2633   9.490   4.702   4.283
  189POPC   C1A 2634   9.451   4.951   4.777
  189POPC   D2A 2635   9.579   5.101   5.151
  189POPC   C3A 2636   9.475   4.894   5.544
  189POPC   C4A 2637   9.420   5.139   5.934
  189POPC   C1B 2638   9.823   4.659   4.654
  189POPC   C2B 2639   9.953   4.714   5.095
  189POPC   C3B 2640   0.011   5.016   5.419
  189POPC   C4B 2641   9.889   5.002   5.846
  190POPC   NC3 2642   8.760   1.125   3.725
  190POPC   PO4 2643   9.337   1.396   3.906
  190POPC   GL1 2644   8.933   1.280   4.174
  190POPC   GL2 2645   8.796   0.886   4.186
  190POPC   C1A 2646   8.845   1.404   4.601
  190POPC   D2A 2647   8.988   1.546   5.011
  190POPC   C3A 2648   8.910   1.362   5.404
  190POPC   C4A 2649   9.123   1.383   5.790
  190POPC   C1B 2650   8.997   0.891   4.569
  190POPC   C2B 2651   9.025   1.029   4.987
  190POPC   C3B 2652   8.978   0.859   5.399
  190POPC   C4B 2653   8.883   0.918   5.850
  191POPC   NC3 2654   0.739   2.666   4.178
  191POPC   PO4 2655   1.350   2.402   4.013
  191POPC   GL1 2656   1.237   2.860   4.201
  191POPC   GL2 2657   1.435   3.120   4.046
  191POPC   C1A 2658   1.067   3.072   4.631
  191POPC   D2A 2659   0.928   2.894   5.069
  191POPC   C3A 2660   1.227   2.669   5.350
  191POPC   C4A 2661   1.535   2.725   5.702
  191POPC   C1B 2662   1.573   3.186   4.477
  191POPC   C2B 2663   1.511   3.054   4.920
  191POPC   C3B 2664   1.478   3.129   5.368
  191POPC   C4B 2665   1.186   3.107   5.737
  192POPC   NC3 2666   1.921   9.790   3.788
  192POPC   PO4 2667   1.336   9.649   4.080
  192POPC   GL1 2668   1.772   9.623   4.232
  192POPC   GL2 2669   2.103   9.799   4.263
  192POPC   C1A 2670   1.850   9.480   4.625
  192POPC   D2A 2671   1.774   9.364   5.035
  192POPC   C3A 2672   1.885   9.564   5.452
  192POPC   C4A 2673   1.683   9.361   5.822
  192POPC   C1B 2674   2.252   9.759   4.674
  192POPC   C2B 2675   2.383   9.961   4.993
  192POPC   C3B 2676   2.219   0.150   5.337
  192POPC   C4B 2677   2.097   0.001   5.705
  193POPC   NC3 2678   7.932   6.242   4.050
  193POPC   PO4 2679   8.347   6.629   3.746
  193POPC   GL1 2680   8.258   6.689   4.214
  193POPC   GL2 2681   7.974   6.901   4.368
  193POPC   C1A 2682   8.296   6.585   4.668
  193POPC   D2A 2683   8.489   6.435   5.103
  193POPC   C3A 2684   8.477   6.615   5.540
  193POPC   C4A 2685   8.269   6.426   5.918
  193POPC   C1B 2686   7.922   6.924   4.811
  193POPC   C2B 2687   7.970   6.556   5.064
  193POPC   C3B 2688   7.992   6.451   5.477
  193POPC   C4B 2689   7.877   6.741   5.799
  194POPC   NC3 2690   7.780   5.368   3.851
  194POPC   PO4 2691   7.520   4.763   3.932
  194POPC   GL1 2692   7.632   4.644   4.356
  194POPC   GL2 2693   7.308   4.695   4.449
  194POPC   C1A 2694   7.707   4.720   4.826
  194POPC   D2A 2695   7.595   4.980   5.161
  194POPC   C3A 2696   7.617   4.895   5.596
  194POPC   C4A 2697   7.858   5.154   5.856
  194POPC   C1B 2698   7.207   4.733   4.883
  194POPC   C2B 2699   7.226   4.647   5.330
  194POPC   C3B 2700   7.231   4.603   5.792
  194POPC   C4B 2701   7.020   4.577   6.220
  195POPC   NC3 2702   3.537   1.907   3.968
  195POPC   PO4 2703   3.697   2.521   3.835
  195POPC   GL1 2704   3.768   2.244   4.267
  195POPC   GL2 2705   3.388   2.223   4.338
  195POPC   C1A 2706   3.883   1.826   4.562
  195POPC   D2A 2707   4.080   1.667   4.977
  195POPC   C3A 2708   3.874   1.610   5.396
  195POPC   C4A 2709   3.934   1.564   5.838
  195POPC   C1B 2710   3.494   2.077   4.747
  195POPC   C2B 2711   3.567   1.926   5.159
  195POPC   C3B 2712   3.484   1.894   5.614
  195POPC   C4B 2713   3.497   1.807   6.056
  196POPC   NC3 2714   4.724   1.400   3.991
  196POPC   PO4 2715   4.012   1.575   3.910
  196POPC   GL1 2716   3.939   1.376   4.315
  196POPC   GL2 2717   4.201   1.147   4.239
  196POPC   C1A 2718   4.056   1.228   4.743
  196POPC   D2A 2719   4.097   1.155   5.203
  196POPC   C3A 2720   4.367   1.472   5.392
  196POPC   C4A 2721   4.641   1.518   5.735
  196POPC   C1B 2722   4.514   1.025   4.567
  196POPC   C2B 2723   4.582   1.068   5.010
  196POPC   C3B 2724   4.559   1.008   5.449
  196POPC   C4B 2725   4.273   1.163   5.797
  197POPC   NC3 2726   7.421   7.742   3.722
  197POPC   PO4 2727   6.903   7.977   4.098
  197POPC   GL1 2728   7.109   8.178   4.419
  197POPC   GL2 2729   7.341   8.455   4.352
  197POPC   C1A 2730   7.021   8.343   4.800
  197POPC   D2A 2731   7.234   8.559   5.114
  197POPC   C3A 2732   7.123   8.290   5.434
  197POPC   C4A 2733   7.316   8.032   5.688
  197POPC   C1B 2734   7.518   8.282   4.750
  197POPC   C2B 2735   7.585   8.178   5.202
  197POPC   C3B 2736   7.791   8.107   5.607
  197POPC   C4B 2737   7.629   8.187   6.057
  198POPC   NC3 2738   9.015   3.410   3.621
  198POPC   PO4 2739   9.329   3.864   4.020
  198POPC   GL1 2740   9.132   3.707   4.349
  198POPC   GL2 2741   8.862   3.585   4.160
  198POPC   C1A 2742   9.083   3.593   4.760
  198POPC   D2A 2743   9.108   3.337   5.099
  198POPC   C3A 2744   9.037   3.518   5.515
  198POPC   C4A 2745   9.141   3.365   5.957
  198POPC   C1B 2746   8.644   3.713   4.529
  198POPC   C2B 2747   8.616   3.639   4.993
  198POPC   C3B 2748   8.520   3.532   5.425
  198POPC   C4B 2749   8.656   3.534   5.852
  199POPC   NC3 2750   1.831   9.158   3.769
  199POPC   PO4 2751   2.355   9.503   3.921
  199POPC   GL1 2752   2.167   9.282   4.256
  199POPC   GL2 2753   2.126   8.929   4.201
  199POPC   C1A 2754   2.287   9.216   4.686
  199POPC   D2A 2755   2.111   8.952   5.019
  199POPC   C3A 2756   1.962   9.061   5.420
  199POPC   C4A 2757   2.178   9.038   5.807
  199POPC   C1B 2758   1.848   8.956   4.583
  199POPC   C2B 2759   1.595   8.843   4.991
  199POPC   C3B 2760   1.544   8.725   5.450
  199POPC   C4B 2761   1.703   8.857   5.848
  200POPC   NC3 2762   7.951   0.392   4.079
  200POPC   PO4 2763   7.761   0.915   3.727
  200POPC   GL1 2764   8.067   0.885   4.138
  200POPC   GL2 2765   8.351   0.624   4.258
  200POPC   C1A 2766   8.077   0.860   4.605
  200POPC   D2A 2767   7.915   1.004   5.004
  200POPC   C3A 2768   7.880   0.681   5.349
  200POPC   C4A 2769   8.027   0.593   5.777
  200POPC   C1B 2770   8.301   0.207   4.585
  200POPC   C2B 2771   8.412   0.126   5.013
  200POPC   C3B 2772   8.218   0.232   5.402
  200POPC   C4B 2773   8.398   0.151   5.785
  201POPC   NC3 2774   8.925   9.204   3.609
  201POPC   PO4 2775   8.402   9.340   4.046
  201POPC   GL1 2776   8.676   9.251   4.346
  201POPC   GL2 2777   8.940   9.089   4.136
  201POPC   C1A 2778   8.616   9.165   4.784
  201POPC   D2A 2779   8.731   9.127   5.221
  201POPC   C3A 2780   8.485   9.240   5.582
  201POPC   C4A 2781   8.527   9.174   6.083
  201POPC   C1B 2782   9.104   9.040   4.584
  201POPC   C2B 2783   9.100   8.833   5.015
  201POPC   C3B 2784   9.119   8.886   5.470
  201POPC   C4B 2785   8.848   8.789   5.803
  202POPC   NC3 2786   7.405   3.611   3.969
  202POPC   PO4 2787   7.704   3.079   3.773
  202POPC   GL1 2788   7.489   3.143   4.225
  202POPC   GL2 2789   7.422   3.420   4.427
  202POPC   C1A 2790   7.340   2.989   4.708
  202POPC   D2A 2791   7.254   2.969   5.200
  202POPC   C3A 2792   7.485   3.253   5.538
  202POPC   C4A 2793   7.352   3.297   5.988
  202POPC   C1B 2794   7.333   3.728   4.731
  202POPC   C2B 2795   7.358   3.568   5.138
  202POPC   C3B 2796   7.234   3.697   5.540
  202POPC   C4B 2797   7.559   3.725   5.814
  203POPC   NC3 2798   5.588   0.052   3.527
  203POPC   PO4 2799   5.504   0.510   4.071
  203POPC   GL1 2800   5.903   0.580   4.279
  203POPC   GL2 2801   5.874   0.867   4.483
  203POPC   C1A 2802   6.147   0.465   4.646
  203POPC   D2A 2803   6.126   0.133   4.965
  203POPC   C3A 2804   6.175   0.237   5.410
  203POPC   C4A 2805   6.022   0.188   5.825
  203POPC   C1B 2806   5.698   0.643   4.798
  203POPC   C2B 2807   5.850   0.523   5.159
  203POPC   C3B 2808   5.758   0.557   5.582
  203POPC   C4B 2809   5.384   0.791   5.691
  204POPC   NC3 2810   4.442   7.926   3.693
  204POPC   PO4 2811   4.154   7.751   4.316
  204POPC   GL1 2812   3.859   7.911   4.568
  204POPC   GL2 2813   3.983   8.223   4.530
  204POPC   C1A 2814   3.673   7.842   4.987
  204POPC   D2A 2815   3.904   7.748   5.352
  204POPC   C3A 2816   3.853   7.628   5.738
  204POPC   C4A 2817   4.028   7.989   5.938
  204POPC   C1B 2818   4.453   8.270   4.617
  204POPC   C2B 2819   4.541   8.317   5.060
  204POPC   C3B 2820   4.401   8.166   5.462
  204POPC   C4B 2821   4.539   8.291   5.840
  205POPC   NC3 2822   5.746   8.336   3.975
  205POPC   PO4 2823   6.158   7.793   3.934
  205POPC   GL1 2824   5.922   7.952   4.347
  205POPC   GL2 2825   5.780   8.298   4.456
  205POPC   C1A 2826   6.020   8.112   4.817
  205POPC   D2A 2827   5.826   8.412   5.110
  205POPC   C3A 2828   5.938   8.343   5.561
  205POPC   C4A 2829   6.015   8.030   5.892
  205POPC   C1B 2830   5.530   8.022   4.737
  205POPC   C2B 2831   5.418   8.115   5.184
  205POPC   C3B 2832   5.539   8.024   5.621
  205POPC   C4B 2833   5.533   7.891   6.060
  206POPC   NC3 2834   9.626   9.149   4.038
  206POPC   PO4 2835   0.035   8.653   3.900
  206POPC   GL1 2836   9.998   8.922   4.266
  206POPC   GL2 2837   9.712   8.738   4.362
  206POPC   C1A 2838   9.984   9.081   4.699
  206POPC   D2A 2839   0.209   9.168   5.077
  206POPC   C3A 2840   0.053   9.327   5.466
  206POPC   C4A 2841   9.787   9.260   5.831
  206POPC   C1B 2842   9.550   8.836   4.774
  206POPC   C2B 2843   9.586   8.816   5.223
  206POPC   C3B 2844   9.608   8.807   5.668
  206POPC   C4B 2845   9.331   8.678   5.993
  207POPC   NC3 2846   2.878   1.361   4.031
  207POPC   PO4 2847   2.309   0.986   3.936
  207POPC   GL1 2848   2.645   0.980   4.293
  207POPC   GL2 2849   2.759   1.266   4.501
  207POPC   C1A 2850   2.619   0.881   4.789
  207POPC   D2A 2851   2.680   1.174   5.118
  207POPC   C3A 2852   2.556   1.140   5.555
  207POPC   C4A 2853   2.471   0.898   5.946
  207POPC   C1B 2854   3.084   1.288   4.781
  207POPC   C2B 2855   3.184   1.054   5.121
  207POPC   C3B 2856   3.081   1.113   5.565
  207POPC   C4B 2857   2.871   1.190   5.960
  208POPC   NC3 2858   6.379   9.026   4.139
  208POPC   PO4 2859   6.918   8.916   3.756
  208POPC   GL1 2860   6.789   8.776   4.278
  208POPC   GL2 2861   6.710   9.113   4.546
  208POPC   C1A 2862   6.651   8.686   4.750
  208POPC   D2A 2863   6.723   8.498   5.197
  208POPC   C3A 2864   6.775   8.632   5.622
  208POPC   C4A 2865   6.803   8.629   6.072
  208POPC   C1B 2866   6.328   9.099   4.799
  208POPC   C2B 2867   6.375   9.156   5.212
  208POPC   C3B 2868   6.655   9.129   5.512
  208POPC   C4B 2869   6.518   8.990   5.879
  209POPC   NC3 2870   2.951   5.706   3.790
  209POPC   PO4 2871   2.304   5.763   3.960
  209POPC   GL1 2872   2.501   5.904   4.318
  209POPC   GL2 2873   2.879   5.923   4.321
  209POPC   C1A 2874   2.529   5.754   4.725
  209POPC   D2A 2875   2.481   5.970   5.113
  209POPC   C3A 2876   2.545   5.749   5.513
  209POPC   C4A 2877   2.727   5.557   5.914
  209POPC   C1B 2878   2.945   6.043   4.805
  209POPC   C2B 2879   2.965   5.957   5.296
  209POPC   C3B 2880   2.909   6.021   5.752
  209POPC   C4B 2881   2.978   5.912   6.208
  210POPC   NC3 2882   1.239   7.457   3.860
  210POPC   PO4 2883   0.922   6.861   3.965
  210POPC   GL1 2884   1.062   7.155   4.263
  210POPC   GL2 2885   0.877   7.486   4.268
  210POPC   C1A 2886   1.179   7.187   4.707
  210POPC   D2A 2887   1.146   7.318   5.154
  210POPC   C3A 2888   1.243   7.134   5.559
  210POPC   C4A 2889   1.393   6.979   5.990
  210POPC   C1B 2890   0.949   7.650   4.693
  210POPC   C2B 2891   1.192   7.811   5.067
  210POPC   C3B 2892   1.277   7.693   5.498
  210POPC   C4B 2893   1.434   7.478   5.878
  211POPC   NC3 2894   2.092   7.712   4.194
  211POPC   PO4 2895   1.680   7.282   3.861
  211POPC   GL1 2896   1.885   7.109   4.232
  211POPC   GL2 2897   2.248   7.090   4.268
  211POPC   C1A 2898   1.680   7.093   4.632
  211POPC   D2A 2899   1.576   7.444   4.915
  211POPC   C3A 2900   1.663   7.384   5.357
  211POPC   C4A 2901   1.890   7.259   5.722
  211POPC   C1B 2902   2.131   7.314   4.670
  211POPC   C2B 2903   2.052   7.574   5.018
  211POPC   C3B 2904   2.191   7.619   5.436
  211POPC   C4B 2905   2.492   7.737   5.741
  212POPC   NC3 2906   9.430   1.846   3.905
  212POPC   PO4 2907   9.547   2.456   4.027
  212POPC   GL1 2908   9.703   2.157   4.347
  212POPC   GL2 2909   9.845   1.829   4.266
  212POPC   C1A 2910   9.678   2.084   4.805
  212POPC   D2A 2911   9.781   2.094   5.237
  212POPC   C3A 2912   9.475   2.155   5.546
  212POPC   C4A 2913   9.323   2.063   5.958
  212POPC   C1B 2914   9.696   1.604   4.653
  212POPC   C2B 2915   9.497   1.649   5.100
  212POPC   C3B 2916   9.534   1.639   5.556
  212POPC   C4B 2917   9.817   1.790   5.873
  213POPC   NC3 2918   2.022   5.387   3.982
  213POPC   PO4 2919   2.518   4.964   3.994
  213POPC   GL1 2920   2.206   5.124   4.369
  213POPC   GL2 2921   1.816   5.058   4.340
  213POPC   C1A 2922   1.921   5.401   4.692
  213POPC   D2A 2923   1.682   5.527   5.079
  213POPC   C3A 2924   1.867   5.461   5.505
  213POPC   C4A 2925   2.247   5.451   5.804
  213POPC   C1B 2926   1.923   4.873   4.731
  213POPC   C2B 2927   1.700   4.638   5.049
  213POPC   C3B 2928   1.751   4.710   5.476
  213POPC   C4B 2929   2.065   4.972   5.694
  214POPC   NC3 2930   1.359   8.439   4.006
  214POPC   PO4 2931   0.934   7.860   3.918
  214POPC   GL1 2932   1.109   8.069   4.307
  214POPC   GL2 2933   1.498   8.087   4.341
  214POPC   C1A 2934   0.998   8.159   4.757
  214POPC   D2A 2935   0.726   8.013   5.144
  214POPC   C3A 2936   0.895   8.058   5.562
  214POPC   C4A 2937   1.120   7.898   5.942
  214POPC   C1B 2938   1.452   8.400   4.692
  214POPC   C2B 2939   1.309   8.351   5.128
  214POPC   C3B 2940   1.407   8.209   5.547
  214POPC   C4B 2941   1.679   8.340   5.874
  215POPC   NC3 2942   5.109   8.650   3.516
  215POPC   PO4 2943   4.809   9.019   3.990
  215POPC   GL1 2944   4.881   8.877   4.376
  215POPC   GL2 2945   5.179   8.810   4.373
  215POPC   C1A 2946   4.828   8.654   4.748
  215POPC   D2A 2947   4.680   8.813   5.112
  215POPC   C3A 2948   4.733   8.600   5.485
  215POPC   C4A 2949   4.895   8.650   5.905
  215POPC   C1B 2950   5.196   9.071   4.737
  215POPC   C2B 2951   5.049   9.189   5.137
  215POPC   C3B 2952   5.061   9.004   5.541
  215POPC   C4B 2953   5.021   9.123   5.974
  216POPC   NC3 2954   2.886   6.573   3.828
  216POPC   PO4 2955   3.314   7.078   3.932
  216POPC   GL1 2956   3.120   6.906   4.352
  216POPC   GL2 2957   2.722   6.735   4.330
  216POPC   C1A 2958   3.025   7.056   4.819
  216POPC   D2A 2959   2.753   6.911   5.184
  216POPC   C3A 2960   2.899   6.893   5.624
  216POPC   C4A 2961   3.114   7.004   6.032
  216POPC   C1B 2962   2.473   6.472   4.684
  216POPC   C2B 2963   2.232   6.438   5.100
  216POPC   C3B 2964   2.386   6.280   5.500
  216POPC   C4B 2965   2.648   6.433   5.770
  217POPC   NC3 2966   2.910   3.718   3.513
  217POPC   PO4 2967   2.834   4.147   4.042
  217POPC   GL1 2968   2.715   4.363   4.458
  217POPC   GL2 2969   2.449   4.658   4.473
  217POPC   C1A 2970   2.853   4.282   4.913
  217POPC   D2A 2971   3.100   4.124   5.297
  217POPC   C3A 2972   2.995   4.002   5.742
  217POPC   C4A 2973   2.695   4.115   6.116
  217POPC   C1B 2974   2.361   4.401   4.844
  217POPC   C2B 2975   2.440   4.092   5.174
  217POPC   C3B 2976   2.541   4.209   5.622
  217POPC   C4B 2977   2.441   4.625   5.840
  218POPC   NC3 2978   3.060   7.490   4.075
  218POPC   PO4 2979   2.432   7.548   3.929
  218POPC   GL1 2980   2.543   7.514   4.350
  218POPC   GL2 2981   2.735   7.237   4.369
  218POPC   C1A 2982   2.757   7.653   4.708
  218POPC   D2A 2983   2.733   7.943   5.046
  218POPC   C3A 2984   2.927   7.864   5.415
  218POPC   C4A 2985   2.993   7.698   5.819
  218POPC   C1B 2986   2.540   7.038   4.710
  218POPC   C2B 2987   2.507   7.339   5.049
  218POPC   C3B 2988   2.735   7.384   5.438
  218POPC   C4B 2989   2.700   7.280   5.877
  219POPC   NC3 2990   2.530   4.504   4.000
  219POPC   PO4 2991   1.930   4.191   4.066
  219POPC   GL1 2992   2.205   4.197   4.374
  219POPC   GL2 2993   1.972   4.419   4.532
  219POPC   C1A 2994   2.112   3.970   4.766
  219POPC   D2A 2995   1.938   3.903   5.158
  219POPC   C3A 2996   2.186   3.840   5.555
  219POPC   C4A 2997   2.206   3.951   6.026
  219POPC   C1B 2998   1.637   4.202   4.766
  219POPC   C2B 2999   1.478   4.180   5.195
  219POPC   C3B 3000   1.685   4.053   5.565
  219POPC   C4B 3001   2.043   4.328   5.684
  220POPC   NC3 3002   5.608   9.979   4.089
  220POPC   PO4 3003   6.272   0.091   3.890
  220POPC   GL1 3004   6.058   0.078   4.332
  220POPC   GL2 3005   5.915   9.772   4.440
  220POPC   C1A 3006   5.703   0.155   4.688
  220POPC   D2A 3007   5.547   0.064   5.111
  220POPC   C3A 3008   5.780   9.899   5.454
  220POPC   C4A 3009   5.822   9.714   5.868
  220POPC   C1B 3010   5.895   9.687   4.876
  220POPC   C2B 3011   5.988   9.476   5.255
  220POPC   C3B 3012   5.732   9.271   5.570
  220POPC   C4B 3013   5.427   9.386   5.864
  221POPC   NC3 3014   9.775   4.025   3.922
  221POPC   PO4 3015   9.888   4.684   3.894
  221POPC   GL1 3016   9.903   4.378   4.253
  221POPC   GL2 3017   9.582   4.189   4.358
  221POPC   C1A 3018   9.963   4.184   4.677
  221POPC   D2A 3019   9.723   4.252   5.038
  221POPC   C3A 3020   9.794   4.102   5.446
  221POPC   C4A 3021   9.861   4.513   5.654
  221POPC   C1B 3022   9.382   4.019   4.754
  221POPC   C2B 3023   9.300   4.045   5.246
  221POPC   C3B 3024   9.384   4.317   5.652
  221POPC   C4B 3025   9.631   4.161   6.048
  222POPC   NC3 3026   9.342   3.326   4.099
  222POPC   PO4 3027   9.877   3.357   3.744
  222POPC   GL1 3028   9.716   3.623   4.207
  222POPC   GL2 3029   9.956   3.786   4.401
  222POPC   C1A 3030   9.585   3.545   4.662
  222POPC   D2A 3031   9.694   3.712   5.067
  222POPC   C3A 3032   9.543   3.534   5.425
  222POPC   C4A 3033   9.402   3.805   5.747
  222POPC   C1B 3034   0.084   3.532   4.791
  222POPC   C2B 3035   0.054   3.254   5.123
  222POPC   C3B 3036   9.994   3.303   5.540
  222POPC   C4B 3037   9.843   3.574   5.850
  223POPC   NC3 3038   1.233   0.117   4.050
  223POPC   PO4 3039   0.730   0.610   4.164
  223POPC   GL1 3040   1.092   0.395   4.464
  223POPC   GL2 3041   1.454   0.432   4.406
  223POPC   C1A 3042   1.366   0.224   4.856
  223POPC   D2A 3043   1.148   0.204   5.219
  223POPC   C3A 3044   1.241   0.134   5.627
  223POPC   C4A 3045   0.888   0.221   5.884
  223POPC   C1B 3046   1.460   0.702   4.746
  223POPC   C2B 3047   1.218   0.719   5.110
  223POPC   C3B 3048   1.240   0.650   5.556
  223POPC   C4B 3049   1.255   0.555   5.994
  224POPC   NC3 3050   8.090   3.046   3.510
  224POPC   PO4 3051   8.578   3.519   3.745
  224POPC   GL1 3052   8.281   3.597   4.199
  224POPC   GL2 3053   7.886   3.655   4.199
  224POPC   C1A 3054   8.256   3.409   4.655
  224POPC   D2A 3055   8.086   3.510   5.086
  224POPC   C3A 3056   8.101   3.207   5.438
  224POPC   C4A 3057   8.432   3.093   5.733
  224POPC   C1B 3058   7.828   3.666   4.631
  224POPC   C2B 3059   7.768   3.912   4.970
  224POPC   C3B 3060   7.805   3.902   5.409
  224POPC   C4B 3061   8.082   3.663   5.708
  225POPC   NC3 3062   6.557   9.683   3.978
  225POPC   PO4 3063   6.042   9.335   4.238
  225POPC   GL1 3064   6.395   9.513   4.438
  225POPC   GL2 3065   6.541   9.867   4.438
  225POPC   C1A 3066   6.450   9.608   4.867
  225POPC   D2A 3067   6.654   9.593   5.246
  225POPC   C3A 3068   6.356   9.750   5.518
  225POPC   C4A 3069   6.203   9.375   5.732
  225POPC   C1B 3070   6.924   9.862   4.729
  225POPC   C2B 3071   7.082   9.855   5.187
  225POPC   C3B 3072   6.891   9.868   5.607
  225POPC   C4B 3073   6.700   9.525   5.828
  226POPC   NC3 3074   9.944   5.793   4.021
  226POPC   PO4 3075   9.374   5.530   3.756
  226POPC   GL1 3076   9.515   5.510   4.180
  226POPC   GL2 3077   9.474   5.810   4.262
  226POPC   C1A 3078   9.579   5.460   4.676
  226POPC   D2A 3079   9.565   5.629   5.138
  226POPC   C3A 3080   9.678   5.400   5.558
  226POPC   C4A 3081   9.876   5.478   5.987
  226POPC   C1B 3082   9.491   5.965   4.678
  226POPC   C2B 3083   9.845   6.066   4.923
  226POPC   C3B 3084   9.914   5.969   5.327
  226POPC   C4B 3085   9.631   5.897   5.609
  227POPC   NC3 3086   8.988   5.737   3.932
  227POPC   PO4 3087   9.244   6.370   3.853
  227POPC   GL1 3088   9.099   6.147   4.276
  227POPC   GL2 3089   8.970   5.820   4.426
  227POPC   C1A 3090   9.049   6.206   4.748
  227POPC   D2A 3091   9.106   5.815   4.994
  227POPC   C3A 3092   9.131   5.824   5.453
  227POPC   C4A 3093   9.221   6.104   5.810
  227POPC   C1B 3094   8.730   5.548   4.716
  227POPC   C2B 3095   8.665   5.434   5.137
  227POPC   C3B 3096   8.671   5.588   5.556
  227POPC   C4B 3097   8.849   5.803   5.905
  228POPC   NC3 3098   8.452   3.180   4.023
  228POPC   PO4 3099   8.061   2.664   3.766
  228POPC   GL1 3100   7.991   2.800   4.195
  228POPC   GL2 3101   7.991   3.150   4.210
  228POPC   C1A 3102   8.146   2.749   4.645
  228POPC   D2A 3103   8.118   2.780   5.110
  228POPC   C3A 3104   8.459   2.695   5.407
  228POPC   C4A 3105   8.539   2.563   5.837
  228POPC   C1B 3106   7.818   3.140   4.625
  228POPC   C2B 3107   7.720   3.126   5.068
  228POPC   C3B 3108   7.725   2.831   5.435
  228POPC   C4B 3109   8.039   2.766   5.746
  229POPC   NC3 3110   6.003   2.971   3.960
  229POPC   PO4 3111   5.391   3.075   4.140
  229POPC   GL1 3112   5.711   2.915   4.394
  229POPC   GL2 3113   5.720   2.622   4.252
  229POPC   C1A 3114   5.920   2.824   4.818
  229POPC   D2A 3115   6.261   2.712   5.080
  229POPC   C3A 3116   6.226   2.772   5.528
  229POPC   C4A 3117   5.891   2.852   5.844
  229POPC   C1B 3118   5.769   2.383   4.626
  229POPC   C2B 3119   6.042   2.279   4.957
  229POPC   C3B 3120   6.014   2.305   5.402
  229POPC   C4B 3121   5.664   2.420   5.691
  230POPC   NC3 3122   1.280   6.039   3.826
  230POPC   PO4 3123   0.971   5.565   3.746
  230POPC   GL1 3124   1.066   5.788   4.199
  230POPC   GL2 3125   1.442   5.786   4.249
  230POPC   C1A 3126   1.128   5.954   4.654
  230POPC   D2A 3127   0.860   5.937   5.031
  230POPC   C3A 3128   0.998   6.067   5.419
  230POPC   C4A 3129   0.958   6.260   5.804
  230POPC   C1B 3130   1.377   5.503   4.626
  230POPC   C2B 3131   1.167   5.512   5.034
  230POPC   C3B 3132   1.310   5.564   5.449
  230POPC   C4B 3133   1.123   5.738   5.794
  231POPC   NC3 3134   4.941   8.537   4.008
  231POPC   PO4 3135   5.448   7.982   4.026
  231POPC   GL1 3136   5.297   8.304   4.304
  231POPC   GL2 3137   4.958   8.277   4.435
  231POPC   C1A 3138   5.338   8.490   4.736
  231POPC   D2A 3139   5.164   8.627   5.151
  231POPC   C3A 3140   5.260   8.468   5.572
  231POPC   C4A 3141   5.146   8.212   5.921
  231POPC   C1B 3142   4.990   8.154   4.884
  231POPC   C2B 3143   4.923   8.132   5.361
  231POPC   C3B 3144   4.826   7.867   5.732
  231POPC   C4B 3145   5.020   7.747   6.148
  232POPC   NC3 3146   7.102   1.869   3.652
  232POPC   PO4 3147   7.642   2.147   4.043
  232POPC   GL1 3148   7.632   2.036   4.437
  232POPC   GL2 3149   7.709   1.694   4.321
  232POPC   C1A 3150   7.504   2.091   4.884
  232POPC   D2A 3151   7.272   1.967   5.264
  232POPC   C3A 3152   6.904   2.091   5.524
  232POPC   C4A 3153   6.866   2.099   5.974
  232POPC   C1B 3154   7.866   1.752   4.774
  232POPC   C2B 3155   7.731   1.697   5.204
  232POPC   C3B 3156   7.698   1.881   5.608
  232POPC   C4B 3157   7.333   2.057   5.778
  233POPC   NC3 3158   0.471   0.887   3.892
  233POPC   PO4 3159   0.683   1.579   3.920
  233POPC   GL1 3160   0.515   1.265   4.249
  233POPC   GL2 3161   0.166   1.173   4.221
  233POPC   C1A 3162   0.524   1.025   4.676
  233POPC   D2A 3163   0.786   1.031   5.084
  233POPC   C3A 3164   0.735   0.924   5.540
  233POPC   C4A 3165   0.629   1.185   5.919
  233POPC   C1B 3166   0.176   1.392   4.630
  233POPC   C2B 3167   0.464   1.434   4.999
  233POPC   C3B 3168   0.459   1.377   5.456
  233POPC   C4B 3169   0.200   1.453   5.856
  234POPC   NC3 3170   2.996   3.702   4.024
  234POPC   PO4 3171   2.454   3.820   3.613
  234POPC   GL1 3172   2.430   3.778   4.097
  234POPC   GL2 3173   2.513   3.416   4.096
  234POPC   C1A 3174   2.573   3.881   4.582
  234POPC   D2A 3175   2.844   3.764   4.972
  234POPC   C3A 3176   2.680   3.708   5.408
  234POPC   C4A 3177   2.594   3.696   5.844
  234POPC   C1B 3178   2.717   3.396   4.534
  234POPC   C2B 3179   2.950   3.244   4.901
  234POPC   C3B 3180   3.059   3.368   5.323
  234POPC   C4B 3181   2.856   3.281   5.737
  235POPC   NC3 3182   0.382   3.200   3.945
  235POPC   PO4 3183   0.396   2.512   3.876
  235POPC   GL1 3184   0.213   2.801   4.252
  235POPC   GL2 3185   9.913   2.629   4.407
  235POPC   C1A 3186   0.177   2.924   4.737
  235POPC   D2A 3187   0.415   2.870   5.141
  235POPC   C3A 3188   0.294   2.839   5.577
  235POPC   C4A 3189   0.172   3.073   5.952
  235POPC   C1B 3190   9.912   2.523   4.886
  235POPC   C2B 3191   0.234   2.349   5.184
  235POPC   C3B 3192   0.641   2.450   5.371
  235POPC   C4B 3193   0.818   2.724   5.678
  236POPC   NC3 3194   1.879   1.314   4.048
  236POPC   PO4 3195   1.672   0.609   3.998
  236POPC   GL1 3196   1.939   0.840   4.309
  236POPC   GL2 3197   2.247   0.718   4.434
  236POPC   C1A 3198   1.910   0.917   4.760
  236POPC   D2A 3199   1.666   0.998   5.121
  236POPC   C3A 3200   1.749   0.760   5.477
  236POPC   C4A 3201   1.630   0.886   5.868
  236POPC   C1B 3202   2.269   1.197   4.577
  236POPC   C2B 3203   2.171   1.402   4.991
  236POPC   C3B 3204   2.132   1.496   5.441
  236POPC   C4B 3205   2.070   1.128   5.715
  237POPC   NC3 3206   2.718   9.815   3.908
  237POPC   PO4 3207   3.119   9.244   4.099
  237POPC   GL1 3208   2.897   9.411   4.485
  237POPC   GL2 3209   2.611   9.608   4.371
  237POPC   C1A 3210   2.683   9.537   4.884
  237POPC   D2A 3211   2.305   9.453   5.146
  237POPC   C3A 3212   2.469   9.350   5.548
  237POPC   C4A 3213   2.897   9.359   5.712
  237POPC   C1B 3214   2.856   9.926   4.595
  237POPC   C2B 3215   2.904   0.018   5.034
  237POPC   C3B 3216   2.685   9.778   5.362
  237POPC   C4B 3217   2.607   9.802   5.783
  238POPC   NC3 3218   7.807   4.385   3.948
  238POPC   PO4 3219   8.485   4.501   3.909
  238POPC   GL1 3220   8.262   4.401   4.239
  238POPC   GL2 3221   8.218   4.073   4.311
  238POPC   C1A 3222   8.468   4.395   4.636
  238POPC   D2A 3223   8.683   4.504   5.008
  238POPC   C3A 3224   8.438   4.451   5.378
  238POPC   C4A 3225   8.099   4.315   5.655
  238POPC   C1B 3226   8.254   3.938   4.784
  238POPC   C2B 3227   8.285   3.965   5.258
  238POPC   C3B 3228   8.469   3.988   5.697
  238POPC   C4B 3229   8.373   3.863   6.143
  239POPC   NC3 3230   9.581   6.662   3.940
  239POPC   PO4 3231   9.937   6.184   4.262
  239POPC   GL1 3232   9.705   6.534   4.429
  239POPC   GL2 3233   9.872   6.880   4.304
  239POPC   C1A 3234   9.508   6.471   4.844
  239POPC   D2A 3235   9.418   6.206   5.213
  239POPC   C3A 3236   9.549   6.421   5.609
  239POPC   C4A 3237   9.467   6.394   6.119
  239POPC   C1B 3238   9.728   6.948   4.727
  239POPC   C2B 3239   9.750   6.825   5.154
  239POPC   C3B 3240   9.804   7.025   5.540
  239POPC   C4B 3241   9.696   6.813   5.908
  240POPC   NC3 3242   5.627   0.978   4.064
  240POPC   PO4 3243   5.933   1.455   3.662
  240POPC   GL1 3244   5.844   1.474   4.174
  240POPC   GL2 3245   5.553   1.397   4.337
  240POPC   C1A 3246   5.946   1.336   4.642
  240POPC   D2A 3247   6.069   0.986   4.943
  240POPC   C3A 3248   5.903   1.007   5.359
  240POPC   C4A 3249   5.893   1.002   5.805
  240POPC   C1B 3250   5.462   1.535   4.741
  240POPC   C2B 3251   5.690   1.400   5.100
  240POPC   C3B 3252   5.644   1.408   5.554
  240POPC   C4B 3253   5.445   1.250   5.916
  241POPC   NC3 3254   2.135   0.552   3.933
  241POPC   PO4 3255   1.705   0.184   3.584
  241POPC   GL1 3256   1.733   0.125   4.100
  241POPC   GL2 3257   1.960   0.305   4.323
  241POPC   C1A 3258   1.706   9.976   4.566
  241POPC   D2A 3259   1.846   9.909   5.009
  241POPC   C3A 3260   1.690   0.233   5.327
  241POPC   C4A 3261   1.675   0.325   5.798
  241POPC   C1B 3262   1.893   0.401   4.771
  241POPC   C2B 3263   2.100   0.608   5.116
  241POPC   C3B 3264   2.307   0.652   5.509
  241POPC   C4B 3265   2.063   0.627   5.887
  242POPC   NC3 3266   6.451   3.253   3.400
  242POPC   PO4 3267   6.272   3.367   3.977
  242POPC   GL1 3268   6.559   3.202   4.369
  242POPC   GL2 3269   6.949   3.147   4.311
  242POPC   C1A 3270   6.478   3.139   4.837
  242POPC   D2A 3271   6.195   3.187   5.202
  242POPC   C3A 3272   6.480   3.243   5.546
  242POPC   C4A 3273   6.691   3.665   5.604
  242POPC   C1B 3274   6.964   3.334   4.740
  242POPC   C2B 3275   6.879   3.357   5.189
  242POPC   C3B 3276   6.986   3.244   5.603
  242POPC   C4B 3277   6.818   3.181   6.008
  243POPC   NC3 3278   3.488   0.428   3.753
  243POPC   PO4 3279   3.187   1.029   3.906
  243POPC   GL1 3280   3.452   0.738   4.205
  243POPC   GL2 3281   3.627   0.390   4.224
  243POPC   C1A 3282   3.471   0.560   4.666
  243POPC   D2A 3283   3.408   0.158   4.935
  243POPC   C3A 3284   3.257   0.241   5.377
  243POPC   C4A 3285   3.383   0.416   5.792
  243POPC   C1B 3286   3.862   0.258   4.611
  243POPC   C2B 3287   3.815   0.453   5.038
  243POPC   C3B 3288   3.802   0.310   5.454
  243POPC   C4B 3289   3.908   0.337   5.876
  244POPC   NC3 3290   8.698   1.752   3.912
  244POPC   PO4 3291   9.170   2.146   3.687
  244POPC   GL1 3292   9.200   2.095   4.269
  244POPC   GL2 3293   9.071   1.763   4.289
  244POPC   C1A 3294   8.970   2.283   4.720
  244POPC   D2A 3295   8.556   2.218   5.014
  244POPC   C3A 3296   8.578   2.181   5.490
  244POPC   C4A 3297   8.694   2.091   5.940
  244POPC   C1B 3298   9.237   1.854   4.705
  244POPC   C2B 3299   9.151   2.037   5.150
  244POPC   C3B 3300   9.009   1.858   5.565
  244POPC   C4B 3301   8.637   1.627   5.755
  245POPC   NC3 3302   0.343   9.838   3.991
  245POPC   PO4 3303   0.746   9.336   3.841
  245POPC   GL1 3304   0.620   9.440   4.261
  245POPC   GL2 3305   0.330   9.310   4.407
  245POPC   C1A 3306   0.651   9.524   4.734
  245POPC   D2A 3307   0.515   9.558   5.167
  245POPC   C3A 3308   0.796   9.371   5.485
  245POPC   C4A 3309   0.474   9.306   5.798
  245POPC   C1B 3310   0.143   9.571   4.768
  245POPC   C2B 3311   0.077   9.824   5.150
  245POPC   C3B 3312   0.272   9.793   5.559
  245POPC   C4B 3313   0.115   9.643   5.933
  246POPC   NC3 3314   7.303   8.727   3.901
  246POPC   PO4 3315   6.780   9.281   4.099
  246POPC   GL1 3316   7.166   9.091   4.299
  246POPC   GL2 3317   7.481   8.966   4.334
  246POPC   C1A 3318   7.138   8.864   4.698
  246POPC   D2A 3319   6.912   8.976   5.086
  246POPC   C3A 3320   7.156   8.930   5.475
  246POPC   C4A 3321   7.024   9.082   5.895
  246POPC   C1B 3322   7.643   8.949   4.772
  246POPC   C2B 3323   7.645   8.891   5.232
  246POPC   C3B 3324   7.536   8.574   5.555
  246POPC   C4B 3325   7.240   8.557   5.847
  247POPC   NC3 3326   5.712   7.614   3.971
  247POPC   PO4 3327   6.131   7.070   3.971
  247POPC   GL1 3328   6.068   7.435   4.305
  247POPC   GL2 3329   5.732   7.361   4.417
  247POPC   C1A 3330   5.943   7.627   4.773
  247POPC   D2A 3331   5.893   7.849   5.235
  247POPC   C3A 3332   5.876   7.599   5.651
  247POPC   C4A 3333   5.912   7.561   6.121
  247POPC   C1B 3334   6.062   7.139   4.709
  247POPC   C2B 3335   6.285   7.260   5.119
  247POPC   C3B 3336   6.225   7.193   5.572
  247POPC   C4B 3337   5.872   7.107   5.871
  248POPC   NC3 3338   2.738   0.928   3.780
  248POPC   PO4 3339   2.600   0.261   3.868
  248POPC   GL1 3340   2.931   0.566   4.110
  248POPC   GL2 3341   3.119   0.325   4.335
  248POPC   C1A 3342   3.055   0.805   4.533
  248POPC   D2A 3343   3.063   0.578   4.967
  248POPC   C3A 3344   2.848   0.728   5.349
  248POPC   C4A 3345   2.892   0.656   5.807
  248POPC   C1B 3346   2.716   0.417   4.590
  248POPC   C2B 3347   2.578   0.421   5.048
  248POPC   C3B 3348   2.695   0.268   5.493
  248POPC   C4B 3349   2.475   0.321   5.895
  249POPC   NC3 3350   8.803   6.704   3.885
  249POPC   PO4 3351   8.604   6.093   4.058
  249POPC   GL1 3352   8.731   6.488   4.337
  249POPC   GL2 3353   9.109   6.649   4.303
  249POPC   C1A 3354   8.786   6.656   4.746
  249POPC   D2A 3355   9.053   6.599   5.119
  249POPC   C3A 3356   8.920   6.322   5.450
  249POPC   C4A 3357   8.758   6.301   5.887
  249POPC   C1B 3358   9.231   6.867   4.685
  249POPC   C2B 3359   9.283   7.056   5.118
  249POPC   C3B 3360   9.321   6.888   5.529
  249POPC   C4B 3361   9.128   6.642   5.842
  250POPC   NC3 3362   4.829   9.525   3.910
  250POPC   PO4 3363   5.544   9.620   3.791
  250POPC   GL1 3364   5.335   9.578   4.249
  250POPC   GL2 3365   5.047   9.358   4.333
  250POPC   C1A 3366   5.382   9.692   4.707
  250POPC   D2A 3367   5.467   9.535   5.153
  250POPC   C3A 3368   5.262   9.756   5.507
  250POPC   C4A 3369   5.308   9.865   5.952
  250POPC   C1B 3370   4.771   9.358   4.711
  250POPC   C2B 3371   4.793   9.675   5.035
  250POPC   C3B 3372   4.688   9.767   5.460
  250POPC   C4B 3373   4.865   9.585   5.833
  251POPC   NC3 3374   7.251   1.903   4.132
  251POPC   PO4 3375   6.634   1.852   3.799
  251POPC   GL1 3376   6.632   1.766   4.222
  251POPC   GL2 3377   6.307   1.646   4.308
  251POPC   C1A 3378   6.853   1.694   4.627
  251POPC   D2A 3379   6.813   1.930   5.019
  251POPC   C3A 3380   6.737   1.648   5.350
  251POPC   C4A 3381   6.783   1.599   5.813
  251POPC   C1B 3382   6.391   1.906   4.698
  251POPC   C2B 3383   6.304   1.893   5.173
  251POPC   C3B 3384   6.420   1.920   5.622
  251POPC   C4B 3385   6.417   1.862   6.079
  252POPC   NC3 3386   1.540   1.995   3.900
  252POPC   PO4 3387   1.417   1.406   4.066
  252POPC   GL1 3388   1.459   1.719   4.386
  252POPC   GL2 3389   1.255   1.996   4.332
  252POPC   C1A 3390   1.306   1.762   4.845
  252POPC   D2A 3391   1.004   1.624   5.217
  252POPC   C3A 3392   1.156   1.607   5.659
  252POPC   C4A 3393   1.524   1.812   5.867
  252POPC   C1B 3394   1.082   2.220   4.670
  252POPC   C2B 3395   1.022   2.138   5.103
  252POPC   C3B 3396   1.306   2.063   5.435
  252POPC   C4B 3397   1.187   2.340   5.747
  253POPC   NC3 3398   0.178   3.637   3.980
  253POPC   PO4 3399   0.833   3.238   4.014
  253POPC   GL1 3400   0.619   3.248   4.389
  253POPC   GL2 3401   0.429   3.557   4.405
  253POPC   C1A 3402   0.544   3.260   4.814
  253POPC   D2A 3403   0.492   3.566   5.111
  253POPC   C3A 3404   0.491   3.309   5.452
  253POPC   C4A 3405   0.666   3.189   5.823
  253POPC   C1B 3406   0.404   3.913   4.706
  253POPC   C2B 3407   0.151   3.954   5.088
  253POPC   C3B 3408   0.204   3.763   5.494
  253POPC   C4B 3409   0.352   3.589   5.889
  254POPC   NC3 3410   3.916   9.742   3.565
  254POPC   PO4 3411   4.361   9.428   3.827
  254POPC   GL1 3412   4.483   9.360   4.259
  254POPC   GL2 3413   4.601   9.696   4.371
  254POPC   C1A 3414   4.234   9.440   4.648
  254POPC   D2A 3415   4.290   9.588   5.098
  254POPC   C3A 3416   4.046   9.337   5.434
  254POPC   C4A 3417   3.812   9.480   5.811
  254POPC   C1B 3418   4.277   9.944   4.659
  254POPC   C2B 3419   4.035   0.009   5.070
  254POPC   C3B 3420   4.086   9.854   5.515
  254POPC   C4B 3421   4.346   9.574   5.804
  255POPC   NC3 3422   2.658   9.190   4.098
  255POPC   PO4 3423   2.778   8.586   3.830
  255POPC   GL1 3424   2.628   8.712   4.246
  255POPC   GL2 3425   2.930   8.853   4.407
  255POPC   C1A 3426   2.403   8.689   4.644
  255POPC   D2A 3427   2.374   8.529   5.098
  255POPC   C3A 3428   2.469   8.841   5.397
  255POPC   C4A 3429   2.717   8.893   5.763
  255POPC   C1B 3430   2.762   9.027   4.798
  255POPC   C2B 3431   2.848   9.164   5.212
  255POPC   C3B 3432   3.101   8.866   5.398
  255POPC   C4B 3433   3.194   8.634   5.757
  256POPC   NC3 3434   0.341   9.047   3.900
  256POPC   PO4 3435   0.958   8.668   4.082
  256POPC   GL1 3436   0.672   8.909   4.268
  256POPC   GL2 3437   0.428   8.665   4.240
  256POPC   C1A 3438   0.529   8.943   4.685
  256POPC   D2A 3439   0.715   9.099   5.033
  256POPC   C3A 3440   0.559   8.935   5.405
  256POPC   C4A 3441   0.728   8.856   5.807
  256POPC   C1B 3442   0.139   8.598   4.610
  256POPC   C2B 3443   0.230   8.667   5.040
  256POPC   C3B 3444   0.065   8.794   5.422
  256POPC   C4B 3445   0.180   8.914   5.829
  257POPC   NC3 3446   6.375   1.328   3.823
  257POPC   PO4 3447   6.810   0.784   3.876
  257POPC   GL1 3448   6.892   1.040   4.238
  257POPC   GL2 3449   6.623   1.249   4.274
  257POPC   C1A 3450   6.940   1.182   4.681
  257POPC   D2A 3451   6.976   1.003   5.110
  257POPC   C3A 3452   6.856   1.188   5.499
  257POPC   C4A 3453   6.520   1.101   5.788
  257POPC   C1B 3454   6.457   1.340   4.687
  257POPC   C2B 3455   6.493   1.235   5.121
  257POPC   C3B 3456   6.260   1.421   5.460
  257POPC   C4B 3457   6.146   1.448   5.889
  258POPC   NC3 3458   5.197   1.430   3.582
  258POPC   PO4 3459   4.792   0.927   3.880
  258POPC   GL1 3460   5.119   1.012   4.269
  258POPC   GL2 3461   4.970   1.260   4.463
  258POPC   C1A 3462   5.406   1.033   4.658
  258POPC   D2A 3463   5.445   0.958   5.103
  258POPC   C3A 3464   5.077   0.995   5.330
  258POPC   C4A 3465   4.969   1.122   5.735
  258POPC   C1B 3466   5.030   1.277   4.896
  258POPC   C2B 3467   4.880   1.466   5.268
  258POPC   C3B 3468   5.140   1.581   5.614
  258POPC   C4B 3469   5.047   1.538   6.055
  259POPC   NC3 3470   6.435   7.419   3.932
  259POPC   PO4 3471   7.083   7.412   3.938
  259POPC   GL1 3472   7.073   7.399   4.389
  259POPC   GL2 3473   6.757   7.516   4.337
  259POPC   C1A 3474   7.017   7.392   4.848
  259POPC   D2A 3475   6.764   7.504   5.209
  259POPC   C3A 3476   6.763   7.323   5.612
  259POPC   C4A 3477   6.997   6.946   5.692
  259POPC   C1B 3478   6.455   7.484   4.662
  259POPC   C2B 3479   6.368   7.749   5.012
  259POPC   C3B 3480   6.356   7.717   5.486
  259POPC   C4B 3481   6.368   7.521   5.923
  260POPC   NC3 3482   6.066   1.824   3.881
  260POPC   PO4 3483   6.105   2.383   4.037
  260POPC   GL1 3484   5.970   2.027   4.341
  260POPC   GL2 3485   5.635   1.904   4.371
  260POPC   C1A 3486   5.908   1.819   4.777
  260POPC   D2A 3487   5.763   1.883   5.188
  260POPC   C3A 3488   5.925   1.828   5.597
  260POPC   C4A 3489   6.031   2.130   5.887
  260POPC   C1B 3490   5.437   2.043   4.791
  260POPC   C2B 3491   5.471   2.286   5.195
  260POPC   C3B 3492   5.432   1.997   5.564
  260POPC   C4B 3493   5.505   1.756   5.945
  261POPC   NC3 3494   0.705   8.269   4.033
  261POPC   PO4 3495   0.186   7.812   3.897
  261POPC   GL1 3496   0.446   7.852   4.252
  261POPC   GL2 3497   0.296   8.180   4.335
  261POPC   C1A 3498   0.495   7.911   4.706
  261POPC   D2A 3499   0.240   8.158   5.006
  261POPC   C3A 3500   0.222   8.010   5.448
  261POPC   C4A 3501   0.442   8.044   5.872
  261POPC   C1B 3502   0.588   8.418   4.669
  261POPC   C2B 3503   0.713   8.520   5.101
  261POPC   C3B 3504   0.513   8.443   5.528
  261POPC   C4B 3505   0.109   8.414   5.769
  262POPC   NC3 3506   9.932   8.205   3.915
  262POPC   PO4 3507   9.398   7.807   3.795
  262POPC   GL1 3508   9.572   7.971   4.193
  262POPC   GL2 3509   9.887   7.818   4.296
  262POPC   C1A 3510   9.454   7.858   4.649
  262POPC   D2A 3511   9.678   7.916   5.059
  262POPC   C3A 3512   9.479   7.914   5.490
  262POPC   C4A 3513   9.737   7.825   5.884
  262POPC   C1B 3514   9.861   8.164   4.600
  262POPC   C2B 3515   9.797   8.418   4.954
  262POPC   C3B 3516   9.799   8.339   5.375
  262POPC   C4B 3517   9.618   8.311   5.792
  263POPC   NC3 3518   9.535   0.542   3.971
  263POPC   PO4 3519   0.045   0.101   3.722
  263POPC   GL1 3520   9.870   0.191   4.179
  263POPC   GL2 3521   9.548   0.242   4.381
  263POPC   C1A 3522   9.960   0.193   4.651
  263POPC   D2A 3523   9.790   0.273   5.094
  263POPC   C3A 3524   9.975   0.233   5.538
  263POPC   C4A 3525   0.037   0.419   5.995
  263POPC   C1B 3526   9.532   0.654   4.635
  263POPC   C2B 3527   9.420   0.705   5.063
  263POPC   C3B 3528   9.687   0.678   5.426
  263POPC   C4B 3529   9.577   0.444   5.799
  264POPC   NC3 3530   4.286   8.984   3.941
  264POPC   PO4 3531   4.562   8.364   3.778
  264POPC   GL1 3532   4.473   8.606   4.225
  264POPC   GL2 3533   4.125   8.681   4.349
  264POPC   C1A 3534   4.449   8.968   4.596
  264POPC   D2A 3535   4.279   9.098   5.016
  264POPC   C3A 3536   4.567   9.247   5.362
  264POPC   C4A 3537   4.569   9.040   5.749
  264POPC   C1B 3538   4.187   8.626   4.844
  264POPC   C2B 3539   4.219   8.655   5.317
  264POPC   C3B 3540   4.162   8.656   5.779
  264POPC   C4B 3541   3.939   8.718   6.189
  265POPC   NC3 3542   8.353   5.815   3.806
  265POPC   PO4 3543   7.758   5.818   3.945
  265POPC   GL1 3544   8.089   5.720   4.298
  265POPC   GL2 3545   8.457   5.686   4.318
  265POPC   C1A 3546   8.200   5.703   4.795
  265POPC   D2A 3547   8.223   5.716   5.286
  265POPC   C3A 3548   7.957   5.955   5.640
  265POPC   C4A 3549   7.678   6.288   5.852
  265POPC   C1B 3550   8.569   6.032   4.692
  265POPC   C2B 3551   8.655   5.964   5.149
  265POPC   C3B 3552   8.462   6.077   5.552
  265POPC   C4B 3553   8.357   5.849   5.947
  266POPC   NC3 3554   8.755   0.338   3.732
  266POPC   PO4 3555   9.303   0.154   3.947
  266POPC   GL1 3556   9.067   0.433   4.183
  266POPC   GL2 3557   8.736   0.293   4.263
  266POPC   C1A 3558   9.118   0.395   4.596
  266POPC   D2A 3559   9.325   0.169   4.901
  266POPC   C3A 3560   9.328   0.276   5.354
  266POPC   C4A 3561   9.091   0.466   5.677
  266POPC   C1B 3562   8.654   0.541   4.665
  266POPC   C2B 3563   8.897   0.487   5.041
  266POPC   C3B 3564   8.699   0.381   5.392
  266POPC   C4B 3565   8.502   0.652   5.633
  267POPC   NC3 3566   6.565   2.334   3.895
  267POPC   PO4 3567   6.300   2.875   3.618
  267POPC   GL1 3568   6.448   2.793   4.091
  267POPC   GL2 3569   6.765   2.661   4.247
  267POPC   C1A 3570   6.357   2.702   4.560
  267POPC   D2A 3571   6.572   2.379   4.854
  267POPC   C3A 3572   6.526   2.363   5.327
  267POPC   C4A 3573   6.460   2.392   5.794
  267POPC   C1B 3574   6.842   2.814   4.698
  267POPC   C2B 3575   6.747   2.850   5.164
  267POPC   C3B 3576   6.744   2.785   5.607
  267POPC   C4B 3577   6.851   2.618   6.026
  268POPC   NC3 3578   1.104   9.196   4.086
  268POPC   PO4 3579   1.569   9.505   3.632
  268POPC   GL1 3580   1.580   9.179   4.182
  268POPC   GL2 3581   1.397   8.841   4.327
  268POPC   C1A 3582   1.425   9.218   4.651
  268POPC   D2A 3583   1.204   9.282   5.015
  268POPC   C3A 3584   1.424   9.229   5.383
  268POPC   C4A 3585   1.217   9.077   5.714
  268POPC   C1B 3586   1.110   8.807   4.732
  268POPC   C2B 3587   1.106   8.825   5.197
  268POPC   C3B 3588   1.032   8.569   5.526
  268POPC   C4B 3589   1.256   8.611   5.887
  269POPC   NC3 3590   1.726   2.677   4.018
  269POPC   PO4 3591   2.339   2.464   3.873
  269POPC   GL1 3592   2.221   2.447   4.315
  269POPC   GL2 3593   2.162   2.785   4.299
  269POPC   C1A 3594   2.266   2.569   4.794
  269POPC   D2A 3595   2.345   2.640   5.270
  269POPC   C3A 3596   2.162   2.522   5.697
  269POPC   C4A 3597   2.270   2.398   6.140
  269POPC   C1B 3598   2.029   3.019   4.656
  269POPC   C2B 3599   1.989   2.963   5.098
  269POPC   C3B 3600   1.980   2.968   5.538
  269POPC   C4B 3601   1.744   3.179   5.842
  270POPC   NC3 3602   0.532   6.597   3.937
  270POPC   PO4 3603   0.208   6.080   3.752
  270POPC   GL1 3604   0.442   6.155   4.183
  270POPC   GL2 3605   0.325   6.494   4.389
  270POPC   C1A 3606   0.624   6.145   4.611
  270POPC   D2A 3607   0.590   6.436   4.987
  270POPC   C3A 3608   0.631   6.464   5.448
  270POPC   C4A 3609   0.446   6.338   5.861
  270POPC   C1B 3610   0.087   6.524   4.801
  270POPC   C2B 3611   0.116   6.429   5.243
  270POPC   C3B 3612   0.163   6.678   5.611
  270POPC   C4B 3613   0.185   6.776   6.071
  271POPC   NC3 3614   9.807   7.458   3.880
  271POPC   PO4 3615   9.264   7.018   3.962
  271POPC   GL1 3616   9.405   7.163   4.322
  271POPC   GL2 3617   9.440   7.490   4.246
  271POPC   C1A 3618   9.296   7.372   4.729
  271POPC   D2A 3619   9.250   7.616   5.112
  271POPC   C3A 3620   9.285   7.411   5.525
  271POPC   C4A 3621   9.540   7.307   5.902
  271POPC   C1B 3622   9.767   7.438   4.592
  271POPC   C2B 3623   9.707   7.368   5.056
  271POPC   C3B 3624   9.819   7.529   5.466
  271POPC   C4B 3625   0.051   7.373   5.854
  272POPC   NC3 3626   7.021   0.371   3.968
  272POPC   PO4 3627   7.579   0.655   4.192
  272POPC   GL1 3628   7.197   0.646   4.359
  272POPC   GL2 3629   7.112   0.262   4.450
  272POPC   C1A 3630   7.011   0.663   4.733
  272POPC   D2A 3631   7.034   0.325   4.994
  272POPC   C3A 3632   7.175   0.324   5.408
  272POPC   C4A 3633   7.049   0.315   5.857
  272POPC   C1B 3634   7.484   0.311   4.730
  272POPC   C2B 3635   7.861   0.229   4.977
  272POPC   C3B 3636   7.715   0.182   5.392
  272POPC   C4B 3637   7.533   0.466   5.724
  273POPC   NC3 3638   9.637   9.860   3.859
  273POPC   PO4 3639   0.026   9.392   4.025
  273POPC   GL1 3640   9.906   9.703   4.353
  273POPC   GL2 3641   9.580   9.726   4.337
  273POPC   C1A 3642   9.685   9.807   4.814
  273POPC   D2A 3643   9.452   9.766   5.209
  273POPC   C3A 3644   9.739   9.745   5.554
  273POPC   C4A 3645   9.725   9.976   5.935
  273POPC   C1B 3646   9.527   9.363   4.642
  273POPC   C2B 3647   9.679   9.305   5.075
  273POPC   C3B 3648   9.441   9.307   5.479
  273POPC   C4B 3649   9.328   9.624   5.844
  274POPC   NC3 3650   0.541   2.038   3.906
  274POPC   PO4 3651   0.461   2.409   4.431
  274POPC   GL1 3652   0.687   2.017   4.399
  274POPC   GL2 3653   0.424   1.774   4.353
  274POPC   C1A 3654   0.753   1.805   4.788
  274POPC   D2A 3655   0.550   1.899   5.212
  274POPC   C3A 3656   0.813   2.020   5.577
  274POPC   C4A 3657   0.712   2.285   5.969
  274POPC   C1B 3658   0.176   1.885   4.733
  274POPC   C2B 3659   0.006   1.646   5.071
  274POPC   C3B 3660   0.110   1.763   5.463
  274POPC   C4B 3661   0.305   2.115   5.673
  275POPC   NC3 3662   9.600   1.061   3.743
  275POPC   PO4 3663   9.009   0.735   3.756
  275POPC   GL1 3664   9.300   0.937   4.157
  275POPC   GL2 3665   9.677   0.960   4.244
  275POPC   C1A 3666   9.369   1.216   4.562
  275POPC   D2A 3667   9.620   1.176   4.950
  275POPC   C3A 3668   9.404   1.168   5.355
  275POPC   C4A 3669   9.372   0.921   5.738
  275POPC   C1B 3670   9.962   0.928   4.624
  275POPC   C2B 3671   0.115   1.056   5.057
  275POPC   C3B 3672   9.923   1.261   5.441
  275POPC   C4B 3673   9.730   1.255   5.876
  276POPC   NC3 3674   3.654   1.188   3.934
  276POPC   PO4 3675   3.142   1.724   4.073
  276POPC   GL1 3676   3.437   1.572   4.389
  276POPC   GL2 3677   3.310   1.253   4.334
  276POPC   C1A 3678   3.565   1.494   4.859
  276POPC   D2A 3679   3.318   1.510   5.289
  276POPC   C3A 3680   3.486   1.370   5.711
  276POPC   C4A 3681   3.292   1.371   6.156
  276POPC   C1B 3682   3.603   1.052   4.579
  276POPC   C2B 3683   3.668   0.940   4.987
  276POPC   C3B 3684   3.498   0.729   5.360
  276POPC   C4B 3685   3.734   0.794   5.727
  277POPC   NC3 3686   2.382   2.934   3.840
  277POPC   PO4 3687   3.010   3.204   3.921
  277POPC   GL1 3688   2.746   2.963   4.191
  277POPC   GL2 3689   2.712   2.609   4.175
  277POPC   C1A 3690   2.562   2.921   4.588
  277POPC   D2A 3691   2.754   2.757   4.954
  277POPC   C3A 3692   2.745   2.970   5.325
  277POPC   C4A 3693   2.496   2.917   5.692
  277POPC   C1B 3694   2.698   2.406   4.575
  277POPC   C2B 3695   2.630   2.264   5.002
  277POPC   C3B 3696   2.801   2.452   5.392
  277POPC   C4B 3697   2.684   2.364   5.822
  278POPC   NC3 3698   0.511   0.387   3.815
  278POPC   PO4 3699   9.997   0.855   3.850
  278POPC   GL1 3700   0.185   0.618   4.248
  278POPC   GL2 3701   0.365   0.263   4.287
  278POPC   C1A 3702   0.305   0.555   4.719
  278POPC   D2A 3703   0.447   0.641   5.157
  278POPC   C3A 3704   0.241   0.713   5.571
  278POPC   C4A 3705   0.518   0.606   5.943
  278POPC   C1B 3706   0.433   0.005   4.669
  278POPC   C2B 3707   0.529   0.092   5.119
  278POPC   C3B 3708   0.489   0.251   5.568
  278POPC   C4B 3709   0.416   0.090   6.031
  279POPC   NC3 3710   4.122   2.715   3.892
  279POPC   PO4 3711   4.590   2.293   3.923
  279POPC   GL1 3712   4.466   2.600   4.255
  279POPC   GL2 3713   4.123   2.677   4.392
  279POPC   C1A 3714   4.523   2.569   4.718
  279POPC   D2A 3715   4.205   2.593   5.028
  279POPC   C3A 3716   4.359   2.451   5.418
  279POPC   C4A 3717   4.606   2.382   5.808
  279POPC   C1B 3718   4.014   2.970   4.727
  279POPC   C2B 3719   3.778   2.896   5.118
  279POPC   C3B 3720   3.785   2.658   5.519
  279POPC   C4B 3721   4.081   2.508   5.831
  280POPC   NC3 3722   4.290   1.952   3.824
  280POPC   PO4 3723   4.877   1.744   3.699
  280POPC   GL1 3724   4.683   1.855   4.168
  280POPC   GL2 3725   4.654   2.146   4.396
  280POPC   C1A 3726   4.453   1.727   4.568
  280POPC   D2A 3727   4.531   2.034   4.911
  280POPC   C3A 3728   4.363   1.965   5.290
  280POPC   C4A 3729   4.330   1.948   5.714
  280POPC   C1B 3730   4.207   2.209   4.560
  280POPC   C2B 3731   3.978   2.159   4.978
  280POPC   C3B 3732   3.909   2.157   5.471
  280POPC   C4B 3733   3.911   2.057   5.958
  281POPC   NC3 3734   3.590   9.373   4.100
  281POPC   PO4 3735   3.542   9.959   3.722
  281POPC   GL1 3736   3.570   9.881   4.198
  281POPC   GL2 3737   3.273   9.733   4.341
  281POPC   C1A 3738   3.753   9.741   4.630
  281POPC   D2A 3739   3.759   9.551   5.045
  281POPC   C3A 3740   3.595   9.822   5.362
  281POPC   C4A 3741   3.605   9.947   5.793
  281POPC   C1B 3742   3.256   9.662   4.812
  281POPC   C2B 3743   3.143   9.611   5.245
  281POPC   C3B 3744   3.134   9.801   5.660
  281POPC   C4B 3745   3.043   9.684   6.109
  282POPC   NC3 3746   8.611   4.870   3.605
  282POPC   PO4 3747   8.897   5.303   4.072
  282POPC   GL1 3748   9.122   5.319   4.431
  282POPC   GL2 3749   9.083   4.996   4.449
  282POPC   C1A 3750   9.135   5.313   4.890
  282POPC   D2A 3751   9.071   5.034   5.213
  282POPC   C3A 3752   9.127   5.298   5.544
  282POPC   C4A 3753   8.926   5.307   5.927
  282POPC   C1B 3754   8.751   4.978   4.791
  282POPC   C2B 3755   8.565   4.945   5.220
  282POPC   C3B 3756   8.706   4.980   5.622
  282POPC   C4B 3757   8.649   4.908   6.098
  283POPC   NC3 3758   3.536   6.612   4.035
  283POPC   PO4 3759   3.085   6.149   3.850
  283POPC   GL1 3760   3.101   6.394   4.284
  283POPC   GL2 3761   3.409   6.468   4.505
  283POPC   C1A 3762   2.962   6.556   4.723
  283POPC   D2A 3763   2.771   6.410   5.142
  283POPC   C3A 3764   3.072   6.437   5.507
  283POPC   C4A 3765   3.116   6.464   5.984
  283POPC   C1B 3766   3.474   6.793   4.824
  283POPC   C2B 3767   3.300   6.897   5.252
  283POPC   C3B 3768   3.420   6.768   5.689
  283POPC   C4B 3769   3.639   6.396   5.874
  284POPC   NC3 3770   1.108   9.587   3.671
  284POPC   PO4 3771   0.783   0.040   3.944
  284POPC   GL1 3772   0.882   9.879   4.353
  284POPC   GL2 3773   1.081   9.568   4.494
  284POPC   C1A 3774   0.932   9.977   4.772
  284POPC   D2A 3775   0.972   9.727   5.111
  284POPC   C3A 3776   0.828   9.878   5.475
  284POPC   C4A 3777   0.713   9.737   5.841
  284POPC   C1B 3778   1.391   9.704   4.831
  284POPC   C2B 3779   1.432   9.751   5.306
  284POPC   C3B 3780   1.239   9.624   5.734
  284POPC   C4B 3781   1.328   9.566   6.209
  285POPC   NC3 3782   4.401   0.825   3.657
  285POPC   PO4 3783   3.809   0.758   3.801
  285POPC   GL1 3784   4.051   0.665   4.205
  285POPC   GL2 3785   4.437   0.672   4.202
  285POPC   C1A 3786   4.072   0.728   4.681
  285POPC   D2A 3787   4.290   0.643   5.113
  285POPC   C3A 3788   4.208   0.664   5.589
  285POPC   C4A 3789   4.160   0.748   6.063
  285POPC   C1B 3790   4.541   0.488   4.648
  285POPC   C2B 3791   4.553   0.182   5.017
  285POPC   C3B 3792   4.460   0.235   5.454
  285POPC   C4B 3793   4.355   0.100   5.874
  286POPC   NC3 3794   2.324   8.413   3.744
  286POPC   PO4 3795   1.712   8.737   3.920
  286POPC   GL1 3796   1.816   8.515   4.330
  286POPC   GL2 3797   2.020   8.211   4.381
  286POPC   C1A 3798   1.951   8.494   4.793
  286POPC   D2A 3799   1.832   8.378   5.208
  286POPC   C3A 3800   2.042   8.567   5.560
  286POPC   C4A 3801   2.122   8.583   6.030
  286POPC   C1B 3802   1.803   7.999   4.758
  286POPC   C2B 3803   1.675   7.887   5.191
  286POPC   C3B 3804   1.767   7.840   5.619
  286POPC   C4B 3805   2.093   8.087   5.778
  287W        W 3806   8.787   1.884   0.249
  288W        W 3807   4.539   0.974  10.746
  289W        W 3808   8.957   1.379   2.285
  290W        W 3809   0.048   7.986   1.666
  291W        W 3810   8.840   3.416   9.159
  292W        W 3811   7.167   7.362   9.537
  293W        W 3812   0.714   0.155   0.948
  294W        W 3813   3.493   7.659  11.148
  295W        W 3814   1.683   8.406   1.947
  296W        W 3815   8.618   1.674   3.299
  297W        W 3816   6.918   2.040  11.721
  298W        W 3817   2.169   0.766   8.954
  299W        W 3818   7.954   3.973   3.669
  300W        W 3819   4.692   3.687   8.928
  301W        W 3820   1.219   0.983   9.537
  302W        W 3821   5.708   6.412   2.430
  303W        W 3822   6.739   9.073  11.830
  304W        W 3823   8.664   2.628   2.478
  305W        W 3824   6.210   8.229   9.238
  306W        W 3825   4.607   6.758   9.499
  307W        W 3826   3.859   6.673   3.622
  308W        W 3827   5.127   4.658   0.951
  309W        W 3828   0.441   8.557   2.597
  310W        W 3829   7.327   5.935   1.903
  311W        W 3830   8.097   6.346  10.497
  312W        W 3831   4.496   1.866   0.442
  313W        W 3832   6.131   2.721  10.891
  314W        W 3833   2.686   3.250   3.538
  315W        W 3834   6.462   3.011  11.856
  316W        W 3835   6.997   6.946   2.768
  317W        W 3836   8.275   2.014   3.529
  318W        W 3837   5.499   0.529   1.664
  319W        W 3838   4.931   5.210  10.492
  320W        W 3839   2.738   4.670   9.490
  321W        W 3840   5.437   2.293  11.449
  322W        W 3841   2.280   9.322  10.375
  323W        W 3842   9.299   8.863   3.746
  324W        W 3843   3.687   0.555   3.288
  325W        W 3844   6.369   8.396   1.252
  326W        W 3845   8.755   4.500  11.061
  327W        W 3846   4.597   4.164  11.820
  328W        W 3847   9.503   0.672   9.538
  329W        W 3848   5.230   6.603  11.818
  330W        W 3849   8.736   2.174   3.317
  331W        W 3850   6.962   9.228   9.998
  332W        W 3851   3.370   4.591   0.976
  333W        W 3852   9.268   5.189   9.579
  334W        W 3853   5.803   7.969   3.615
  335W        W 3854   2.734   6.897   3.360
  336W        W 3855   2.723   6.821   9.622
  337W        W 3856   5.228   1.166   2.271
  338W        W 3857   1.408   2.083  10.596
  339W        W 3858   4.545   5.092   9.528
  340W        W 3859   0.473   5.921   1.672
  341W        W 3860   8.342   8.497   8.792
  342W        W 3861   6.897   2.787   0.116
  343W        W 3862   3.559   9.093   0.331
  344W        W 3863   4.084   1.863   9.481
  345W        W 3864   1.613   5.127   3.470
  346W        W 3865   0.362   3.409   2.095
  347W        W 3866   9.460   6.270   0.272
  348W        W 3867   3.071   4.784   8.667
  349W        W 3868   3.303   4.208   2.843
  350W        W 3869   2.922   0.395  11.516
  351W        W 3870   5.378   9.882   9.684
  352W        W 3871   8.028   2.398   0.482
  353W        W 3872   4.677   7.732   8.534
  354W        W 3873   4.718   0.920   0.689
  355W        W 3874   9.934   3.325  10.444
  356W        W 3875   9.383   0.613  10.037
  357W        W 3876   5.073   3.319   9.516
  358W        W 3877   7.320   3.600   9.720
  359W        W 3878   0.878   7.472   0.188
  360W        W 3879   3.109   4.179   1.795
  361W        W 3880   8.967   7.370   9.990
  362W        W 3881   0.352   0.885   8.852
  363W        W 3882   3.541   2.383  10.914
  364W        W 3883   4.579   5.192   3.071
  365W        W 3884   9.401   8.521   1.295
  366W        W 3885   1.424   3.572  11.549
  367W        W 3886   4.887   7.083   9.158
  368W        W 3887   0.106   1.097   8.442
  369W        W 3888   4.755   7.805   1.858
  370W        W 3889   9.470   9.642  11.212
  371W        W 3890   6.004   3.269   2.436
  372W        W 3891   5.512   1.735  10.795
  373W        W 3892   5.484   9.868   1.465
  374W        W 3893   2.262   3.974  11.469
  375W        W 3894   4.526   5.069   0.063
  376W        W 3895   2.684   2.204   9.295
  377W        W 3896   2.581   1.038   2.406
  378W        W 3897   5.982   8.145   1.022
  379W        W 3898   2.204   7.936  11.582
  380W        W 3899   4.595   6.144   0.300
  381W        W 3900   8.432   0.209   0.224
  382W        W 3901   3.698   3.392   2.690
  383W        W 3902   2.381   8.090   1.292
  384W        W 3903   3.898   6.355   1.321
  385W        W 3904   7.114   4.676  11.057
  386W        W 3905   9.642   2.390   9.688
  387W        W 3906   4.197   9.956   8.669
  388W        W 3907   6.879   1.507   2.720
  389W        W 3908   4.904   2.571   8.465
  390W        W 3909   3.574   8.105   9.776
  391W        W 3910   9.322   7.592   1.294
  392W        W 3911   1.181   7.312   1.487
  393W        W 3912   4.045   2.818   8.563
  394W        W 3913   2.426   1.561  11.305
  395W        W 3914   8.726   4.836   0.473
  396W        W 3915   2.530   2.456   8.631
  397W        W 3916   0.617   9.604  11.540
  398W        W 3917   7.927   9.862  11.381
  399W        W 3918   1.854   2.982   9.921
  400W        W 3919   5.232   2.682  11.196
  401W        W 3920   0.406   8.648  11.165
  402W        W 3921   4.949   5.468   8.918
  403W        W 3922   2.678   8.096   2.982
  404W        W 3923   0.374   3.237   1.087
  405W        W 3924   3.849   4.614  11.080
  406W        W 3925   1.668   0.473  10.603
  407W        W 3926   6.764   4.758   8.700
  408W        W 3927   4.840   2.435   1.112
  409W        W 3928   7.958   5.206   2.470
  410W        W 3929   4.100   6.142   0.184
  411W        W 3930   8.484   2.104   9.260
  412W        W 3931   6.022   7.430   3.573
  413W        W 3932   5.578   7.327  10.212
  414W        W 3933   2.824   6.705   8.928
  415W        W 3934   8.022   2.390  11.959
  416W        W 3935   3.205   3.146   9.546
  417W        W 3936   5.082   4.511   0.367
  418W        W 3937   8.794   1.653   1.264
  419W        W 3938   0.313   4.545   3.205
  420W        W 3939   1.901   5.363   2.705
  421W        W 3940   2.879   2.569   0.729
  422W        W 3941   3.656   3.986   9.098
  423W        W 3942   0.324   5.542   9.468
  424W        W 3943   4.227   2.802   2.640
  425W        W 3944   1.782   2.525   0.133
  426W        W 3945   5.473   0.121   9.224
  427W        W 3946   1.911   4.230   8.827
  428W        W 3947   2.883   7.698   3.234
  429W        W 3948   3.231   8.569   9.023
  430W        W 3949   6.580   5.162   8.453
  431W        W 3950   9.365   2.878   3.745
  432W        W 3951   9.792   7.774   0.678
  433W        W 3952   3.095   2.191   2.038
  434W        W 3953   0.472   7.483  11.860
  435W        W 3954   8.341   0.687   8.977
  436W        W 3955   4.963   3.567   0.264
  437W        W 3956   8.813   8.982  11.174
  438W        W 3957   4.228   9.991   3.198
  439W        W 3958   6.051   7.602   2.545
  440W        W 3959   3.563   3.635   1.246
  441W        W 3960   2.107   7.442   1.961
  442W        W 3961   6.167   1.462   1.867
  443W        W 3962   8.156   7.383   9.721
  444W        W 3963   9.710   2.969   0.939
  445W        W 3964   2.887   0.945   2.791
  446W        W 3965   8.043   5.583  11.456
  447W        W 3966   7.126   6.738   0.864
  448W        W 3967   9.200   7.398  11.506
  449W        W 3968   7.957   1.653   0.841
  450W        W 3969   6.883   9.543   0.182
  451W        W 3970   0.730   6.601   0.006
  452W        W 3971   4.222   2.061   0.918
  453W        W 3972   8.312   1.450   2.948
  454W        W 3973   2.278   8.046   2.328
  455W        W 3974   1.781   4.923   8.244
  456W        W 3975   9.862   3.514   3.191
  457W        W 3976   6.480   8.346  10.755
  458W        W 3977   4.008   6.178   0.839
  459W        W 3978   4.069   5.206   1.515
  460W        W 3979   8.484   4.628  10.082
  461W        W 3980   8.322   3.619   9.114
  462W        W 3981   3.289   1.984   0.893
  463W        W 3982   5.459   7.489  11.617
  464W        W 3983   0.834   4.492   9.220
  465W        W 3984   6.948   1.271  11.876
  466W        W 3985   0.542   4.384   0.919
  467W        W 3986   9.563   1.877   9.559
  468W        W 3987   8.915   7.046  10.432
  469W        W 3988   9.998   1.216   8.979
  470W        W 3989   5.219   3.490  11.836
  471W        W 3990   9.046   9.113   8.982
  472W        W 3991   3.214   7.381  11.488
  473W        W 3992   1.392   1.379  11.406
  474W        W 3993   1.741   6.003   3.375
  475W        W 3994   4.552   4.519   2.737
  476W        W 3995   9.394   7.702   9.945
  477W        W 3996   9.814   6.087   8.944
  478W        W 3997   6.617   2.123  10.384
  479W        W 3998   7.105   7.961  11.285
  480W        W 3999   7.541   2.585  11.874
  481W        W 4000   6.690   4.357   3.699
  482W        W 4001   7.300   5.678   2.589
  483W        W 4002   4.159   5.687   1.013
  484W        W 4003   0.539   2.715  10.758
  485W        W 4004   6.131   3.191   0.737
  486W        W 4005   8.594   1.090   0.079
  487W        W 4006   6.463   6.851   2.049
  488W        W 4007   6.665   9.745   0.925
  489W        W 4008   8.585   0.596  10.506
  490W        W 4009   0.734   8.429   8.902
  491W        W 4010   1.620   1.503   1.822
  492W        W 4011   5.446   6.607  11.334
  493W        W 4012   5.264   2.939   1.711
  494W        W 4013   6.669   0.003   9.935
  495W        W 4014   3.957   7.933   0.217
  496W        W 4015   4.143   1.689  11.640
  497W        W 4016   7.286   0.353   9.187
  498W        W 4017   6.873   4.000   9.388
  499W        W 4018   3.880   1.785   1.422
  500W        W 4019   2.273   4.621   8.723
  501W        W 4020   2.930   4.096  10.611
  502W        W 4021   5.486   5.185  11.809
  503W        W 4022   2.898   1.142   0.015
  504W        W 4023   9.521   5.087   9.146
  505W        W 4024   4.921   4.202  10.510
  506W        W 4025   4.145   1.526  10.768
  507W        W 4026   2.565   3.917   0.865
  508W        W 4027   3.745   8.811  11.945
  509W        W 4028   6.240   6.217   9.774
  510W        W 4029   9.679   4.537   3.117
  511W        W 4030   4.746   4.961   2.631
  512W        W 4031   2.984   0.785   0.429
  513W        W 4032   4.969   3.661   3.495
  514W        W 4033   8.317   3.950   1.856
  515W        W 4034   1.581   5.053   2.960
  516W        W 4035   2.941   1.377   2.294
  517W        W 4036   9.143   0.839   1.588
  518W        W 4037   2.474   5.313   0.697
  519W        W 4038   3.220   7.582   9.001
  520W        W 4039   3.323   2.090  11.930
  521W        W 4040   8.887   6.370   1.557
  522W        W 4041   0.438   5.423   1.650
  523W        W 4042   8.446   9.811  11.131
  524W        W 4043   3.211   0.980  10.876
  525W        W 4044   6.917   2.483   3.024
  526W        W 4045   4.540   5.571  10.542
  527W        W 4046   3.712   5.422   8.938
  528W        W 4047   1.353   1.604   3.569
  529W        W 4048   0.328   9.711  11.995
  530W        W 4049   5.071   2.958  10.208
  531W        W 4050   5.816   2.570   3.644
  532W        W 4051   9.553   9.793   8.849
  533W        W 4052   9.227   3.744   9.337
  534W        W 4053   7.347   7.210  11.932
  535W        W 4054   2.389   7.412   3.378
  536W        W 4055   1.238   6.442  11.399
  537W        W 4056   0.543   0.293   9.916
  538W        W 4057   1.270   5.372  11.677
  539W        W 4058   5.567   8.645   0.230
  540W        W 4059   4.073   3.883   8.404
  541W        W 4060   1.350   3.639   1.420
  542W        W 4061   1.411   8.666   3.493
  543W        W 4062   2.678   5.432   4.126
  544W        W 4063   2.689   2.663  10.804
  545W        W 4064   8.411   2.681   1.632
  546W        W 4065   6.142   6.345   1.298
  547W        W 4066   6.736   5.711   1.332
  548W        W 4067   4.959   9.598   1.730
  549W        W 4068   8.059   0.182  11.864
  550W        W 4069   7.967   9.670   0.990
  551W        W 4070   1.465   3.529  11.009
  552W        W 4071   1.744   3.281   1.992
  553W        W 4072   7.603   2.315   1.281
  554W        W 4073   7.079   5.550   2.150
  555W        W 4074   9.654   5.331   1.967
  556W        W 4075   1.691   2.771  11.693
  557W        W 4076   8.497   1.487  10.015
  558W        W 4077   3.670   8.842   2.133
  559W        W 4078   5.053   8.067   0.098
  560W        W 4079   7.620   4.645   1.290
  561W        W 4080   2.409   7.023   2.056
  562W        W 4081   7.054   0.643   0.776
  563W        W 4082   5.942   9.962  10.430
  564W        W 4083   8.055   5.076   9.043
  565W        W 4084   5.855   7.573   9.825
  566W        W 4085   0.949   9.531   1.885
  567W        W 4086   2.016   3.060   2.833
  568W        W 4087   9.488   3.410   9.722
  569W        W 4088   6.585   8.847   1.191
  570W        W 4089   7.764   6.201   2.053
  571W        W 4090   5.065   7.005   1.447
  572W        W 4091   0.440   0.798   9.842
  573W        W 4092   4.588   3.456   3.761
  574W        W 4093   1.358   6.037   2.562
  575W        W 4094   6.995   4.529   1.808
  576W        W 4095   9.591   2.962  11.062
  577W        W 4096   1.125   4.624   9.632
  578W        W 4097   0.340   9.588  11.093
  579W        W 4098   6.645   4.342   9.049
  580W        W 4099   4.339   1.104   2.425
  581W        W 4100   9.494   2.932   1.481
  582W        W 4101   9.731   9.384   1.276
  583W        W 4102   9.626   6.098  11.061
  584W        W 4103   0.263   0.491  11.755
  585W        W 4104   6.954   5.106  11.255
  586W        W 4105   4.963   2.327   2.128
  587W        W 4106   1.378   6.446   1.451
  588W        W 4107   5.768   0.179   9.955
  589W        W 4108   6.073   0.886   2.809
  590W        W 4109   5.108   3.133  11.475
  591W        W 4110   8.199   7.211  11.509
  592W        W 4111   1.668   4.572   2.710
  593W        W 4112   3.667   6.356   2.215
  594W        W 4113   2.265   2.426  11.071
  595W        W 4114   8.992   4.693   0.903
  596W        W 4115   6.609   5.136   4.288
  597W        W 4116   1.210   5.309   8.531
  598W        W 4117   3.611   7.284  10.360
  599W        W 4118   2.842   0.886   1.745
  600W        W 4119   8.368   2.182   2.484
  601W        W 4120   2.248   8.825   0.738
  602W        W 4121   9.942   6.182   1.918
  603W        W 4122   5.775   5.892   1.269
  604W        W 4123   6.977   3.823   3.302
  605W        W 4124   4.647   3.335   3.269
  606W        W 4125   4.249   2.700   1.884
  607W        W 4126   9.999   4.648  10.478
  608W        W 4127   3.263   5.542   0.866
  609W        W 4128   4.177   0.552   8.652
  610W        W 4129   0.334   4.121   2.923
  611W        W 4130   0.835   4.272  11.730
  612W        W 4131   1.667   2.263  11.453
  613W        W 4132   1.198   8.024  11.224
  614W        W 4133   3.963   0.331  10.944
  615W        W 4134   5.663   7.857   2.797
  616W        W 4135   0.191   0.060   2.203
  617W        W 4136   1.265   1.223   2.064
  618W        W 4137   2.133   3.771  10.398
  619W        W 4138   8.429   2.912   2.104
  620W        W 4139   5.498   5.700   3.147
  621W        W 4140   8.295   8.475  10.630
  622W        W 4141   6.451   2.543   3.268
  623W        W 4142   9.928   5.733   1.007
  624W        W 4143   6.753   1.850  11.051
  625W        W 4144   5.330   2.023   1.958
  626W        W 4145   5.880   5.960  10.017
  627W        W 4146   7.595   8.253   9.385
  628W        W 4147   2.512   5.985   9.180
  629W        W 4148   7.269   0.752  11.783
  630W        W 4149   4.936   4.010   1.979
  631W        W 4150   3.798   5.507   0.114
  632W        W 4151   7.873   5.006   2.925
  633W        W 4152   7.165   9.999  10.983
  634W        W 4153   6.089   6.898   3.125
  635W        W 4154   5.027   7.550  10.310
  636W        W 4155   0.780   7.403   0.686
  637W        W 4156   9.434   9.961  10.801
  638W        W 4157   8.025   1.163  10.135
  639W        W 4158   5.255   6.823   3.708
  640W        W 4159   4.741   3.850   9.900
  641W        W 4160   5.256   5.501   0.700
  642W        W 4161   7.437   1.224  11.013
  643W        W 4162   2.093   7.987   0.463
  644W        W 4163   9.859   1.503  10.483
  645W        W 4164   5.357   0.995   1.813
  646W        W 4165   2.919   8.302  10.936
  647W        W 4166   6.110   8.539  10.418
  648W        W 4167   0.017   9.400   9.529
  649W        W 4168   9.347   6.076   0.737
  650W        W 4169   7.031   0.903   1.210
  651W        W 4170   4.670   4.605   1.202
  652W        W 4171   8.350   1.978   2.986
  653W        W 4172   9.478   8.481   9.739
  654W        W 4173   1.742   3.640   0.276
  655W        W 4174   7.200   3.527  11.984
  656W        W 4175   6.964   0.453   0.320
  657W        W 4176   4.228   3.502  11.966
  658W        W 4177   9.320   3.592   0.291
  659W        W 4178   8.777   6.616   9.182
  660W        W 4179   3.652   5.429   1.266
  661W        W 4180   2.946   9.371   3.230
  662W        W 4181   9.707   1.881   9.032
  663W        W 4182   2.325   7.653  11.062
  664W        W 4183   7.084   5.104   4.028
  665W        W 4184   5.543   9.474   1.145
  666W        W 4185   9.269   3.277   1.801
  667W        W 4186   4.570   6.129   3.208
  668W        W 4187   0.365   7.086   9.757
  669W        W 4188   1.989   6.373   1.740
  670W        W 4189   2.044   0.393  10.974
  671W        W 4190   2.688   0.387   1.179
  672W        W 4191   3.840   2.931  11.254
  673W        W 4192   5.694   9.104   9.232
  674W        W 4193   5.500   7.205   0.423
  675W        W 4194   8.051   6.651  11.871
  676W        W 4195   6.059   7.570  10.323
  677W        W 4196   7.634   6.105   0.274
  678W        W 4197   2.971   1.334   3.537
  679W        W 4198   6.637   1.483   0.933
  680W        W 4199   3.647   3.299   3.668
  681W        W 4200   9.491   5.325   1.402
  682W        W 4201   3.599   0.744   1.289
  683W        W 4202   5.007   2.339   1.606
  684W        W 4203   5.648   7.143   3.146
  685W        W 4204   9.892   0.850  11.780
  686W        W 4205   5.199   7.518   0.081
  687W        W 4206   6.593   5.567   9.258
  688W        W 4207   2.331   9.095   0.268
  689W        W 4208   2.182   5.521  11.688
  690W        W 4209   8.807   9.056   2.794
  691W        W 4210   6.777   4.479  10.043
  692W        W 4211   4.040   9.207   2.819
  693W        W 4212   8.348   8.484   3.289
  694W        W 4213   2.230   7.521   2.449
  695W        W 4214   6.399   2.194  10.945
  696W        W 4215   4.259   1.425  10.248
  697W        W 4216   6.404   1.581   2.906
  698W        W 4217   4.612   0.745   1.166
  699W        W 4218   4.159   9.796   1.409
  700W        W 4219   5.413   7.064  11.921
  701W        W 4220   5.158   2.782  10.682
  702W        W 4221   0.107   9.542  11.565
  703W        W 4222   7.973   5.083   0.006
  704W        W 4223   4.273   5.108   2.660
  705W        W 4224   4.441   6.679   3.187
  706W        W 4225   3.907   3.920  10.384
  707W        W 4226   3.179   4.515   4.209
  708W        W 4227   0.882   9.892   9.742
  709W        W 4228   9.421   1.342   0.322
  710W        W 4229   9.803   3.814   0.651
  711W        W 4230   2.746   0.049  10.510
  712W        W 4231   3.184   4.951   8.190
  713W        W 4232   9.973   6.982   9.014
  714W        W 4233   2.257   8.559   9.018
  715W        W 4234   8.828   7.814   3.409
  716W        W 4235   4.258   3.847  11.599
  717W        W 4236   9.366   7.000  10.681
  718W        W 4237   5.681   6.429   1.068
  719W        W 4238   3.381   5.403   0.390
  720W        W 4239   5.604   7.817  10.394
  721W        W 4240   8.945   7.468   2.300
  722W        W 4241   8.609   4.810   3.079
  723W        W 4242   9.853   1.523   3.084
  724W        W 4243   2.827   1.461  11.626
  725W        W 4244   7.702   3.128   3.190
  726W        W 4245   5.048   5.420   3.095
  727W        W 4246   4.448   0.071   2.429
  728W        W 4247   9.439   0.203   9.723
  729W        W 4248   9.760   2.355  10.882
  730W        W 4249   7.637   5.291  11.661
  731W        W 4250   3.137   6.931   1.200
  732W        W 4251   8.859   6.256   0.832
  733W        W 4252   5.111   2.029   1.197
  734W        W 4253   4.413   5.653   3.347
  735W        W 4254   6.672   1.206   3.147
  736W        W 4255   3.829   4.604   0.056
  737W        W 4256   8.408   3.842   2.355
  738W        W 4257   8.126   5.885   1.161
  739W        W 4258   4.489   2.597   1.444
  740W        W 4259   7.171   7.244   0.794
  741W        W 4260   3.868   3.637   9.851
  742W        W 4261   8.946   4.614   0.041
  743W        W 4262   3.617   7.863  10.279
  744W        W 4263   4.068   8.237   1.521
  745W        W 4264   9.050   8.323   2.121
  746W        W 4265   7.534   8.937  10.512
  747W        W 4266   9.063   4.185   0.876
  748W        W 4267   0.282   2.892   3.558
  749W        W 4268   4.773   2.744  11.429
  750W        W 4269   1.757   0.708   2.264
  751W        W 4270   7.818   1.241  10.621
  752W        W 4271   2.863   3.331   2.973
  753W        W 4272   4.106   0.857  11.040
  754W        W 4273   2.803   8.033   1.624
  755W        W 4274   3.693   4.496   9.354
  756W        W 4275   7.536   4.438   3.076
  757W        W 4276   7.880   4.660   0.297
  758W        W 4277   9.814   7.672   2.003
  759W        W 4278   8.368   4.574  11.455
  760W        W 4279   1.509   0.560   9.392
  761W        W 4280   5.139   2.762   2.758
  762W        W 4281   8.703   6.119  11.959
  763W        W 4282   0.050   5.623   9.032
  764W        W 4283   8.961   7.047   9.459
  765W        W 4284   3.291   9.226   1.404
  766W        W 4285   0.438   6.618   9.932
  767W        W 4286   4.552   5.764   2.265
  768W        W 4287   7.884   1.869   1.332
  769W        W 4288   3.223   3.549  11.921
  770W        W 4289   7.107   6.434   8.286
  771W        W 4290   2.341   2.116  10.117
  772W        W 4291   7.007   6.383   8.788
  773W        W 4292   5.036   9.862   9.205
  774W        W 4293   2.304   1.910  10.912
  775W        W 4294   8.803   6.237  10.582
  776W        W 4295   7.341   3.177   2.688
  777W        W 4296   5.191   3.939  10.147
  778W        W 4297   2.629   7.993  11.284
  779W        W 4298   5.899   2.265  11.031
  780W        W 4299   9.171   9.327  11.506
  781W        W 4300   7.237   6.575   3.892
  782W        W 4301   8.498   7.948  11.050
  783W        W 4302   9.938   1.225  10.074
  784W        W 4303   1.575   3.763   0.837
  785W        W 4304   0.947   8.898   3.622
  786W        W 4305   2.088   3.463   3.161
  787W        W 4306   9.539   8.131   2.009
  788W        W 4307   9.399   4.851  11.813
  789W        W 4308   3.103   3.754   0.944
  790W        W 4309   2.192   3.806   1.721
  791W        W 4310   8.342   8.788   0.222
  792W        W 4311   5.147   8.710  10.945
  793W        W 4312   6.202   9.874   0.278
  794W        W 4313   5.884   1.636   8.484
  795W        W 4314   2.745   4.381   2.114
  796W        W 4315   2.760   2.073   0.917
  797W        W 4316   0.368   6.188   3.266
  798W        W 4317   6.666   9.267   2.354
  799W        W 4318   9.608   7.529  11.778
  800W        W 4319   4.158   8.914   8.881
  801W        W 4320   2.912   0.425   9.368
  802W        W 4321   8.720   6.417  11.222
  803W        W 4322   2.743   3.627  10.650
  804W        W 4323   5.420   0.844  11.068
  805W        W 4324   5.614   1.687   2.246
  806W        W 4325   5.167   8.854  10.447
  807W        W 4326   1.403   0.279   8.945
  808W        W 4327   5.960   8.091   3.147
  809W        W 4328   6.996   2.505   9.812
  810W        W 4329   3.454   4.782   3.814
  811W        W 4330   3.845   1.458   8.662
  812W        W 4331   9.905   6.844   9.974
  813W        W 4332   3.896   8.047   9.036
  814W        W 4333   6.818   2.817  10.153
  815W        W 4334   1.716   5.679   9.561
  816W        W 4335   8.832   0.875   8.938
  817W        W 4336   0.484   1.665   9.837
  818W        W 4337   3.302   8.478  10.638
  819W        W 4338   4.743   7.504   2.332
  820W        W 4339   3.840   9.789  11.827
  821W        W 4340   2.692   3.620   0.040
  822W        W 4341   5.055   6.374   0.231
  823W        W 4342   3.508   0.606   2.210
  824W        W 4343   5.227   5.689   1.194
  825W        W 4344   8.268   4.342   2.344
  826W        W 4345   6.677   8.510   1.795
  827W        W 4346   3.419   9.382   8.642
  828W        W 4347   7.222   1.985   1.444
  829W        W 4348   3.741   9.017   1.633
  830W        W 4349   8.954   9.928  10.955
  831W        W 4350   3.146   8.214   3.163
  832W        W 4351   0.008   1.773   2.659
  833W        W 4352   6.809   5.952   8.956
  834W        W 4353   0.327   0.023  11.575
  835W        W 4354   4.859   1.841   1.830
  836W        W 4355   6.580   8.752  10.448
  837W        W 4356   1.169   0.377  10.723
  838W        W 4357   6.474   2.704  10.505
  839W        W 4358   2.756   9.206  10.629
  840W        W 4359   6.244   3.685   0.836
  841W        W 4360   0.459   1.342  11.276
  842W        W 4361   4.543   9.209   2.773
  843W        W 4362   6.408   9.315   2.783
  844W        W 4363   5.841   4.609  10.457
  845W        W 4364   9.643   1.761   0.128
  846W        W 4365   6.105   9.058  11.167
  847W        W 4366   2.229   3.854   9.013
  848W        W 4367   7.626   2.562  11.363
  849W        W 4368   2.736   6.898   2.824
  850W        W 4369   1.370   3.835   9.292
  851W        W 4370   0.861   2.898  11.506
  852W        W 4371   2.121   0.984   0.831
  853W        W 4372   6.193   5.939   1.626
  854W        W 4373   0.626   2.819   9.543
  855W        W 4374   4.232   2.797   9.569
  856W        W 4375   9.683   0.578   3.509
  857W        W 4376   7.952   7.398   0.406
  858W        W 4377   9.436   8.623  10.246
  859W        W 4378   5.267   5.525   0.171
  860W        W 4379   2.753   3.342   9.693
  861W        W 4380   8.638   3.414   3.257
  862W        W 4381   8.286   1.975   1.689
  863W        W 4382   4.047   8.526   3.859
  864W        W 4383   8.306   3.227  11.451
  865W        W 4384   9.551   3.051   0.255
  866W        W 4385   3.944   2.407  11.269
  867W        W 4386   8.070   5.982   9.561
  868W        W 4387   3.601   3.919   4.068
  869W        W 4388   7.398   4.801   0.405
  870W        W 4389   5.185   2.280   0.201
  871W        W 4390   4.089   7.973   9.516
  872W        W 4391   7.825   1.675  10.299
  873W        W 4392   0.963   9.239   9.545
  874W        W 4393   4.981   5.993   8.293
  875W        W 4394   9.506   1.529   9.978
  876W        W 4395   6.574   2.420   0.932
  877W        W 4396   7.083   6.551   1.360
  878W        W 4397   7.572   3.746   1.962
  879W        W 4398   9.095   9.767  10.440
  880W        W 4399   9.913   4.767   0.895
  881W        W 4400   2.154   9.630   2.150
  882W        W 4401   0.359   4.572   1.776
  883W        W 4402   7.259   2.140   3.231
  884W        W 4403   2.173   3.015  11.452
  885W        W 4404   7.814   3.642   9.553
  886W        W 4405   1.355   9.455   2.621
  887W        W 4406   6.324   6.350   4.222
  888W        W 4407   8.617   5.054  10.368
  889W        W 4408   9.034   4.306  10.638
  890W        W 4409   4.494   7.670  11.380
  891W        W 4410   6.491   1.147   2.666
  892W        W 4411   7.939   0.188   0.989
  893W        W 4412   8.369   3.631  10.216
  894W        W 4413   8.968   4.705  10.269
  895W        W 4414   3.164   6.693  10.860
  896W        W 4415   6.402   7.073   3.501
  897W        W 4416   9.305   2.573  10.822
  898W        W 4417   9.953   9.825   9.242
  899W        W 4418   0.684   4.638  10.873
  900W        W 4419   4.210   4.310  10.623
  901W        W 4420   4.724   2.300   9.032
  902W        W 4421   0.229   3.914   2.208
  903W        W 4422   7.048   2.808  10.640
  904W        W 4423   1.787   6.174   1.254
  905W        W 4424   0.181   5.483   8.417
  906W        W 4425   2.486   3.172   0.207
  907W        W 4426   4.773   6.643   1.974
  908W        W 4427   1.463   8.584   2.872
  909W        W 4428   5.124   0.964   3.314
  910W        W 4429   0.768   7.947   0.011
  911W        W 4430   9.303   7.541   2.686
  912W        W 4431   6.530   7.084   2.971
  913W        W 4432   5.088   4.000  11.949
  914W        W 4433   2.988   7.365   2.856
  915W        W 4434   6.904   2.962   2.824
  916W        W 4435   7.553   1.215   0.503
  917W        W 4436   7.700   9.978   0.343
  918W        W 4437   3.230   7.813   2.844
  919W        W 4438   4.182   6.779   1.422
  920W        W 4439   6.073   3.376   9.189
  921W        W 4440   2.589   8.716   2.414
  922W        W 4441   0.946   7.588  11.674
  923W        W 4442   5.113   8.857   9.111
  924W        W 4443   1.013   5.700  10.906
  925W        W 4444   4.411   4.066   1.941
  926W        W 4445   6.208   5.221   9.336
  927W        W 4446   3.826   9.844   1.014
  928W        W 4447   5.603   0.620   0.773
  929W        W 4448   0.602   7.434  10.898
  930W        W 4449   6.673   9.954   0.466
  931W        W 4450   6.715   0.245   3.594
  932W        W 4451   6.263   4.189   8.302
  933W        W 4452   6.469   4.596   0.482
  934W        W 4453   0.542   3.533  11.758
  935W        W 4454   2.591   0.710   0.782
  936W        W 4455   1.985   2.663   9.558
  937W        W 4456   0.175   0.552  10.738
  938W        W 4457   3.382   2.172   3.542
  939W        W 4458   5.700   2.119  10.493
  940W        W 4459   9.995   2.154  11.497
  941W        W 4460   9.708   1.447   8.629
  942W        W 4461   3.283   3.662  11.045
  943W        W 4462   1.210   3.778   1.975
  944W        W 4463   4.754   2.828   0.813
  945W        W 4464   5.009   9.836   1.262
  946W        W 4465   4.004   3.404  10.425
  947W        W 4466   2.588   3.350  11.567
  948W        W 4467   0.105   6.509   8.878
  949W        W 4468   3.315   1.383  10.040
  950W        W 4469   5.290   6.470   0.713
  951W        W 4470   9.409   2.570  11.336
  952W        W 4471   9.645   7.018   3.572
  953W        W 4472   1.679   2.191   2.429
  954W        W 4473   3.323   3.077   2.422
  955W        W 4474   5.706   1.868   2.697
  956W        W 4475   0.323   0.912   3.376
  957W        W 4476   4.743   5.501   2.681
  958W        W 4477   4.366   7.668   1.109
  959W        W 4478   6.150   7.203  11.430
  960W        W 4479   8.658   2.407   9.650
  961W        W 4480   1.406   9.332   9.799
  962W        W 4481   4.942   9.360  10.490
  963W        W 4482   5.859   0.904   1.762
  964W        W 4483   6.530   3.795   3.600
  965W        W 4484   2.750   0.856  10.635
  966W        W 4485   1.882   6.970   0.864
  967W        W 4486   3.205   7.061   2.527
  968W        W 4487   9.802   4.397   1.298
  969W        W 4488   8.505   4.694   1.412
  970W        W 4489   2.240   1.311  10.914
  971W        W 4490   5.797   5.026   1.353
  972W        W 4491   7.514   6.306   1.605
  973W        W 4492   0.599   5.775   3.093
  974W        W 4493   2.889   0.642  11.074
  975W        W 4494   4.110   1.370   1.610
  976W        W 4495   7.336   6.189   9.561
  977W        W 4496   9.005   6.242   2.681
  978W        W 4497   0.526   7.648   3.165
  979W        W 4498   9.781   0.343   2.166
  980W        W 4499   1.980   9.915  11.961
  981W        W 4500   2.221   5.029   1.851
  982W        W 4501   9.202   7.267   3.527
  983W        W 4502   5.716   6.715   2.833
  984W        W 4503   1.735   2.315   1.443
  985W        W 4504   1.662   5.201   1.067
  986W        W 4505   7.431   2.997  11.559
  987W        W 4506   9.433   5.771   1.141
  988W        W 4507   0.809   7.892   8.845
  989W        W 4508   1.768   5.249  11.772
  990W        W 4509   3.260   8.246   0.437
  991W        W 4510   3.037   7.814  11.013
  992W        W 4511   9.569   5.038  10.424
  993W        W 4512   1.851   8.182   2.930
  994W        W 4513   6.080   1.446   2.370
  995W        W 4514   3.362   3.843  11.520
  996W        W 4515   8.855   3.304  10.487
  997W        W 4516   2.918   2.876   3.212
  998W        W 4517   3.082   9.457   2.339
  999W        W 4518   2.768   1.238  11.002
 1000W        W 4519   1.307   3.310   9.309
 1001W        W 4520   7.006   7.983   0.193
 1002W        W 4521   2.397   8.952  11.352
 1003W        W 4522   3.132   6.558   9.810
 1004W        W 4523   6.645   1.322   1.750
 1005W        W 4524   6.966   4.223   2.219
 1006W        W 4525   9.890   8.266   0.831
 1007W        W 4526   5.145   3.581   8.668
 1008W        W 4527   2.081   1.781   0.405
 1009W        W 4528   4.249   8.424   8.934
 1010W        W 4529   7.928   1.767   3.833
 1011W        W 4530   0.626   0.769   1.175
 1012W        W 4531   6.043   8.515   8.835
 1013W        W 4532   3.176   8.552   2.569
 1014W        W 4533   2.991   1.849   0.493
 1015W        W 4534   9.342   7.922   0.017
 1016W        W 4535   9.942   8.437  11.534
 1017W        W 4536   5.680   8.051   1.806
 1018W        W 4537   1.282   4.052  11.488
 1019W        W 4538   9.097   5.208  10.305
 1020W        W 4539   1.291   0.271   2.600
 1021W        W 4540   2.392   6.686   1.690
 1022W        W 4541   4.105   1.866  11.171
 1023W        W 4542   3.989   8.011   3.432
 1024W        W 4543   8.407   1.208   0.538
 1025W        W 4544   9.838   4.576  11.763
 1026W        W 4545   5.673   0.772  11.906
 1027W        W 4546   3.953   4.892   8.829
 1028W        W 4547   6.492   4.685   2.879
 1029W        W 4548   6.285   5.252   3.880
 1030W        W 4549   8.968   6.468   9.635
 1031W        W 4550   9.067   8.576  10.960
 1032W        W 4551   2.776   2.711   0.210
 1033W        W 4552   9.374   4.739   2.775
 1034W        W 4553   8.613   6.068   1.250
 1035W        W 4554   3.037   6.885  11.415
 1036W        W 4555   8.018   2.790   2.960
 1037W        W 4556   2.173   4.540   1.295
 1038W        W 4557   5.544   3.193   0.074
 1039W        W 4558   5.553   2.258   0.545
 1040W        W 4559   9.805   5.257   0.965
 1041W        W 4560   1.100   5.562   3.218
 1042W        W 4561   6.052   3.519  11.408
 1043W        W 4562   2.234   2.837   9.124
 1044W        W 4563   5.491   4.358  10.757
 1045W        W 4564   4.630   8.227   8.658
 1046W        W 4565   0.782   8.576   1.817
 1047W        W 4566   8.727   9.952   2.008
 1048W        W 4567   1.241   9.963   0.828
 1049W        W 4568   3.562   2.037  11.308
 1050W        W 4569   5.611   5.202   3.098
 1051W        W 4570   4.155   8.612  11.158
 1052W        W 4571   6.799   9.389   1.884
 1053W        W 4572   3.433   2.614   0.614
 1054W        W 4573   0.210   4.319  11.480
 1055W        W 4574   5.178   7.969   2.109
 1056W        W 4575   7.503   7.554   2.312
 1057W        W 4576   7.868   0.628   0.752
 1058W        W 4577   4.226   4.264   2.395
 1059W        W 4578   4.295   3.647   1.648
 1060W        W 4579   4.133   9.907  10.644
 1061W        W 4580   7.874   2.966  10.255
 1062W        W 4581   3.194   9.059   9.775
 1063W        W 4582   6.903   6.981   3.302
 1064W        W 4583   8.259   6.398  11.004
 1065W        W 4584   9.391   4.090   0.505
 1066W        W 4585   5.337   4.424  10.280
 1067W        W 4586   7.075   9.541   0.652
 1068W        W 4587   3.808   9.267   2.372
 1069W        W 4588   3.552   1.876   8.681
 1070W        W 4589   9.826   3.890  11.082
 1071W        W 4590   4.887   5.370  11.863
 1072W        W 4591   6.973   8.600  10.786
 1073W        W 4592   9.712   3.900   0.140
 1074W        W 4593   4.226   2.694  10.915
 1075W        W 4594   1.240   6.680  10.578
 1076W        W 4595   0.973   3.264   0.434
 1077W        W 4596   1.684   8.532  11.784
 1078W        W 4597   1.304   9.723   9.513
 1079W        W 4598   5.616   8.992   0.969
 1080W        W 4599   0.186   7.274  11.173
 1081W        W 4600   0.217   5.921  11.738
 1082W        W 4601   7.549   4.678   1.803
 1083W        W 4602   9.773   5.624  11.792
 1084W        W 4603   4.508   2.264  11.644
 1085W        W 4604   8.272   4.640  10.983
 1086W        W 4605   3.564   5.947   2.995
 1087W        W 4606   4.079   6.820   9.649
 1088W        W 4607   5.180   0.569  11.449
 1089W        W 4608   1.077   1.603   1.778
 1090W        W 4609   5.340   1.197   9.251
 1091W        W 4610   6.776   8.335  11.172
 1092W        W 4611   1.886   2.266   9.913
 1093W        W 4612   8.891   5.725  10.456
 1094W        W 4613   7.120   3.539   0.871
 1095W        W 4614   9.462   8.387  10.701
 1096W        W 4615   8.042   5.000  11.469
 1097W        W 4616   5.611   0.671  10.073
 1098W        W 4617   2.540   3.679   3.138
 1099W        W 4618   7.643   3.903  10.814
 1100W        W 4619   6.166   4.701   9.524
 1101W        W 4620   9.313   9.513   0.896
 1102W        W 4621   4.712   8.629  10.472
 1103W        W 4622   6.997   8.002   2.705
 1104W        W 4623   9.783   7.356   1.047
 1105W        W 4624   6.972   5.315   0.241
 1106W        W 4625   0.675   6.538   2.129
 1107W        W 4626   3.616   2.477   2.686
 1108W        W 4627   7.512   1.571   1.502
 1109W        W 4628   1.978   9.558   3.336
 1110W        W 4629   3.669   8.495   1.734
 1111W        W 4630   3.779   4.166  10.839
 1112W        W 4631   3.560   8.916   2.659
 1113W        W 4632   6.482   6.578   3.218
 1114W        W 4633   8.892   6.485  11.698
 1115W        W 4634   0.424   8.503   9.321
 1116W        W 4635   3.182   9.880   2.681
 1117W        W 4636   0.531   0.436   3.308
 1118W        W 4637   1.133   8.876   0.343
 1119W        W 4638   8.499   5.452  10.707
 1120W        W 4639   6.116   5.538   3.186
 1121W        W 4640   3.736   9.621   8.975
 1122W        W 4641   0.839   8.797  11.459
 1123W        W 4642   4.195   0.619  10.566
 1124W        W 4643   2.048   6.496  11.407
 1125W        W 4644   1.041   4.957  10.537
 1126W        W 4645   6.463   8.137  11.509
 1127W        W 4646   3.799   5.969  10.764
 1128W        W 4647   9.803   4.063  11.655
 1129W        W 4648   0.609   7.594   2.680
 1130W        W 4649   3.193   7.344   0.890
 1131W        W 4650   0.064   5.397   2.920
 1132W        W 4651   1.455   2.959   0.186
 1133W        W 4652   3.705   5.955   0.455
 1134W        W 4653   8.543   8.912   9.034
 1135W        W 4654   9.749   6.491   9.250
 1136W        W 4655   9.110   5.750   2.828
 1137W        W 4656   8.483   2.751  11.476
 1138W        W 4657   6.847   4.970  10.240
 1139W        W 4658   1.639   3.485  10.537
 1140W        W 4659   8.624   3.937   0.932
 1141W        W 4660   7.404   9.453  11.730
 1142W        W 4661   0.351   2.594   9.960
 1143W        W 4662   5.522   7.108   1.192
 1144W        W 4663   8.921   1.268   3.268
 1145W        W 4664   9.952   0.105   8.795
 1146W        W 4665   4.901   3.408   1.516
 1147W        W 4666   4.808   3.029   4.016
 1148W        W 4667   3.115   6.226   2.246
 1149W        W 4668   7.973   3.938   1.422
 1150W        W 4669   3.143   3.415   2.058
 1151W        W 4670   0.625   9.787   2.198
 1152W        W 4671   1.372   9.319   2.142
 1153W        W 4672   1.181   4.564  10.833
 1154W        W 4673   2.279   9.169   3.524
 1155W        W 4674   4.784   3.722  10.392
 1156W        W 4675   2.142   7.099  10.417
 1157W        W 4676   6.242   6.461   2.337
 1158W        W 4677   1.120   7.131  10.361
 1159W        W 4678   6.888   9.521  11.671
 1160W        W 4679   8.566   7.649   9.861
 1161W        W 4680   2.789   7.908   2.123
 1162W        W 4681   6.196   3.191   1.373
 1163W        W 4682   3.008   9.295   1.859
 1164W        W 4683   4.911   2.182  10.795
 1165W        W 4684   8.943   6.689   1.132
 1166W        W 4685   1.219   6.180  10.956
 1167W        W 4686   6.483   2.737   9.632
 1168W        W 4687   1.835   5.269   9.230
 1169W        W 4688   3.176   5.168   2.333
 1170W        W 4689   6.839   7.197  11.885
 1171W        W 4690   7.413   9.861  11.405
 1172W        W 4691   0.566   6.192  10.195
 1173W        W 4692   6.070   0.013   2.633
 1174W        W 4693   9.223   3.664   0.816
 1175W        W 4694   7.549   7.641   0.177
 1176W        W 4695   3.000   2.818   1.396
 1177W        W 4696   0.758   2.630   0.813
 1178W        W 4697   3.847   6.632   8.763
 1179W        W 4698   5.528   4.558   0.591
 1180W        W 4699   3.866   4.042   0.846
 1181W        W 4700   4.640   8.223   0.376
 1182W        W 4701   9.859   9.125   0.300
 1183W        W 4702   1.944   8.679   2.991
 1184W        W 4703   8.839   3.919   3.159
 1185W        W 4704   7.697   1.437   2.936
 1186W        W 4705   4.673   3.985  11.346
 1187W        W 4706   4.877   2.199   2.597
 1188W        W 4707   3.682   3.445   2.177
 1189W        W 4708   3.195   3.261   3.429
 1190W        W 4709   9.784   1.522   3.620
 1191W        W 4710   0.407   9.433   9.162
 1192W        W 4711   2.612   0.557   2.566
 1193W        W 4712   3.108   7.573  11.948
 1194W        W 4713   2.544   6.176   1.705
 1195W        W 4714   7.238   8.960   9.649
 1196W        W 4715   5.627   8.336  10.343
 1197W        W 4716   6.892   4.646  11.523
 1198W        W 4717   8.493   3.487   0.184
 1199W        W 4718   4.534   8.273   2.744
 1200W        W 4719   3.719   8.261  11.904
 1201W        W 4720   7.108   8.691  11.829
 1202W        W 4721   7.764   9.156   8.755
 1203W        W 4722   2.111   6.518  10.012
 1204W        W 4723   3.748   8.116   0.645
 1205W        W 4724   1.659   4.616   1.279
 1206W        W 4725   1.814   1.676   8.577
 1207W        W 4726   5.137   3.195   2.502
 1208W        W 4727   3.587   6.375   7.948
 1209W        W 4728   5.173   8.015  10.147
 1210W        W 4729   9.591   3.355   0.645
 1211W        W 4730   8.162   5.377   1.910
 1212W        W 4731   1.265   0.770  10.378
 1213W        W 4732   8.747   6.526   3.386
 1214W        W 4733   8.777   3.789   9.950
 1215W        W 4734   9.451   8.011   0.995
 1216W        W 4735   6.460   6.031  11.994
 1217W        W 4736   4.126   4.895  11.425
 1218W        W 4737   0.401   6.196   2.711
 1219W        W 4738   3.589   4.071   0.274
 1220W        W 4739   0.806   2.580   9.120
 1221W        W 4740   8.647   7.428  11.918
 1222W        W 4741   8.398   1.388   1.015
 1223W        W 4742   6.027   0.050  11.295
 1224W        W 4743   2.728   9.668  10.838
 1225W        W 4744   9.125   4.183   9.077
 1226W        W 4745   9.267   7.394   8.638
 1227W        W 4746   6.314   1.690   0.289
 1228W        W 4747   6.633   1.656  10.085
 1229W        W 4748   1.049   4.161   0.206
 1230W        W 4749   2.685   0.385   1.696
 1231W        W 4750   1.842   1.294  11.905
 1232W        W 4751   8.526   7.060   2.508
 1233W        W 4752   1.458   1.845   1.503
 1234W        W 4753   8.529   5.018   1.818
 1235W        W 4754   0.450   2.937   2.292
 1236W        W 4755   9.838   8.014  11.283
 1237W        W 4756   3.509   6.301   0.811
 1238W        W 4757   4.983   0.264  11.846
 1239W        W 4758   7.859   4.511  11.362
 1240W        W 4759   4.170   7.002   0.473
 1241W        W 4760   9.036   2.409  10.422
 1242W        W 4761   6.453   9.748   2.415
 1243W        W 4762   7.482   1.927   0.980
 1244W        W 4763   0.129   2.398  10.430
 1245W        W 4764   2.164   2.403   2.447
 1246W        W 4765   5.841   6.464  10.029
 1247W        W 4766   7.348   8.820   1.403
 1248W        W 4767   2.723   1.664  10.712
 1249W        W 4768   0.712   2.574  10.318
 1250W        W 4769   9.073   1.704  10.896
 1251W        W 4770   4.970   7.005   2.364
 1252W        W 4771   5.730   6.472  11.770
 1253W        W 4772   9.063   5.534   0.332
 1254W        W 4773   6.976   7.691   1.625
 1255W        W 4774   4.690   6.827   8.401
 1256W        W 4775   5.463   3.331   9.011
 1257W        W 4776   8.859   4.943   9.367
 1258W        W 4777   7.415   0.288   1.920
 1259W        W 4778   5.624   8.892  11.057
 1260W        W 4779   3.073   6.069   2.766
 1261W        W 4780   1.662   6.754   0.004
 1262W        W 4781   7.589   3.590   2.478
 1263W        W 4782   2.034   7.817   3.324
 1264W        W 4783   9.202   6.753   3.524
 1265W        W 4784   3.184   8.966   2.269
 1266W        W 4785   8.662   8.394   0.262
 1267W        W 4786   2.621   0.883   1.269
 1268W        W 4787   4.797   8.743   2.697
 1269W        W 4788   4.004   8.031  10.945
 1270W        W 4789   2.735   6.395   9.365
 1271W        W 4790   5.504   5.987   9.075
 1272W        W 4791   0.419   9.005   9.461
 1273W        W 4792   9.099   0.928   9.376
 1274W        W 4793   7.612   6.273   3.653
 1275W        W 4794   3.891   3.978   2.135
 1276W        W 4795   0.402   5.101   2.635
 1277W        W 4796   8.969   8.503  10.439
 1278W        W 4797   9.845   0.431  11.483
 1279W        W 4798   2.739   1.311   8.901
 1280W        W 4799   2.691   8.847   9.074
 1281W        W 4800   8.656   9.448  11.410
 1282W        W 4801   8.722   0.320   9.104
 1283W        W 4802   5.571   3.178   0.575
 1284W        W 4803   8.052   7.097  10.968
 1285W        W 4804   6.197   4.502  10.836
 1286W        W 4805   9.716   8.169  10.210
 1287W        W 4806   3.055   9.035   2.774
 1288W        W 4807   1.436   1.759  11.047
 1289W        W 4808   0.406   3.368  11.281
 1290W        W 4809   9.729   1.245   0.936
 1291W        W 4810   6.933   0.416   1.263
 1292W        W 4811   2.045   5.162   3.164
 1293W        W 4812   2.131   2.294   0.446
 1294W        W 4813   4.377   9.418   8.549
 1295W        W 4814   0.274   1.552   3.424
 1296W        W 4815   1.803   5.218   9.762
 1297W        W 4816   9.993   5.115  10.715
 1298W        W 4817   6.956   2.065   1.016
 1299W        W 4818   2.156   6.508   9.126
 1300W        W 4819   3.823   4.125   2.908
 1301W        W 4820   3.819   2.122   9.061
 1302W        W 4821   0.626   7.188  10.439
 1303W        W 4822   7.485   7.156   0.397
 1304W        W 4823   8.095   3.310   9.914
 1305W        W 4824   0.228   2.907  10.370
 1306W        W 4825   5.239   0.685   2.471
 1307W        W 4826   8.960   0.172   0.928
 1308W        W 4827   3.759   8.556   9.034
 1309W        W 4828   7.153   4.002   1.769
 1310W        W 4829   2.828   1.757   1.961
 1311W        W 4830   8.349   7.027   2.980
 1312W        W 4831   7.328   9.845  10.533
 1313W        W 4832   3.806   0.615   2.653
 1314W        W 4833   9.394   0.607  11.692
 1315W        W 4834   3.141   4.913  11.627
 1316W        W 4835   4.719   3.166   8.085
 1317W        W 4836   3.299   4.223   3.784
 1318W        W 4837   6.962   3.680  10.093
 1319W        W 4838   6.448   9.004   9.964
 1320W        W 4839   9.966   6.508  10.920
 1321W        W 4840   5.087   2.731   9.744
 1322W        W 4841   7.842   8.561   3.548
 1323W        W 4842   6.914   3.327   2.434
 1324W        W 4843   3.904   7.155   3.768
 1325W        W 4844   1.791   9.623  10.525
 1326W        W 4845   6.695   1.699   1.403
 1327W        W 4846   2.191   7.430   8.866
 1328W        W 4847   4.933   9.042   0.426
 1329W        W 4848   9.852   0.377   0.597
 1330W        W 4849   8.893   7.662  11.202
 1331W        W 4850   5.632   9.821  11.512
 1332W        W 4851   5.050   3.036  11.985
 1333W        W 4852   7.581   0.665   3.262
 1334W        W 4853   4.012   3.223   1.824
 1335W        W 4854   7.397   3.056   0.066
 1336W        W 4855   0.720   0.565   9.018
 1337W        W 4856   2.556   1.353   9.385
 1338W        W 4857   9.249   1.461   9.538
 1339W        W 4858   0.820   1.803  11.754
 1340W        W 4859   7.053   9.781   9.700
 1341W        W 4860   0.275   9.917   9.638
 1342W        W 4861   6.147   8.064   9.712
 1343W        W 4862   3.217   9.023  10.756
 1344W        W 4863   1.572   0.777   1.369
 1345W        W 4864   8.525   3.559   2.779
 1346W        W 4865   1.405   7.050   9.104
 1347W        W 4866   0.667   7.454   2.180
 1348W        W 4867   8.493   3.633  11.212
 1349W        W 4868   3.494   5.529  11.658
 1350W        W 4869   2.304   3.154  10.076
 1351W        W 4870   0.850   6.355   1.463
 1352W        W 4871   3.494   5.773   9.783
 1353W        W 4872   8.856   1.367   2.786
 1354W        W 4873   2.594   8.488  11.312
 1355W        W 4874   1.823   9.319   2.416
 1356W        W 4875   4.520   2.388  10.101
 1357W        W 4876   7.841   3.196   2.688
 1358W        W 4877   2.263   3.803  10.914
 1359W        W 4878   1.330   9.291   0.046
 1360W        W 4879   7.347   7.981  11.812
 1361W        W 4880   4.716   1.383   0.208
 1362W        W 4881   7.510   8.386   1.627
 1363W        W 4882   4.124   2.894  10.425
 1364W        W 4883   5.655   4.192   1.557
 1365W        W 4884   3.677   0.375   0.739
 1366W        W 4885   1.721   0.011  10.857
 1367W        W 4886   9.014   6.983   8.906
 1368W        W 4887   1.012   4.058   9.010
 1369W        W 4888   9.420   0.406   0.893
 1370W        W 4889   6.548   8.014   2.483
 1371W        W 4890   2.135   0.372  10.456
 1372W        W 4891   5.209   8.984  11.418
 1373W        W 4892   2.912   3.826   8.440
 1374W        W 4893   1.878   5.420  10.788
 1375W        W 4894   2.325   3.540   1.283
 1376W        W 4895   4.349   4.003   0.644
 1377W        W 4896   4.074   6.023   3.115
 1378W        W 4897   9.100   4.990  11.213
 1379W        W 4898   1.953   6.989   9.049
 1380W        W 4899   6.569   5.476   2.235
 1381W        W 4900   8.538   3.778  11.701
 1382W        W 4901   7.027   1.900  10.613
 1383W        W 4902   5.780   2.685  11.296
 1384W        W 4903   7.435   8.123   2.942
 1385W        W 4904   6.265   6.184  10.300
 1386W        W 4905   6.497   5.768  11.059
 1387W        W 4906   3.078   2.160  11.457
 1388W        W 4907   4.307   7.619   3.225
 1389W        W 4908   7.704   4.617   0.780
 1390W        W 4909   6.690   4.140   1.615
 1391W        W 4910   4.037   2.244   1.840
 1392W        W 4911   4.734   9.592   2.476
 1393W        W 4912   0.977   1.217  10.395
 1394W        W 4913   4.443   7.404   1.933
 1395W        W 4914   4.945   8.020   3.932
 1396W        W 4915   9.407   9.710  11.766
 1397W        W 4916   4.690   2.325   0.642
 1398W        W 4917   5.337   3.434   1.810
 1399W        W 4918   1.215   0.950   0.497
 1400W        W 4919   8.282   5.631   2.501
 1401W        W 4920   0.022   0.219   1.708
 1402W        W 4921   3.657   6.821   2.477
 1403W        W 4922   1.355   4.567   0.334
 1404W        W 4923   2.967   4.682  10.539
 1405W        W 4924   8.720   7.240  11.446
 1406W        W 4925   0.750   2.097  11.115
 1407W        W 4926   1.136   3.038   3.071
 1408W        W 4927   1.020   8.389   9.334
 1409W        W 4928   1.891   7.113   2.293
 1410W        W 4929   4.541   4.126   9.182
 1411W        W 4930   6.039   7.147   0.898
 1412W        W 4931   9.227   5.234   2.794
 1413W        W 4932   4.261   6.350   9.536
 1414W        W 4933   2.467   1.676   1.134
 1415W        W 4934   4.300   3.757   9.628
 1416W        W 4935   5.946   9.459   2.995
 1417W        W 4936   8.470   6.577   1.329
 1418W        W 4937   1.385   7.142   9.916
 1419W        W 4938   3.131   9.500  10.032
 1420W        W 4939   4.186   0.411   9.156
 1421W        W 4940   3.254   1.120   1.355
 1422W        W 4941   3.226   6.512   9.288
 1423W        W 4942   8.897   4.620   9.765
 1424W        W 4943   2.204   0.132   0.413
 1425W        W 4944   3.257   1.787   2.668
 1426W        W 4945   0.396   4.009  11.848
 1427W        W 4946   5.460   5.815  10.281
 1428W        W 4947   8.861   7.917   0.213
 1429W        W 4948   2.547   9.934   1.337
 1430W        W 4949   5.573   4.066   3.327
 1431W        W 4950   3.485   0.867   0.764
 1432W        W 4951   0.166   3.108   3.103
 1433W        W 4952   5.536   1.202  10.684
 1434W        W 4953   7.774   7.486   1.272
 1435W        W 4954   4.723   3.909   1.534
 1436W        W 4955   4.015   8.170  10.004
 1437W        W 4956   8.617   5.374   0.636
 1438W        W 4957   5.064   4.645  10.717
 1439W        W 4958   9.740   8.627   2.820
 1440W        W 4959   9.001   5.483  11.350
 1441W        W 4960   9.983   3.082  11.960
 1442W        W 4961   2.279   1.240   1.442
 1443W        W 4962   6.905   6.848  10.215
 1444W        W 4963   7.656   8.845   1.820
 1445W        W 4964   2.048   1.274   0.399
 1446W        W 4965   1.685   2.702   3.104
 1447W        W 4966   5.869   0.473   8.952
 1448W        W 4967   7.863   0.805   1.231
 1449W        W 4968   1.861   5.706   0.396
 1450W        W 4969   1.761   9.861   8.796
 1451W        W 4970   2.233   2.087   1.371
 1452W        W 4971   4.883   2.765   8.936
 1453W        W 4972   2.211   1.683   9.890
 1454W        W 4973   9.329   3.090   2.844
 1455W        W 4974   2.670   9.483   9.788
 1456W        W 4975   7.021   6.048   2.291
 1457W        W 4976   6.403   6.776  11.032
 1458W        W 4977   8.335   2.875  10.054
 1459W        W 4978   0.156   9.142   1.147
 1460W        W 4979   8.169   9.293   9.126
 1461W        W 4980   3.725   1.640   2.449
 1462W        W 4981   3.700   9.078   9.810
 1463W        W 4982   1.969   8.695   3.492
 1464W        W 4983   3.974   9.177   3.552
 1465W        W 4984   6.056   6.010   2.518
 1466W        W 4985   7.491   6.128   2.478
 1467W        W 4986   5.590   6.903   9.886
 1468W        W 4987   1.763   1.789  10.133
 1469W        W 4988   9.776   9.865   2.004
 1470W        W 4989   7.836   1.599  11.871
 1471W        W 4990   8.588   5.575   1.123
 1472W        W 4991   4.897   2.683   0.320
 1473W        W 4992   2.577   1.975   8.840
 1474W        W 4993   6.264   5.885   0.456
 1475W        W 4994   8.442   3.119   9.042
 1476W        W 4995   6.084   5.444   0.249
 1477W        W 4996   9.365   3.802   3.134
 1478W        W 4997   3.019   1.056   0.901
 1479W        W 4998   8.588   8.389   1.914
 1480W        W 4999   8.480   0.048   9.682
 1481W        W 5000   9.451   1.431  11.229
 1482W        W 5001   6.823   0.244   9.505
 1483W        W 5002   7.079   4.851   3.574
 1484W        W 5003   1.400   1.495   1.084
 1485W        W 5004   8.493   0.325  11.661
 1486W        W 5005   2.300   6.036  10.024
 1487W        W 5006   5.793   7.289  10.678
 1488W        W 5007   2.712   8.862   0.538
 1489W        W 5008   6.664   4.126   0.353
 1490W        W 5009   3.832   4.745   1.688
 1491W        W 5010   6.926   3.406   3.603
 1492W        W 5011   3.164   4.180   9.677
 1493W        W 5012   0.910   9.346   2.361
 1494W        W 5013   7.402   6.573   2.083
 1495W        W 5014   9.289   3.178   9.311
 1496W        W 5015   7.128   6.114   3.707
 1497W        W 5016   2.218   4.991  11.526
 1498W        W 5017   6.483   4.878  11.229
 1499W        W 5018   9.435   8.972   0.563
 1500W        W 5019   5.098   6.757   8.696
 1501W        W 5020   1.219   2.874   0.676
 1502W        W 5021   7.106   2.505   1.328
 1503W        W 5022   1.043   7.293   3.006
 1504W        W 5023   8.123   3.801   0.956
 1505W        W 5024   7.557   0.763  10.822
 1506W        W 5025   8.538   9.823   3.034
 1507W        W 5026   7.731   4.726   2.378
 1508W        W 5027   9.415   0.452  10.687
 1509W        W 5028   9.933   2.944   2.237
 1510W        W 5029   8.537   2.308  10.531
 1511W        W 5030   3.094   5.121   3.215
 1512W        W 5031   4.826   6.008   1.446
 1513W        W 5032   4.026   3.911   1.305
 1514W        W 5033   3.575   3.706   8.450
 1515W        W 5034   3.682   0.008   1.498
 1516W        W 5035   8.477   7.037  10.121
 1517W        W 5036   5.098   5.240   1.861
 1518W        W 5037   3.341   0.863   1.789
 1519W        W 5038   9.489   2.409   1.734
 1520W        W 5039   8.292   6.675   9.060
 1521W        W 5040   8.838   3.091   2.688
 1522W        W 5041   1.699   6.315   2.864
 1523W        W 5042   4.953   0.663  10.970
 1524W        W 5043   8.936   7.096   0.793
 1525W        W 5044   4.003   4.335   0.465
 1526W        W 5045   1.542   6.869   3.583
 1527W        W 5046   9.212   6.081   1.850
 1528W        W 5047   1.332   6.654   0.373
 1529W        W 5048   7.469   0.909   0.893
 1530W        W 5049   9.820   3.201   2.756
 1531W        W 5050   4.073   3.205  10.886
 1532W        W 5051   5.458   2.361   9.841
 1533W        W 5052   8.105   8.409   9.411
 1534W        W 5053   7.629   2.337   2.214
 1535W        W 5054   7.533   1.100   8.546
 1536W        W 5055   6.091   6.748   9.706
 1537W        W 5056   7.430   8.534   9.873
 1538W        W 5057   9.255   4.489  11.103
 1539W        W 5058   3.323   7.972   0.879
 1540W        W 5059   4.277   2.615   3.154
 1541W        W 5060   0.224   1.798  10.266
 1542W        W 5061   9.200   3.140   0.835
 1543W        W 5062   3.497   1.200  10.494
 1544W        W 5063   5.928   2.730  10.326
 1545W        W 5064   4.241   4.459   8.581
 1546W        W 5065   7.401   9.569   0.229
 1547W        W 5066   5.023   6.578  10.617
 1548W        W 5067   7.813   6.347   3.168
 1549W        W 5068   1.708   5.761   9.053
 1550W        W 5069   6.400   1.363  11.511
 1551W        W 5070   0.011   5.870   0.178
 1552W        W 5071   1.849   9.195   9.579
 1553W        W 5072   5.398   8.516  11.356
 1554W        W 5073   1.868   4.696  11.261
 1555W        W 5074   4.714   1.432   0.713
 1556W        W 5075   9.626   7.483   3.366
 1557W        W 5076   5.514   2.228   1.539
 1558W        W 5077   6.954   5.538   8.438
 1559W        W 5078   9.631   6.468   8.660
 1560W        W 5079   1.352   8.450   0.141
 1561W        W 5080   6.543   7.833   9.462
 1562W        W 5081   8.489   6.984   1.029
 1563W        W 5082   9.432   4.191   2.804
 1564W        W 5083   5.057   6.391  11.081
 1565W        W 5084   5.887   1.867   1.255
 1566W        W 5085   4.676   3.542   8.446
 1567W        W 5086   8.117   9.416  11.212
 1568W        W 5087   4.045   3.271   9.513
 1569W        W 5088   9.869   1.326  11.477
 1570W        W 5089   0.255   1.086   0.995
 1571W        W 5090   6.367   3.726   0.345
 1572W        W 5091   2.616   1.944  11.584
 1573W        W 5092   7.702   2.107  11.684
 1574W        W 5093   5.117   7.153  10.012
 1575W        W 5094   3.766   1.733   0.912
 1576W        W 5095   4.166   3.190   9.992
 1577W        W 5096   0.293   3.736  10.919
 1578W        W 5097   8.517   6.603   0.089
 1579W        W 5098   1.242   1.591  11.923
 1580W        W 5099   9.471   3.175   2.368
 1581W        W 5100   2.845   0.140  11.040
 1582W        W 5101   7.537   1.173  11.978
 1583W        W 5102   2.902   4.294   0.817
 1584W        W 5103   0.894   0.096   8.913
 1585W        W 5104   7.048   5.470   1.636
 1586W        W 5105   8.878   7.012   3.214
 1587W        W 5106   8.065   0.062  10.895
 1588W        W 5107   7.226   4.634  10.193
 1589W        W 5108   4.748   3.718   9.419
 1590W        W 5109   6.772   5.200   8.952
 1591W        W 5110   5.426   7.592   1.849
 1592W        W 5111   5.771   6.193  10.459
 1593W        W 5112   7.824   6.628  10.862
 1594W        W 5113   7.472   1.865   1.968
 1595W        W 5114   9.136   3.041   9.895
 1596W        W 5115   1.111   5.701   2.224
 1597W        W 5116   2.175   2.580   1.328
 1598W        W 5117   8.773   4.317   0.488
 1599W        W 5118   8.085   2.789   8.879
 1600W        W 5119   3.588   3.639   0.729
 1601W        W 5120   3.382   0.350  11.068
 1602W        W 5121   9.686   8.604   8.564
 1603W        W 5122   0.214   0.025   0.851
 1604W        W 5123   7.030   9.023  10.476
 1605W        W 5124   5.039   4.115   3.292
 1606W        W 5125   7.130   5.973  11.492
 1607W        W 5126   3.280   0.761  11.398
 1608W        W 5127   5.202   0.055  11.340
 1609W        W 5128   3.819   8.345  10.472
 1610W        W 5129   1.806   3.123   9.380
 1611W        W 5130   9.863   8.035  10.702
 1612W        W 5131   7.402   7.482   9.986
 1613W        W 5132   4.916   5.368   1.414
 1614W        W 5133   7.550   5.578  10.224
 1615W        W 5134   4.947   7.512  11.616
 1616W        W 5135   5.164   0.722  11.951
 1617W        W 5136   9.058   3.167   8.743
 1618W        W 5137   3.069   7.872  11.519
 1619W        W 5138   4.012   2.208  10.798
 1620W        W 5139   9.349   9.964   0.654
 1621W        W 5140   9.537   6.491   2.719
 1622W        W 5141   2.289   0.091   1.907
 1623W        W 5142   8.704   1.842  11.729
 1624W        W 5143   3.901   3.541   8.069
 1625W        W 5144   8.488   0.337   0.777
 1626W        W 5145   6.632   3.201  10.466
 1627W        W 5146   7.835   6.096  10.866
 1628W        W 5147   3.210   2.966   0.308
 1629W        W 5148   2.760   6.409  11.005
 1630W        W 5149   3.649   0.992   3.008
 1631W        W 5150   7.734   8.477  11.297
 1632W        W 5151   3.664   8.831  10.595
 1633W        W 5152   9.852   9.984  11.770
 1634W        W 5153   4.606   3.272  10.246
 1635W        W 5154   1.024   9.668   0.464
 1636W        W 5155   6.537   7.517   3.275
 1637W        W 5156   1.061   2.829  10.713
 1638W        W 5157   5.425   2.743   0.292
 1639W        W 5158   3.291   8.300  10.155
 1640W        W 5159   3.570   4.249  11.289
 1641W        W 5160   0.653   4.899   0.859
 1642W        W 5161   3.548   5.914   9.240
 1643W        W 5162   4.122   0.068   1.828
 1644W        W 5163   1.828   5.853   2.724
 1645W        W 5164   0.454   9.336   8.640
 1646W        W 5165   4.114   2.309   2.750
 1647W        W 5166   3.797   6.394  10.442
 1648W        W 5167   3.819   6.113  10.007
 1649W        W 5168   2.054   1.492   0.878
 1650W        W 5169   9.617   1.025   1.419
 1651W        W 5170   4.584   7.190   3.193
 1652W        W 5171   2.708   8.970   9.621
 1653W        W 5172   6.776   9.958   1.371
 1654W        W 5173   5.202   4.981   3.331
 1655W        W 5174   3.370   1.084   0.299
 1656W        W 5175   4.314   9.110  11.232
 1657W        W 5176   3.759   9.209   1.126
 1658W        W 5177   0.489   4.191   9.529
 1659W        W 5178   1.968   2.763   2.127
 1660W        W 5179   2.336   8.955   8.675
 1661W        W 5180   1.317   7.639   9.947
 1662W        W 5181   0.001   8.076   2.238
 1663W        W 5182   8.156   5.355   0.901
 1664W        W 5183   0.931   0.879   9.990
 1665W        W 5184   1.354   4.919  11.960
 1666W        W 5185   4.187   8.535   0.669
 1667W        W 5186   5.226   5.960   0.445
 1668W        W 5187   2.622   6.431   9.958
 1669W        W 5188   0.874   7.208   9.536
 1670W        W 5189   7.879   6.810   2.106
 1671W        W 5190   0.014   2.145   9.394
 1672W        W 5191   1.685   0.023   9.303
 1673W        W 5192   8.829   0.885   2.558
 1674W        W 5193   4.539   5.148   1.749
 1675W        W 5194   7.505   9.406   0.929
 1676W        W 5195   5.624   3.811  11.806
 1677W        W 5196   6.516   5.997   2.309
 1678W        W 5197   7.446   0.316   0.054
 1679W        W 5198   6.326   0.475   9.224
 1680W        W 5199   0.605   9.055   9.971
 1681W        W 5200   7.945   0.200   2.537
 1682W        W 5201   2.813   5.592   3.279
 1683W        W 5202   7.287   1.781   2.875
 1684W        W 5203   6.045   4.644   3.115
 1685W        W 5204   0.915   2.479   9.865
 1686W        W 5205   2.886   9.563   1.439
 1687W        W 5206   5.123   4.967   0.084
 1688W        W 5207   9.559   0.070   3.396
 1689W        W 5208   5.637   2.614   9.443
 1690W        W 5209   7.425   8.861  11.057
 1691W        W 5210   6.177   4.788   4.068
 1692W        W 5211   6.912   8.215  11.727
 1693W        W 5212   6.127   7.642  10.824
 1694W        W 5213   6.418   6.957   8.713
 1695W        W 5214   3.528   7.595   0.579
 1696W        W 5215   8.036   9.542   1.615
 1697W        W 5216   7.243   6.134  10.074
 1698W        W 5217   0.805   3.927   2.994
 1699W        W 5218   4.631   6.533   2.430
 1700W        W 5219   6.674   0.566  10.467
 1701W        W 5220   8.577   9.063   9.857
 1702W        W 5221   4.294   8.694   2.864
 1703W        W 5222   7.881   8.864   0.454
 1704W        W 5223   3.395   9.147   3.167
 1705W        W 5224   9.770   6.696  10.478
 1706W        W 5225   8.655   3.154  11.824
 1707W        W 5226   2.110   1.476   1.920
 1708W        W 5227   7.207   7.075  11.471
 1709W        W 5228   0.087   7.032   3.294
 1710W        W 5229   3.052   6.333   8.621
 1711W        W 5230   0.692   7.931  10.951
 1712W        W 5231   1.221   3.102  11.157
 1713W        W 5232   1.614   1.227   8.751
 1714W        W 5233   9.771   7.473   8.965
 1715W        W 5234   5.937   9.503  11.790
 1716W        W 5235   4.043   7.150  10.643
 1717W        W 5236   3.362   0.432  10.109
 1718W        W 5237   0.844   8.508   1.295
 1719W        W 5238   8.057   0.175   9.977
 1720W        W 5239   9.587   9.238   3.468
 1721W        W 5240   4.902   8.446  11.358
 1722W        W 5241   2.665   8.269  10.369
 1723W        W 5242   5.989   9.263   1.275
 1724W        W 5243   8.207   7.446   2.733
 1725W        W 5244   0.911   4.089   1.169
 1726W        W 5245   2.080   0.770   1.284
 1727W        W 5246   9.839   8.347   3.235
 1728W        W 5247   5.224   8.025   9.566
 1729W        W 5248   8.360   1.747   0.546
 1730W        W 5249   0.468   5.654   0.336
 1731W        W 5250   0.288   7.966   0.740
 1732W        W 5251   6.288   5.874   1.143
 1733W        W 5252   8.686   8.849  10.697
 1734W        W 5253   4.376   9.730   0.589
 1735W        W 5254   5.333   7.480  10.703
 1736W        W 5255   6.553   0.231   2.126
 1737W        W 5256   3.946   5.104  10.967
 1738W        W 5257   1.740   2.658   9.105
 1739W        W 5258   7.586   0.370  10.115
 1740W        W 5259   1.615   8.032  10.490
 1741W        W 5260   4.731   6.219   4.180
 1742W        W 5261   2.131   2.524  11.572
 1743W        W 5262   0.157   7.497   3.490
 1744W        W 5263   1.449   5.356   0.185
 1745W        W 5264   7.083   7.850   3.232
 1746W        W 5265   2.275   7.411  11.561
 1747W        W 5266   5.750   9.633   8.529
 1748W        W 5267   8.665   3.260  10.014
 1749W        W 5268   4.352   7.798   9.961
 1750W        W 5269   4.596   9.516   1.360
 1751W        W 5270   3.005   1.851   9.951
 1752W        W 5271   6.331   5.056   1.469
 1753W        W 5272   4.464   5.114  10.774
 1754W        W 5273   3.412   6.800   0.795
 1755W        W 5274   9.598   1.807  11.556
 1756W        W 5275   4.896   5.490   8.413
 1757W        W 5276   3.159   5.997   1.060
 1758W        W 5277   5.122   0.141   1.702
 1759W        W 5278   1.375   0.226   2.092
 1760W        W 5279   9.121   6.699   2.498
 1761W        W 5280   7.178   0.799   2.127
 1762W        W 5281   7.673   4.523   9.497
 1763W        W 5282   3.776   4.425  10.378
 1764W        W 5283   8.460   2.644   0.517
 1765W        W 5284   1.257   3.318   2.220
 1766W        W 5285   2.786   8.843   1.955
 1767W        W 5286   1.412   9.414  10.858
 1768W        W 5287   3.331   3.139   2.946
 1769W        W 5288   2.817   5.593   8.917
 1770W        W 5289   8.410   4.506   8.329
 1771W        W 5290   1.359   6.118   2.062
 1772W        W 5291   1.999   0.495   9.461
 1773W        W 5292   1.892   9.143  10.649
 1774W        W 5293   0.005   6.518   1.391
 1775W        W 5294   9.160   6.582   3.044
 1776W        W 5295   8.810   3.129  11.328
 1777W        W 5296   5.787   4.344   3.690
 1778W        W 5297   7.256   9.046   8.785
 1779W        W 5298   0.431   5.655   2.622
 1780W        W 5299   7.698   9.879   1.819
 1781W        W 5300   0.657   5.133   2.010
 1782W        W 5301   6.417   9.791   2.941
 1783W        W 5302   7.079   1.418   1.244
 1784W        W 5303   6.844   0.075  10.572
 1785W        W 5304   1.150   3.309  10.659
 1786W        W 5305   5.444   8.921   1.886
 1787W        W 5306   1.437   4.127   1.223
 1788W        W 5307   5.082   1.733   2.322
 1789W        W 5308   7.881   9.773   3.276
 1790W        W 5309   3.266   0.894   9.875
 1791W        W 5310   6.155   0.201   0.662
 1792W        W 5311   9.906   2.695   1.754
 1793W        W 5312   5.977   6.446   3.341
 1794W        W 5313   6.377   9.044   0.185
 1795W        W 5314   4.187   7.967   8.604
 1796W        W 5315   3.151   6.077   9.558
 1797W        W 5316   7.983   1.432   0.349
 1798W        W 5317   7.536   9.847   9.507
 1799W        W 5318   1.722   7.457   0.799
 1800W        W 5319   6.130   3.681  11.885
 1801W        W 5320   5.883   0.591   3.759
 1802W        W 5321   4.650   1.413   9.895
 1803W        W 5322   2.913   1.722  11.200
 1804W        W 5323   8.014   7.006   2.551
 1805W        W 5324   3.011   5.583   9.786
 1806W        W 5325   2.771   3.046   0.603
 1807W        W 5326   4.002   1.855   9.983
 1808W        W 5327   2.715   9.329   8.224
 1809W        W 5328   5.289   6.267   8.701
 1810W        W 5329   8.049   8.894  10.426
 1811W        W 5330   1.337   4.062  10.980
 1812W        W 5331   5.325   4.497   3.466
 1813W        W 5332   8.138   4.449   3.544
 1814W        W 5333   5.517   6.125   8.268
 1815W        W 5334   8.628   0.830  11.655
 1816W        W 5335   1.235   6.478   2.819
 1817W        W 5336   3.583   5.307  10.519
 1818W        W 5337   6.650   8.117   0.529
 1819W        W 5338   6.598   6.498   8.526
 1820W        W 5339   4.486   9.261  10.760
 1821W        W 5340   0.030   9.001   8.575
 1822W        W 5341   8.869   7.389   1.785
 1823W        W 5342   8.414   4.712   9.565
 1824W        W 5343   8.807   5.779  10.960
 1825W        W 5344   3.737   5.510   2.755
 1826W        W 5345   1.253   2.217  11.114
 1827W        W 5346   6.537   2.039   9.175
 1828W        W 5347   0.998   1.752   1.271
 1829W        W 5348   1.474   4.966  11.461
 1830W        W 5349   2.823   3.246   2.449
 1831W        W 5350   9.987   3.920   1.219
 1832W        W 5351   3.404   0.245   1.146
 1833W        W 5352   3.784   1.230   1.242
 1834W        W 5353   9.125   3.684   8.826
 1835W        W 5354   3.699   6.942   1.359
 1836W        W 5355   0.451   1.840   9.368
 1837W        W 5356   4.541   8.725   0.338
 1838W        W 5357   4.524   6.869   9.988
 1839W        W 5358   3.697   0.763  11.845
 1840W        W 5359   0.179   8.039   0.256
 1841W        W 5360   3.970   0.337   2.235
 1842W        W 5361   7.603   9.785   2.742
 1843W        W 5362   5.000   6.081   0.918
 1844W        W 5363   4.782   8.327  10.889
 1845W        W 5364   6.063   1.357  10.761
 1846W        W 5365   5.987   2.365   3.197
 1847W        W 5366   5.941   4.132   8.697
 1848W        W 5367   0.685   3.589  10.617
 1849W        W 5368   4.679   6.906   2.777
 1850W        W 5369   7.543   4.878   9.864
 1851W        W 5370   5.042   6.177  10.232
 1852W        W 5371   7.304   1.150  10.519
 1853W        W 5372   9.805   7.157   1.933
 1854W        W 5373   2.523   5.966  11.658
 1855W        W 5374   6.322   7.943   3.470
 1856W        W 5375   8.646   3.484   8.689
 1857W        W 5376   2.654   4.039   0.372
 1858W        W 5377   8.264   1.470  10.476
 1859W        W 5378   8.846   5.455   9.502
 1860W        W 5379   1.206   3.738   0.455
 1861W        W 5380   8.365   5.220   2.825
 1862W        W 5381   2.757   4.041   8.875
 1863W        W 5382   0.582   0.200   0.055
 1864W        W 5383   6.823   2.852   8.923
 1865W        W 5384   1.287   5.488   9.073
 1866W        W 5385   3.697   4.325   2.475
 1867W        W 5386   0.042   1.956  10.709
 1868W        W 5387   6.106   6.528   8.713
 1869W        W 5388   5.751   8.464   0.678
 1870W        W 5389   9.786   3.213   1.816
 1871W        W 5390   4.007   9.561   1.917
 1872W        W 5391   9.319   5.693  11.005
 1873W        W 5392   2.594   8.541   0.984
 1874W        W 5393   2.428   0.345   9.229
 1875W        W 5394   8.538   6.070   2.465
 1876W        W 5395   6.866   2.038   2.761
 1877W        W 5396   0.626   3.525   0.696
 1878W        W 5397   9.005   5.334  10.807
 1879W        W 5398   5.835   5.155  10.273
 1880W        W 5399   8.910   0.193   0.410
 1881W        W 5400   2.744   3.386   1.011
 1882W        W 5401   1.960   2.600  10.707
 1883W        W 5402   7.524   1.302  10.074
 1884W        W 5403   9.549   3.718   3.588
 1885W        W 5404   6.802   5.704   2.638
 1886W        W 5405   3.306   9.000   0.904
 1887W        W 5406   7.296   5.489  11.324
 1888W        W 5407   3.799   2.503   9.487
 1889W        W 5408   9.874   9.325  11.077
 1890W        W 5409   0.049   3.610  11.844
 1891W        W 5410   6.327   9.685   1.336
 1892W        W 5411   4.695   1.470  10.538
 1893W        W 5412   5.536   4.681   3.009
 1894W        W 5413   1.801   7.799   2.583
 1895W        W 5414   2.359   4.641   2.341
 1896W        W 5415   0.852   6.531  10.930
 1897W        W 5416   9.924   5.233  11.196
 1898W        W 5417   2.229   9.667   9.984
 1899W        W 5418   3.748   2.636   1.046
 1900W        W 5419   2.374   7.029   0.684
 1901W        W 5420   8.533   6.217   0.429
 1902W        W 5421   3.907   6.688   0.909
 1903W        W 5422   0.494   4.088   9.032
 1904W        W 5423   4.219   8.848  10.662
 1905W        W 5424   3.210   0.729   3.168
 1906W        W 5425   0.322   2.031   1.292
 1907W        W 5426   9.456   9.369  10.755
 1908W        W 5427   8.002   1.999   2.174
 1909W        W 5428   6.451   9.300   1.024
 1910W        W 5429   8.501   6.814  11.615
 1911W        W 5430   2.362   8.450   0.421
 1912W        W 5431   6.798   9.797   9.248
 1913W        W 5432   7.471   2.047  10.393
 1914W        W 5433   2.565   6.997  11.309
 1915W        W 5434   4.598   4.730   9.877
 1916W        W 5435   4.603   1.272   2.949
 1917W        W 5436   0.227   0.419   9.098
 1918W        W 5437   9.426   5.844  11.478
 1919W        W 5438   1.338   9.242   1.646
 1920W        W 5439   3.564   9.272  10.280
 1921W        W 5440   4.760   9.504   0.866
 1922W        W 5441   8.580   8.186  11.528
 1923W        W 5442   0.141   3.730   9.805
 1924W        W 5443   8.526   8.556   9.738
 1925W        W 5444   8.791   5.619  11.801
 1926W        W 5445   8.922   2.617   2.033
 1927W        W 5446   4.110   7.583   9.144
 1928W        W 5447   8.483   8.007  10.522
 1929W        W 5448   7.880   5.935   1.618
 1930W        W 5449   3.216   4.244   9.144
 1931W        W 5450   8.116   6.678   8.550
 1932W        W 5451   2.698   5.287   1.183
 1933W        W 5452   5.377   9.761   1.960
 1934W        W 5453   8.018   0.679   2.317
 1935W        W 5454   0.196   5.983   8.610
 1936W        W 5455   4.601   8.463   1.474
 1937W        W 5456   8.589   8.421   9.241
 1938W        W 5457   1.618   6.776   8.706
 1939W        W 5458   2.326   3.271   0.749
 1940W        W 5459   6.662   4.524  11.991
 1941W        W 5460   0.805   2.352   2.545
 1942W        W 5461   5.060   0.857   8.975
 1943W        W 5462   4.773   2.831   3.224
 1944W        W 5463   8.115   7.755   3.132
 1945W        W 5464   8.429   4.183   1.341
 1946W        W 5465   9.994   6.839   0.505
 1947W        W 5466   1.311   6.315   9.562
 1948W        W 5467   6.406   1.003   0.855
 1949W        W 5468   1.561   7.495   2.258
 1950W        W 5469   4.215   3.574   2.151
 1951W        W 5470   1.221   8.507   9.969
 1952W        W 5471   4.780   2.003   9.450
 1953W        W 5472   5.680   9.681  10.063
 1954W        W 5473   1.899   3.928   9.817
 1955W        W 5474   9.106   6.174  10.982
 1956W        W 5475   5.972   4.430   0.361
 1957W        W 5476   8.856   7.784   1.437
 1958W        W 5477   7.388   0.830   9.878
 1959W        W 5478   0.012   9.676   0.478
 1960W        W 5479   5.165   6.524   2.281
 1961W        W 5480   7.084   1.087   1.695
 1962W        W 5481   1.207   7.085   8.627
 1963W        W 5482   4.710   7.955   1.360
 1964W        W 5483   0.698   3.891  11.392
 1965W        W 5484   0.467   2.375  11.447
 1966W        W 5485   5.859   9.393  10.805
 1967W        W 5486   5.557   1.868   0.879
 1968W        W 5487   7.340   7.644   2.793
 1969W        W 5488   4.324   3.072   2.200
 1970W        W 5489   8.885   9.220   0.952
 1971W        W 5490   0.967   5.751   2.749
 1972W        W 5491   1.606   5.028   2.461
 1973W        W 5492   4.966   2.546   4.210
 1974W        W 5493   4.644   6.970   1.189
 1975W        W 5494   2.102   3.506  11.390
 1976W        W 5495   8.336   3.803   3.193
 1977W        W 5496   6.407   8.899   3.625
 1978W        W 5497   1.391   8.093   2.746
 1979W        W 5498   3.459   4.107   8.169
 1980W        W 5499   6.376   5.678   3.616
 1981W        W 5500   8.383   4.521   0.230
 1982W        W 5501   0.047   9.827  10.217
 1983W        W 5502   5.243   3.561   0.738
 1984W        W 5503   5.634   7.823   2.289
 1985W        W 5504   5.766   7.401   0.025
 1986W        W 5505   2.776   8.596   2.895
 1987W        W 5506   2.937   1.841   3.603
 1988W        W 5507   4.469   2.348  10.608
 1989W        W 5508   5.195   9.498   2.979
 1990W        W 5509   6.874   8.973   1.582
 1991W        W 5510   8.457   7.156  10.649
 1992W        W 5511   0.081   4.147   1.705
 1993W        W 5512   9.804   1.022   3.256
 1994W        W 5513   5.044   9.189   2.612
 1995W        W 5514   1.166   8.486  10.481
 1996W        W 5515   9.604   2.403   3.518
 1997W        W 5516   0.885   0.616   0.269
 1998W        W 5517   1.584   9.034   1.260
 1999W        W 5518   5.508   7.292   3.610
 2000W        W 5519   7.474   1.088   1.373
 2001W        W 5520   6.199   0.764   0.025
 2002W        W 5521   7.799   0.377  10.573
 2003W        W 5522   0.498   1.563   1.263
 2004W        W 5523   5.489   5.082  11.309
 2005W        W 5524   2.350   4.409   0.787
 2006W        W 5525   7.644   7.613  10.422
 2007W        W 5526   4.832   9.963   0.616
 2008W        W 5527   7.305   2.123   9.053
 2009W        W 5528   7.257   5.670   3.964
 2010W        W 5529   1.226   2.243   1.297
 2011W        W 5530   4.188   5.172   3.415
 2012W        W 5531   3.346   5.908   7.954
 2013W        W 5532   1.052   7.013   3.495
 2014W        W 5533   0.313   3.401   3.498
 2015W        W 5534   8.914   7.799  11.694
 2016W        W 5535   5.484   4.213  11.506
 2017W        W 5536   2.610   7.930  10.750
 2018W        W 5537   5.603   1.060   3.568
 2019W        W 5538   4.337   4.660   1.804
 2020W        W 5539   4.942   6.811   3.222
 2021W        W 5540   9.418   7.972  11.001
 2022W        W 5541   9.325   9.011  11.134
 2023W        W 5542   6.008   8.812   0.430
 2024W        W 5543   0.400   7.591   0.402
 2025W        W 5544   8.198   2.900   9.574
 2026W        W 5545   6.162   7.936   0.585
 2027W        W 5546   2.749   7.481  11.304
 2028W        W 5547   0.414   2.732   1.828
 2029W        W 5548   6.882   6.282  11.841
 2030W        W 5549   6.813   7.339   9.038
 2031W        W 5550   2.709   9.764   8.978
 2032W        W 5551   6.756   3.638   8.507
 2033W        W 5552   1.773   8.747   9.308
 2034W        W 5553   5.638   3.849   9.893
 2035W        W 5554   5.937   7.562   1.789
 2036W        W 5555   6.239   4.155   3.869
 2037W        W 5556   6.663   7.349   9.524
 2038W        W 5557   2.321   2.769   0.458
 2039W        W 5558   8.017   2.259   9.077
 2040W        W 5559   9.127   8.187   1.647
 2041W        W 5560   0.775   5.168  11.500
 2042W        W 5561   4.990   0.514   2.959
 2043W        W 5562   6.080   7.397   0.433
 2044W        W 5563   6.335   0.850  11.540
 2045W        W 5564   3.030   6.465   0.906
 2046W        W 5565   0.062   1.992   2.196
 2047W        W 5566   8.701   3.818   9.443
 2048W        W 5567   0.837   7.093  11.830
 2049W        W 5568   2.493   3.559   2.217
 2050W        W 5569   0.897   7.008   9.044
 2051W        W 5570   1.347   7.443   9.463
 2052W        W 5571   3.007   7.060   9.256
 2053W        W 5572   2.810   3.828   9.778
 2054W        W 5573   7.193   3.182   3.186
 2055W        W 5574   5.181   7.082  11.440
 2056W        W 5575   7.187   8.705   0.695
 2057W        W 5576   6.626   3.875   2.923
 2058W        W 5577   0.015   9.549   8.820
 2059W        W 5578   0.233   7.236   2.814
 2060W        W 5579   9.733   7.724   2.500
 2061W        W 5580   2.699   3.590   1.760
 2062W        W 5581   9.229   1.809   0.482
 2063W        W 5582   9.337   2.076  10.645
 2064W        W 5583   0.179   6.572   2.133
 2065W        W 5584   3.180   4.260   8.620
 2066W        W 5585   2.856   5.969  11.267
 2067W        W 5586   8.207   5.411   0.333
 2068W        W 5587   4.570   8.529   2.298
 2069W        W 5588   4.177   7.207  11.405
 2070W        W 5589   9.666   9.098   2.979
 2071W        W 5590   5.035   8.350   1.212
 2072W        W 5591   5.308   5.138   8.736
 2073W        W 5592   1.622   8.200   1.040
 2074W        W 5593   2.659   9.047   1.010
 2075W        W 5594   9.348   5.517   2.396
 2076W        W 5595   1.801   1.347   3.530
 2077W        W 5596   0.923   6.784   3.064
 2078W        W 5597   7.065   0.836   3.097
 2079W        W 5598   0.394   2.657   3.123
 2080W        W 5599   7.976   2.152   0.917
 2081W        W 5600   1.562   7.634   1.280
 2082W        W 5601   9.190   0.398   1.347
 2083W        W 5602   6.270   3.662   3.185
 2084W        W 5603   5.168   4.448   2.038
 2085W        W 5604   5.573   3.181   3.175
 2086W        W 5605   4.878   7.412   1.013
 2087W        W 5606   6.449   9.814   3.477
 2088W        W 5607   5.151   7.283   3.246
 2089W        W 5608   3.312   2.969  11.224
 2090W        W 5609   1.199   5.822   8.664
 2091W        W 5610   0.810   1.132   0.818
 2092W        W 5611   5.446   1.372  11.151
 2093W        W 5612   9.285   7.089   1.185
 2094W        W 5613   3.571   3.433   0.269
 2095W        W 5614   2.639   4.347   1.240
 2096W        W 5615   7.741   8.443   2.658
 2097W        W 5616   9.022   2.228  11.517
 2098W        W 5617   0.743   2.635   3.519
 2099W        W 5618   6.442   7.631   1.728
 2100W        W 5619   8.269   1.182   8.534
 2101W        W 5620   0.683   4.188   1.788
 2102W        W 5621   7.458   4.917  11.357
 2103W        W 5622   9.028   1.363  10.124
 2104W        W 5623   3.233   2.468   1.071
 2105W        W 5624   6.010   8.129  10.714
 2106W        W 5625   0.430   1.363   9.206
 2107W        W 5626   2.857   6.419  10.498
 2108W        W 5627   7.179   7.391   3.444
 2109W        W 5628   7.480   1.809   9.942
 2110W        W 5629   4.927   8.382   1.904
 2111W        W 5630   7.899   8.853   2.293
 2112W        W 5631   4.021   3.131   8.993
 2113W        W 5632   9.593   4.841  11.338
 2114W        W 5633   1.806   2.157  10.961
 2115W        W 5634   0.505   1.236  10.100
 2116W        W 5635   0.075   9.289   3.206
 2117W        W 5636   4.102   4.139   0.003
 2118W        W 5637   7.335   2.693   0.410
 2119W        W 5638   9.419   6.934  10.178
 2120W        W 5639   2.125   6.131   3.058
 2121W        W 5640   5.469   7.138   8.601
 2122W        W 5641   7.211   2.109   0.554
 2123W        W 5642   8.256   3.097   0.417
 2124W        W 5643   3.545   4.067   1.536
 2125W        W 5644   9.892   2.184   1.534
 2126W        W 5645   0.890   2.885   1.694
 2127W        W 5646   5.145   3.821  11.477
 2128W        W 5647   2.451   2.799   2.282
 2129W        W 5648   5.106   8.246   0.704
 2130W        W 5649   2.788   1.354   1.396
 2131W        W 5650   6.389   7.526   0.814
 2132W        W 5651   5.710   5.617  11.951
 2133W        W 5652   8.907   2.206  10.889
 2134W        W 5653   1.708   6.575   9.718
 2135W        W 5654   6.455   3.679  10.548
 2136W        W 5655   0.819   5.345   2.444
 2137W        W 5656   0.818   1.265  11.740
 2138W        W 5657   0.350   5.056   3.148
 2139W        W 5658   9.045   5.669   9.091
 2140W        W 5659   5.637   9.854  10.995
 2141W        W 5660   5.224   4.975   0.566
 2142W        W 5661   4.278   7.785   1.619
 2143W        W 5662   2.058   4.865   2.754
 2144W        W 5663   1.836   7.005   2.799
 2145W        W 5664   8.107   8.706   0.888
 2146W        W 5665   8.265   9.098   8.641
 2147W        W 5666   1.863   5.205  11.239
 2148W        W 5667   5.431   8.436   2.109
 2149W        W 5668   3.505   2.387   8.736
 2150W        W 5669   4.771   8.448   9.088
 2151W        W 5670   1.883   9.578  11.078
 2152W        W 5671   8.977   7.143   2.725
 2153W        W 5672   2.796   3.055  10.486
 2154W        W 5673   6.669   4.298   3.194
 2155W        W 5674   9.122   4.915   3.215
 2156W        W 5675   5.943   5.653   3.944
 2157W        W 5676   8.831   7.877   1.930
 2158W        W 5677   0.803   6.096   0.853
 2159W        W 5678   1.232   2.555  10.318
 2160W        W 5679   7.261   9.873   9.004
 2161W        W 5680   0.227   9.268   1.628
 2162W        W 5681   1.563   8.908  10.935
 2163W        W 5682   3.175   5.625   1.420
 2164W        W 5683   3.331   0.392   9.052
 2165W        W 5684   3.332   9.711   3.140
 2166W        W 5685   7.219   1.540   8.645
 2167W        W 5686   2.337   4.864   9.189
 2168W        W 5687   8.505   4.823   9.016
 2169W        W 5688   0.257   8.838   0.171
 2170W        W 5689   9.827   4.140   9.799
 2171W        W 5690   5.912   1.887   0.522
 2172W        W 5691   3.564   0.163   2.470
 2173W        W 5692   4.181   0.219   0.793
 2174W        W 5693   9.377   9.039   1.064
 2175W        W 5694   3.612   9.583   9.867
 2176W        W 5695   1.046   4.731  11.576
 2177W        W 5696   7.990   6.374   1.270
 2178W        W 5697   1.337   4.235  10.498
 2179W        W 5698   9.363   2.684   0.553
 2180W        W 5699   3.859   1.228   0.744
 2181W        W 5700   2.330   5.403   1.544
 2182W        W 5701   0.621   8.134   2.953
 2183W        W 5702   4.131   1.916   8.534
 2184W        W 5703   9.501   0.602   3.046
 2185W        W 5704   0.917   6.381   9.884
 2186W        W 5705   6.155   9.973  11.783
 2187W        W 5706   6.250   6.700  10.205
 2188W        W 5707   9.251   7.108   0.376
 2189W        W 5708   2.250   9.621   0.332
 2190W        W 5709   6.561   3.331   1.691
 2191W        W 5710   8.230   4.770   0.648
 2192W        W 5711   4.493   7.638   9.484
 2193W        W 5712   7.947   1.391   9.229
 2194W        W 5713   7.090   2.611  11.650
 2195W        W 5714   3.435   6.469   3.074
 2196W        W 5715   7.011   5.248   2.704
 2197W        W 5716   7.120   2.637  11.139
 2198W        W 5717   9.833   9.434   8.360
 2199W        W 5718   8.895   4.534   8.756
 2200W        W 5719   6.228   8.276   1.812
 2201W        W 5720   3.553   7.442   2.595
 2202W        W 5721   6.472   3.199   2.212
 2203W        W 5722   6.546   5.005   0.182
 2204W        W 5723   5.954   5.637  10.405
 2205W        W 5724   9.884   0.774   9.861
 2206W        W 5725   2.169   0.634   0.477
 2207W        W 5726   2.590   8.243  11.765
 2208W        W 5727   1.238   6.824   9.551
 2209W        W 5728   2.660   9.076   1.511
 2210W        W 5729   7.522   4.269  10.471
 2211W        W 5730   8.302   1.008   1.380
 2212W        W 5731   6.295   7.398  11.910
 2213W        W 5732   0.935   2.203   0.058
 2214W        W 5733   2.841   5.103   3.637
 2215W        W 5734   5.086   8.512  10.061
 2216W        W 5735   0.278   7.399   8.872
 2217W        W 5736   7.445   2.316   9.959
 2218W        W 5737   9.208   3.799   1.760
 2219W        W 5738   0.093   1.742   1.672
 2220W        W 5739   2.503   7.930   3.514
 2221W        W 5740   9.876   2.123   1.020
 2222W        W 5741   5.512   8.780  10.065
 2223W        W 5742   5.348   4.212   2.882
 2224W        W 5743   1.147   6.932  11.275
 2225W        W 5744   3.746   5.014   0.371
 2226W        W 5745   3.591   3.075  10.352
 2227W        W 5746   8.397   0.906   9.900
 2228W        W 5747   7.590   6.067   1.159
 2229W        W 5748   2.574   6.481  11.479
 2230W        W 5749   8.949   7.949   9.738
 2231W        W 5750   7.198   9.698   1.750
 2232W        W 5751   4.642   9.735  10.774
 2233W        W 5752   4.859   9.878   9.682
 2234W        W 5753   5.438   6.698   3.255
 2235W        W 5754   9.437   7.397   2.203
 2236W        W 5755   9.995   2.985   0.502
 2237W        W 5756   4.587   6.506  10.904
 2238W        W 5757   5.315   6.160  10.679
 2239W        W 5758   3.019   2.246   3.918
 2240W        W 5759   4.509   5.121   1.238
 2241W        W 5760   1.020   5.631   0.889
 2242W        W 5761   9.441   7.046  11.822
 2243W        W 5762   2.237   0.756  11.551
 2244W        W 5763   6.793   7.734   3.658
 2245W        W 5764   4.429   8.215  11.346
 2246W        W 5765   1.642   3.907  10.247
 2247W        W 5766   3.608   9.391  10.782
 2248W        W 5767   0.955   0.869  10.781
 2249W        W 5768   5.876   9.814   9.558
 2250W        W 5769   9.557   8.900   8.952
 2251W        W 5770   7.599   6.777   9.503
 2252W        W 5771   5.518   8.500   1.108
 2253W        W 5772   7.502   2.793   1.108
 2254W        W 5773   7.390   1.871   0.029
 2255W        W 5774   8.859   3.789   0.480
 2256W        W 5775   3.596   5.179   4.128
 2257W        W 5776   0.528   9.475   9.676
 2258W        W 5777   7.373   9.343  10.794
 2259W        W 5778   8.000   3.572   1.787
 2260W        W 5779   8.055   8.202  10.991
 2261W        W 5780   7.834   9.373  10.379
 2262W        W 5781   2.803   0.970  11.455
 2263W        W 5782   0.436   8.876   8.932
 2264W        W 5783   3.606   3.099   0.666
 2265W        W 5784   1.725   5.112   1.987
 2266W        W 5785   6.683   7.121   0.809
 2267W        W 5786   9.858   8.929   1.985
 2268W        W 5787   0.819   9.726   9.275
 2269W        W 5788   2.048   4.238  11.083
 2270W        W 5789   9.434   0.155  10.268
 2271W        W 5790   4.838   4.845   2.077
 2272W        W 5791   5.967   3.306   3.511
 2273W        W 5792   1.083   3.554   8.923
 2274W        W 5793   8.219   8.000   8.613
 2275W        W 5794   2.187   9.150  11.775
 2276W        W 5795   1.201   8.843   2.075
 2277W        W 5796   1.154   8.941   3.114
 2278W        W 5797   9.801   9.273   0.791
 2279W        W 5798   8.631   1.644  11.227
 2280W        W 5799   8.681   5.233   0.147
 2281W        W 5800   5.766   1.562  10.392
 2282W        W 5801   1.012   8.991  10.490
 2283W        W 5802   7.155   4.610   9.672
 2284W        W 5803   1.350   5.313   9.554
 2285W        W 5804   0.990   1.802  10.758
 2286W        W 5805   4.710   4.815   3.418
 2287W        W 5806   2.714   3.771   2.633
 2288W        W 5807   2.320   6.840  11.744
 2289W        W 5808   8.321   8.410   1.316
 2290W        W 5809   4.230   7.684   2.295
 2291W        W 5810   2.832   2.315  11.896
 2292W        W 5811   0.876   3.144   0.928
 2293W        W 5812   6.077   2.166   8.982
 2294W        W 5813   9.278   5.497  11.862
 2295W        W 5814   1.751   0.772  11.760
 2296W        W 5815   0.835   9.286   0.194
 2297W        W 5816   8.963   2.611   3.496
 2298W        W 5817   6.227   1.248   8.586
 2299W        W 5818   5.802   5.360   3.551
 2300W        W 5819   3.520   4.598   8.383
 2301W        W 5820   8.005   9.187   0.834
 2302W        W 5821   2.373   4.442   0.240
 2303W        W 5822   9.068   8.345   2.612
 2304W        W 5823   4.134   6.258  11.124
 2305W        W 5824   5.588   7.985  11.423
 2306W        W 5825   2.657   7.244  10.327
 2307W        W 5826   6.739   0.527   9.938
 2308W        W 5827   7.741   7.828   9.074
 2309W        W 5828   2.466   8.541   9.503
 2310W        W 5829   0.929   5.995   3.434
 2311W        W 5830   7.907   3.774  10.056
 2312W        W 5831   6.797   8.295  10.351
 2313W        W 5832   3.282   7.025  10.038
 2314W        W 5833   0.184   8.958   0.674
 2315W        W 5834   8.291   3.769   9.726
 2316W        W 5835   8.520   4.313   3.192
 2317W        W 5836   8.499   6.653  10.615
 2318W        W 5837   5.333   7.594   9.845
 2319W        W 5838   9.037   7.933   2.882
 2320W        W 5839   4.161   2.518   0.002
 2321W        W 5840   7.849   9.158  10.853
 2322W        W 5841   1.215   4.138   0.765
 2323W        W 5842   3.485   5.823   3.719
 2324W        W 5843   6.059   8.608  10.922
 2325W        W 5844   6.503   2.941   1.042
 2326W        W 5845   8.928   6.722   8.393
 2327W        W 5846   6.666   3.668  11.052
 2328W        W 5847   9.749   3.972   2.389
 2329W        W 5848   8.449   3.144  10.952
 2330W        W 5849   1.410   7.001   2.154
 2331W        W 5850   3.014   3.835   3.029
 2332W        W 5851   2.411   6.188  10.674
 2333W        W 5852   0.277   7.494   0.926
 2334W        W 5853   7.867   6.970   9.890
 2335W        W 5854   9.901   8.575   9.989
 2336W        W 5855   3.290   6.148  10.065
 2337W        W 5856   5.979   8.971  10.165
 2338W        W 5857   3.847   3.832  11.318
 2339W        W 5858   7.430   4.928   9.353
 2340W        W 5859   0.364   0.275   1.328
 2341W        W 5860   3.247   0.371   8.538
 2342W        W 5861   5.291   5.759   8.647
 2343W        W 5862   7.482   1.324   9.026
 2344W        W 5863   5.666   5.498   8.885
 2345W        W 5864   9.454   7.060   2.591
 2346W        W 5865   9.915   3.458   2.328
 2347W        W 5866   7.105   6.899   1.733
 2348W        W 5867   3.707   1.266  10.944
 2349W        W 5868   7.917   6.154  11.858
 2350W        W 5869   4.415   5.333  11.237
 2351W        W 5870   6.944   6.898   9.484
 2352W        W 5871   8.455   7.504   8.810
 2353W        W 5872   4.435   2.276  11.139
 2354W        W 5873   9.545   8.766   0.104
 2355W        W 5874   4.602   8.996   1.401
 2356W        W 5875   2.803   5.324   1.688
 2357W        W 5876   1.536   0.416  11.105
 2358W        W 5877   0.249   4.565   0.539
 2359W        W 5878   3.369   5.811   0.076
 2360W        W 5879   6.035   3.727   2.708
 2361W        W 5880   1.685   8.235   3.401
 2362W        W 5881   1.974   4.894  10.793
 2363W        W 5882   3.312   1.689   2.153
 2364W        W 5883   8.439   9.223  10.407
 2365W        W 5884   4.212   8.540   3.377
 2366W        W 5885   1.889   4.204   0.956
 2367W        W 5886   8.799   1.088   0.879
 2368W        W 5887   1.603   8.885   9.925
 2369W        W 5888   5.871   0.733   3.259
 2370W        W 5889   5.587   5.341  10.673
 2371W        W 5890   7.617   9.724   1.343
 2372W        W 5891   9.418   8.025   9.513
 2373W        W 5892   0.716   5.737  10.450
 2374W        W 5893   2.051   4.214   2.003
 2375W        W 5894   3.789   1.176  10.071
 2376W        W 5895   7.356   5.118  10.301
 2377W        W 5896   7.897   0.698   9.848
 2378W        W 5897   0.614   0.203   9.384
 2379W        W 5898   9.902   8.353   1.327
 2380W        W 5899   9.452   9.856   9.350
 2381W        W 5900   8.118   7.545  11.922
 2382W        W 5901   9.472   4.499   0.914
 2383W        W 5902   0.088   3.489   1.463
 2384W        W 5903   9.861   7.889   9.793
 2385W        W 5904   8.014   5.840   9.078
 2386W        W 5905   0.432   0.168  10.424
 2387W        W 5906   5.624   4.598   9.455
 2388W        W 5907   5.643   3.521  10.778
 2389W        W 5908   9.106   7.547   9.497
 2390W        W 5909   6.649   4.847   3.863
 2391W        W 5910   1.649   1.388   3.045
 2392W        W 5911   2.628   2.316   2.211
 2393W        W 5912   0.083   6.389  10.215
 2394W        W 5913   4.945   3.177   2.023
 2395W        W 5914   8.634   0.752   1.675
 2396W        W 5915   2.060   1.367   9.505
 2397W        W 5916   5.073   4.731   9.680
 2398W        W 5917   7.309   6.567   9.156
 2399W        W 5918   2.988   1.296  10.444
 2400W        W 5919   3.647   4.692  11.575
 2401W        W 5920   3.734   1.533   9.683
 2402W        W 5921   1.969   2.128  11.873
 2403W        W 5922   3.953   4.918   3.806
 2404W        W 5923   8.062   4.093  11.085
 2405W        W 5924   7.558   3.992   2.790
 2406W        W 5925   6.196   2.978  11.402
 2407W        W 5926   9.737   7.533  10.750
 2408W        W 5927   8.743   1.735   1.777
 2409W        W 5928   7.477   5.667   1.448
 2410W        W 5929   2.996   8.264   1.139
 2411W        W 5930   4.517   1.554   8.571
 2412W        W 5931   3.122   9.948   2.170
 2413W        W 5932   0.946   2.877   2.195
 2414W        W 5933   7.005   3.937   3.800
 2415W        W 5934   5.536   1.732   3.847
 2416W        W 5935   6.961   5.573  10.920
 2417W        W 5936   7.136   5.695   3.078
 2418W        W 5937   9.227   4.123   8.581
 2419W        W 5938   7.297   3.729   9.218
 2420W        W 5939   8.578   9.795   9.244
 2421W        W 5940   9.735   5.218   2.568
 2422W        W 5941   5.133   0.992  10.413
 2423W        W 5942   9.002   6.102   3.191
 2424W        W 5943   5.093   9.662   3.492
 2425W        W 5944   1.204   8.272   3.184
 2426W        W 5945   8.508   5.749   9.764
 2427W        W 5946   7.463   7.787   9.546
 2428W        W 5947   9.325   9.292  10.236
 2429W        W 5948   3.692   7.241  11.583
 2430W        W 5949   4.400   3.639   8.027
 2431W        W 5950   4.419   7.978   9.085
 2432W        W 5951   5.949   5.979   2.999
 2433W        W 5952   6.600   9.824   8.746
 2434W        W 5953   1.517   5.778  10.897
 2435W        W 5954   0.892   1.962   9.773
 2436W        W 5955   3.624   5.776  10.324
 2437W        W 5956   2.371   9.330   0.720
 2438W        W 5957   1.115   1.106   2.529
 2439W        W 5958   1.765   3.628   2.798
 2440W        W 5959   1.865   0.817  11.203
 2441W        W 5960   4.650   4.614   9.376
 2442W        W 5961   0.806   9.305   3.339
 2443W        W 5962   6.505   7.130   0.296
 2444W        W 5963   1.416   7.065   0.655
 2445W        W 5964   1.813   7.651  11.770
 2446W        W 5965   2.060   7.002  11.305
 2447W        W 5966   3.779   1.813   1.939
 2448W        W 5967   3.110   7.630   1.841
 2449W        W 5968   2.166   8.398  10.391
 2450W        W 5969   7.482   8.961   8.332
 2451W        W 5970   7.440   9.873  10.031
 2452W        W 5971   1.493   6.640  11.009
 2453W        W 5972   7.677   9.314   2.488
 2454W        W 5973   1.654   9.763   2.245
 2455W        W 5974   8.181   6.599  10.042
 2456W        W 5975   7.628   6.984   0.840
 2457W        W 5976   8.409   5.202   9.426
 2458W        W 5977   6.097   1.011   1.313
 2459W        W 5978   5.890   7.638   0.900
 2460W        W 5979   4.074   4.148   9.402
 2461W        W 5980   7.686   9.389   1.982
 2462W        W 5981   9.366   0.430   0.375
 2463W        W 5982   5.534   3.271   8.502
 2464W        W 5983   1.439   2.186  11.912
 2465W        W 5984   6.908   1.871   0.214
 2466W        W 5985   7.217   4.055   0.715
 2467W        W 5986   7.024   7.998   9.347
 2468W        W 5987   9.414   2.206   1.287
 2469W        W 5988   1.758   3.851  11.248
 2470W        W 5989   3.650   9.762  10.410
 2471W        W 5990   2.249   6.116   2.563
 2472W        W 5991   7.447   8.699   0.227
 2473W        W 5992   1.233   4.592   2.966
 2474W        W 5993   9.354   3.845  11.779
 2475W        W 5994   6.275   0.479   2.483
 2476W        W 5995   4.786   7.636   3.410
 2477W        W 5996   3.701   2.904   0.191
 2478W        W 5997   9.471   1.099  10.304
 2479W        W 5998   7.288   7.067   9.152
 2480W        W 5999   3.595   6.325   9.597
 2481W        W 6000   5.541   6.210   3.181
 2482W        W 6001   1.488   3.908   8.788
 2483W        W 6002   6.487   4.328  11.537
 2484W        W 6003   6.001   0.523   1.490
 2485W        W 6004   6.306   4.373   9.897
 2486W        W 6005   1.894   6.995   9.979
 2487W        W 6006   2.681   5.760   1.427
 2488W        W 6007   3.406   6.922   9.561
 2489W        W 6008   2.698   9.592  10.299
 2490W        W 6009   8.421   8.962   3.111
 2491W        W 6010   9.767   6.962   9.483
 2492W        W 6011   6.212   9.372   3.764
 2493W        W 6012   5.618   8.693   3.449
 2494W        W 6013   4.936   5.892  11.991
 2495W        W 6014   4.554   1.178   1.457
 2496W        W 6015   7.159   4.332   3.478
 2497W        W 6016   3.538   4.208   3.318
 2498W        W 6017   8.810   3.451   1.047
 2499W        W 6018   5.479   8.461   9.672
 2500W        W 6019   2.635   2.238   0.434
 2501W        W 6020   3.163   0.711  11.908
 2502W        W 6021   6.052   6.883   0.418
 2503W        W 6022   8.707   9.125   0.190
 2504W        W 6023   8.445   7.515   2.292
 2505W        W 6024   0.242   6.869  10.364
 2506W        W 6025   1.465   2.851   2.108
 2507W        W 6026   0.059   3.840   3.533
 2508W        W 6027   8.592   1.225   1.902
 2509W        W 6028   9.008   6.046   0.364
 2510W        W 6029   1.098   6.543   9.142
 2511W        W 6030   5.873   3.580   8.746
 2512W        W 6031   4.071   8.923   0.319
 2513W        W 6032   8.356   1.891   1.152
 2514W        W 6033   8.718   8.233  10.086
 2515W        W 6034   8.026   2.326   3.187
 2516W        W 6035   6.918   3.459   9.453
 2517W        W 6036   0.911   6.665   8.657
 2518W        W 6037   7.925   4.992   9.529
 2519W        W 6038   8.143   0.821  11.503
 2520W        W 6039   2.718   3.555   0.538
 2521W        W 6040   0.648   8.870   0.480
 2522W        W 6041   7.352   2.252  10.852
 2523W        W 6042   4.684   3.592   1.947
 2524W        W 6043   7.201   5.979   8.558
 2525W        W 6044   1.193   7.418   0.987
 2526W        W 6045   0.559   0.839  11.974
 2527W        W 6046   1.487   3.391   8.633
 2528W        W 6047   8.997   8.196   1.158
 2529W        W 6048   4.060   3.798   2.572
 2530W        W 6049   7.232   7.549   1.188
 2531W        W 6050   9.467   8.378  11.784
 2532W        W 6051   4.923   7.950   9.036
 2533W        W 6052   4.725   3.670   0.714
 2534W        W 6053   6.335   5.727  10.064
 2535W        W 6054   5.233   1.825  11.359
 2536W        W 6055   0.756   8.091   1.605
 2537W        W 6056   3.623   7.708   9.330
 2538W        W 6057   5.898   2.328   2.715
 2539W        W 6058   7.971   4.403  10.676
 2540W        W 6059   2.703   6.111   0.618
 2541W        W 6060   7.779   9.345   2.997
 2542W        W 6061   4.544   5.258   2.244
 2543W        W 6062   3.104   1.341   1.808
 2544W        W 6063   4.968   0.058   8.613
 2545W        W 6064   7.494   2.938  11.035
 2546W        W 6065   2.326   6.666  10.991
 2547W        W 6066   1.335   7.193  11.671
 2548W        W 6067   9.512   6.951   8.768
 2549W        W 6068   6.472   1.151   2.173
 2550W        W 6069   0.645   7.112  11.327
 2551W        W 6070   2.114   8.771  10.972
 2552W        W 6071   4.418   7.368   2.707
 2553W        W 6072   5.644   4.030  10.380
 2554W        W 6073   8.029   7.327  10.230
 2555W        W 6074   0.607   9.033   0.952
 2556W        W 6075   2.732   3.144   9.229
 2557W        W 6076   5.465   0.676   2.945
 2558W        W 6077   6.029   2.775   1.123
 2559W        W 6078   7.369   3.263   2.169
 2560W        W 6079   9.286   0.908   3.388
 2561W        W 6080   5.432   4.127   9.308
 2562W        W 6081   1.052   4.573   1.002
 2563W        W 6082   6.984   2.093   1.890
 2564W        W 6083   4.221   2.305   0.462
 2565W        W 6084   6.465   5.329   0.564
 2566W        W 6085   6.498   7.982   0.998
 2567W        W 6086   5.980   8.290   0.252
 2568W        W 6087   2.548   1.243   0.874
 2569W        W 6088   6.383   6.619   3.732
 2570W        W 6089   5.917   4.866   9.091
 2571W        W 6090   5.392   0.350   8.759
 2572W        W 6091   8.375   6.330  11.617
 2573W        W 6092   6.469   9.767  10.446
 2574W        W 6093   7.216   5.664   0.516
 2575W        W 6094   0.333   6.970  11.754
 2576W        W 6095   7.070   1.604   1.765
 2577W        W 6096   8.122   1.134   2.109
 2578W        W 6097   5.697   3.123   9.429
 2579W        W 6098   8.859   9.568   2.723
 2580W        W 6099   4.060   3.678   3.060
 2581W        W 6100   9.357   4.008  10.317
 2582W        W 6101   4.131   3.315  11.481
 2583W        W 6102   6.609   7.118   2.464
 2584W        W 6103   1.858   3.092   8.849
 2585W        W 6104   8.174   2.253  10.919
 2586W        W 6105   2.274   7.000   3.048
 2587W        W 6106   7.798   1.215  11.516
 2588W        W 6107   0.401   1.183   2.018
 2589W        W 6108   8.985   1.266  11.151
 2590W        W 6109   3.635   3.187   9.839
 2591W        W 6110   3.555   4.356   1.976
 2592W        W 6111   1.332   6.653  10.069
 2593W        W 6112   2.135   8.920   2.583
 2594W        W 6113   4.335   1.142   0.991
 2595W        W 6114   1.296   2.905   8.986
 2596W        W 6115   6.972   6.537   3.059
 2597W        W 6116   5.465   6.097  11.171
 2598W        W 6117   8.539   5.998   3.378
 2599W        W 6118   7.552   3.420  10.935
 2600W        W 6119   7.075   2.535   0.823
 2601W        W 6120   3.566   2.111   2.318
 2602W        W 6121   5.628   3.649   9.392
 2603W        W 6122   4.313   3.679  10.130
 2604W        W 6123   0.766   7.909   0.521
 2605W        W 6124   6.640   2.132   2.320
 2606W        W 6125   6.535   7.898  11.025
 2607W        W 6126   9.834   4.190  10.301
 2608W        W 6127   9.724   1.200   9.579
 2609W        W 6128   9.425   2.216   0.775
 2610W        W 6129   5.222   9.261   0.798
 2611W        W 6130   1.135   0.192   9.379
 2612W        W 6131   1.194   4.694   1.463
 2613W        W 6132   9.926   8.315   9.489
 2614W        W 6133   9.935   2.615  11.308
 2615W        W 6134   3.903   5.064   2.991
 2616W        W 6135   7.075   5.966   8.063
 2617W        W 6136   9.385   7.921  11.512
 2618W        W 6137   4.611   6.077   3.707
 2619W        W 6138   4.590   2.072   1.391
 2620W        W 6139   7.579   1.745   0.500
 2621W        W 6140   3.006   5.730  11.713
 2622W        W 6141   2.080   7.878   9.138
 2623W        W 6142   6.943   1.452   3.930
 2624W        W 6143   2.546   2.840  11.749
 2625W        W 6144   3.141   3.311   1.306
 2626W        W 6145   1.809   5.852   3.869
 2627W        W 6146   1.569   4.835   9.487
 2628W        W 6147   9.936   1.479   0.463
 2629W        W 6148   1.361   9.785  10.037
 2630W        W 6149   1.229   5.816   9.593
 2631W        W 6150   9.569   3.918   8.989
 2632W        W 6151   0.958   8.484   2.763
 2633W        W 6152   7.859   5.170  10.134
 2634W        W 6153   8.167   6.179   8.345
 2635W        W 6154   7.060   6.532   9.807
 2636W        W 6155   7.378   7.085   3.087
 2637W        W 6156   0.546   7.050   3.664
 2638W        W 6157   9.743   0.657  10.371
 2639W        W 6158   2.633   7.457   1.908
 2640W        W 6159   1.709   6.178   0.206
 2641W        W 6160   2.631   5.520  11.440
 2642W        W 6161   3.142   9.475   9.035
 2643W        W 6162   1.993   5.929  10.843
 2644W        W 6163   9.039   8.383   9.493
 2645W        W 6164   3.031   7.782   0.474
 2646W        W 6165   1.304   8.788   9.525
 2647W        W 6166   9.375   3.966  11.271
 2648W        W 6167   0.279   9.383  10.142
 2649W        W 6168   1.775   3.944  10.740
 2650W        W 6169   0.224   6.612   9.429
 2651W        W 6170   7.654   0.838  10.318
 2652W        W 6171   7.765   5.077   2.024
 2653W        W 6172   5.558   1.148   3.075
 2654W        W 6173   9.913   0.801   9.271
 2655W        W 6174   3.302   2.246   3.029
 2656W        W 6175   7.480   1.679   3.360
 2657W        W 6176   2.686   0.046   2.691
 2658W        W 6177   7.786   5.325   3.340
 2659W        W 6178   8.098   8.057  11.473
 2660W        W 6179   5.313   6.177   1.307
 2661W        W 6180   4.066   7.047   3.278
 2662W        W 6181   0.367   7.681   1.412
 2663W        W 6182   5.045   3.156   3.569
 2664W        W 6183   7.498   3.163   0.732
 2665W        W 6184   2.229   7.390   1.045
 2666W        W 6185   6.767   9.346   9.546
 2667W        W 6186   1.419   1.509   2.521
 2668W        W 6187   3.557   7.794  11.654
 2669W        W 6188   9.905   9.675   3.481
 2670W        W 6189   5.569   8.769   8.850
 2671W        W 6190   4.982   6.688  10.124
 2672W        W 6191   0.528   0.214   1.861
 2673W        W 6192   2.071   8.726   0.054
 2674W        W 6193   9.730   4.956   9.641
 2675W        W 6194   9.877   7.354   9.862
 2676W        W 6195   5.735   2.558   8.924
 2677W        W 6196   7.473   1.617  10.669
 2678W        W 6197   9.257   7.504  10.876
 2679W        W 6198   7.564   5.766   9.360
 2680W        W 6199   7.755   6.551   2.516
 2681W        W 6200   0.869   6.109   1.920
 2682W        W 6201   1.678   1.950   1.056
 2683W        W 6202   2.325   7.558  10.543
 2684W        W 6203   1.001   5.367  10.213
 2685W        W 6204   6.985   7.792  10.304
 2686W        W 6205   0.930   1.772   8.497
 2687W        W 6206   5.896   1.043   0.844
 2688W        W 6207   6.542   9.813   1.797
 2689W        W 6208   2.671   9.796  11.363
 2690W        W 6209   0.946   9.999  10.246
 2691W        W 6210   6.124   6.641   0.879
 2692W        W 6211   9.391   4.388  11.574
 2693W        W 6212   8.087   3.912  10.560
 2694W        W 6213   7.994   3.693   2.789
 2695W        W 6214   0.524   3.766   2.594
 2696W        W 6215   9.271   9.751   9.951
 2697W        W 6216   0.284   1.178  11.713
 2698W        W 6217   6.734   7.030  10.670
 2699W        W 6218   8.947   4.232  10.108
 2700W        W 6219   3.122   2.389  10.587
 2701W        W 6220   4.223   0.647   0.013
 2702W        W 6221   4.329   4.090   2.878
 2703W        W 6222   0.009   9.335  10.569
 2704W        W 6223   2.134   8.568   2.193
 2705W        W 6224   0.526   3.059   9.978
 2706W        W 6225   0.582   4.960   1.529
 2707W        W 6226   5.338   5.313  10.174
 2708W        W 6227   1.212   6.471   3.541
 2709W        W 6228   1.052   5.134   1.665
 2710W        W 6229   3.402   0.320   2.910
 2711W        W 6230   8.875   6.919   1.587
 2712W        W 6231   4.482   9.521  11.781
 2713W        W 6232   0.758   5.308   2.942
 2714W        W 6233   9.629   1.719   0.785
 2715W        W 6234   7.044   7.379   2.492
 2716W        W 6235   8.319   1.915  10.268
 2717W        W 6236   6.066   2.809   2.683
 2718W        W 6237   5.533   9.080   3.080
 2719W        W 6238   6.488   9.444   0.515
 2720W        W 6239   5.691   1.420   1.105
 2721W        W 6240   0.619   2.844   1.266
 2722W        W 6241   2.465   6.995   9.201
 2723W        W 6242   5.488   9.288   8.800
 2724W        W 6243   3.891   1.268  11.825
 2725W        W 6244   7.713   7.137  11.351
 2726W        W 6245   7.290   1.155   9.460
 2727W        W 6246   6.468   5.624  10.553
 2728W        W 6247   6.244   0.801   8.829
 2729W        W 6248   2.758   0.981   3.272
 2730W        W 6249   3.025   8.071  11.989
 2731W        W 6250   2.790   7.428  10.782
 2732W        W 6251   1.114   2.755   1.190
 2733W        W 6252   8.931   4.956   1.341
 2734W        W 6253   2.624   5.997   8.646
 2735W        W 6254   4.078   7.475  10.249
 2736W        W 6255   1.191   8.302   1.909
 2737W        W 6256   6.932   8.493   1.370
 2738W        W 6257   9.580   7.811   8.625
 2739W        W 6258   0.870   0.235   2.291
 2740W        W 6259   6.675   7.191   1.685
 2741W        W 6260   1.048   8.868  10.981
 2742W        W 6261   3.738   0.619   9.273
 2743W        W 6262   5.662   4.465   1.992
 2744W        W 6263   0.080   0.879  11.308
 2745W        W 6264   1.964   3.383  10.915
 2746W        W 6265   0.172   7.747  10.999
 2747W        W 6266   4.499   5.044  10.270
 2748W        W 6267   5.470   9.686  10.522
 2749W        W 6268   9.767   5.428   9.467
 2750W        W 6269   4.677   2.078   8.566
 2751W        W 6270   5.098   0.774   1.433
 2752W        W 6271   3.156   5.616   9.307
 2753W        W 6272   0.604   6.573   0.895
 2754W        W 6273   3.656   1.643   9.171
 2755W        W 6274   9.149   0.397   3.371
 2756W        W 6275   0.800   1.188   0.276
 2757W        W 6276   6.116   4.997  10.694
 2758W        W 6277   0.359   1.439   2.482
 2759W        W 6278   5.520   0.690  10.584
 2760W        W 6279   9.993   6.404   2.957
 2761W        W 6280   9.171   5.578   1.914
 2762W        W 6281   2.819   8.477   0.201
 2763W        W 6282   9.013   6.557   0.206
 2764W        W 6283   0.863   4.114  10.760
 2765W        W 6284   4.949   0.408   0.344
 2766W        W 6285   3.485   5.072   0.793
 2767W        W 6286   4.946   6.912  10.994
 2768W        W 6287   0.227   5.926  10.453
 2769W        W 6288   8.792   3.004   1.733
 2770W        W 6289   7.660   4.274  11.791
 2771W        W 6290   3.075   2.529  11.100
 2772W        W 6291   9.816   8.004  11.819
 2773W        W 6292   6.537   6.486   9.027
 2774W        W 6293   6.147   4.188  10.409
 2775W        W 6294   0.732   8.184  10.484
 2776W        W 6295   2.034   5.518   1.955
 2777W        W 6296   1.509   8.871  10.427
 2778W        W 6297   2.221   7.711   0.049
 2779W        W 6298   9.044   8.756   0.008
 2780W        W 6299   0.785   3.564   3.382
 2781W        W 6300   9.815   7.913   3.522
 2782W        W 6301   1.840   4.201   1.539
 2783W        W 6302   8.342   0.825   0.895
 2784W        W 6303   4.014   5.941   2.621
 2785W        W 6304   4.385   6.012   1.787
 2786W        W 6305   4.571   0.830   8.823
 2787W        W 6306   3.658   5.853   0.994
 2788W        W 6307   0.426   1.381   0.596
 2789W        W 6308   7.543   6.584   1.147
 2790W        W 6309   2.665   6.159   1.116
 2791W        W 6310   0.149   8.945   2.842
 2792W        W 6311   0.541   5.723   8.913
 2793W        W 6312   8.805   1.239   9.678
 2794W        W 6313   2.627   0.194   0.707
 2795W        W 6314   6.695   7.528   1.230
 2796W        W 6315   2.726   6.639   1.300
 2797W        W 6316   6.243   8.760   1.576
 2798W        W 6317   1.820   2.816   1.653
 2799W        W 6318   4.740   2.942   9.414
 2800W        W 6319   0.651   7.530   9.206
 2801W        W 6320   3.417   3.878  10.603
 2802W        W 6321   4.250   5.821  11.397
 2803W        W 6322   6.071   9.362   9.835
 2804W        W 6323   6.228   4.609   1.268
 2805W        W 6324   8.201   5.023   3.331
 2806W        W 6325   7.880   4.361   2.681
 2807W        W 6326   9.274   0.179  11.929
 2808W        W 6327   1.314   6.017   1.090
 2809W        W 6328   4.839   6.117   2.001
 2810W        W 6329   8.889   2.758   0.755
 2811W        W 6330   5.138   6.968   0.876
 2812W        W 6331   8.560   6.965   8.688
 2813W        W 6332   9.925   8.521  10.516
 2814W        W 6333   9.025   6.821  11.340
 2815W        W 6334   6.262   1.968   1.588
 2816W        W 6335   8.135   0.707   1.779
 2817W        W 6336   8.276   0.171  10.439
 2818W        W 6337   8.205   9.263   0.334
 2819W        W 6338   5.767   0.466   2.581
 2820W        W 6339   6.547   6.696   0.586
 2821W        W 6340   4.517   1.872  10.838
 2822W        W 6341   4.497   6.077   0.810
 2823W        W 6342   0.753   4.801   2.917
 2824W        W 6343   2.393   8.851  10.550
 2825W        W 6344   9.783   6.147  10.566
 2826W        W 6345   9.827   4.937   1.370
 2827W        W 6346   9.648   2.729   2.617
 2828W        W 6347   6.873   4.574  10.575
 2829W        W 6348   2.130   2.092   8.629
 2830W        W 6349   1.240   7.729   8.553
 2831W        W 6350   2.195   2.321   9.101
 2832W        W 6351   5.782   6.864  10.390
 2833W        W 6352   9.484   0.508   2.550
 2834W        W 6353   4.152   4.640   9.600
 2835W        W 6354   3.794   1.378   3.416
 2836W        W 6355   2.293   4.871  11.998
 2837W        W 6356   3.758   6.367   2.705
 2838W        W 6357   1.590   4.114   0.441
 2839W        W 6358   2.257   2.630   2.931
 2840W        W 6359   2.207   3.392   3.649
 2841W        W 6360   1.436   8.987   0.753
 2842W        W 6361   2.728   9.293   8.751
 2843W        W 6362   3.374   8.162  11.240
 2844W        W 6363   6.406   9.238   1.565
 2845W        W 6364   2.653   6.249   3.528
 2846W        W 6365   3.793   2.237  11.736
 2847W        W 6366   7.573   2.411   0.765
 2848W        W 6367   5.596   4.522   2.515
 2849W        W 6368   8.588   1.631   9.394
 2850W        W 6369   8.922   2.368   9.201
 2851W        W 6370   8.938   1.358   9.141
 2852W        W 6371   2.187   9.679   1.634
 2853W        W 6372   9.246   1.342   0.795
 2854W        W 6373   5.408   7.437   2.806
 2855W        W 6374   6.687   4.289   2.635
 2856W        W 6375   2.139   0.027   9.589
 2857W        W 6376   2.578   8.014   0.246
 2858W        W 6377   6.455   3.416   2.685
 2859W        W 6378   5.705   5.749   0.446
 2860W        W 6379   3.165   9.501  10.526
 2861W        W 6380   4.583   4.069   8.637
 2862W        W 6381   2.396   4.074   2.350
 2863W        W 6382   0.872   4.507   0.547
 2864W        W 6383   6.463   8.854   2.606
 2865W        W 6384   8.833   8.846   9.451
 2866W        W 6385   0.611   5.583  11.850
 2867W        W 6386   3.964   6.121   8.710
 2868W        W 6387   8.113   7.488   9.204
 2869W        W 6388   6.864   3.385   8.956
 2870W        W 6389   2.882   1.813  11.995
 2871W        W 6390   5.935   6.833   1.317
 2872W        W 6391   6.913   4.100  11.344
 2873W        W 6392   5.388   6.926   9.064
 2874W        W 6393   2.755   9.289  11.182
 2875W        W 6394   5.077   0.583   1.958
 2876W        W 6395   3.762   0.568  11.354
 2877W        W 6396   1.797   8.293   2.442
 2878W        W 6397   7.245   7.649  10.764
 2879W        W 6398   0.864   1.095   1.789
 2880W        W 6399   2.015   4.475   9.572
 2881W        W 6400   3.693   1.057  11.398
 2882W        W 6401   9.550   1.899   2.897
 2883W        W 6402   8.063   1.756   2.627
 2884W        W 6403   0.808   3.422   2.893
 2885W        W 6404   6.889   1.896   8.820
 2886W        W 6405   6.599   1.664  11.862
 2887W        W 6406   2.878   8.714  10.470
 2888W        W 6407   0.642   8.035   9.326
 2889W        W 6408   7.161   4.396  11.893
 2890W        W 6409   8.971   1.448   0.076
 2891W        W 6410   7.550   0.755   0.306
 2892W        W 6411   8.696   7.576   2.744
 2893W        W 6412   5.619   7.867  10.911
 2894W        W 6413   7.873   7.911   3.577
 2895W        W 6414   9.335   5.420   8.712
 2896W        W 6415   9.253   1.162   8.776
 2897W        W 6416   8.925   8.784   2.397
 2898W        W 6417   8.261   9.671  10.235
 2899W        W 6418   8.473   3.172   1.369
 2900W        W 6419   8.612   3.012   3.574
 2901W        W 6420   6.102   6.188   3.788
 2902W        W 6421   1.391   3.128   9.775
 2903W        W 6422   3.943   6.557   3.135
 2904W        W 6423   0.900   3.788   1.581
 2905W        W 6424   1.163   7.905   9.232
 2906W        W 6425   6.933   7.055   1.257
 2907W        W 6426   9.934   5.512   0.529
 2908W        W 6427   6.056   0.900   2.286
 2909W        W 6428   5.287   6.443   2.790
 2910W        W 6429   7.000   9.131   0.982
 2911W        W 6430   5.443   9.359   1.638
 2912W        W 6431   3.705   4.179   8.625
 2913W        W 6432   1.765   1.028   9.222
 2914W        W 6433   6.177   7.471   1.302
 2915W        W 6434   7.118   5.314   9.339
 2916W        W 6435   6.987   1.431  10.821
 2917W        W 6436   9.800   9.891   2.512
 2918W        W 6437   3.970   5.787   1.480
 2919W        W 6438   6.138   3.608  10.922
 2920W        W 6439   1.303   5.934  11.489
 2921W        W 6440   6.502   5.466  11.959
 2922W        W 6441   7.758   8.491  10.286
 2923W        W 6442   3.730   2.349   0.241
 2924W        W 6443   4.895   0.546   3.534
 2925W        W 6444   9.934   6.240   2.460
 2926W        W 6445   3.109   2.256   2.537
 2927W        W 6446   0.282   0.067  10.899
 2928W        W 6447   1.252   2.927   2.588
 2929W        W 6448   0.196   6.895   1.743
 2930W        W 6449   8.588   8.464  11.073
 2931W        W 6450   8.640   4.465   2.687
 2932W        W 6451   9.286   6.070  10.521
 2933W        W 6452   9.738   0.301   9.245
 2934W        W 6453   3.591   3.509   9.406
 2935W        W 6454   8.055   7.240   0.916
 2936W        W 6455   5.569   3.358  11.463
 2937W        W 6456   0.863   5.229   9.694
 2938W        W 6457   4.599   0.033  10.083
 2939W        W 6458   5.762   5.468   9.379
 2940W        W 6459   6.206   6.190   8.330
 2941W        W 6460   6.609   6.607   2.714
 2942W        W 6461   8.570   2.183  11.262
 2943W        W 6462   0.989   0.531   1.894
 2944W        W 6463   0.224   1.239   9.655
 2945W        W 6464   3.189   3.541   2.626
 2946W        W 6465   6.246   6.726   8.250
 2947W        W 6466   3.539   7.651   2.118
 2948W        W 6467   9.407   8.481   0.760
 2949W        W 6468   5.170   4.592   8.687
 2950W        W 6469   8.946   8.852   3.244
 2951W        W 6470   7.992   1.935   0.235
 2952W        W 6471   1.457   5.578  10.011
 2953W        W 6472   6.467   8.124   0.045
 2954W        W 6473   0.897   0.611   0.780
 2955W        W 6474   5.783   9.200   3.528
 2956W        W 6475   6.122   5.674   9.069
 2957W        W 6476   1.844   0.910   9.712
 2958W        W 6477   0.358   6.153   9.698
 2959W        W 6478   5.707   1.225   2.105
 2960W        W 6479   5.391   2.215  10.941
 2961W        W 6480   1.374   2.430   0.862
 2962W        W 6481   5.275   8.996   0.022
 2963W        W 6482   2.695   0.229   2.186
 2964W        W 6483   1.659   5.705   2.254
 2965W        W 6484   9.034   6.520   2.023
 2966W        W 6485   7.035   3.020   0.971
 2967W        W 6486   7.065   9.541  11.190
 2968W        W 6487   6.498   0.223  11.279
 2969W        W 6488   3.746   1.430   0.303
 2970W        W 6489   3.872   5.552   3.234
 2971W        W 6490   8.980   8.609  11.475
 2972W        W 6491   4.460   3.069  11.178
 2973W        W 6492   8.147   5.982   3.035
 2974W        W 6493   0.727   1.154   9.598
 2975W        W 6494   7.022   6.913   2.240
 2976W        W 6495   0.513   9.308   2.050
 2977W        W 6496   2.148   2.039  11.396
 2978W        W 6497   2.628   2.429  11.418
 2979W        W 6498   7.100   4.203  10.849
 2980W        W 6499   7.830   7.109  11.879
 2981W        W 6500   6.005   4.063  11.515
 2982W        W 6501   8.740   1.790   8.916
 2983W        W 6502   1.710   1.823   2.794
 2984W        W 6503   0.225   1.131   0.210
 2985W        W 6504   7.449   3.470   3.500
 2986W        W 6505   1.489   1.234  10.494
 2987W        W 6506   6.707   3.975   8.119
 2988W        W 6507   6.061   8.761   1.064
 2989W        W 6508   8.438   7.682  11.520
 2990W        W 6509   0.253   4.642   1.268
 2991W        W 6510   9.063   1.659   3.572
 2992W        W 6511   4.216   1.122   8.564
 2993W        W 6512   0.465   9.333   2.622
 2994W        W 6513   5.788   1.843   1.781
 2995W        W 6514   7.214   9.478   9.319
 2996W        W 6515   9.792   9.401  10.038
 2997W        W 6516   1.332   5.384  11.169
 2998W        W 6517   2.327   7.178  10.891
 2999W        W 6518   9.662   6.496   0.676
 3000W        W 6519   5.620   9.815   2.833
 3001W        W 6520   4.902   4.334   9.995
 3002W        W 6521   8.391   9.551   9.746
 3003W        W 6522   0.860   3.368   1.896
 3004W        W 6523   0.315   4.813   2.217
 3005W        W 6524   6.609   6.007  11.498
 3006W        W 6525   2.281   7.209   0.087
 3007W        W 6526   3.966   7.680  11.323
 3008W        W 6527   6.049   1.697  11.666
 3009W        W 6528   7.629   6.572  10.371
 3010W        W 6529   7.591   4.207   1.623
 3011W        W 6530   3.302   2.011   9.106
 3012W        W 6531   2.270   5.248   9.528
 3013W        W 6532   9.977   6.262  11.396
 3014W        W 6533   2.138   8.225   0.005
 3015W        W 6534   0.300   9.809   2.619
 3016W        W 6535   9.745   7.383   2.892
 3017W        W 6536   2.547   3.015   8.745
 3018W        W 6537   8.573   6.442   8.687
 3019W        W 6538   9.979   4.854   2.839
 3020W        W 6539   1.294   2.460   0.350
 3021W        W 6540   1.824   4.987   0.212
 3022W        W 6541   3.919   8.032   1.988
 3023W        W 6542   3.238   1.492  10.853
 3024W        W 6543   1.071   4.987   9.267
 3025W        W 6544   7.576   6.722  11.620
 3026W        W 6545   7.336   3.188   9.274
 3027W        W 6546   0.847   5.301   8.900
 3028W        W 6547   2.599   3.663   9.319
 3029W        W 6548   7.280   3.945  11.694
 3030W        W 6549   9.633   1.937   1.889
 3031W        W 6550   0.587   7.149   3.178
 3032W        W 6551   3.073   5.312  11.998
 3033W        W 6552   5.395   7.472   0.864
 3034W        W 6553   4.161   1.814   2.989
 3035W        W 6554   7.441   7.452   1.674
 3036W        W 6555   5.723   2.176   2.254
 3037W        W 6556   1.954   5.274   0.655
 3038W        W 6557   5.792   1.011   9.028
 3039W        W 6558   2.500   2.104   3.535
 3040W        W 6559   5.571   2.740   1.355
 3041W        W 6560   2.268   0.529   2.186
 3042W        W 6561   2.709   7.373   8.952
 3043W        W 6562   4.535   9.950   1.062
 3044W        W 6563   5.204   5.021   2.810
 3045W        W 6564   7.481   5.346   2.930
 3046W        W 6565   2.733   7.747  10.281
 3047W        W 6566   6.280   0.262   8.717
 3048W        W 6567   9.217   9.772   8.456
 3049W        W 6568   9.999   1.737  11.204
 3050W        W 6569   9.948   8.828   3.398
 3051W        W 6570   7.056   4.665   3.096
 3052W        W 6571   5.567   7.880  11.934
 3053W        W 6572   7.737   8.749   9.526
 3054W        W 6573   3.503   9.307   1.966
 3055W        W 6574   8.666   4.968  10.869
 3056W        W 6575   8.787   9.486  10.099
 3057W        W 6576   8.481   4.129  10.274
 3058W        W 6577   0.327   4.622   9.184
 3059W        W 6578   9.064   9.309   0.475
 3060W        W 6579   8.823   5.107   9.882
 3061W        W 6580   1.912   0.376  11.473
 3062W        W 6581   7.520   9.089   9.226
 3063W        W 6582   7.224   0.359  11.357
 3064W        W 6583   2.156   9.933  11.465
 3065W        W 6584   4.644   6.937   0.686
 3066W        W 6585   2.763   5.989  10.225
 3067W        W 6586   6.864   1.730   3.204
 3068W        W 6587   5.278   7.004  10.498
 3069W        W 6588   8.165   9.297   2.303
 3070W        W 6589   0.500   9.954   3.490
 3071W        W 6590   8.374   7.512   1.796
 3072W        W 6591   9.003   9.823  11.461
 3073W        W 6592   4.377   8.221   1.074
 3074W        W 6593   9.124   1.803   2.570
 3075W        W 6594   1.411   7.651  11.472
 3076W        W 6595   8.413   1.131   3.343
 3077W        W 6596   3.229   0.182   3.363
 3078W        W 6597   8.399   9.348   2.748
 3079W        W 6598   7.492   7.935   1.940
 3080W        W 6599   8.184   2.680  10.550
 3081W        W 6600   6.917   1.584  11.452
 3082W        W 6601   2.233   9.875   2.928
 3083W        W 6602   9.343   7.750   9.075
 3084W        W 6603   9.894   3.279   9.406
 3085W        W 6604   7.992   5.485   9.431
 3086W        W 6605   7.925   4.365   1.988
 3087W        W 6606   6.130   2.332   9.480
 3088W        W 6607   9.501   2.279  11.743
 3089W        W 6608   0.992   9.225   0.698
 3090W        W 6609   2.060   2.424   3.350
 3091W        W 6610   2.524   6.326   0.013
 3092W        W 6611   5.647   6.482   9.517
 3093W        W 6612   7.656   0.285  11.586
 3094W        W 6613   8.227   0.201   9.185
 3095W        W 6614   4.263   3.230   8.308
 3096W        W 6615   5.355   9.803   8.798
 3097W        W 6616   0.245   9.096  11.363
 3098W        W 6617   6.372   1.962   1.075
 3099W        W 6618   1.395   4.367   9.236
 3100W        W 6619   2.243   0.321   1.458
 3101W        W 6620   7.093   5.031   8.366
 3102W        W 6621   4.047   9.407  10.498
 3103W        W 6622   3.530   6.068   8.405
 3104W        W 6623   1.349   8.990  11.379
 3105W        W 6624   5.982   1.049   9.894
 3106W        W 6625   1.857   7.899   2.020
 3107W        W 6626   0.159   6.778  11.322
 3108W        W 6627   4.070   6.955  10.179
 3109W        W 6628   7.057   5.193   3.198
 3110W        W 6629   7.113   6.034   1.444
 3111W        W 6630   1.782   8.489  10.710
 3112W        W 6631   7.430   9.417   9.781
 3113W        W 6632   6.164   4.243   1.632
 3114W        W 6633   4.283   9.410   2.340
 3115W        W 6634   7.179   5.909  10.572
 3116W        W 6635   3.365   6.362   1.796
 3117W        W 6636   3.939   2.502   2.279
 3118W        W 6637   0.299   8.152   8.947
 3119W        W 6638   0.747   6.688  10.403
 3120W        W 6639   1.216   4.602   3.501
 3121W        W 6640   0.819   9.969  10.730
 3122W        W 6641   1.065   7.776   1.332
 3123W        W 6642   7.793   0.705  11.864
 3124W        W 6643   9.533   8.968   9.878
 3125W        W 6644   3.303   8.957  11.728
 3126W        W 6645   3.151   2.799  10.213
 3127W        W 6646   9.445   4.535  10.386
 3128W        W 6647   5.218   2.022  10.421
 3129W        W 6648   9.068   5.009   8.892
 3130W        W 6649   4.004   9.843   2.339
 3131W        W 6650   5.674   7.558   1.361
 3132W        W 6651   0.557   5.638   2.115
 3133W        W 6652   4.661   7.873  11.841
 3134W        W 6653   5.084   1.173   9.826
 3135W        W 6654   4.064   9.436  11.527
 3136W        W 6655   7.435   5.220   2.395
 3137W        W 6656   4.633   2.839  10.498
 3138W        W 6657   2.430   6.524   3.140
 3139W        W 6658   0.247   9.750   1.795
 3140W        W 6659   7.805   7.842   2.742
 3141W        W 6660   1.430   2.166  10.076
 3142W        W 6661   8.565   8.622  11.796
 3143W        W 6662   3.532   4.549   0.479
 3144W        W 6663   1.876   6.663   3.196
 3145W        W 6664   8.277   7.927   2.600
 3146W        W 6665   9.203   6.038  11.888
 3147W        W 6666   9.183   0.983   2.910
 3148W        W 6667   0.342   7.811  10.523
 3149W        W 6668   1.884   2.396   0.942
 3150W        W 6669   3.569   2.572  10.364
 3151W        W 6670   6.218   2.692   0.669
 3152W        W 6671   7.605   5.340   9.096
 3153W        W 6672   9.894   7.115   0.053
 3154W        W 6673   7.924   1.628   1.801
 3155W        W 6674   2.946   8.619   9.939
 3156W        W 6675   4.985   1.372  11.358
 3157W        W 6676   4.630   6.491   1.500
 3158W        W 6677   5.646   6.840   0.756
 3159W        W 6678   5.864   0.323   9.460
 3160W        W 6679   2.263   7.925  10.191
 3161W        W 6680   0.029   4.217  10.773
 3162W        W 6681   9.881   3.451   0.273
 3163W        W 6682   8.048   5.721  10.432
 3164W        W 6683   4.759   6.294   9.391
 3165W        W 6684   8.555   0.584  11.222
 3166W        W 6685   8.940   5.751   0.789
 3167W        W 6686   6.093   6.652   9.215
 3168W        W 6687   1.296   3.096  11.673
 3169W        W 6688   4.254   5.537   1.893
 3170W        W 6689   4.121   1.327  11.250
 3171W        W 6690   9.222   4.594   0.466
 3172W        W 6691   4.764   0.902   2.175
 3173W        W 6692   6.861   2.331  10.790
 3174W        W 6693   4.872   1.594   1.381
 3175W        W 6694   5.254   0.251   0.724
 3176W        W 6695   2.104   4.977   3.648
 3177W        W 6696   3.330   6.592  11.717
 3178W        W 6697   4.703   1.738   2.729
 3179W        W 6698   3.598   1.117   9.073
 3180W        W 6699   3.523   4.553   7.874
 3181W        W 6700   2.772   3.779  11.124
 3182W        W 6701   2.663   4.303   9.837
 3183W        W 6702   1.321   2.654  11.365
 3184W        W 6703   3.268   0.797   9.381
 3185W        W 6704   6.378   5.855   4.106
 3186W        W 6705   0.857   6.973   0.366
 3187W        W 6706   1.595   3.035  10.824
 3188W        W 6707   9.238   8.371   0.275
 3189W        W 6708   6.892   5.083   2.246
 3190W        W 6709   5.433   7.080  11.004
 3191W        W 6710   6.006   9.538  11.281
 3192W        W 6711   8.138   2.643   2.454
 3193W        W 6712   5.245   9.986   0.282
 3194W        W 6713   6.898   9.813   2.189
 3195W        W 6714   5.202   5.101  10.905
 3196W        W 6715   3.843   8.836   3.120
 3197W        W 6716   9.375   3.431  11.120
 3198W        W 6717   4.469   7.032   2.299
 3199W        W 6718   0.399   6.414   1.706
 3200W        W 6719   5.732   4.840   3.475
 3201W        W 6720   0.812   1.080   9.082
 3202W        W 6721   5.076   1.451   3.086
 3203W        W 6722   6.603   9.232  11.344
 3204W        W 6723   1.779   4.261  11.536
 3205W        W 6724   8.309   7.074   0.034
 3206W        W 6725   4.652   6.385   9.883
 3207W        W 6726   6.597   3.745   9.736
 3208W        W 6727   8.645   1.087  10.328
 3209W        W 6728   3.358   2.592  11.961
 3210W        W 6729   0.412   9.671  10.577
 3211W        W 6730   1.316   6.009   3.075
 3212W        W 6731   7.241   4.322   9.247
 3213W        W 6732   5.209   1.509  10.427
 3214W        W 6733   3.591   4.988   9.190
 3215W        W 6734   8.588   4.310  11.817
 3216W        W 6735   4.370   4.274   1.441
 3217W        W 6736   9.522   1.893   3.399
 3218W        W 6737   3.078   3.782  10.227
 3219W        W 6738   6.403   6.274  11.085
 3220W        W 6739   5.267   7.744   3.602
 3221W        W 6740   0.426   4.364  10.506
 3222W        W 6741   1.376   0.335   1.595
 3223W        W 6742   1.231   2.403   2.257
 3224W        W 6743   9.967   1.687   9.842
 3225W        W 6744   1.783   7.475   9.788
 3226W        W 6745   2.398   3.383   2.721
 3227W        W 6746   5.282   3.706   3.104
 3228W        W 6747   0.528   2.142  10.070
 3229W        W 6748   1.609   1.033   2.676
 3230W        W 6749   7.545   4.780  11.875
 3231W        W 6750   6.540   7.654   0.326
 3232W        W 6751   6.630   4.781   3.353
 3233W        W 6752   6.853   9.305   3.117
 3234W        W 6753   2.085   9.169   3.027
 3235W        W 6754   0.422   6.384  11.165
 3236W        W 6755   4.224   3.114   3.085
 3237W        W 6756   2.195   5.614  11.183
 3238W        W 6757   5.702   3.592   2.190
 3239W        W 6758   9.004   1.029   0.393
 3240W        W 6759   3.138   7.102  10.517
 3241W        W 6760   4.296   4.628  11.864
 3242W        W 6761   0.699   8.294   0.851
 3243W        W 6762   0.852   7.656  10.498
 3244W        W 6763   0.874   1.559   2.714
 3245W        W 6764   4.282   2.381   8.734
 3246W        W 6765   0.109   0.725   1.414
 3247W        W 6766   0.357   1.868   0.430
 3248W        W 6767   0.221   5.685   3.420
 3249W        W 6768   4.709   1.261   3.471
 3250W        W 6769   9.526   6.646   1.139
 3251W        W 6770   6.939   0.158   1.794
 3252W        W 6771   4.245   1.580   2.539
 3253W        W 6772   5.010   5.887  11.115
 3254W        W 6773   6.684   8.227   9.036
 3255W        W 6774   8.087   9.102   1.843
 3256W        W 6775   4.394   6.209   9.021
 3257W        W 6776   7.120   1.643   9.231
 3258W        W 6777   8.920   3.997  11.052
 3259W        W 6778   2.931   6.469   3.119
 3260W        W 6779   6.095   4.386   9.130
 3261W        W 6780   1.628   3.550   9.631
 3262W        W 6781   9.833   9.525   0.001
 3263W        W 6782   6.890   7.693   0.747
 3264W        W 6783   9.843   6.884   2.870
 3265W        W 6784   2.022   0.840  10.715
 3266W        W 6785   4.086   2.010   2.310
 3267W        W 6786   6.894   7.802   8.825
 3268W        W 6787   9.458   0.754   9.022
 3269W        W 6788   0.618   4.721   9.620
 3270W        W 6789   6.612   6.131   3.743
 3271W        W 6790   8.601   5.764   2.890
 3272W        W 6791   8.480   1.255   2.443
 3273W        W 6792   9.305   2.681   1.064
 3274W        W 6793   5.973   6.098   0.820
 3275W        W 6794   1.958   1.651   1.393
 3276W        W 6795   7.895   9.744   2.309
 3277W        W 6796   6.990   6.987   0.378
 3278W        W 6797   9.343   0.061   2.263
 3279W        W 6798   0.465   0.347   0.529
 3280W        W 6799   3.727   0.724  10.320
 3281W        W 6800   2.384   0.676   3.510
 3282W        W 6801   8.720   4.126   8.496
 3283W        W 6802   6.485   4.610   1.742
 3284W        W 6803   2.491   5.505   8.499
 3285W        W 6804   7.604   2.265   0.262
 3286W        W 6805   0.724   3.979  10.287
 3287W        W 6806   3.697   1.560  11.394
 3288W        W 6807   4.931   7.260   8.621
 3289W        W 6808   1.327   6.356   8.730
 3290W        W 6809   9.560   5.003   0.576
 3291W        W 6810   4.621   2.718  11.909
 3292W        W 6811   8.074   6.514   9.540
 3293W        W 6812   1.744   3.305   1.482
 3294W        W 6813   7.678   9.850  11.851
 3295W        W 6814   7.040   4.866   0.026
 3296W        W 6815   7.594   8.434  11.794
 3297W        W 6816   9.959   0.931   0.592
 3298W        W 6817   6.314   5.387  11.391
 3299W        W 6818   5.162   4.587   9.198
 3300W        W 6819   4.094   4.181   3.331
 3301W        W 6820   4.504   3.142   1.706
 3302W        W 6821   9.951   9.440   2.724
 3303W        W 6822   7.073   8.166   1.751
 3304W        W 6823   7.700   3.085   9.658
 3305W        W 6824   0.847   9.756  11.993
 3306W        W 6825   3.556   3.857   2.530
 3307W        W 6826   5.420   7.882   9.044
 3308W        W 6827   5.888   9.634   1.725
 3309W        W 6828   3.938   2.700   0.577
 3310W        W 6829   5.094   3.334  10.575
 3311W        W 6830   6.582   7.024   4.255
 3312W        W 6831   8.139   8.607   1.804
 3313W        W 6832   3.924   0.288  11.811
 3314W        W 6833   0.331   0.432  11.240
 3315W        W 6834   7.934   1.367   1.261
 3316W        W 6835   0.140   1.691   0.909
 3317W        W 6836   3.554   8.860   3.564
 3318W        W 6837   3.875   6.246   3.896
 3319W        W 6838   6.315   0.162   9.623
 3320W        W 6839   8.068   6.421   0.351
 3321W        W 6840   6.440   4.813   9.103
 3322W        W 6841   0.786   4.805   2.401
 3323W        W 6842   2.923   2.351   3.362
 3324W        W 6843   5.462   1.493   9.702
 3325W        W 6844   6.746   5.520   3.980
 3326W        W 6845   8.553   8.041   3.015
 3327W        W 6846   9.922   9.905  11.274
 3328W        W 6847   2.176   1.023   2.123
 3329W        W 6848   2.406   6.936   9.999
 3330W        W 6849   9.027   3.491   2.946
 3331W        W 6850   7.500   3.734   1.444
 3332W        W 6851   1.077   6.643   1.836
 3333W        W 6852   5.992   2.714   9.801
 3334W        W 6853   8.820   1.490   0.566
 3335W        W 6854   9.034   9.637   2.257
 3336W        W 6855   4.730   7.004  10.487
 3337W        W 6856   3.900   5.873  11.773
 3338W        W 6857   6.113   3.171  10.552
 3339W        W 6858   9.824   8.816   9.469
 3340W        W 6859   9.266   0.873  10.926
 3341W        W 6860   5.604   8.383  11.805
 3342W        W 6861   0.648   8.676  10.688
 3343W        W 6862   7.419   9.132   0.519
 3344W        W 6863   1.157   5.095   0.992
 3345W        W 6864   4.654   1.788   9.001
 3346W        W 6865   2.040   2.621   8.685
 3347W        W 6866   5.634   5.237   0.407
 3348W        W 6867   1.196   6.257   0.063
 3349W        W 6868   5.596   9.367   9.680
 3350W        W 6869   1.752   0.868  10.253
 3351W        W 6870   6.495   2.123   0.065
 3352W        W 6871   2.315   9.945  10.977
 3353W        W 6872   5.796   9.058   0.013
 3354W        W 6873   0.176   1.612   3.934
 3355W        W 6874   3.769   3.758  11.862
 3356W        W 6875   2.175   6.015   2.056
 3357W        W 6876   8.116   7.104   8.871
 3358W        W 6877   4.907   4.046   0.427
 3359W        W 6878   5.096   6.864   0.351
 3360W        W 6879   7.955   5.468   1.396
 3361W        W 6880   6.046   5.575   0.790
 3362W        W 6881   1.017   4.119   9.540
 3363W        W 6882   3.410   0.355   9.576
 3364W        W 6883   6.318   8.643  11.405
 3365W        W 6884   8.445   2.622   9.221
 3366W        W 6885   9.474   0.299   8.763
 3367W        W 6886   7.717   5.092   1.037
 3368W        W 6887   7.968   7.596  11.239
 3369W        W 6888   3.507   6.014   1.457
 3370W        W 6889   0.763   1.694   8.966
 3371W        W 6890   6.856   7.520  11.226
 3372W        W 6891   0.831   9.651   0.949
 3373W        W 6892   4.043   3.056   0.920
 3374W        W 6893   7.850   8.246   9.829
 3375W        W 6894   1.868   7.150  11.767
 3376W        W 6895   0.135   7.843   9.327
 3377W        W 6896   5.366   4.290   9.783
 3378W        W 6897   7.461   5.772   3.486
 3379W        W 6898   8.278   4.175   0.607
 3380W        W 6899   0.966   2.308  11.550
 3381W        W 6900   4.789   6.465   0.664
 3382W        W 6901   4.703   0.835   2.671
 3383W        W 6902   6.363   7.561   9.884
 3384W        W 6903   3.675   0.470   1.726
 3385W        W 6904   9.782   6.751   2.361
 3386W        W 6905   4.738   0.342  11.382
 3387W        W 6906   7.395   8.301  10.947
 3388W        W 6907   3.767   0.057  11.379
 3389W        W 6908   0.587   3.672   1.198
 3390W        W 6909   3.200   5.960   0.554
 3391W        W 6910   7.938   8.164   1.799
 3392W        W 6911   3.935   5.921   9.545
 3393W        W 6912   9.245   5.472   3.254
 3394W        W 6913   8.544   7.474   0.839
 3395W        W 6914   9.639   5.272   0.159
 3396W        W 6915   8.133   0.667  10.301
 3397W        W 6916   2.701   4.450   8.483
 3398W        W 6917   0.485   0.854   0.555
 3399W        W 6918   6.866   6.534   3.555
 3400W        W 6919   9.562   3.379  11.873
 3401W        W 6920   9.227   8.188  10.086
 3402W        W 6921   3.068   4.358   0.350
 3403W        W 6922   4.716   6.571   3.611
 3404W        W 6923   3.656   0.740  10.830
 3405W        W 6924   9.675   1.750   1.297
 3406W        W 6925   9.850   0.250   1.186
 3407W        W 6926   2.637   0.715  11.861
 3408W        W 6927   5.102   6.313   3.832
 3409W        W 6928   8.982   9.959   9.555
 3410W        W 6929   5.721   0.126   1.854
 3411W        W 6930   4.970   9.394  11.915
 3412W        W 6931   0.325   8.000  11.758
 3413W        W 6932   7.786   6.737   9.026
 3414W        W 6933   4.506   7.914  10.925
 3415W        W 6934   8.674   0.289   3.164
 3416W        W 6935   3.081   3.381  11.447
 3417W        W 6936   2.221   5.980   0.926
 3418W        W 6937   9.077   0.758  10.441
 3419W        W 6938   8.389   9.334  11.854
 3420W        W 6939   5.183   1.936   8.521
 3421W        W 6940   0.780   8.068  11.503
 3422W        W 6941   7.939   3.405   1.308
 3423W        W 6942   2.198   4.377   2.785
 3424W        W 6943   8.012   4.657   9.887
 3425W        W 6944   3.786   8.871   0.751
 3426W        W 6945   0.453   4.213  11.053
 3427W        W 6946   5.004   2.075  11.762
 3428W        W 6947   4.932   9.950   2.154
 3429W        W 6948   4.351   9.020   3.223
 3430W        W 6949   0.285   8.795  10.292
 3431W        W 6950   2.563   4.748   2.826
 3432W        W 6951   3.131   2.176   9.561
 3433W        W 6952   6.324   2.966  10.102
 3434W        W 6953   1.448   2.170   3.157
 3435W        W 6954   2.483   2.636   9.526
 3436W        W 6955   6.599   1.790   1.913
 3437W        W 6956   2.867   5.980   0.152
 3438W        W 6957   7.402   2.673   9.582
 3439W        W 6958   3.519   4.582   8.883
 3440W        W 6959   8.500   2.622  10.964
 3441W        W 6960   0.327   5.929   0.740
 3442W        W 6961   1.251   8.044  11.761
 3443W        W 6962   9.273   3.783  10.768
 3444W        W 6963   9.619   1.740  10.874
 3445W        W 6964   1.437   3.034  10.315
 3446W        W 6965   7.254   5.020   8.863
 3447W        W 6966   1.367   9.356  10.330
 3448W        W 6967   6.371   0.970  10.615
 3449W        W 6968   3.124   9.011   9.273
 3450W        W 6969   6.333   1.768   8.729
 3451W        W 6970   3.712   8.589  10.008
 3452W        W 6971   3.764   7.920   2.487
 3453W        W 6972   1.819   1.805   9.599
 3454W        W 6973   8.093   3.062   1.714
 3455W        W 6974   6.028   1.856  10.764
 3456W        W 6975   5.889   3.254  10.088
 3457W        W 6976   6.015   9.508   9.149
 3458W        W 6977   5.999   4.132   1.155
 3459W        W 6978   9.531   5.348   9.993
 3460W        W 6979   6.384   0.162   1.118
 3461W        W 6980   0.351   9.317   0.340
 3462W        W 6981   7.977   3.231   9.247
 3463W        W 6982   1.736   2.695   2.578
 3464W        W 6983   6.925   2.383   9.248
 3465W        W 6984   3.101   9.963   9.249
 3466W        W 6985   3.501   9.413   3.596
 3467W        W 6986   5.241   6.953   2.828
 3468W        W 6987   1.863   3.790  11.757
 3469W        W 6988   8.200   1.442  10.986
 3470W        W 6989   5.168   3.425   8.169
 3471W        W 6990   1.059   3.060   3.584
 3472W        W 6991   8.732   9.336   1.434
 3473W        W 6992   5.300   4.606  11.179
 3474W        W 6993   4.845   7.734   9.855
 3475W        W 6994   7.956   2.232  10.439
 3476W        W 6995   5.988   4.734   1.704
 3477W        W 6996   1.541   4.285   9.724
 3478W        W 6997   6.134   6.426   2.848
 3479W        W 6998   5.483   3.537  10.287
 3480W        W 6999   5.360   2.870   8.762
 3481W        W 7000   7.586   8.438   2.139
 3482W        W 7001   3.664   3.497   8.907
 3483W        W 7002   3.294   4.659   3.351
 3484W        W 7003   4.523   3.620   2.861
 3485W        W 7004   3.462   7.883   0.160
 3486W        W 7005   6.930   4.741   2.620
 3487W        W 7006   2.252   4.679   3.223
 3488W        W 7007   8.460   3.395   1.841
 3489W        W 7008   4.218   7.512   0.274
 3490W        W 7009   0.310   5.425  10.466
 3491W        W 7010   2.322   0.164  10.043
 3492W        W 7011   1.315   2.353   9.081
 3493W        W 7012   7.323   6.199   3.236
 3494W        W 7013   2.735   7.023   0.259
 3495W        W 7014   3.801   5.400   3.709
 3496W        W 7015   2.715   6.890  10.721
 3497W        W 7016   1.692   9.046  11.758
 3498W        W 7017   4.094   8.549  11.682
 3499W        W 7018   5.517   2.878  11.682
 3500W        W 7019   5.469   0.467   0.287
 3501W        W 7020   0.422   4.129   1.340
 3502W        W 7021   9.740   6.122   8.304
 3503W        W 7022   4.487   7.040   8.817
 3504W        W 7023   8.885   9.508  11.879
 3505W        W 7024   6.085   5.089   0.946
 3506W        W 7025   8.944   2.633   2.944
 3507W        W 7026   2.646   3.175   1.475
 3508W        W 7027   5.648   7.106   1.713
 3509W        W 7028   5.171   7.781   3.104
 3510W        W 7029   4.223   7.305   9.777
 3511W        W 7030   3.518   6.832  11.261
 3512W        W 7031   0.867   2.754   0.310
 3513W        W 7032   1.376   1.841   9.298
 3514W        W 7033   4.248   5.563   2.876
 3515W        W 7034   9.378   7.222   9.192
 3516W        W 7035   5.207   0.002   3.139
 3517W        W 7036   6.621   6.688   1.591
 3518W        W 7037   2.129   4.757  10.321
 3519W        W 7038   3.422   0.318  11.665
 3520W        W 7039   3.491   9.454   0.754
 3521W        W 7040   5.525   1.931  11.806
 3522W        W 7041   8.498   6.876  11.104
 3523W        W 7042   8.754   0.068   2.632
 3524W        W 7043   7.309   0.110   1.446
 3525W        W 7044   2.025   8.299   9.395
 3526W        W 7045   2.013   1.350   2.614
 3527W        W 7046   4.443   7.008  10.932
 3528W        W 7047   5.167   1.403   0.466
 3529W        W 7048   9.920   8.456  11.020
 3530W        W 7049   9.997   0.337   2.655
 3531W        W 7050   6.227   6.510  11.949
 3532W        W 7051   2.893   7.758   1.035
 3533W        W 7052   5.613   0.682   2.140
 3534W        W 7053   0.296   6.113   9.169
 3535W        W 7054   1.742   9.504   1.387
 3536W        W 7055   5.153   7.002   8.222
 3537W        W 7056   9.496   8.470   9.228
 3538W        W 7057   6.670   4.447  11.061
 3539W        W 7058   1.005   0.750  11.728
 3540W        W 7059   7.159   6.515   0.400
 3541W        W 7060   8.931   3.609  11.968
 3542W        W 7061   2.375   1.184   9.873
 3543W        W 7062   1.264   8.224   1.417
 3544W        W 7063   9.414   8.589   1.814
 3545W        W 7064   5.529   3.772   8.359
 3546W        W 7065   9.887   0.191  10.519
 3547W        W 7066   8.239   4.781   2.612
 3548W        W 7067   8.951   8.225   0.661
 3549W        W 7068   6.113   0.694   0.517
 3550W        W 7069   5.464   5.053   9.213
 3551W        W 7070   5.889   6.968   8.850
 3552W        W 7071   0.617   7.864  10.087
 3553W        W 7072   6.614   5.664   3.139
 3554W        W 7073   0.306   3.910   0.830
 3555W        W 7074   2.193   1.653  11.760
 3556W        W 7075   5.119   1.583  11.822
 3557W        W 7076   7.864   6.851   3.018
 3558W        W 7077   0.951   1.457   9.937
 3559W        W 7078   0.636   9.862   1.472
 3560W        W 7079   4.339   9.206   9.507
 3561W        W 7080   7.825   3.213  11.315
 3562W        W 7081   6.936   3.768  10.612
 3563W        W 7082   6.945   8.494   0.280
 3564W        W 7083   6.914   1.047   9.924
 3565W        W 7084   1.743   2.612  10.263
 3566W        W 7085   0.936   9.553  11.122
 3567W        W 7086   6.577   7.998   9.994
 3568W        W 7087   6.959   9.705  10.209
 3569W        W 7088   1.729   8.903   1.798
 3570W        W 7089   1.145   5.054   3.228
 3571W        W 7090   9.828   6.025   0.603
 3572W        W 7091   8.528   2.934   3.073
 3573W        W 7092   4.599   7.352  10.111
 3574W        W 7093   4.574   6.989   1.687
 3575W        W 7094   4.500   9.061  10.240
 3576W        W 7095   9.343   7.214   1.684
 3577W        W 7096   8.707   4.416   9.264
 3578W        W 7097   9.801   8.768   1.006
 3579W        W 7098   9.222   0.333   9.256
 3580W        W 7099   1.367   1.172  10.008
 3581W        W 7100   8.067   8.710   9.917
 3582W        W 7101   7.737   6.262   9.254
 3583W        W 7102   4.305   8.363  10.715
 3584W        W 7103   1.761   6.107   0.712
 3585W        W 7104   1.666   0.704   8.847
 3586W        W 7105   4.202   7.845   2.778
 3587W        W 7106   6.721   9.378   3.600
 3588W        W 7107   6.436   0.906  10.111
 3589W        W 7108   4.913   8.150   3.429
 3590W        W 7109   5.248   7.435   2.315
 3591W        W 7110   5.770   7.466   8.915
 3592W        W 7111   1.742   2.044   8.958
 3593W        W 7112   2.788   0.900   9.592
 3594W        W 7113   4.994   7.324   0.530
 3595W        W 7114   9.900   9.760  10.796
 3596W        W 7115   3.224   5.160   9.532
 3597W        W 7116   1.484   9.930   1.276
 3598W        W 7117   0.414   1.697   2.953
 3599W        W 7118   7.164   9.105  11.465
 3600W        W 7119   1.954   0.305   8.981
 3601W        W 7120   7.329   5.296   3.611
 3602W        W 7121   9.597   9.696  10.392
 3603W        W 7122   4.657   0.709   1.676
 3604W        W 7123   6.966   1.308   2.182
 3605W        W 7124   1.738   5.713   1.032
 3606W        W 7125   2.299   1.182   3.412
 3607W        W 7126   6.547   4.891   0.916
 3608W        W 7127   9.553   0.124   2.889
 3609W        W 7128   5.545   8.297   2.589
 3610W        W 7129   1.349   7.606  11.994
 3611W        W 7130   6.647   3.358   0.791
 3612W        W 7131   4.753   1.132   9.342
 3613W        W 7132   2.627   2.163   1.720
 3614W        W 7133   0.657   3.082   3.251
 3615W        W 7134   8.552   8.883   1.159
 3616W        W 7135   6.134   1.226   3.223
 3617W        W 7136   5.223   7.438   4.018
 3618W        W 7137   6.114   4.657  11.500
 3619W        W 7138   2.289   9.830   0.817
 3620W        W 7139   2.395   2.444   0.862
 3621W        W 7140   7.213   2.574   3.502
 3622W        W 7141   5.600   6.590   1.959
 3623W        W 7142   4.741   2.201   3.446
 3624W        W 7143   1.814   0.031   1.687
 3625W        W 7144   6.637   8.318   9.547
 3626W        W 7145   1.365   4.180   2.589
 3627W        W 7146   6.370   3.131   8.813
 3628W        W 7147   3.225   5.573   2.792
 3629W        W 7148   5.656   6.076   4.023
 3630W        W 7149   9.619   5.128   3.108
 3631W        W 7150   5.566   9.083   0.472
 3632W        W 7151   3.624   2.085  10.459
 3633W        W 7152   6.906   7.302   9.973
 3634W        W 7153   3.017   9.417   0.981
 3635W        W 7154   3.313   3.673   9.791
 3636W        W 7155   5.707   9.959   1.001
 3637W        W 7156   8.902   5.977   9.513
 3638W        W 7157   8.599   5.731   0.263
 3639W        W 7158   7.622   3.246   1.723
 3640W        W 7159   5.232   5.835   1.695
 3641W        W 7160   7.744   0.042   9.073
 3642W        W 7161   0.539   9.172  10.516
 3643W        W 7162   1.538   5.057   1.531
 3644W        W 7163   8.315   8.857   2.625
 3645W        W 7164   4.304   0.668   0.534
 3646W        W 7165   5.144   9.333   2.138
 3647W        W 7166   4.726   3.657  11.780
 3648W        W 7167   4.504   1.909   9.870
 3649W        W 7168   8.826   2.152   2.809
 3650W        W 7169   5.441   7.658   8.573
 3651W        W 7170   0.433   1.848  11.440
 3652W        W 7171   1.874   9.057   8.928
 3653W        W 7172   0.426   7.033   0.757
 3654W        W 7173   4.192   3.313   2.621
 3655W        W 7174   8.096   3.712  11.944
 3656W        W 7175   6.772   2.316  11.304
 3657W        W 7176   0.970   2.335  10.710
 3658W        W 7177   2.895   2.745   3.715
 3659W        W 7178   6.132   9.947   2.080
 3660W        W 7179   6.749   4.640   1.318
 3661W        W 7180   6.562   8.878   3.111
 3662W        W 7181   8.116   9.207   9.999
 3663W        W 7182   3.185   7.532  10.158
 3664W        W 7183   9.665   2.796  11.709
 3665W        W 7184   9.655   4.716  10.842
 3666W        W 7185   6.010   9.910   3.229
 3667W        W 7186   1.742   8.050   1.524
 3668W        W 7187   3.676   6.652   9.981
 3669W        W 7188   1.862   1.721   2.291
 3670W        W 7189   0.638   6.036  10.847
 3671W        W 7190   7.105   0.284   3.155
 3672W        W 7191   1.637   7.394   1.760
 3673W        W 7192   4.619   8.751   8.638
 3674W        W 7193   2.311   6.999   2.549
 3675W        W 7194   7.687   7.849  10.893
 3676W        W 7195   1.285   0.424   1.091
 3677W        W 7196   0.569   0.824  11.464
 3678W        W 7197   3.165   4.661   2.027
 3679W        W 7198   7.123   5.283  11.750
 3680W        W 7199   5.133   7.866   1.071
 3681W        W 7200   4.539   0.208  10.557
 3682W        W 7201   4.928   3.100  11.002
 3683W        W 7202   8.409   9.915   1.052
 3684W        W 7203   1.684   4.461  10.812
 3685W        W 7204   8.413   0.462   2.730
 3686W        W 7205   4.018   3.375   1.326
 3687W        W 7206   0.448   1.736  10.933
 3688W        W 7207   5.142   5.705   2.186
 3689W        W 7208   6.793   5.544  11.428
 3690W        W 7209   5.577   2.590   1.900
 3691W        W 7210   0.783   4.350   9.932
 3692W        W 7211   3.012   8.786   1.270
 3693W        W 7212   9.055   9.893   9.006
 3694W        W 7213   2.248   4.446  11.689
 3695W        W 7214   6.289   9.116   9.442
 3696W        W 7215   9.333   5.692   9.587
 3697W        W 7216   8.032   6.282   8.840
 3698W        W 7217   4.252   7.479  10.962
 3699W        W 7218   8.268   6.589   3.225
 3700W        W 7219   7.440   4.043   8.841
 3701W        W 7220   7.821   2.688   9.309
 3702W        W 7221   0.449   4.923  10.526
 3703W        W 7222   3.047   8.398  11.567
 3704W        W 7223   2.256   7.426  10.018
 3705W        W 7224   8.000   7.958   1.319
 3706W        W 7225   2.208   1.923   2.606
 3707W        W 7226   6.201   5.278   9.839
 3708W        W 7227   2.451   0.254   3.218
 3709W        W 7228   0.335   6.432  11.720
 3710W        W 7229   4.717   9.637   3.067
 3711W        W 7230   2.608   0.459   0.281
 3712W        W 7231   3.928   4.633   2.168
 3713W        W 7232   2.287   5.228  10.558
 3714W        W 7233   5.376   1.100   0.859
 3715W        W 7234   9.248   2.003  10.132
 3716W        W 7235   2.282   0.921   9.422
 3717W        W 7236   1.797   8.679   0.905
 3718W        W 7237   7.252   6.830  10.615
 3719W        W 7238   4.086   8.554   2.043
 3720W        W 7239   2.847   4.623  11.039
 3721W        W 7240   4.765   5.631   1.826
 3722W        W 7241   1.681   8.826   2.323
 3723W        W 7242   0.272   8.259  10.231
 3724W        W 7243   6.687   6.668   0.106
 3725W        W 7244   6.685   5.081   9.463
 3726W        W 7245   0.428   2.103  11.903
 3727W        W 7246   7.536   8.922   2.785
 3728W        W 7247   3.678   0.076   9.974
 3729W        W 7248   2.265   6.367   1.319
 3730W        W 7249   5.471   3.649   0.289
 3731W        W 7250   3.557   5.012   2.024
 3732W        W 7251   1.191   4.224   1.675
 3733W        W 7252   5.878   8.413  11.347
 3734W        W 7253   8.698   8.567   2.890
 3735W        W 7254   0.934   7.881   2.065
 3736W        W 7255   3.224   9.938   9.765
 3737W        W 7256   7.467   6.988   2.554
 3738W        W 7257   4.873   5.296   0.398
 3739W        W 7258   2.716   8.393   3.378
 3740W        W 7259   5.471   9.482   0.173
 3741W        W 7260   2.374   4.543   1.790
 3742W        W 7261   3.529   9.311   9.381
 3743W        W 7262   5.668   4.021   2.482
 3744W        W 7263   8.872   9.743   0.655
 3745W        W 7264   3.893   2.625   9.010
 3746W        W 7265   5.996   2.789   1.646
 3747W        W 7266   9.035   0.474   2.834
 3748W        W 7267   1.227   8.223   8.816
 3749W        W 7268   6.753   1.241  10.380
 3750W        W 7269   5.105   8.558   8.699
 3751W        W 7270   9.396   4.691   1.958
 3752W        W 7271   9.769   9.779   0.929
 3753W        W 7272   4.884   0.327   1.277
 3754W        W 7273   0.295   5.534  10.962
 3755W        W 7274   8.124   4.133  11.640
 3756W        W 7275   0.371   4.686  10.079
 3757W        W 7276   2.292   8.408   2.716
 3758W        W 7277   3.968   1.873   0.448
 3759W        W 7278   3.804   2.756  11.724
 3760W        W 7279   1.154   2.169   1.790
 3761W        W 7280   6.372   4.108   9.453
 3762W        W 7281   6.326   6.072   8.815
 3763W        W 7282   6.009   9.411   0.296
 3764W        W 7283   4.896   1.127  11.810
 3765W        W 7284   5.944   5.272   1.817
 3766W        W 7285   2.869   5.972  10.741
 3767W        W 7286   1.320   2.459   2.771
 3768W        W 7287   2.261   0.031   2.422
 3769W        W 7288   7.191   9.136   0.056
 3770W        W 7289   6.904   4.916   0.551
 3771W        W 7290   6.906   5.349   0.817
 3772W        W 7291   9.042   3.865   1.267
 3773W        W 7292   4.157   0.901  11.553
 3774W        W 7293   6.808   8.768  11.407
 3775W        W 7294   6.700   9.040   8.783
 3776W        W 7295   4.584   0.297   8.846
 3777W        W 7296   8.444   8.074   9.625
 3778W        W 7297   8.926   4.407   1.323
 3779W        W 7298   1.789   9.575   2.864
 3780W        W 7299   2.689   9.256  11.706
 3781W        W 7300   2.245   9.518   9.484
 3782W        W 7301   8.003   7.904   0.366
 3783W        W 7302   6.964   4.752   9.184
 3784W        W 7303   0.114   0.114   0.224
 3785W        W 7304   7.658   5.549   1.907
 3786W        W 7305   4.622   0.812   3.183
 3787W        W 7306   4.306   1.817   1.762
 3788W        W 7307   7.185   1.325   3.061
 3789W        W 7308   2.372   9.851   3.518
 3790W        W 7309   6.813   2.891   3.359
 3791W        W 7310   0.061   7.614  11.544
 3792W        W 7311   4.952   1.376   8.916
 3793W        W 7312   7.582   7.091  10.309
 3794W        W 7313   4.820   8.990   0.945
 3795W        W 7314   2.407   0.844  11.073
 3796W        W 7315   5.057   3.126   0.516
 3797W        W 7316   5.682   5.933   9.556
 3798W        W 7317   3.219   9.942  10.773
 3799W        W 7318   1.646   2.378   1.952
 3800W        W 7319   2.259   4.037   1.268
 3801W        W 7320   0.721   8.867   2.278
 3802W        W 7321   2.147   3.203   2.316
 3803W        W 7322   6.059   2.658  11.804
 3804W        W 7323   9.734   4.539   0.453
 3805W        W 7324   1.521   4.517   0.812
 3806W        W 7325   5.151   4.084   2.430
 3807W        W 7326   8.923   7.496   0.477
 3808W        W 7327   3.317   6.609  10.354
 3809W        W 7328   4.542   2.269   1.856
 3810W        W 7329   2.860   1.476   2.789
 3811W        W 7330   5.526   4.297   8.448
 3812W        W 7331   8.373   9.032  11.431
 3813W        W 7332   8.167   1.870  11.259
 3814W        W 7333   0.367   0.704   2.882
 3815W        W 7334   5.809   5.553   2.756
 3816W        W 7335   4.724   4.335  10.968
 3817W        W 7336   1.884   2.282   2.887
 3818W        W 7337   4.406   2.787   0.408
 3819W        W 7338   8.304   3.858   8.636
 3820W        W 7339   1.236   0.678   2.317
 3821W        W 7340   1.988   7.468   2.940
 3822W        W 7341   3.400   4.726   2.466
 3823W        W 7342   7.807   9.521   0.520
 3824W        W 7343   7.621   0.744  11.364
 3825W        W 7344   5.465   8.203   3.122
 3826W        W 7345   1.366   4.421  11.836
 3827W        W 7346   9.555   1.245  10.778
 3828W        W 7347   3.949   7.492   1.899
 3829W        W 7348   6.216   0.354   3.449
 3830W        W 7349   4.661   7.445   1.470
 3831W        W 7350   3.551   3.259  10.869
 3832W        W 7351   7.898   3.973   2.332
 3833W        W 7352   2.415   1.977   0.074
 3834W        W 7353   7.311   6.982   9.878
 3835W        W 7354   3.614   2.027   9.528
 3836W        W 7355   9.266   1.367   1.298
 3837W        W 7356   5.381   9.218  10.724
 3838W        W 7357   3.595   6.413  10.921
 3839W        W 7358   2.249   3.606   0.365
 3840W        W 7359   1.275   0.348  11.524
 3841W        W 7360   3.792   3.265  11.847
 3842W        W 7361   0.353   9.484   0.825
 3843W        W 7362   2.300   3.123   9.561
 3844W        W 7363   4.274   5.971   4.076
 3845W        W 7364   1.395   5.489   2.642
 3846W        W 7365   0.036   1.280  10.968
 3847W        W 7366   6.658   6.642   1.081
 3848W        W 7367   4.557   8.786   1.872
 3849W        W 7368   5.884   4.036  10.826
 3850W        W 7369   1.720   5.665  11.381
 3851W        W 7370   0.906   1.930   2.175
 3852W        W 7371   0.696   7.092   2.667
 3853W        W 7372   6.577   5.178   3.017
 3854W        W 7373   7.753   1.938   3.021
 3855W        W 7374   2.782   5.118   9.254
 3856W        W 7375   7.491   5.232   0.158
 3857W        W 7376   0.377   3.472  10.209
 3858W        W 7377   1.131   7.468   8.982
 3859W        W 7378   0.230   3.886  10.436
 3860W        W 7379   7.423   1.679  11.562
 3861W        W 7380   8.070   2.876   1.217
 3862W        W 7381   8.945   6.980  11.827
 3863W        W 7382   5.473   3.541   3.553
 3864W        W 7383   3.796   4.397   1.234
 3865W        W 7384   2.877   1.730   9.182
 3866W        W 7385   0.123   2.397   3.466
 3867W        W 7386   9.213   5.099   1.744
 3868W        W 7387   3.515   8.741   1.294
 3869W        W 7388   5.601   2.213   3.973
 3870W        W 7389   8.946   8.777   1.904
 3871W        W 7390   1.625   9.060   2.802
 3872W        W 7391   6.657   1.889   0.643
 3873W        W 7392   0.981   2.096  10.273
 3874W        W 7393   3.908   5.513   9.970
 3875W        W 7394   3.214   1.277  11.309
 3876W        W 7395   2.121   5.122   2.320
 3877W        W 7396   3.078   9.255   0.502
 3878W        W 7397   8.266   1.458  11.552
 3879W        W 7398   1.158   7.988   0.862
 3880W        W 7399   6.695   3.813   2.434
 3881W        W 7400   5.638   8.029   9.912
 3882W        W 7401   9.363   1.379  11.740
 3883W        W 7402   4.655   8.093  10.447
 3884W        W 7403   3.717   6.334  11.923
 3885W        W 7404   8.511   7.969   1.095
 3886W        W 7405   0.404   2.842  11.237
 3887W        W 7406   1.832   8.433   0.420
 3888W        W 7407   1.886   3.464  10.073
 3889W        W 7408   8.428   9.495   0.747
 3890W        W 7409   7.009   0.136   0.840
 3891W        W 7410   7.234   8.512   2.657
 3892W        W 7411   8.779   4.062   1.672
 3893W        W 7412   7.939   4.115   3.149
 3894W        W 7413   9.190   3.516  10.157
 3895W        W 7414   4.502   0.394   2.822
 3896W        W 7415   5.569   1.630   3.224
 3897W        W 7416   4.238   4.381   0.953
 3898W        W 7417   2.616   7.706   9.791
 3899W        W 7418   4.379   0.598   2.350
 3900W        W 7419   3.799   3.683   1.727
 3901W        W 7420   4.052   3.664   9.200
 3902W        W 7421   4.740   9.177  11.501
 3903W        W 7422   5.107   8.019  11.589
 3904W        W 7423   3.532   7.015   3.442
 3905W        W 7424   9.839   7.131  11.519
 3906W        W 7425   5.233   9.718   2.500
 3907W        W 7426   9.880   6.396   9.736
 3908W        W 7427   3.275   1.552   0.138
 3909W        W 7428   2.211   7.488   0.530
 3910W        W 7429   1.334   8.449  10.955
 3911W        W 7430   3.792   3.250   8.495
 3912W        W 7431   8.787   8.527   1.469
 3913W        W 7432   7.482   3.081  10.545
 3914W        W 7433   4.332   3.809  10.639
 3915W        W 7434   6.984   8.310   2.257
 3916W        W 7435   2.996   2.310   8.832
 3917W        W 7436   0.456   8.045   2.473
 3918W        W 7437   6.060   8.888   3.234
 3919W        W 7438   7.649   0.739   1.921
 3920W        W 7439   2.777   3.505   8.843
 3921W        W 7440   4.657   9.416   9.856
 3922W        W 7441   8.997   8.686   1.005
 3923W        W 7442   5.162   8.334  10.560
 3924W        W 7443   1.857   7.096   0.358
 3925W        W 7444   9.941   7.848   1.160
 3926W        W 7445   4.141   9.359   9.959
 3927W        W 7446   3.292   5.312   3.729
 3928W        W 7447   4.205   8.933   1.070
 3929W        W 7448   6.195   6.883   2.621
 3930W        W 7449   9.130   3.142  11.992
 3931W        W 7450   3.508   5.946   2.489
 3932W        W 7451   0.141   2.585  11.786
 3933W        W 7452   0.815   6.167   9.392
 3934W        W 7453   3.412   2.752   3.321
 3935W        W 7454   7.136   1.565  10.266
 3936W        W 7455   7.883   9.669   9.895
 3937W        W 7456   5.627   0.372  11.290
 3938W        W 7457   3.743   5.467   1.804
 3939W        W 7458   7.704   3.386  11.815
 3940W        W 7459   4.043   0.183   2.752
 3941W        W 7460   9.607   2.922   9.678
 3942W        W 7461   3.825   7.659   9.829
 3943W        W 7462   2.943   2.728   2.324
 3944W        W 7463   5.628   4.708  11.609
 3945W        W 7464   4.242   4.139  11.100
 3946W        W 7465   7.605   7.991  11.377
 3947W        W 7466   1.987   1.280  10.468
 3948W        W 7467   3.556   9.016   8.965
 3949W        W 7468   5.059   9.330   1.281
 3950W        W 7469   2.925   0.476   9.867
 3951W        W 7470   8.050   4.605  11.835
 3952W        W 7471   3.105   7.164   8.719
 3953W        W 7472   9.530   4.213  10.778
 3954W        W 7473   5.488   0.290  11.785
 3955W        W 7474   9.392   7.052   3.100
 3956W        W 7475   6.518   1.661  10.621
 3957W        W 7476   2.737   4.706   0.565
 3958W        W 7477   3.515   3.265   1.673
 3959W        W 7478   4.712   9.306   3.475
 3960W        W 7479   4.867   5.199   9.937
 3961W        W 7480   1.989   6.188  10.382
 3962W        W 7481   7.265   2.921   1.585
 3963W        W 7482   2.120   6.573   2.732
 3964W        W 7483   0.512   4.030   3.419
 3965W        W 7484   5.422   6.200   9.907
 3966W        W 7485   4.671   9.094   2.276
 3967W        W 7486   0.047   5.090   9.211
 3968W        W 7487   4.457   3.325   9.211
 3969W        W 7488   4.640   7.508   9.003
 3970W        W 7489   5.953   9.131   1.788
 3971W        W 7490   7.625   3.838   0.075
 3972W        W 7491   9.595   5.607   2.866
 3973W        W 7492   6.996   6.359   1.826
 3974W        W 7493   5.422   6.092  11.998
 3975W        W 7494   4.244   9.857   0.107
 3976W        W 7495   9.071   9.967   3.038
 3977W        W 7496   7.760   4.065   0.643
 3978W        W 7497   4.514   1.471   2.080
 3979W        W 7498   6.152   1.209   0.421
 3980W        W 7499   9.288   7.882   0.521
 3981W        W 7500   9.418   8.639   2.331
 3982W        W 7501   0.633   9.371   1.338
 3983W        W 7502   2.821   6.530   0.375
 3984W        W 7503   8.727   4.206   2.199
 3985W        W 7504   3.740   7.828   1.564
 3986W        W 7505   2.516   9.390   1.879
 3987W        W 7506   2.671   2.877   2.750
 3988W        W 7507   6.226   4.602   3.597
 3989W        W 7508   9.800   2.437   2.185
 3990W        W 7509   7.847   5.107   0.536
 3991W        W 7510   5.239   3.865   1.574
 3992W        W 7511   1.386   0.270  10.245
 3993W        W 7512   8.226   8.385   2.796
 3994W        W 7513   4.920   7.355   2.789
 3995W        W 7514   3.912   2.890   3.455
 3996W        W 7515   9.851   5.120  11.720
 3997W        W 7516   6.045   5.476  10.895
 3998W        W 7517   3.906   2.754   9.970
 3999W        W 7518   0.283   2.575   9.225
 4000W        W 7519   6.326   6.081   3.315
 4001W        W 7520   6.947   7.402   2.995
 4002W        W 7521   1.459   6.923   1.644
 4003W        W 7522   2.354   4.620  11.188
 4004W        W 7523   0.367   2.838   0.177
 4005W        W 7524   3.598   3.110   1.183
 4006W        W 7525   8.425   7.570   0.344
 4007W        W 7526   4.948   5.057   9.220
 4008W        W 7527   4.297   4.559   3.620
 4009W        W 7528   1.451   5.619   3.583
 4010W        W 7529   8.485   2.335   1.998
 4011W        W 7530   4.489   7.413   0.688
 4012W        W 7531   5.547   8.006   0.813
 4013W        W 7532   1.947   4.796   0.896
 4014W        W 7533   7.444   8.060   2.442
 4015W        W 7534   4.817   9.046   9.483
 4016W        W 7535   7.616   5.625  10.725
 4017W        W 7536   9.371   4.192   1.485
 4018W        W 7537   4.150   1.725   8.998
 4019W        W 7538   7.014   2.402   8.705
 4020W        W 7539   8.843   2.137   2.294
 4021W        W 7540   7.010   8.013   1.157
 4022W        W 7541   3.114   9.782   0.297
 4023W        W 7542   8.121   4.588   3.060
 4024W        W 7543   3.191   3.388  10.535
 4025W        W 7544   3.225   7.196  11.014
 4026W        W 7545   7.404   6.253  11.814
 4027W        W 7546   0.894   5.646  11.413
 4028W        W 7547   4.269   2.731  11.513
 4029W        W 7548   8.501   8.713  10.227
 4030W        W 7549   6.875   8.798   2.290
 4031W        W 7550   0.254   7.415   1.844
 4032W        W 7551   4.985   9.061   1.731
 4033W        W 7552   3.597   0.267  10.556
 4034W        W 7553   7.032   5.802   9.395
 4035W        W 7554   2.273   6.863   1.177
 4036W        W 7555   7.157   6.521   2.526
 4037W        W 7556   4.360   1.629   1.246
 4038W        W 7557   4.155   8.736   1.547
 4039W        W 7558   1.828   7.452   9.245
 4040W        W 7559   4.205   5.778   0.517
 4041W        W 7560   7.145   0.612   3.535
 4042W        W 7561   5.798   8.584   9.283
 4043W        W 7562   5.083   9.536  11.407
 4044W        W 7563   6.430   6.937  11.763
 4045W        W 7564   1.795   9.408   1.883
 4046W        W 7565   9.432   2.276   9.232
 4047W        W 7566   2.535   4.911   1.473
 4048W        W 7567   8.524   0.430  10.033
 4049W        W 7568   0.830   9.864   2.685
 4050W        W 7569   8.801   2.679  10.063
 4051W        W 7570   5.982   0.034   1.422
 4052W        W 7571   5.433   3.094  10.996
 4053W        W 7572   8.580   4.993   0.962
 4054W        W 7573   5.696   0.051   0.509
 4055W        W 7574   3.044   2.830   8.704
 4056W        W 7575   7.147   0.006   2.711
 4057W        W 7576   0.205   5.083   0.610
 4058W        W 7577   6.547   1.627   2.381
 4059W        W 7578   1.170   3.774  10.504
 4060W        W 7579   2.277   3.341   9.050
 4061W        W 7580   4.083   5.772   9.083
 4062W        W 7581   2.055   8.754   9.723
 4063W        W 7582   6.772   6.534   4.074
 4064W        W 7583   6.658   9.948  11.938
 4065W        W 7584   0.657   0.444  10.819
 4066W        W 7585   7.121   2.336   2.306
 4067W        W 7586   2.645   7.734  11.754
 4068W        W 7587   6.868   0.419  10.955
 4069W        W 7588   6.265   1.733  11.183
 4070W        W 7589   7.096   4.165   2.954
 4071W        W 7590   1.761   4.390  10.289
 4072W        W 7591   7.951   1.140   0.813
 4073W        W 7592   4.072   5.073   9.319
 4074W        W 7593   5.193   1.879   2.823
 4075W        W 7594   0.807   2.180   0.550
 4076W        W 7595   3.913   0.348   1.214
 4077W        W 7596   7.437   3.904  10.112
 4078W        W 7597   6.449   6.251   0.850
 4079W        W 7598   6.438   8.484  10.017
 4080W        W 7599   5.739   5.493   9.894
 4081W        W 7600   0.969   0.268   3.011
 4082W        W 7601   8.599   1.743   2.571
 4083W        W 7602   2.341   6.121  11.185
 4084W        W 7603   4.241   9.913  11.539
 4085W        W 7604   2.406   8.774   3.222
 4086W        W 7605   6.546   4.655   8.244
 4087W        W 7606   6.777   5.877   1.846
 4088W        W 7607   8.005   4.175   0.163
 4089W        W 7608   7.864   6.732   3.538
 4090W        W 7609   9.238   0.881   1.090
 4091W        W 7610   0.831   0.810   3.141
 4092W        W 7611   7.341   8.404   1.091
 4093W        W 7612   9.559   0.941  11.352
 4094W        W 7613   6.950   8.060  10.773
 4095W        W 7614   7.476   2.785   2.026
 4096W        W 7615   6.408   2.578   1.410
 4097W        W 7616   3.324   1.277   2.611
 4098W        W 7617   6.289   2.494  11.339
 4099W        W 7618   7.105   0.531   2.700
 4100W        W 7619   4.195   4.527   9.097
 4101W        W 7620   8.794   0.006  11.917
 4102W        W 7621   3.218   1.761  10.424
 4103W        W 7622   3.700   8.481  10.983
 4104W        W 7623   2.971   5.901   1.850
 4105W        W 7624   3.182   4.995   1.662
 4106W        W 7625   7.511   0.371   3.791
 4107W        W 7626   2.585   3.960  10.238
 4108W        W 7627   6.147   9.708   0.828
 4109W        W 7628   4.100   1.313   2.996
 4110W        W 7629   3.510   3.735   3.042
 4111W        W 7630   9.791   2.957   3.442
 4112W        W 7631   5.386   0.409   9.668
 4113W        W 7632   9.583   5.762   1.625
 4114W        W 7633   7.609   7.508   0.775
 4115W        W 7634   6.533   7.566   2.743
 4116W        W 7635   9.312   6.689   1.599
 4117W        W 7636   1.348   1.207   1.527
 4118W        W 7637   2.345   4.092   8.559
 4119W        W 7638   4.161   0.830   9.512
 4120W        W 7639   3.079   0.267   0.471
 4121W        W 7640   4.434   1.294   8.993
 4122W        W 7641   9.407   6.175   9.699
 4123W        W 7642   8.971   2.311   1.052
 4124W        W 7643   1.287   3.438   0.056
 4125W        W 7644   0.730   3.721   0.223
 4126W        W 7645   4.563   3.352  10.746
 4127W        W 7646   7.235   8.464  11.398
 4128W        W 7647   3.448   3.413   4.117
 4129W        W 7648   6.148   5.732  11.717
 4130W        W 7649   5.394   1.205   0.046
 4131W        W 7650   6.664   4.522   9.532
 4132W        W 7651   0.953   6.958   0.875
 4133W        W 7652   3.653   8.384   3.332
 4134W        W 7653   7.160   3.478   1.733
 4135W        W 7654   6.084   6.702  11.460
 4136W        W 7655   5.272   2.780   3.316
 4137W        W 7656   6.226   7.033  10.600
 4138W        W 7657   8.698   3.939   8.964
 4139W        W 7658   0.677   8.925   2.880
 4140W        W 7659   6.185   4.157   3.337
 4141W        W 7660   5.168   3.704   9.163
 4142W        W 7661   1.144   1.467   0.628
 4143W        W 7662   6.237   1.968   2.629
 4144W        W 7663   8.888   2.888   9.135
 4145W        W 7664   2.830   4.718   0.041
 4146W        W 7665   6.033   4.791  10.010
 4147W        W 7666   1.428   0.390   3.204
 4148W        W 7667   6.082   6.601   1.754
 4149W        W 7668   5.420   6.526  10.304
 4150W        W 7669   8.289   1.277   9.584
 4151W        W 7670   5.638   5.429   1.049
 4152W        W 7671   5.140   6.491   8.263
 4153W        W 7672   7.673   7.312   9.525
 4154W        W 7673   1.625   8.890   0.244
 4155W        W 7674   7.379   6.354  10.802
 4156W        W 7675   8.112   8.409  11.908
 4157W        W 7676   0.738   0.853   2.226
 4158W        W 7677   5.957   6.871   2.173
 4159W        W 7678   8.531   8.935   1.659
 4160W        W 7679   2.180   0.358   2.782
 4161W        W 7680   1.269   7.888   3.526
 4162W        W 7681   5.601   6.636   8.509
 4163W        W 7682   9.323   7.407  10.367
 4164W        W 7683   0.124   6.026  10.938
 4165W        W 7684   2.622   1.583   3.238
 4166W        W 7685   2.873   4.766   2.429
 4167W        W 7686   4.763   5.319   3.543
 4168W        W 7687   4.818   5.924   9.801
 4169W        W 7688   3.193   0.825  10.373
 4170W        W 7689   0.383   3.342   0.213
 4171W        W 7690   9.848   7.008  10.894
 4172W        W 7691   5.339   4.866   2.243
 4173W        W 7692   4.676   1.826  11.347
 4174W        W 7693   5.871   1.308   9.454
 4175W        W 7694   6.376   0.278  10.775
 4176W        W 7695   2.852   1.975   2.974
 4177W        W 7696   7.009   1.022   2.614
 4178W        W 7697   3.850   3.668  10.837
 4179W        W 7698   2.148   8.141   8.684
 4180W        W 7699   5.903   8.248   2.212
 4181W        W 7700   6.966   9.262   8.355
 4182W        W 7701   3.285   6.707   2.157
 4183W        W 7702   9.803   5.625  10.836
 4184W        W 7703   2.857   3.822  11.617
 4185W        W 7704   8.827   1.746  10.415
 4186W        W 7705   9.304   2.579  10.006
 4187W        W 7706   3.728   4.494   9.873
 4188W        W 7707   2.669   5.132   0.274
 4189W        W 7708   6.365   9.652   9.529
 4190W        W 7709   4.524   8.725  11.498
 4191W        W 7710   8.550   8.476   0.822
 4192W        W 7711   5.972   0.439  11.660
 4193W        W 7712   9.726   3.673  10.103
 4194W        W 7713   6.129   1.538   0.835
 4195W        W 7714   9.015   7.870   8.692
 4196W        W 7715   2.299   9.451  11.365
 4197W        W 7716   0.379   4.573   2.672
 4198W        W 7717   0.701   1.929   1.642
 4199W        W 7718   5.916   6.922  11.021
 4200W        W 7719   6.998   2.008  10.033
 4201W        W 7720   8.355   1.496   1.528
 4202W        W 7721   2.160   6.796   9.564
 4203W        W 7722   1.202   0.772   9.054
 4204W        W 7723   2.246   1.788   9.235
 4205W        W 7724   2.492   7.411   2.879
 4206W        W 7725   2.316   6.720   0.279
 4207W        W 7726   0.152   0.428   9.594
 4208W        W 7727   3.634   1.512   2.945
 4209W        W 7728   8.877   9.718   1.148
 4210W        W 7729   4.437   5.945  11.844
 4211W        W 7730   8.810   5.465   2.534
 4212W        W 7731   1.476   2.630   9.837
 4213W        W 7732   9.701   0.619   1.717
 4214W        W 7733   8.055   3.472   3.766
 4215W        W 7734   6.644   8.033   1.992
 4216W        W 7735   0.476   0.207   2.860
 4217W        W 7736   5.575   2.173   9.206
 4218W        W 7737   1.526   3.736   2.365
 4219W        W 7738   5.233   2.370   8.840
 4220W        W 7739   6.467   7.892  10.494
 4221W        W 7740   7.411   7.527  11.220
 4222W        W 7741   3.609   7.077   8.575
 4223W        W 7742   6.743   0.792  11.911
 4224W        W 7743   5.279   5.663  11.642
 4225W        W 7744   3.381   4.133   0.748
 4226W        W 7745   4.284   8.547  10.208
 4227W        W 7746   8.961   0.248  10.521
 4228W        W 7747   4.307   5.482   3.834
 4229W        W 7748   5.981   6.154   9.206
 4230W        W 7749   7.637   5.896   9.844
 4231W        W 7750   1.674   4.693   3.763
 4232W        W 7751   8.217   9.867   1.952
 4233W        W 7752   7.172   4.364   1.351
 4234W        W 7753   5.745   3.430   3.976
 4235W        W 7754   9.928   5.709   2.475
 4236W        W 7755   5.560   3.066  10.479
 4237W        W 7756   6.411   7.629  11.441
 4238W        W 7757   1.034   3.794   2.528
 4239W        W 7758   8.230   8.289  10.150
 4240W        W 7759   0.780   3.339   2.399
 4241W        W 7760   3.897   9.255   8.626
 4242W        W 7761   0.255   2.520   1.391
 4243W        W 7762   8.624   9.295   9.377
 4244W        W 7763   3.134   4.182   1.259
 4245W        W 7764   1.153   1.214   3.017
 4246W        W 7765   9.074   0.974  11.877
 4247W        W 7766   3.257   1.753   3.201
 4248W        W 7767   5.688   0.957   0.382
 4249W        W 7768   8.042   3.557  10.955
 4250W        W 7769   0.849   6.155   8.855
 4251W        W 7770   2.789   7.031   1.631
 4252W        W 7771   4.390   4.765   2.307
 4253W        W 7772   5.953   0.333   0.162
 4254W        W 7773   2.720   5.147   9.768
 4255W        W 7774   0.760   2.414   2.033
 4256W        W 7775   6.175   3.178   9.661
 4257W        W 7776   1.229   1.322  10.909
 4258W        W 7777   3.095   9.514   9.528
 4259W        W 7778   8.887   4.406   3.537
 4260W        W 7779   4.674   7.140  11.385
 4261W        W 7780   8.965   7.750   0.924
 4262W        W 7781   1.268   2.246   9.587
 4263W        W 7782   3.153   3.266  10.041
 4264W        W 7783   1.088   5.753  11.934
 4265W        W 7784   4.161   8.408   0.174
 4266W        W 7785   0.018   9.099   9.093
 4267W        W 7786   6.197   1.697   9.353
 4268W        W 7787   4.672   1.732   3.232
 4269W        W 7788   7.629   0.280  11.058
 4270W        W 7789   0.934   4.326  11.222
 4271W        W 7790   5.015   3.770   1.132
 4272W        W 7791   6.700   6.004   8.451
 4273W        W 7792   4.652   3.105   2.805
 4274W        W 7793   7.810   1.495   2.280
 4275W        W 7794   6.504   4.195   1.154
 4276W        W 7795   2.365   6.636  10.439
 4277W        W 7796   2.142   8.309   0.873
 4278W        W 7797   8.091   8.375   2.272
 4279W        W 7798   1.637   3.215   3.133
 4280W        W 7799   0.890   8.413   0.383
 4281W        W 7800   5.426   1.735   1.429
 4282W        W 7801   9.010   6.129  10.060
 4283W        W 7802   2.956   6.241  11.721
 4284W        W 7803   2.865   9.738  11.822
 4285W        W 7804   4.228   6.695   9.140
 4286W        W 7805   0.903   2.087   9.264
 4287W        W 7806   9.323   0.994   2.425
 4288W        W 7807   8.075   0.015   1.452
 4289W        W 7808   8.380   2.749   0.011
 4290W        W 7809   6.089   8.098   2.660
 4291W        W 7810   4.713   6.628   9.009
 4292W        W 7811   5.993   0.806   9.439
 4293W        W 7812   7.347   9.387  10.285
 4294W        W 7813   1.035   4.228   2.182
 4295W        W 7814   7.341   4.400   2.588
 4296W        W 7815   9.210   9.287   3.031
 4297W        W 7816   1.627   5.554   3.104
 4298W        W 7817   6.904   9.979  11.448
 4299W        W 7818   2.780   9.096  10.125
 4300W        W 7819   5.067   5.940   2.955
 4301W        W 7820   3.790   3.791   3.477
 4302W        W 7821   1.867   0.219   2.169
 4303W        W 7822   5.603   3.093   2.106
 4304W        W 7823   7.822   0.281   9.527
 4305W        W 7824   9.253   1.687   8.841
 4306W        W 7825   1.795   5.233  10.300
 4307W        W 7826   5.250   7.408   8.986
 4308W        W 7827   9.790   7.510   1.533
 4309W        W 7828   3.955   7.382   2.895
 4310W        W 7829   5.504   4.794   9.965
 4311W        W 7830   3.952   0.848   2.206
 4312W        W 7831   7.134   4.021   8.430
 4313W        W 7832   9.949   5.956   9.989
 4314W        W 7833   5.020   9.119   8.649
 4315W        W 7834   3.254   1.664   9.542
 4316W        W 7835   6.780   2.358   0.437
 4317W        W 7836   9.610   9.622   3.081
 4318W        W 7837   5.606   0.852   1.265
 4319W        W 7838   3.410   6.508   1.283
 4320W        W 7839   4.677   0.405   0.799
 4321W        W 7840   1.877   0.540   1.758
 4322W        W 7841   0.735   5.558   8.454
 4323W        W 7842   5.939   7.648  11.620
 4324W        W 7843   1.942   6.939   1.799
 4325W        W 7844   3.717   0.049   3.214
 4326W        W 7845   8.517   6.020  10.219
 4327W        W 7846   9.017   0.267   9.999
 4328W        W 7847   1.702   2.730   0.588
 4329W        W 7848   7.049   7.481   0.277
 4330W        W 7849   4.873   3.843   8.060
 4331W        W 7850   1.403   7.978   2.253
 4332W        W 7851   5.146   6.402   1.727
 4333W        W 7852   9.229   1.803   1.553
 4334W        W 7853   8.480   5.720   9.258
 4335W        W 7854   8.516   4.123  11.320
 4336W        W 7855   2.521   5.583   9.959
 4337W        W 7856   6.530   0.791  11.059
 4338W        W 7857   2.211   9.877   9.101
 4339W        W 7858   6.596   4.157  10.660
 4340W        W 7859   4.600   3.893   2.409
 4341W        W 7860   2.498   1.473   0.150
 4342W        W 7861   0.092   9.515   2.236
 4343W        W 7862   0.560   5.423   0.786
 4344W        W 7863   2.867   0.512   3.496
 4345W        W 7864   8.403   1.566   0.061
 4346W        W 7865   0.323   3.239  10.763
 4347W        W 7866   2.146   4.418   3.653
 4348W        W 7867   9.392   8.870  11.629
 4349W        W 7868   5.445   2.532  10.326
 4350W        W 7869   7.948   0.410   0.302
 4351W        W 7870   2.462   9.488   3.153
 4352W        W 7871   3.649   2.979   9.336
 4353W        W 7872   8.126   9.588  10.730
 4354W        W 7873   9.918   5.745  11.321
 4355W        W 7874   6.906   5.750  11.875
 4356W        W 7875   7.741   4.711  10.318
 4357W        W 7876   0.972   0.216   3.515
 4358W        W 7877   6.633   3.519  11.934
 4359W        W 7878   6.970   5.457  10.393
 4360W        W 7879   8.039   4.667   8.672
 4361W        W 7880   9.928   8.945  11.798
 4362W        W 7881   4.340   1.029   1.910
 4363W        W 7882   3.290   9.716   1.740
 4364W        W 7883   3.308   8.837  10.229
 4365W        W 7884   6.070   3.309   1.902
 4366W        W 7885   7.686   7.310   9.006
 4367W        W 7886   4.304   2.590   0.937
 4368W        W 7887   9.425   3.293   3.324
 4369W        W 7888   7.700   9.541   9.104
 4370W        W 7889   2.132   4.036   3.284
 4371W        W 7890   4.168   4.746   1.301
 4372W        W 7891   6.058   5.677   8.555
 4373W        W 7892   0.723   4.867   3.418
 4374W        W 7893   7.055   4.524   8.267
 4375W        W 7894   0.424   1.128   1.506
 4376W        W 7895   9.753   3.771  10.602
 4377W        W 7896   7.434   7.089   1.292
 4378W        W 7897   3.337   4.668  11.142
 4379W        W 7898   5.409   0.339   1.206
 4380W        W 7899   2.452   4.728  10.711
 4381W        W 7900   4.625   6.679   0.225
 4382W        W 7901   9.494   6.364   2.188
 4383W        W 7902   8.097   0.342  11.331
 4384W        W 7903   7.844   7.977  11.893
 4385W        W 7904   6.601   2.498  11.763
 4386W        W 7905   9.320   7.908   3.311
 4387W        W 7906   9.307   4.687   9.455
 4388W        W 7907   4.719   4.830   0.452
 4389W        W 7908   3.059   5.026   4.098
 4390W        W 7909   2.435   3.091   3.140
 4391W        W 7910   4.408   6.545   1.025
 4392W        W 7911   4.261   1.560   3.454
 4393W        W 7912   7.164   3.750   2.250
 4394W        W 7913   0.027   5.070  10.191
 4395W        W 7914   8.574   7.617   9.363
 4396W        W 7915   5.078   0.785   9.492
 4397W        W 7916   3.619   4.226  11.786
 4398W        W 7917   9.390   4.236   3.405
 4399W        W 7918   2.726   7.218  11.765
 4400W        W 7919   3.239   3.791   8.838
 4401W        W 7920   2.890   3.876   2.154
 4402W        W 7921   1.734   1.252  10.952
 4403W        W 7922   3.083   0.546   0.889
 4404W        W 7923   8.478   1.863  10.789
 4405W        W 7924   0.405   4.547  11.887
 4406W        W 7925   3.008   6.238   1.470
 4407W        W 7926   6.711   0.796   9.111
 4408W        W 7927   8.488   6.262   9.746
 4409W        W 7928   6.058   7.144  10.050
 4410W        W 7929   5.683   5.752   2.298
 4411W        W 7930   5.286   2.964   0.975
 4412W        W 7931   7.876   8.962  11.333
 4413W        W 7932   0.365   8.399   2.106
 4414W        W 7933   0.973   5.484   0.398
 4415W        W 7934   7.569   0.721   9.427
 4416W        W 7935   8.178   3.295   3.064
 4417W        W 7936   0.901   6.987   2.213
 4418W        W 7937   0.330   8.157  11.272
 4419W        W 7938   7.480   3.959   3.328
 4420W        W 7939   8.049   6.877  10.467
 4421W        W 7940   9.766   0.742   1.028
 4422W        W 7941   8.563   6.627   1.856
 4423W        W 7942   8.605   9.740  10.625
 4424W        W 7943   0.417   9.215  11.835
 4425W        W 7944   6.524   6.094   2.830
 4426W        W 7945   3.214   3.295   9.061
 4427W        W 7946   9.062   4.543   2.399
 4428W        W 7947   3.976   4.257   1.726
 4429W        W 7948   2.714   7.345   8.413
 4430W        W 7949   6.394   2.451  10.054
 4431W        W 7950   9.334   0.565   2.071
 4432W        W 7951   4.640   0.702  11.713
 4433W        W 7952   0.855   6.147  11.301
 4434W        W 7953   1.379   3.503  10.109
 4435W        W 7954   6.370   1.350   9.730
 4436W        W 7955   6.510   5.277  10.927
 4437W        W 7956   2.982   7.940   8.721
 4438W        W 7957   7.580   9.373  11.263
 4439W        W 7958   9.379   6.542  11.840
 4440W        W 7959   8.213   6.407   2.164
 4441W        W 7960   7.010   8.345   3.129
 4442W        W 7961   8.238   9.446   3.204
 4443W        W 7962   8.063   7.003   9.386
 4444W        W 7963   4.634   9.969   1.591
 4445W        W 7964   9.795   0.300  10.999
 4446W        W 7965   5.592   6.426   3.664
 4447W        W 7966   5.424   0.558   3.486
 4448W        W 7967   4.602   7.183   0.240
 4449W        W 7968   7.767   1.157   9.658
 4450W        W 7969   4.900   1.242   1.816
 4451W        W 7970   5.439   1.510   8.751
 4452W        W 7971   4.039   5.179   0.998
 4453W        W 7972   9.250   8.791   2.810
 4454W        W 7973   8.084   9.702   0.099
 4455W        W 7974   6.759   7.543  10.718
 4456W        W 7975   2.413   9.460   1.219
 4457W        W 7976   7.445   0.361   0.589
 4458W        W 7977   5.976   2.864   3.235
 4459W        W 7978   8.650   6.562   2.363
 4460W        W 7979   3.951   6.790  11.588
 4461W        W 7980   6.594   0.871   0.397
 4462W        W 7981   3.117   5.146  10.366
 4463W        W 7982   7.401   9.197   3.340
 4464W        W 7983   4.515   5.852  10.984
 4465W        W 7984   4.194   8.187   2.384
 4466W        W 7985   3.095   9.725   3.589
 4467W        W 7986   4.063   7.132  11.973
 4468W        W 7987   0.844   0.644   9.514
 4469W        W 7988   2.558   9.073   2.842
 4470W        W 7989   4.479   7.388  11.804
 4471W        W 7990   7.378   2.815  10.090
 4472W        W 7991   5.213   2.766   2.215
 4473W        W 7992   2.773   9.973   9.974
 4474W        W 7993   8.517   9.780   1.543
 4475W        W 7994   0.907   9.790   3.202
 4476W        W 7995   2.372   9.634  11.837
 4477W        W 7996   1.777   9.694   9.716
 4478W        W 7997   4.541   9.307   1.829
 4479W        W 7998   5.661   4.835  10.888
 4480W        W 7999   2.417   1.196  11.720
 4481W        W 8000   4.744   2.849   2.370
 4482W        W 8001   8.689   6.125   1.977
 4483W        W 8002   0.903   5.174  11.997
 4484W        W 8003   9.036   8.600   9.021
 4485W        W 8004   4.449   2.427   2.340
 4486W        W 8005   2.438   6.995   8.680
 4487W        W 8006   3.980   7.100   8.942
 4488W        W 8007   1.763   0.357   0.340
 4489W        W 8008   3.567   9.846   9.398
 4490W        W 8009   5.149   3.619   2.228
 4491W        W 8010   9.368   4.690   1.449
 4492W        W 8011   6.981   7.760   9.787
 4493W        W 8012   3.670   6.953   2.954
 4494W        W 8013   5.750   3.616   0.760
 4495W        W 8014   3.977   6.440   8.296
 4496W        W 8015   6.073   8.639  11.895
 4497W        W 8016   0.185   9.679   1.271
 4498W        W 8017   7.275   7.305   8.681
 4499W        W 8018   0.486   8.391   0.069
 4500W        W 8019   8.989   3.101   2.184
 4501W        W 8020   2.137   7.842   9.677
 4502W        W 8021   9.170   1.801   2.065
 4503W        W 8022   9.327   5.002   2.342
 4504W        W 8023   9.849   5.581  10.335
 4505W        W 8024   2.427   0.724   3.009
 4506W        W 8025   5.538   6.609  10.806
 4507W        W 8026   7.963   7.556   8.658
 4508W        W 8027   1.817   2.696  11.186
 4509W        W 8028   6.251   3.673   2.239
 4510W        W 8029   1.609   7.951   0.603
 4511W        W 8030   6.069   4.707   2.588
 4512W        W 8031   5.965   2.346   1.362
 4513W        W 8032   2.169   1.987   0.864
 4514W        W 8033   6.210   5.207   8.824
 4515W        W 8034   6.774   6.063   9.738
 4516W        W 8035   4.743   2.633  10.945
 4517W        W 8036   8.449   3.022   0.880
 4518W        W 8037   3.027   8.004   9.220
 4519W        W 8038   9.388   7.198   9.742
 4520W        W 8039   8.584   4.555  10.573
 4521W        W 8040   6.067   6.538  10.682
 4522W        W 8041   1.713   7.979   9.978
 4523W        W 8042   4.623   4.063   1.064
 4524W        W 8043   5.929   1.559   9.909
 4525W        W 8044   8.959   2.306   0.018
 4526W        W 8045   9.335   4.877   9.973
 4527W        W 8046   2.538   6.564   0.811
 4528W        W 8047   3.055   0.089   1.487
 4529W        W 8048   4.171   0.569   1.824
 4530W        W 8049   9.147   9.766   0.220
 4531W        W 8050   2.320   4.040   9.565
 4532W        W 8051   6.625   2.237   9.635
 4533W        W 8052   8.457   2.361   0.940
 4534W        W 8053   0.274   2.331  10.982
 4535W        W 8054   0.524   8.878   1.420
 4536W        W 8055   6.725   8.445   2.712
 4537W        W 8056   8.463   3.342   9.524
 4538W        W 8057   6.704   2.852  11.433
 4539W        W 8058   2.901   7.547   9.405
 4540W        W 8059   9.717   9.030   2.479
 4541W        W 8060   4.365   7.165   9.302
 4542W        W 8061   8.058   9.773   9.418
 4543W        W 8062   3.856   7.240   9.417
 4544W        W 8063   6.448   5.402   1.064
 4545W        W 8064   5.904   3.939   0.268
 4546W        W 8065   9.519   0.875   0.128
 4547W        W 8066   8.444   8.846   2.143
 4548W        W 8067   4.161   9.266   1.482
 4549W        W 8068   9.690   8.153   0.343
 4550W        W 8069   2.132   0.841   2.600
 4551W        W 8070   0.006   6.868   1.015
 4552W        W 8071   6.089   0.471   1.995
 4553W        W 8072   6.225   9.463   8.653
 4554W        W 8073   0.017   4.178   9.277
 4555W        W 8074   0.426   6.167   0.190
 4556W        W 8075   6.087   7.423   3.040
 4557W        W 8076   0.520   1.340   8.676
 4558W        W 8077   3.156   5.670  10.248
 4559W        W 8078   5.542   2.151   3.079
 4560W        W 8079   2.033   9.148   1.067
 4561W        W 8080   0.324   8.278  10.769
 4562W        W 8081   3.387   8.064   1.870
 4563W        W 8082   0.820   0.594   2.656
 4564W        W 8083   4.269   6.494   0.541
 4565W        W 8084   0.653   1.290   3.172
 4566W        W 8085   0.570   0.676   1.666
 4567W        W 8086   7.373   2.740   3.006
 4568W        W 8087   3.396   1.546   3.657
 4569W        W 8088   7.955   2.826  11.671
 4570W        W 8089   7.335   4.404  11.422
 4571W        W 8090   4.238   0.421  11.426
 4572W        W 8091   0.159   2.777   2.687
 4573W        W 8092   3.404   9.945   0.701
 4574W        W 8093   0.019   7.602   0.070
 4575W        W 8094   5.418   6.127   2.080
 4576W        W 8095   3.083   7.282   3.478
 4577W        W 8096   7.168   5.755   1.023
 4578W        W 8097   3.324   5.951  11.046
 4579W        W 8098   4.591   0.299   1.975
 4580W        W 8099   7.594   6.610   0.122
 4581W        W 8100   6.816   0.648   1.752
 4582W        W 8101   2.706   4.908   1.975
 4583W        W 8102   8.290   4.100   9.284
 4584W        W 8103   3.793   0.601   9.823
 4585W        W 8104   3.416   5.097   2.823
 4586W        W 8105   7.138   4.441   8.771
 4587W        W 8106   5.756   7.010   9.385
 4588W        W 8107   5.025   0.372   9.165
 4589W        W 8108   9.974   5.451   1.448
 4590W        W 8109   4.682   8.006   2.331
 4591W        W 8110   6.456   8.907   0.697
 4592W        W 8111   1.942   9.491   8.475
 4593W        W 8112   9.697   0.469   8.310
 4594W        W 8113   3.236   2.871  10.717
 4595W        W 8114   4.459   3.058   1.200
 4596W        W 8115   2.728   4.557   8.983
 4597W        W 8116   2.684   4.227  11.361
 4598W        W 8117   8.846   0.527   0.020
 4599W        W 8118   8.108   4.806   1.133
 4600W        W 8119   2.003   8.863  10.230
 4601W        W 8120   9.747   9.833   1.498
 4602W        W 8121   0.379   6.103   2.185
 4603W        W 8122   0.538   2.106  10.585
 4604W        W 8123   4.580   4.337   3.238
 4605W        W 8124   8.392   7.065   1.523
 4606W        W 8125   4.064   2.318   1.333
 4607W        W 8126   7.576   0.157   3.347
 4608W        W 8127   5.986   2.038   0.040
 4609W        W 8128   3.332   8.668   3.046
 4610W        W 8129   3.695   9.884  10.914
 4611W        W 8130   3.604   6.890  10.696
 4612W        W 8131   7.096   6.527  11.437
 4613W        W 8132   9.065   5.156   0.694
 4614W        W 8133   5.232   7.620  11.185
 4615W        W 8134   1.408   4.499  11.278
 4616W        W 8135   3.719   6.383  11.410
 4617W        W 8136   4.027   5.856   3.619
 4618W        W 8137   6.237   0.902   3.590
 4619W        W 8138   5.698   2.716   0.740
 4620W        W 8139   1.998   1.260  11.419
 4621W        W 8140   3.296   8.532   0.004
 4622W        W 8141   9.512   4.224   9.405
 4623W        W 8142   0.058   5.685   1.908
 4624W        W 8143   2.478   3.365  11.066
 4625W        W 8144   6.903   5.047  10.733
 4626W        W 8145   2.315   7.199   1.556
 4627W        W 8146   4.626   9.136   8.999
 4628W        W 8147   0.427   7.592   9.678
 4629W        W 8148   9.559   6.362  10.149
 4630W        W 8149   6.755   0.264   8.997
 4631W        W 8150   1.738   4.658   3.229
 4632W        W 8151   0.158   6.583   3.545
 4633W        W 8152   5.928   2.462   0.305
 4634W        W 8153   9.571   8.005   1.497
 4635W        W 8154   3.755   2.808  10.769
 4636W        W 8155   4.277   6.170  10.646
 4637W        W 8156   6.928   3.930   8.895
 4638W        W 8157   0.950   7.956   2.569
 4639W        W 8158   1.870   4.128   2.477
 4640W        W 8159   5.986   1.173  11.780
 4641W        W 8160   6.361   3.475  10.095
 4642W        W 8161   3.321   6.546   3.562
 4643W        W 8162   7.561   4.139   1.112
 4644W        W 8163   0.752   6.592   2.627
 4645W        W 8164   8.571   8.426   2.419
 4646W        W 8165   5.761   7.454  11.175
 4647W        W 8166   5.671   9.554   0.651
 4648W        W 8167   0.036   4.865   0.155
 4649W        W 8168   7.926   6.901   0.356
 4650W        W 8169   1.044   1.311   8.677
 4651W        W 8170   3.268   1.698  11.620
 4652W        W 8171   6.527   8.828  10.965
 4653W        W 8172   8.539   4.471   0.937
 4654W        W 8173   3.226   3.331   8.544
 4655W        W 8174   2.059   6.639   2.207
 4656W        W 8175   8.106   2.359  11.441
 4657W        W 8176   5.460   6.681   1.457
 4658W        W 8177   3.191   2.305  10.079
 4659W        W 8178   0.174   0.640   1.979
 4660W        W 8179   5.211   8.133  11.086
 4661W        W 8180   1.815   6.091   9.883
 4662W        W 8181   7.826   9.897  10.397
 4663W        W 8182   6.509   4.875   9.882
 4664W        W 8183   0.879   6.470   0.484
 4665W        W 8184   2.051   7.644   1.487
 4666W        W 8185   4.214   6.332   3.507
 4667W        W 8186   5.837   6.895   3.573
 4668W        W 8187   9.658   6.668  11.304
 4669W        W 8188   6.532   3.136   9.295
 4670W        W 8189   2.010   3.703   2.215
 4671W        W 8190   7.047   0.299   2.268
 4672W        W 8191   4.765   9.885  11.581
 4673W        W 8192   4.455   6.865  11.776
 4674W        W 8193   4.791   7.427  10.969
 4675W        W 8194   0.507   1.926   2.491
 4676W        W 8195   7.463   4.228   2.127
 4677W        W 8196   0.379   6.414  10.634
 4678W        W 8197   9.005   8.153  11.259
 4679W        W 8198   3.881   9.031  10.993
 4680W        W 8199   1.842   4.050   9.313
 4681W        W 8200   0.765   4.001   0.651
 4682W        W 8201   9.231   8.916  10.621
 4683W        W 8202   0.214   7.609   2.348
 4684W        W 8203   0.709   2.927   2.740
 4685W        W 8204   7.591   9.577   3.659
 4686W        W 8205   4.781   2.729   1.858
 4687W        W 8206   8.178   4.867  10.523
 4688W        W 8207   0.321   2.221   1.820
 4689W        W 8208   3.014   6.067   9.061
 4690W        W 8209   3.987   3.759   0.364
 4691W        W 8210   4.121   6.978   8.446
 4692W        W 8211   5.108   9.441   9.607
 4693W        W 8212   0.662   2.591  11.862
 4694W        W 8213   6.070   7.801   0.110
 4695W        W 8214   4.131   4.051   8.885
 4696W        W 8215   0.483   2.049   3.356
 4697W        W 8216   3.353   9.807  11.799
 4698W        W 8217   2.895   5.163   2.758
 4699W        W 8218   3.060   1.254   9.319
 4700W        W 8219   8.899   7.165  10.964
 4701W        W 8220   8.414   0.289   1.760
 4702W        W 8221   4.636   2.471   9.579
 4703W        W 8222   9.377   9.070   2.042
 4704W        W 8223   5.538   2.885   9.960
 4705W        W 8224   9.585   8.208   2.545
 4706W        W 8225   8.967   9.296   1.871
 4707W        W 8226   8.788   1.166   1.400
 4708W        W 8227   8.991   3.058   3.234
 4709W        W 8228   7.448   6.591   2.918
 4710W        W 8229   4.538   9.575  11.246
 4711W        W 8230   9.744   0.416   0.015
 4712W        W 8231   4.709   4.371   2.256
 4713W        W 8232   6.862   3.621   0.394
 4714W        W 8233   4.290   4.749   3.123
 4715W        W 8234   4.730   5.676   1.055
 4716W        W 8235   7.626   7.993   0.941
 4717W        W 8236   6.972   8.950   2.763
 4718W        W 8237   5.850   0.286  10.828
 4719W        W 8238   1.734   0.128   0.813
 4720W        W 8239   3.377   1.471   0.679
 4721W        W 8240   4.006   7.602  11.813
 4722W        W 8241   3.917   8.964   9.341
 4723W        W 8242   2.633   1.606  10.166
 4724W        W 8243   6.233   8.623   9.571
 4725W        W 8244   0.980   3.672  11.020
 4726W        W 8245   1.881   7.451  10.791
 4727W        W 8246   7.895   8.222   3.147
 4728W        W 8247   7.916   1.013   8.881
 4729W        W 8248   8.426   5.941   8.770
 4730W        W 8249   3.373   1.188  11.785
 4731W        W 8250   7.006   1.128   3.531
 4732W        W 8251   6.706   0.705   2.315
 4733W        W 8252   0.991   2.179   3.418
 4734W        W 8253   4.103   4.809  10.568
 4735W        W 8254   8.049   4.926   1.634
 4736W        W 8255   5.484   0.649   9.222
 4737W        W 8256   7.926   0.286   2.017
 4738W        W 8257   2.134   5.111   8.614
 4739W        W 8258   0.741   8.849  11.980
 4740W        W 8259   1.004   4.975  11.093
 4741W        W 8260   3.958   9.363   0.586
 4742W        W 8261   7.126   6.055   0.220
 4743W        W 8262   4.763   9.858   0.102
 4744W        W 8263   3.218   9.930  11.326
 4745W        W 8264   3.327   4.592  11.987
 4746W        W 8265   5.058   2.357   3.065
 4747W        W 8266   6.159   1.912   2.131
 4748W        W 8267   9.828   4.036   3.117
 4749W        W 8268   1.408   7.376   3.373
 4750W        W 8269   9.884   2.047   0.503
 4751W        W 8270   8.100   8.209   0.889
 4752W        W 8271   9.964   3.123  11.426
 4753W        W 8272   4.973   3.108   8.532
 4754W        W 8273   8.298   0.045   3.437
 4755W        W 8274   5.495   3.929   8.845
 4756W        W 8275   0.830   1.713   0.297
 4757W        W 8276   9.449   0.884   0.632
 4758W        W 8277   3.740   6.539   0.419
 4759W        W 8278   4.943   5.645  10.209
 4760W        W 8279   8.446   5.974  11.251
 4761W        W 8280   4.986   4.787  10.210
 4762W        W 8281   9.874   0.274  10.005
 4763W        W 8282   1.298   5.507   1.319
 4764W        W 8283   8.818   7.313   1.257
 4765W        W 8284   1.845   9.393   0.111
 4766W        W 8285   4.860   0.010   2.747
 4767W        W 8286   6.404   2.639   0.208
 4768W        W 8287   0.857   9.066   1.743
 4769W        W 8288   6.304   2.209   0.518
 4770W        W 8289   2.019   9.912   1.223
 4771W        W 8290   9.926   2.157   0.002
 4772W        W 8291   6.673   0.172   2.620
 4773W        W 8292   7.604   5.146   1.539
 4774W        W 8293   1.641   1.168   0.741
 4775W        W 8294   0.979   9.267  11.667
 4776W        W 8295   9.454   5.844  10.090
 4777W        W 8296   1.720   0.660   0.853
 4778W        W 8297   7.006   8.222   3.658
 4779W        W 8298   0.777   3.694   9.333
 4780W        W 8299   5.033   3.446  10.028
 4781W        W 8300   8.526   7.458   3.205
 4782W        W 8301   8.700   0.213   1.353
 4783W        W 8302   5.993   2.319   1.855
 4784W        W 8303   7.183   9.403   2.318
 4785W        W 8304   4.107   6.663   2.328
 4786W        W 8305   0.245   0.940   2.439
 4787W        W 8306   3.129   2.324   0.338
 4788W        W 8307   0.649   3.791   9.820
 4789W        W 8308   5.995   4.590   0.831
 4790W        W 8309   6.802   9.456   1.366
 4791W        W 8310   3.436   7.391   3.096
 4792W        W 8311   8.518   4.844  11.859
 4793W        W 8312   4.177   6.465  10.060
 4794W        W 8313   2.035   2.954   3.415
 4795W        W 8314   0.834   0.490  10.329
 4796W        W 8315   2.315   1.933   2.087
 4797W        W 8316   7.572   3.345  10.077
 4798W        W 8317   8.496   4.113  10.799
 4799W        W 8318   9.898   7.234   2.425
 4800W        W 8319   8.497   8.987   0.667
 4801W        W 8320   7.639   8.998  10.010
 4802W        W 8321   8.494   0.761   2.178
 4803W        W 8322   1.215   1.982   2.599
 4804W        W 8323   9.003   3.597  11.452
 4805W        W 8324   9.844   4.601   1.756
 4806W        W 8325   2.071   4.695   4.097
 4807W        W 8326   0.455   1.704   2.028
 4808W        W 8327   9.078   2.607   1.526
 4809W        W 8328   8.751   1.935   0.802
 4810W        W 8329   6.643   6.313   8.038
 4811W        W 8330   4.699   0.825   0.201
 4812W        W 8331   5.907   0.883  10.888
 4813W        W 8332   3.939   7.957   1.094
 4814W        W 8333   1.627   1.666   0.633
 4815W        W 8334   5.908   7.967   8.909
 4816W        W 8335   0.657   1.084   2.706
 4817W        W 8336   8.984   0.626   0.705
 4818W        W 8337   0.347   9.472   3.589
 4819W        W 8338   6.311   1.159   9.214
 4820W        W 8339   2.500   6.414   2.155
 4821W        W 8340   8.527   4.229   9.748
 4822W        W 8341   2.638   2.362   2.715
 4823W        W 8342   5.246   9.161   3.521
 4824W        W 8343   1.615   6.597   9.203
 4825W        W 8344   5.167   1.567   0.960
 4826W        W 8345   8.393   6.219   9.234
 4827W        W 8346   0.312   3.076   9.145
 4828W        W 8347   7.404   9.896   2.261
 4829W        W 8348   4.874   0.150  10.943
 4830W        W 8349   4.003   7.564   0.749
 4831W        W 8350   5.647   2.023   8.722
 4832W        W 8351   3.566   2.166   1.302
 4833W        W 8352   8.084   6.724   0.813
 4834W        W 8353   5.798   1.951   9.607
 4835W        W 8354   3.682   1.041   9.580
 4836W        W 8355   4.777   8.906  11.931
 4837W        W 8356   3.174   3.363   0.624
 4838W        W 8357   4.782   4.409   1.707
 4839W        W 8358   2.912   4.728   9.976
 4840W        W 8359   5.682   8.815  10.559
 4841W        W 8360   4.906   4.875   1.554
 4842W        W 8361   9.544   1.386   9.137
 4843W        W 8362   2.280   9.461   2.627
 4844W        W 8363   9.372   2.772   8.987
 4845W        W 8364   6.464   3.821  11.519
 4846W        W 8365   9.301   7.708   1.815
 4847W        W 8366   7.484   8.589   3.157
 4848W        W 8367   8.975   2.309   0.522
 4849W        W 8368   6.151   6.213  11.556
 4850W        W 8369   0.688   7.786   1.013
 4851W        W 8370   0.379   7.116   0.240
 4852W        W 8371   6.421   2.042  11.556
 4853W        W 8372   1.259   0.966   1.013
 4854W        W 8373   8.945   0.374   1.799
 4855W        W 8374   5.314   2.884   8.220
 4856W        W 8375   9.328   5.979   8.733
 4857W        W 8376   9.547   9.001   1.551
 4858W        W 8377   1.350   8.745   9.005
 4859W        W 8378   8.017   3.669  11.449
 4860W        W 8379   3.406   6.038  11.606
 4861W        W 8380   3.577   5.482   2.282
 4862W        W 8381   1.031   7.434  11.183
 4863W        W 8382   4.420   9.125   0.657
 4864W        W 8383   0.693   0.017  11.210
 4865W        W 8384   1.618   6.777  11.492
 4866W        W 8385   1.778   0.346   1.267
 4867W        W 8386   3.978   6.761  11.034
 4868W        W 8387   2.292   9.161   9.884
 4869W        W 8388   7.106   7.175  10.969
 4870W        W 8389   1.369   5.828   0.341
 4871W        W 8390   8.238   6.566   2.695
 4872W        W 8391   7.087   2.402  10.334
 4873W        W 8392   1.247   1.716   3.056
 4874W        W 8393   4.018   2.857   1.433
 4875W        W 8394   2.790   2.047  10.384
 4876W        W 8395   2.700   7.281   2.410
 4877W        W 8396   2.824   9.889   3.164
 4878W        W 8397   3.510   1.178   2.151
 4879W        W 8398   5.019   5.287  11.379
 4880W        W 8399   4.999   6.558   1.153
 4881W        W 8400   8.628   9.678   3.576
 4882W        W 8401   0.451   8.946   3.394
 4883W        W 8402   1.682   8.446  10.204
 4884W        W 8403   8.101   1.143  11.921
 4885W        W 8404   0.154   5.306   2.237
 4886W        W 8405   3.690   2.297   9.952
 4887W        W 8406   7.559   4.380  10.974
 4888W        W 8407   6.566   0.498   0.770
 4889W        W 8408   4.073   9.534  11.013
 4890W        W 8409   8.431   2.223   0.226
 4891W        W 8410   4.606   0.932  11.260
 4892W        W 8411   7.705   1.823   9.051
 4893W        W 8412   5.524   6.006   2.701
 4894W        W 8413   5.806   4.343  10.024
 4895W        W 8414   4.381   6.681  11.324
 4896W        W 8415   9.978   7.328   0.543
 4897W        W 8416   6.457   0.373   0.268
 4898W        W 8417   9.063   9.190   9.780
 4899W        W 8418   5.590   1.467  11.630
 4900W        W 8419   9.933   4.340   3.527
 4901W        W 8420   6.944   5.675   3.543
 4902W        W 8421   5.113   2.571  11.770
 4903W        W 8422   1.415   5.500   1.834
 4904W        W 8423   6.923   6.151  11.076
 4905W        W 8424   2.261   4.888   0.499
 4906W        W 8425   5.198   3.797   9.660
 4907W        W 8426   9.792   8.973  10.313
 4908W        W 8427   6.579   6.528  11.496
 4909W        W 8428   2.853   0.260   8.881
 4910W        W 8429   1.869   4.259   0.033
 4911W        W 8430   0.971   0.574  11.195
 4912W        W 8431   2.981   2.672   9.546
 4913W        W 8432   6.897   3.382   1.301
 4914W        W 8433   7.253   8.533  10.363
 4915W        W 8434   8.412   1.948   9.766
 4916W        W 8435   7.274   7.607   9.103
 4917W        W 8436   1.274   8.089   9.693
 4918W        W 8437   1.366   5.054  10.009
 4919W        W 8438   2.194   1.282   9.008
 4920W        W 8439   0.217   2.756   0.936
 4921W        W 8440   0.241   8.046   3.291
 4922W        W 8441   1.955   5.528   3.498
 4923W        W 8442   3.431   9.093  11.242
 4924W        W 8443   8.996   5.602   9.970
 4925W        W 8444   0.917   9.384   2.863
 4926W        W 8445   5.178   6.465   9.150
 4927W        W 8446   9.942   8.567   2.359
 4928W        W 8447   4.353   6.922   3.681
 4929W        W 8448   2.805   8.212   0.662
 4930W        W 8449   5.649   7.644   3.255
 4931W        W 8450   0.786   8.565   3.244
 4932W        W 8451   4.802   1.317   2.480
 4933W        W 8452   3.801   5.054   2.475
 4934W        W 8453   8.947   8.764   0.510
 4935W        W 8454   2.893   5.558   0.440
 4936W        W 8455   8.477   9.425   1.905
 4937W        W 8456   3.708   7.187   0.922
 4938W        W 8457   7.669   8.445   0.684
 4939W        W 8458   4.201   8.064  11.782
 4940W        W 8459   0.468   2.169   8.983
 4941W        W 8460   5.197   6.068   9.475
 4942W        W 8461   1.141   7.396   1.983
 4943W        W 8462   4.146   9.894   9.177
 4944W        W 8463   0.418   6.672   3.074
 4945W        W 8464   7.988   6.112  11.355
 4946W        W 8465   3.523   5.120  11.338
 4947W        W 8466   3.827   0.970   1.738
 4948W        W 8467   8.426   2.474   2.899
 4949W        W 8468   6.273   8.470   2.991
 4950W        W 8469   3.898   8.554   2.568
 4951W        W 8470   2.184   8.684   1.273
 4952W        W 8471   5.655   5.071   2.600
 4953W        W 8472   7.045   7.355   1.990
 4954W        W 8473   1.474   3.310   0.590
 4955W        W 8474   8.489   1.107  11.230
 4956W        W 8475   9.057   3.529   2.447
 4957W        W 8476   9.531   9.502   0.429
 4958W        W 8477   6.632   2.682   2.299
 4959W        W 8478   9.909   8.442   1.853
 4960W        W 8479   4.577   9.808   3.554
 4961W        W 8480   4.593   1.937   2.261
 4962W        W 8481   6.187   7.847   2.126
 4963W        W 8482   3.056   4.288  10.170
 4964W        W 8483   4.782   6.299   8.639
 4965W        W 8484   1.384   5.339  10.618
 4966W        W 8485   1.295   9.776   9.020
 4967W        W 8486   7.166   2.040   9.560
 4968W        W 8487   1.993   5.626  10.006
 4969W        W 8488   4.109   5.577  10.879
 4970W        W 8489   5.352   3.420   1.274
 4971W        W 8490   3.689   8.541   0.372
 4972W        W 8491   7.819   2.168   1.734
 4973W        W 8492   2.348   3.324  10.567
 4974W        W 8493   4.159   3.406   3.486
 4975W        W 8494   2.765   3.820   1.318
 4976W        W 8495   4.999   8.227   2.924
 4977W        W 8496   8.945   2.731  11.699
 4978W        W 8497   6.127   9.028   2.267
 4979W        W 8498   3.255   5.103  10.903
 4980W        W 8499   8.822   4.958   2.632
 4981W        W 8500   5.782   5.472  11.456
 4982W        W 8501   0.723   3.806   2.125
 4983W        W 8502   9.730   1.940  10.274
 4984W        W 8503   6.558   6.549   9.568
 4985W        W 8504   6.363   0.239  10.243
 4986W        W 8505   1.671   7.879   9.472
 4987W        W 8506   1.616   0.246  11.872
 4988W        W 8507   8.973   6.869   9.943
 4989W        W 8508   8.967   8.271  11.852
 4990W        W 8509   3.841   1.164   2.577
 4991W        W 8510   7.417   6.167   4.138
 4992W        W 8511   5.225   4.164   0.801
 4993W        W 8512   0.447   9.615   3.072
 4994W        W 8513   8.667   9.965  10.172
 4995W        W 8514   6.413   7.039   1.248
 4996W        W 8515   1.769   7.587   0.285
 4997W        W 8516   6.275   1.925   9.801
 4998W        W 8517   7.133   2.329   0.076
 4999W        W 8518   0.924   3.402  11.452
 5000W        W 8519   1.356   9.907   3.389
 5001W        W 8520   1.742   5.922   1.774
 5002W        W 8521   1.694   1.762   0.097
 5003W        W 8522   7.599   6.790   1.656
 5004W        W 8523   7.122   0.726  10.293
 5005W        W 8524   8.183   5.889   2.061
 5006W        W 8525   9.807   7.192  10.357
 5007W        W 8526   9.739   6.192   1.079
 5008W        W 8527   6.086   5.125   2.879
 5009W        W 8528   3.764   6.670   1.795
 5010W        W 8529   8.330   3.179  10.451
 5011W        W 8530   5.805   4.419  11.170
 5012W        W 8531   8.045   1.867   9.429
 5013W        W 8532   1.359   7.585  10.455
 5014W        W 8533   1.234   8.729   1.591
 5015W        W 8534   1.452   5.470   0.687
 5016W        W 8535   7.405   8.067  10.503
 5017W        W 8536   3.612   9.568  11.323
 5018W        W 8537   8.761   2.149  10.085
 5019W        W 8538   9.468   6.006   2.561
 5020W        W 8539   0.350   8.427   1.597
 5021W        W 8540   0.787   5.349   1.263
 5022W        W 8541   6.710   1.391   0.417
 5023W        W 8542   5.328   0.220   2.695
 5024W        W 8543   4.632   8.797  10.987
 5025W        W 8544   0.319   2.421   2.333
 5026W        W 8545   2.096   3.590   9.455
 5027W        W 8546   9.385   4.987   1.049
 5028W        W 8547   5.947   6.070   0.058
 5029W        W 8548   0.417   3.754   1.719
 5030W        W 8549   1.843   7.194   1.332
 5031W        W 8550   0.196   7.214   1.349
 5032W        W 8551   1.090   0.212  11.973
 5033W        W 8552   4.214   0.838   2.849
 5034W        W 8553   7.922   7.176   1.712
 5035W        W 8554   6.891   6.009   4.156
 5036W        W 8555   2.561   5.139   3.197
 5037W        W 8556   3.086   4.446   8.147
 5038W        W 8557   9.225   2.252   3.182
 5039W        W 8558   5.171   2.544   0.711
 5040W        W 8559   6.828   6.984   3.808
 5041W        W 8560   0.733   5.304  10.748
 5042W        W 8561   5.131   1.046   2.800
 5043W        W 8562   4.894   6.720   4.074
 5044W        W 8563   0.132   3.432   0.700
 5045W        W 8564   8.002   4.261  10.199
 5046W        W 8565   5.259   7.129   9.521
 5047W        W 8566   8.075   3.472   2.304
 5048W        W 8567   6.454   9.720  11.457
 5049W        W 8568   5.847   9.956   8.916
 5050W        W 8569   9.372   6.897   2.089
 5051W        W 8570   9.236   7.889   2.328
 5052W        W 8571   2.244   6.835   3.507
 5053W        W 8572   4.271   6.518   1.863
 5054W        W 8573   5.373   2.311   2.611
 5055W        W 8574   6.047   5.481   1.371
 5056W        W 8575   7.136   7.561  11.646
 5057W        W 8576   0.995   0.024   1.817
 5058W        W 8577   7.305   6.066   9.051
 5059W        W 8578   8.741   9.381   3.174
 5060W        W 8579   3.876   8.968  11.486
 5061W        W 8580   9.564   7.509   0.293
 5062W        W 8581   1.921   6.426  10.829
 5063W        W 8582   1.320   9.855  10.567
 5064W        W 8583   7.876   9.277   9.550
 5065W        W 8584   8.340   6.304   0.892
 5066W        W 8585   3.226   8.042   2.389
 5067W        W 8586   5.905   1.008  10.390
 5068W        W 8587   1.644   2.794   1.169
 5069W        W 8588   2.684   9.340   9.272
 5070W        W 8589   3.300   4.668   9.660
 5071W        W 8590   5.149   7.852   2.600
 5072W        W 8591   2.328   5.870   3.458
 5073W        W 8592   6.575   9.256  10.410
 5074W        W 8593   6.461   2.458   2.752
 5075W        W 8594   1.319   8.466   2.391
 5076W        W 8595   6.472   5.058   2.530
 5077W        W 8596   0.815   4.396   3.218
 5078W        W 8597   5.840   4.905   2.162
 5079W        W 8598   7.848   2.625   9.877
 5080W        W 8599   6.080   9.454  10.343
 5081W        W 8600   7.889   3.455  10.463
 5082W        W 8601   2.497   2.655   3.408
 5083W        W 8602   9.575   6.760   0.244
 5084W        W 8603   7.771   5.680   2.393
 5085W        W 8604   3.472   1.000   3.492
 5086W        W 8605   9.467   4.354   0.063
 5087W        W 8606   5.739   8.600   2.957
 5088W        W 8607   8.334   7.045   2.036
 5089W        W 8608   8.701   9.249   2.331
 5090W        W 8609   3.526   8.260   2.794
 5091W        W 8610   8.720   2.917   9.613
 5092W        W 8611   3.167   2.955   0.926
 5093W        W 8612   4.844   0.382   9.682
 5094W        W 8613   3.772   7.241  11.067
 5095W        W 8614   4.458   5.508  10.032
 5096W        W 8615   3.552   8.229   1.295
 5097W        W 8616   3.698   5.439   9.457
 5098W        W 8617   1.203   1.945   0.840
 5099W        W 8618   4.260   2.294   9.260
 5100W        W 8619   1.977   0.994   3.063
 5101W        W 8620   9.719   3.584  11.453
 5102W        W 8621   4.533   5.590   0.175
 5103W        W 8622   3.869   8.180  11.406
 5104W        W 8623   8.766   7.040   0.283
 5105W        W 8624   1.268   3.489   3.325
 5106W        W 8625   0.783   0.861   8.593
 5107W        W 8626   9.498   9.413   9.635
 5108W        W 8627   4.023   0.943   3.348
 5109W        W 8628   7.958   8.754   3.037
 5110W        W 8629   7.571   4.371   9.964
 5111W        W 8630   0.502   3.037   0.614
 5112W        W 8631   8.118   6.229   3.565
 5113W        W 8632   0.405   3.337   9.579
 5114W        W 8633   0.921   2.216   8.747
 5115W        W 8634   5.547   8.264   8.701
 5116W        W 8635   1.499   7.388   2.783
 5117W        W 8636   5.835   8.915   9.681
 5118W        W 8637   3.144   4.755   9.186
 5119W        W 8638   8.392   5.709   1.588
 5120W        W 8639   4.044   4.640   2.689
 5121W        W 8640   2.211   6.235   0.445
 5122W        W 8641   6.793   0.594  11.442
 5123W        W 8642   2.924   8.956   0.077
 5124W        W 8643   1.363   0.632   0.086
 5125W        W 8644   9.814   4.875   2.199
 5126W        W 8645   6.318   5.589   2.707
 5127W        W 8646   3.470   0.586   0.309
 5128W        W 8647   2.122   9.178   1.563
 5129W        W 8648   8.637   2.245   1.433
 5130W        W 8649   9.482   5.336  11.422
 5131W        W 8650   4.159   0.843   1.386
 5132W        W 8651   8.466   3.505   0.690
 5133W        W 8652   7.299   0.631   1.558
 5134W        W 8653   9.018   5.896   2.303
 5135W        W 8654   8.568   9.663   0.254
 5136W        W 8655   5.857   3.052   8.870
 5137W        W 8656   0.029   5.462   9.883
 5138W        W 8657   1.049   0.352   9.872
 5139W        W 8658   3.029   6.801   8.375
 5140W        W 8659   8.287   0.627   3.218
 5141W        W 8660   4.473   3.233   0.699
 5142W        W 8661   2.654   5.563  10.941
 5143W        W 8662   1.698   3.181  11.336
 5144W        W 8663   2.128   0.413  11.964
 5145W        W 8664   7.888   3.023   2.189
 5146W        W 8665   5.695   9.866   2.329
 5147W        W 8666   3.487   2.693   1.478
 5148W        W 8667   9.630   9.963   0.234
 5149W        W 8668   8.309   5.098   9.918
 5150W        W 8669   6.168   9.017  10.637
 5151W        W 8670   5.889   6.367  11.126
 5152W        W 8671   0.453   1.545   0.024
 5153W        W 8672   6.173   4.702  11.995
 5154W        W 8673   6.270   4.164   0.686
 5155W        W 8674   9.431   9.316   8.672
 5156W        W 8675   9.420   7.094  11.172
 5157W        W 8676   5.669   1.435   0.589
 5158W        W 8677   4.181   5.076   9.879
 5159W        W 8678   7.608   4.572   8.978
 5160W        W 8679   1.310   7.128   0.166
 5161W        W 8680   2.399   5.236   2.727
 5162W        W 8681   5.413   4.905  10.459
 5163W        W 8682   9.436   5.519   0.698
 5164W        W 8683   2.352   7.888   1.828
 5165W        W 8684   6.705   1.435   8.573
 5166W        W 8685   4.272   6.398   2.776
 5167W        W 8686   6.909   8.728  10.046
 5168W        W 8687   4.221   8.910   2.423
 5169W        W 8688   0.746   6.108  11.795
 5170W        W 8689   9.804   4.632  10.021
 5171W        W 8690   7.611   1.005   2.346
 5172W        W 8691   6.066   2.853   2.148
 5173W        W 8692   7.915   9.411  11.674
 5174W        W 8693   3.708   1.999   2.823
 5175W        W 8694   2.840   5.090  11.257
 5176W        W 8695   3.821   4.292   3.755
 5177W        W 8696   9.024   9.906   1.589
 5178W        W 8697   8.962   8.082  10.748
 5179W        W 8698   8.437   5.187   2.314
 5180W        W 8699   4.482   4.249   9.703
 5181W        W 8700   8.807   3.722   2.047
 5182W        W 8701   5.938   6.939  11.915
 5183W        W 8702   1.047   4.983   0.471
 5184W        W 8703   1.874   7.681  11.261
 5185W        W 8704   3.829   2.991   2.382
 5186W        W 8705   2.937   8.862   3.318
 5187W        W 8706   5.613   7.046   4.034
 5188W        W 8707   5.602   2.650   2.959
 5189W        W 8708   1.777   0.050   2.648
 5190W        W 8709   0.547   3.502   8.927
 5191W        W 8710   8.004   1.153   2.632
 5192W        W 8711   7.655   9.759  10.929
 5193W        W 8712   5.135   3.493   3.953
 5194W        W 8713   3.895   9.891   0.508
 5195W        W 8714   6.979   9.041   9.206
 5196W        W 8715   2.213   3.866   2.790
 5197W        W 8716   7.399   3.614   0.464
 5198W        W 8717   0.018   5.980   1.454
 5199W        W 8718   9.615   1.463   1.710
 5200W        W 8719   6.875   9.819   3.181
 5201W        W 8720   7.898   7.675   1.749
 5202W        W 8721   6.432   7.290  11.016
 5203W        W 8722   1.699   5.371   8.716
 5204W        W 8723   1.815   5.488   1.487
 5205W        W 8724   9.757   8.057   9.063
 5206W        W 8725   1.538   0.178   9.756
 5207W        W 8726   0.708   7.293   1.220
 5208W        W 8727   2.378   4.733   9.857
 5209W        W 8728   2.103   4.075   0.476
 5210W        W 8729   7.164   5.578   8.911
 5211W        W 8730   9.769   0.801  10.899
 5212W        W 8731   8.051   6.103  10.051
 5213W        W 8732   2.158   4.273  10.569
 5214W        W 8733   3.937   5.409  11.414
 5215W        W 8734   1.367   8.424   0.641
 5216W        W 8735   5.539   1.881  10.048
 5217W        W 8736   8.305   2.384  10.066
 5218W        W 8737   9.479   1.444   2.233
 5219W        W 8738   3.751   2.226   0.756
 5220W        W 8739   1.765   1.555   9.120
 5221W        W 8740   3.485   6.258   8.878
 5222W        W 8741   3.026   1.853   8.595
 5223W        W 8742   9.295   6.335  11.404
 5224W        W 8743   0.152   0.627   0.230
 5225W        W 8744   4.544   2.154   2.981
 5226W        W 8745   9.777   9.396   1.803
 5227W        W 8746   8.957   5.110  11.722
 5228W        W 8747   2.096   3.730   0.847
 5229W        W 8748   3.498   1.848  10.007
 5230W        W 8749   4.640   9.563   9.345
 5231W        W 8750   6.268   3.759   1.729
 5232W        W 8751   2.234   8.289   3.236
 5233W        W 8752   7.895   2.270   2.673
 5234W        W 8753   5.291   5.033   1.266
 5235W        W 8754   4.218   5.494   9.570
 5236W        W 8755   4.191   4.580  10.123
 5237W        W 8756   9.354   9.941   1.188
 5238W        W 8757   5.488   2.346   1.050
 5239W        W 8758   2.643   0.489  10.287
 5240W        W 8759   8.499   5.479  11.248
 5241W        W 8760   4.915   7.038  11.873
 5242W        W 8761   6.011   1.854   3.107
 5243W        W 8762   3.956   0.356   0.318
 5244W        W 8763   9.066   5.402   1.139
 5245W        W 8764   1.682   6.174  11.215
 5246W        W 8765   0.411   3.041  11.703
 5247W        W 8766   9.094   9.484   9.331
 5248W        W 8767   3.089   0.367   2.481
 5249W        W 8768   5.060   6.309   3.323
 5250W        W 8769   6.500   3.662   9.225
 5251W        W 8770   1.557   2.915   3.586
 5252W        W 8771   1.672   8.080  11.005
 5253W        W 8772   3.155   5.560  10.736
 5254W        W 8773   8.585   3.361   2.320
 5255W        W 8774   1.416   6.974   1.147
 5256W        W 8775   9.147   4.269   1.943
 5257W        W 8776   1.313   3.171   1.710
 5258W        W 8777   4.196   9.403   9.048
 5259W        W 8778   8.303   7.526   1.292
 5260W        W 8779   3.480   8.209   9.295
 5261W        W 8780   3.054   5.840   8.396
 5262W        W 8781   5.434   6.561   4.139
 5263W        W 8782   6.783   4.026  11.853
 5264W        W 8783   0.684   7.064   1.752
 5265W        W 8784   7.727   5.615   0.443
 5266W        W 8785   2.161   0.911   0.044
 5267W        W 8786   0.055   2.813  10.862
 5268W        W 8787   8.632   9.421   8.864
 5269W        W 8788   5.954   4.040   2.051
 5270W        W 8789   7.640   6.525   0.628
 5271W        W 8790   2.718   7.761   2.605
 5272W        W 8791   5.667   9.364   2.129
 5273W        W 8792   1.344   6.129  10.063
 5274W        W 8793   1.192   6.719  11.823
 5275W        W 8794   3.336   6.738   8.857
 5276W        W 8795   2.709   5.650   2.724
 5277W        W 8796   3.451   8.165   8.770
 5278W        W 8797   8.086   5.655  10.958
 5279W        W 8798   9.328   6.176   9.203
 5280W        W 8799   4.951   1.832   0.237
 5281W        W 8800   7.737   7.334   2.841
 5282W        W 8801   2.705   4.253  11.878
 5283W        W 8802   8.818   3.972   2.656
 5284W        W 8803   4.944   9.218  11.014
 5285W        W 8804   0.298   8.535   3.105
 5286W        W 8805   6.476   4.132   2.078
 5287W        W 8806   4.037   4.344  11.517
 5288W        W 8807   1.414   9.741   1.790
 5289W        W 8808   8.327   3.070   2.624
 5290W        W 8809   3.320   1.862   1.677
 5291W        W 8810   8.407   3.045   8.496
 5292W        W 8811   8.433   4.439   1.837
 5293W        W 8812   7.532   6.401   8.722
 5294W        W 8813   0.739   4.508   1.400
 5295W        W 8814   1.139   8.040  10.199
 5296W        W 8815   2.244   2.938  10.945
 5297W        W 8816   4.305   3.627  11.116
 5298W        W 8817   3.526   0.101   0.177
 5299W        W 8818   5.178   4.111  11.072
 5300W        W 8819   4.522   1.364  11.553
 5301W        W 8820   9.138   2.209   9.677
 5302W        W 8821   1.808   6.223   8.846
 5303W        W 8822   5.483   3.374   9.806
 5304W        W 8823   6.629   2.719  10.975
 5305W        W 8824   6.074   4.951   0.446
 5306W        W 8825   3.206   1.242   3.104
 5307W        W 8826   4.991   8.538   9.539
 5308W        W 8827   0.717   1.670  10.337
 5309W        W 8828   8.876   3.256   0.450
 5310W        W 8829   8.101   9.757   2.787
 5311W        W 8830   9.877   3.387  10.969
 5312W        W 8831   0.014   8.812   1.499
 5313W        W 8832   1.159   8.015  10.721
 5314W        W 8833   0.845   8.396  11.096
 5315W        W 8834   3.622   0.037   1.988
 5316W        W 8835   3.217   1.999  10.901
 5317W        W 8836   4.078   0.904   9.008
 5318W        W 8837   0.053   1.009  10.527
 5319W        W 8838   4.120   5.808  10.337
 5320W        W 8839   9.743   6.989   1.447
 5321W        W 8840   4.316   1.167   0.466
 5322W        W 8841   1.618   7.234  11.246
 5323W        W 8842   8.390   0.247   2.270
 5324W        W 8843   6.166   6.381   0.430
 5325W        W 8844   8.996   2.185   1.789
 5326W        W 8845   8.203   1.947  11.764
 5327W        W 8846   4.995   4.339  11.517
 5328W        W 8847   0.268   2.371   0.325
 5329W        W 8848   2.013   2.113   3.734
 5330W        W 8849   4.844   5.504   9.519
 5331W        W 8850   3.711   9.513   1.519
 5332W        W 8851   9.202   1.875  11.907
 5333W        W 8852   3.911   6.333   4.391
 5334W        W 8853   2.673   7.518   0.210
 5335W        W 8854   1.387   0.848  11.380
 5336W        W 8855   2.689   2.925  11.254
 5337W        W 8856   2.536   8.040   9.394
 5338W        W 8857   2.211   3.443  11.887
 5339W        W 8858   9.141   7.447   0.010
 5340W        W 8859   4.602   3.170  11.675
 5341W        W 8860   3.591   7.403   0.056
 5342W        W 8861   8.110   7.588  10.703
 5343W        W 8862   8.675   6.520  10.151
 5344W        W 8863   3.833   5.709   4.107
 5345W        W 8864   0.993   9.334   8.994
 5346W        W 8865   0.862   2.593  11.125
 5347W        W 8866   4.181   6.329  11.650
 5348W        W 8867   5.064   8.801   2.201
 5349W        W 8868   6.285   4.546   8.687
 5350W        W 8869   1.769   6.661  10.381
 5351W        W 8870   6.769   8.460   0.885
 5352W        W 8871   4.620   8.397  11.885
 5353W        W 8872   8.900   4.674   1.781
 5354W        W 8873   2.343   0.778   1.716
 5355W        W 8874   4.489   5.436   9.138
 5356W        W 8875   8.377   5.818   0.721
 5357W        W 8876   2.446   0.352  11.299
 5358W        W 8877   5.787   6.879   8.090
 5359W        W 8878   7.929   9.091   3.438
 5360W        W 8879   8.961   6.674  10.842
 5361W        W 8880   5.641   2.649  10.791
 5362W        W 8881   6.561   6.567  10.582
 5363W        W 8882   3.309   7.566  10.661
 5364W        W 8883   3.202   4.245   2.338
 5365W        W 8884   7.372   9.708   3.199
 5366W        W 8885   8.538   2.335  11.744
 5367W        W 8886   8.908   1.750   9.799
 5368W        W 8887   3.502   5.061   8.616
 5369W        W 8888   2.265   2.618   9.993
 5370W        W 8889   0.904   7.505   3.472
 5371W        W 8890   8.425   0.958   2.859
 5372W        W 8891   2.970   9.969   0.999
 5373W        W 8892   1.915   0.469   9.979
 5374W        W 8893   1.264   4.639   2.403
 5375W        W 8894   5.973   3.192  11.809
 5376W        W 8895   5.221   6.092   4.295
 5377W        W 8896   5.960   2.270   0.871
 5378W        W 8897   7.514   3.543   2.991
 5379W        W 8898   2.581   2.886   1.054
 5380W        W 8899   1.432   0.791   1.857
 5381W        W 8900   2.521   1.014   0.381
 5382W        W 8901   3.252   1.487   8.895
 5383W        W 8902   1.784   4.748   9.946
 5384W        W 8903   0.053   1.711  11.769
 5385W        W 8904   6.146   5.993  10.748
 5386W        W 8905   8.217   8.554  11.414
 5387W        W 8906   1.453   0.850  10.858
 5388W        W 8907   6.873   9.067   0.446
 5389W        W 8908   0.119   4.824  11.428
 5390W        W 8909   0.441   5.873  11.305
 5391W        W 8910   2.584   1.285   1.917
 5392W        W 8911   6.651   6.418  10.078
 5393W        W 8912   6.723   3.886   0.811
 5394W        W 8913   6.676   5.250   3.538
 5395W        W 8914   6.660   9.844  10.992
 5396W        W 8915   4.570   5.791   8.763
 5397W        W 8916   2.254   5.628   2.417
 5398W        W 8917   7.026   0.718   9.514
 5399W        W 8918   0.320   3.297   2.646
 5400W        W 8919   6.527   2.247   8.707
 5401W        W 8920   6.950   6.231   0.973
 5402W        W 8921   6.168   1.868  10.282
 5403W        W 8922   9.336   9.243   0.012
 5404W        W 8923   6.793   5.907  10.213
 5405W        W 8924   2.188   4.276  10.037
 5406W        W 8925   6.682   5.805   0.827
 5407W        W 8926   8.912   5.991  11.459
 5408W        W 8927   6.584   8.026   3.027
 5409W        W 8928   6.488   0.658   1.278
 5410W        W 8929   2.963   3.250  10.960
 5411W        W 8930   2.321   9.257  10.899
 5412W        W 8931   1.275   6.214   0.627
 5413W        W 8932   7.715   2.668   3.390
 5414W        W 8933   1.673   3.210   2.491
 5415W        W 8934   1.733   1.219   2.217
 5416W        W 8935   5.574   4.450   1.108
 5417W        W 8936   2.048   6.437  11.929
 5418W        W 8937   0.879   8.867   9.184
 5419W        W 8938   8.042   5.593   9.927
 5420W        W 8939   6.938   8.253   8.571
 5421W        W 8940   5.337   1.037  11.556
 5422W        W 8941   5.050   1.714   9.971
 5423W        W 8942   9.400   1.422   2.764
 5424W        W 8943   5.971   0.505  10.394
 5425W        W 8944   8.457   9.720   2.390
 5426W        W 8945   1.234   2.619   3.340
 5427W        W 8946   9.451   6.512  10.823
 5428W        W 8947   6.058   7.955  11.219
 5429W        W 8948   2.253   7.887   2.831
 5430W        W 8949   1.279   1.314   9.137
 5431W        W 8950   5.283   1.961   9.574
 5432W        W 8951   5.723   8.084   9.402
 5433W        W 8952   6.471   2.063   3.082
 5434W        W 8953   1.161   8.947   2.587
 5435W        W 8954   3.582   5.090   3.372
 5436W        W 8955   2.665   6.403   2.663
 5437W        W 8956   9.024   4.173   9.582
 5438W        W 8957   3.366   4.694  10.204
 5439W        W 8958   2.638   9.205   2.342
 5440W        W 8959   2.254   2.168   9.594
 5441W        W 8960   2.713   7.416   0.697
 5442W        W 8961   0.207   1.722   8.895
 5443W        W 8962   5.405   1.452   2.664
 5444W        W 8963   9.202   1.820   1.024
 5445W        W 8964   5.450   1.816   0.305
 5446W        W 8965   6.152   2.321  10.527
 5447W        W 8966   1.513   8.299   9.236
 5448W        W 8967   9.182   6.645   0.678
 5449W        W 8968   0.042   4.781   8.768
 5450W        W 8969   1.870   4.662   9.100
 5451W        W 8970   9.449   2.225   0.261
 5452W        W 8971   0.588   4.657  11.393
 5453W        W 8972   7.768   9.228   1.323
 5454W        W 8973   6.523   1.308  11.008
 5455W        W 8974   0.119   2.866   9.609
 5456W        W 8975   4.653   6.395   8.127
 5457W        W 8976   2.859   6.809  10.187
 5458W        W 8977   3.207   8.748   0.467
 5459W        W 8978   3.589   7.124   2.067
 5460W        W 8979   7.982   4.168   9.698
 5461W        W 8980   2.128   8.327   1.688
 5462W        W 8981   9.473   4.737   3.567
 5463W        W 8982   0.007   3.240   9.928
 5464W        W 8983   2.680   7.161   1.137
 5465W        W 8984   0.041   4.284   0.132
 5466W        W 8985   4.346   5.434  11.734
 5467W        W 8986   8.913   4.620  11.532
 5468W        W 8987   9.636   6.600   3.266
 5469W        W 8988   4.665   3.391   2.401
 5470W        W 8989   2.349   2.826   1.752
 5471W        W 8990   1.903   9.165   0.571
 5472W        W 8991   9.093   1.722  11.424
 5473W        W 8992   5.493   5.968   0.863
 5474W        W 8993   9.838   2.521   0.694
 5475W        W 8994   9.747   5.710   8.593
 5476W        W 8995   9.963   1.074   1.791
 5477W        W 8996   0.346   1.404  10.559
 5478W        W 8997   7.660   7.552  11.669
 5479W        W 8998   2.649   8.506   1.498
 5480W        W 8999   3.995   1.366   2.107
 5481W        W 9000   6.073   8.066  10.210
 5482W        W 9001   1.191   5.121   2.163
 5483W        W 9002   7.105   1.519   9.762
 5484W        W 9003   9.945   4.264   0.829
 5485W        W 9004   1.181   4.024  10.036
 5486W        W 9005   9.880   2.271   2.673
 5487W        W 9006   5.302   5.203   9.665
 5488W        W 9007   6.091   7.936   1.468
 5489W        W 9008   8.128   5.924   0.278
 5490W        W 9009   8.965   0.911   2.058
 5491W        W 9010   4.147   8.851   9.796
 5492W        W 9011   9.521   8.348   3.627
 5493W        W 9012   9.810   1.304  11.985
 5494W        W 9013   2.054   6.482   0.890
 5495W        W 9014   5.606   4.452   8.948
 5496W        W 9015   5.123   0.174  10.048
 5497W        W 9016   9.472   3.621   2.137
 5498W        W 9017   0.909   5.610   1.745
 5499W        W 9018   9.056   7.480   3.109
 5500W        W 9019   5.741   1.820  11.256
 5501W        W 9020   0.767   2.421   1.519
 5502W        W 9021   6.166   5.727   9.581
 5503W        W 9022   5.959   1.485   8.959
 5504W        W 9023   9.865   0.821   2.774
 5505W        W 9024   6.403   3.938   8.803
 5506W        W 9025   9.307   4.366   3.906
 5507W        W 9026   8.897   7.981   9.207
 5508W        W 9027   7.089   0.962   0.275
 5509W        W 9028   3.780   9.469   3.160
 5510W        W 9029   9.936   8.165   8.587
 5511W        W 9030   1.077   7.450   2.494
 5512W        W 9031   5.156   1.905   3.325
 5513W        W 9032   8.457   7.037   3.484
 5514W        W 9033   3.139   4.390  11.551
 5515W        W 9034   4.508   3.831   0.206
 5516W        W 9035   7.460   1.313   1.958
 5517W        W 9036   0.349   5.217   8.816
 5518W        W 9037   7.401   5.700  11.994
 5519W        W 9038   9.015   0.434  11.015
 5520W        W 9039   9.019   5.825   1.452
 5521W        W 9040   3.479   1.931   0.410
 5522W        W 9041   8.353   7.093   0.546
 5523W        W 9042   4.155   7.941  10.451
 5524W        W 9043   0.037   2.191   9.937
 5525W        W 9044   8.163   0.568  10.870
 5526W        W 9045   5.240   8.738   0.734
 5527W        W 9046   7.103   1.649   0.746
 5528W        W 9047   7.866   1.129   1.684
 5529W        W 9048   6.394   4.651  10.363
 5530W        W 9049   6.916   6.311   9.311
 5531W        W 9050   0.185   7.325  10.652
 5532W        W 9051   4.155   7.296   1.466
 5533W        W 9052   9.676   2.875  10.555
 5534W        W 9053   9.792   5.217   3.705
 5535W        W 9054   9.492   5.201  10.915
 5536W        W 9055   5.294   4.478  11.912
 5537W        W 9056   8.372   9.811  11.663
 5538W        W 9057   5.249   9.763   0.826
 5539W        W 9058   0.402   9.926   8.976
 5540W        W 9059   3.754   9.747   8.457
 5541W        W 9060   6.705   4.262   8.550
 5542W        W 9061   1.505   9.382   8.766
 5543W        W 9062   6.046   5.171  11.796
 5544W        W 9063   7.745   1.586  11.169
 5545W        W 9064   7.564   5.370   9.709
 5546W        W 9065   3.466   2.523  11.434
 5547W        W 9066   7.818   8.453   1.237
 5548W        W 9067   6.192   4.176   2.513
 5549W        W 9068   4.110   7.009   1.920
 5550W        W 9069   9.347   3.880   9.821
 5551W        W 9070   5.341   0.302  10.881
 5552W        W 9071   6.643   4.630   2.223
 5553W        W 9072   6.036   8.586   2.542
 5554W        W 9073   2.389   5.748   0.456
 5555W        W 9074   5.790   4.316  11.907
 5556W        W 9075   4.189   0.845  10.071
 5557W        W 9076   3.600   4.617   2.931
 5558W        W 9077   7.284   0.846   9.012
 5559W        W 9078   5.319   8.946   9.585
 5560W        W 9079   1.334   9.876   2.893
 5561W        W 9080   0.120   4.538   9.642
 5562W        W 9081   3.485   6.578   8.405
 5563W        W 9082   2.230   5.179  10.040
 5564W        W 9083   4.340   6.096   1.287
 5565W        W 9084   3.228   7.875   1.410
 5566W        W 9085   6.456   6.287   1.883
 5567W        W 9086   2.441   4.883   0.978
 5568W        W 9087   8.802   5.389   1.603
 5569W        W 9088   7.152   9.731   1.123
 5570W        W 9089   2.380   2.302  10.589
 5571W        W 9090   7.493   8.627   9.038
 5572W        W 9091   2.910   3.144  11.923
 5573W        W 9092   4.395   4.847   0.830
 5574W        W 9093   6.460   0.387  11.762
 5575W        W 9094   3.927   8.499   1.100
 5576W        W 9095   2.432   5.390   3.637
 5577W        W 9096   6.516   8.954   1.969
 5578W        W 9097   1.028   1.170   3.515
 5579W        W 9098   8.698   2.818  10.546
 5580W        W 9099   3.664   4.916   1.251
 5581W        W 9100   7.339   5.198  10.901
 5582W        W 9101   7.425   3.512  11.430
 5583W        W 9102   2.234   3.314   1.806
 5584W        W 9103   3.185   3.707   1.611
 5585W        W 9104   4.371   1.115  11.954
 5586W        W 9105   7.124   7.292  10.429
 5587W        W 9106   0.885   3.468  10.147
 5588W        W 9107   8.017   7.267   3.293
 5589W        W 9108   0.828   2.012   2.954
 5590W        W 9109   4.048   9.390   0.086
 5591W        W 9110   7.675   6.426   9.879
 5592W        W 9111   8.200   5.146  10.990
 5593W        W 9112   4.479   5.362   0.755
 5594W        W 9113   7.914   2.083   9.935
 5595W        W 9114   3.242   5.440   1.898
 5596W        W 9115   4.216   0.491   3.238
 5597W        W 9116   7.685   2.153   3.537
 5598W        W 9117   8.026   0.211   3.046
 5599W        W 9118   7.311   0.298   9.693
 5600W        W 9119   8.864   3.486   1.560
 5601W        W 9120   8.412   1.230   9.059
 5602W        W 9121   4.793   5.755   0.567
 5603W        W 9122   5.748   3.710   1.696
 5604W        W 9123   9.425   3.324  10.613
 5605W        W 9124   6.464   2.547   9.134
 5606W        W 9125   1.436   7.639  10.955
 5607W        W 9126   4.810   4.852  11.125
 5608W        W 9127   4.277   9.026  11.825
 5609W        W 9128   9.432   2.819   2.015
 5610W        W 9129   5.491   5.401   1.554
 5611W        W 9130   2.750   5.699   0.908
 5612W        W 9131   1.137   2.788   9.475
 5613W        W 9132   4.616   4.994  11.577
 5614W        W 9133   5.545   9.319   2.625
 5615W        W 9134   9.016   8.656   9.917
 5616W        W 9135   3.719   1.762  11.923
 5617W        W 9136   7.011   3.888   1.255
 5618W        W 9137   4.700   8.563   3.165
 5619W        W 9138   6.603   1.147   1.300
 5620W        W 9139   5.313   8.373   9.163
 5621W        W 9140   6.084   2.833   9.276
 5622W        W 9141   9.293   6.711   9.255
 5623W        W 9142   3.073   8.435   2.084
 5624W        W 9143   7.067   1.804   2.322
 5625W        W 9144   5.681   7.035  11.481
 5626W        W 9145   5.873   8.646   1.912
 5627W        W 9146   7.607   8.880   0.958
 5628W        W 9147   6.067   8.431   3.532
 5629W        W 9148   5.917   8.478   9.941
 5630W        W 9149   1.750   3.557   9.078
 5631W        W 9150   9.080   1.759   3.075
 5632W        W 9151   1.045   1.929   3.865
 5633W        W 9152   9.039   0.821  11.373
 5634W        W 9153   0.991   3.777  11.801
 5635W        W 9154   7.283   0.365  10.628
 5636W        W 9155   2.323   8.776   1.770
 5637W        W 9156   5.811   6.106   8.692
 5638W        W 9157   1.150   9.801   2.284
 5639W        W 9158   7.304   8.147   8.951
 5640W        W 9159   4.236   7.454   8.659
 5641W        W 9160   9.052   8.953   1.444
 5642W        W 9161   0.283   5.157   1.151
 5643W        W 9162   0.523   9.806  10.077
 5644W        W 9163   5.209   3.541  11.064
 5645W        W 9164   0.862   4.338   2.672
 5646W        W 9165   1.907   2.158  10.445
 5647W        W 9166   7.089   5.126   9.817
 5648W        W 9167   1.422   6.928   3.092
 5649W        W 9168   2.964   4.615   3.758
 5650W        W 9169   5.976   3.657  10.410
 5651W        W 9170   7.379   4.750  10.655
 5652W        W 9171   7.936   3.070  10.787
 5653W        W 9172   1.289   0.885   8.557
 5654W        W 9173   6.726   8.821   9.583
 5655W        W 9174   6.708   7.725  11.844
 5656W        W 9175   3.784   2.403   3.184
 5657W        W 9176   4.086   0.331  10.172
 5658W        W 9177   2.157   2.367   1.830
 5659W        W 9178   1.739   2.256   9.412
 5660W        W 9179   4.914   5.797   3.412
 5661W        W 9180   3.046   0.859   2.240
 5662W        W 9181   6.957   9.089  10.983
 5663W        W 9182   4.916   2.887   1.352
 5664W        W 9183   1.920   6.713   3.882
 5665W        W 9184   3.354   2.542   9.206
 5666W        W 9185   5.026   9.538   0.413
 5667W        W 9186   1.350   1.745   9.807
 5668W        W 9187   4.463   4.951   9.020
 5669W        W 9188   1.625   9.961  11.403
 5670W        W 9189   0.546   4.245   0.267
 5671W        W 9190   7.280   9.321   1.394
 5672W        W 9191   9.783   2.658   9.273
 5673W        W 9192   0.848   5.869   1.309
 5674W        W 9193   1.470   9.435   0.509
 5675W        W 9194   0.137   6.406   0.806
 5676W        W 9195   9.382   8.310   3.008
 5677W        W 9196   3.796   2.879   2.922
 5678W        W 9197   1.084   6.487   1.026
 5679W        W 9198   9.362   8.258   8.770
 5680W        W 9199   3.740   2.804   1.901
 5681W        W 9200   5.444   4.157   0.288
 5682W        W 9201   7.887   8.297   8.939
 5683W        W 9202   9.433   6.678   9.746
 5684W        W 9203   1.738   1.690  10.642
 5685W        W 9204   2.914   4.758   1.127
 5686W        W 9205   0.765   7.568   1.688
 5687W        W 9206   9.553   4.447   2.366
 5688W        W 9207   3.842   4.648   3.375
 5689W        W 9208   8.076   3.718   0.445
 5690W        W 9209   5.182   7.788   0.520
 5691W        W 9210   5.171   7.797   4.410
 5692W        W 9211   5.254   3.837  10.647
 5693W        W 9212   6.228   7.306   2.157
 5694W        W 9213   7.760   0.397   1.532
 5695W        W 9214   0.848   6.126   2.433
 5696W        W 9215   6.834   4.429   0.844
 5697W        W 9216   3.381   4.554   1.516
 5698W        W 9217   9.445   0.170   1.748
 5699W        W 9218   2.679   5.993   9.692
 5700W        W 9219   2.768   4.680   3.296
 5701W        W 9220   9.690   8.879  10.806
 5702W        W 9221   0.924   5.849   9.995
 5703W        W 9222   5.168   5.661  10.668
 5704W        W 9223   5.276   5.692   9.808
 5705W        W 9224   6.727   5.734   0.340
 5706W        W 9225   1.540   4.820  10.460
 5707W        W 9226   6.933   2.601   1.860
 5708W        W 9227   1.085   9.627   1.404
 5709W        W 9228   7.533   0.486   2.382
 5710W        W 9229   1.743   8.555  11.261
 5711W        W 9230   1.396   9.500  11.384
 5712W        W 9231   7.831   0.535   9.037
 5713W        W 9232   1.832   9.585   0.873
 5714W        W 9233   6.047   5.314   2.365
 5715W        W 9234   1.957   0.912   8.480
 5716W        W 9235   1.728   1.737  11.588
 5717W        W 9236   4.271   9.501   3.272
 5718W        W 9237   2.484   1.247  10.474
 5719W        W 9238   3.204   5.166   1.201
 5720W        W 9239   5.959   9.029   2.750
 5721W        W 9240   6.630   6.209   1.395
 5722W        W 9241   1.926   3.075  10.437
 5723W        W 9242   2.259   9.005   9.319
 5724W        W 9243   5.071   9.369   9.100
 5725W        W 9244   6.166   9.843   9.989
 5726W        W 9245   7.067   6.109   2.799
 5727W        W 9246   2.872   4.574   1.619
 5728W        W 9247   5.990   5.053  11.202
 5729W        W 9248   3.215   2.917   1.894
 5730W        W 9249   0.442   6.918   8.732
 5731W        W 9250   7.144   3.986   0.203
 5732W        W 9251   5.113   6.161  11.560
 5733W        W 9252   7.129   8.504   9.425
 5734W        W 9253   9.784   9.827   9.756
 5735W        W 9254   7.541   6.323  11.297
 5736W        W 9255   1.968   0.500   3.238
 5737W        W 9256   8.774   7.596  10.714
 5738W        W 9257   3.264   6.310   0.161
 5739W        W 9258   1.282   6.038   9.132
 5740W        W 9259   5.516   9.383  11.189
 5741W        W 9260   1.557   1.358   9.562
 5742W        W 9261   0.492   6.408   8.576
 5743W        W 9262   9.522   4.002   1.039
 5744W        W 9263   3.295   6.877   1.677
 5745W        W 9264   5.095   3.220   3.030
 5746W        W 9265   5.021   0.472  10.489
 5747W        W 9266   8.414   2.567   3.412
 5748W        W 9267   3.196   6.390  11.274
 5749W        W 9268   3.154   6.051   3.334
 5750W        W 9269   4.942   3.257   9.024
 5751W        W 9270   3.637   4.024   9.603
 5752W        W 9271   7.944   1.010  11.066
 5753W        W 9272   6.976   9.472   8.850
 5754W        W 9273   6.487   0.824   9.596
 5755W        W 9274   8.894   0.801   9.961
 5756W        W 9275   6.170   7.232   9.551
 5757W        W 9276   6.225   1.500   1.349
 5758W        W 9277   8.488   3.988   0.184
 5759W        W 9278   3.523   8.029  10.774
 5760W        W 9279   3.177   6.927   3.074
 5761W        W 9280   1.056   4.001   3.445
 5762W        W 9281   1.744   4.155   2.977
 5763W        W 9282   2.719   5.497  10.429
 5764W        W 9283   1.349   7.818   1.759
 5765W        W 9284   4.652   2.254   0.134
 5766W        W 9285   7.512   1.417   0.970
 5767W        W 9286   3.585   8.356   2.236
 5768W        W 9287   5.357   0.235   2.194
 5769W        W 9288   2.755   8.253   2.494
 5770W        W 9289   7.689   6.989   8.587
 5771W        W 9290   6.792   2.213   3.445
 5772W        W 9291   1.268   8.476  11.461
 5773W        W 9292   2.572   7.614   1.407
 5774W        W 9293   2.739   8.818  10.956
 5775W        W 9294   9.600   5.852   2.109
 5776W        W 9295   5.901   1.418   2.828
 5777W        W 9296   5.888   8.409   1.453
 5778W        W 9297   0.471   6.778   1.330
 5779W        W 9298   3.917   0.187   9.532
 5780W        W 9299   4.289   6.194   2.269
 5781W        W 9300   9.964   6.396   0.236
 5782W        W 9301   4.682   8.217   9.973
 5783W        W 9302   9.021   9.440  11.044
 5784W        W 9303   2.337   3.646   9.897
 5785W        W 9304   3.355   5.566   3.288
 5786W        W 9305   4.717   8.099   9.484
 5787W        W 9306   6.809   5.154   1.285
 5788W        W 9307   4.299   5.965   9.866
 5789W        W 9308   8.362   5.323  11.754
 5790W        W 9309   5.740   8.878  11.549
 5791W        W 9310   2.770   0.956  10.108
 5792W        W 9311   9.140   6.493   8.814
 5793W        W 9312   6.691   6.241   0.405
 5794W        W 9313   6.374   1.646   3.414
 5795W        W 9314   4.209   4.780   0.356
 5796W        W 9315   7.045   8.835   3.270
 5797W        W 9316   6.466   6.063   9.325
 5798W        W 9317   4.892   2.638   3.680
 5799W        W 9318   6.627   8.048   1.493
 5800W        W 9319   0.175   4.663  10.956
 5801W        W 9320   0.297   4.180  10.019
 5802W        W 9321   4.580   1.404  11.038
 5803W        W 9322   3.556   8.569  11.512
 5804W        W 9323   5.602   2.423  11.920
 5805W        W 9324   5.660   6.498   8.995
 5806W        W 9325   5.519   3.904   1.141
 5807W        W 9326   4.837   4.114   2.828
 5808W        W 9327   0.925   0.157   0.467
 5809W        W 9328   4.539   5.974   2.726
 5810W        W 9329   4.500   3.575   1.183
 5811W        W 9330   0.922   9.473  10.061
 5812W        W 9331   9.338   9.710   2.667
 5813W        W 9332   1.432   0.672   9.898
 5814W        W 9333   3.202   9.971  10.271
 5815W        W 9334   9.462   8.440  11.269
 5816W        W 9335   7.052   3.305  10.771
 5817W        W 9336   9.863   6.139   3.394
 5818W        W 9337   8.355   1.638   2.114
 5819W        W 9338   4.215   1.548   0.142
 5820W        W 9339   3.717   7.553   8.815
 5821W        W 9340   1.268   1.662  10.316
 5822W        W 9341   9.232   4.013   2.364
 5823W        W 9342   7.276   5.286   1.177
 5824W        W 9343   5.350   2.645   3.892
 5825W        W 9344   7.143   6.740  11.906
 5826W        W 9345   2.634   9.896   9.471
 5827W        W 9346   4.655   2.598   2.798
 5828W        W 9347   6.965   3.143  11.757
 5829W        W 9348   1.833   3.760   1.286
 5830W        W 9349   0.821   6.245   3.004
 5831W        W 9350   4.116   9.066   1.964
 5832W        W 9351   6.305   9.964   9.142
 5833W        W 9352   9.742   3.767   9.464
 5834W        W 9353   2.565   8.357   1.996
 5835W        W 9354   3.977   8.970  10.241
 5836W        W 9355   4.161   6.908   2.781
 5837W        W 9356   3.116   4.165  11.079
 5838W        W 9357   0.464   3.197   1.618
 5839W        W 9358   1.833   8.226   3.892
 5840W        W 9359   1.010   2.942  10.060
 5841W        W 9360   7.056   3.181  11.253
 5842W        W 9361   0.871   5.979   0.352
 5843W        W 9362   3.144   3.822   0.403
 5844W        W 9363   0.946   1.094  11.265
 5845W        W 9364   0.894   7.023  10.835
 5846W        W 9365   6.724   7.017  11.346
 5847W        W 9366   6.545   3.330  11.447
 5848W        W 9367   3.418   2.593   2.239
 5849W        W 9368   9.024   4.424   3.031
 5850W        W 9369   8.436   7.428  11.074
 5851W        W 9370   8.248   8.859  10.968
 5852W        W 9371   0.187   8.911  10.800
 5853W        W 9372   4.758   3.482  11.298
 5854W        W 9373   3.734   7.164   9.886
 5855W        W 9374   3.773   5.893  11.274
 5856W        W 9375   5.696   5.980  11.595
 5857W        W 9376   1.233   8.833  11.840
 5858W        W 9377   1.262   1.899  11.511
 5859W        W 9378   2.858   7.254   9.847
 5860W        W 9379   4.821   4.363   3.685
 5861W        W 9380   6.018   9.494   2.486
 5862W        W 9381   8.966   4.098  11.563
 5863W        W 9382   3.426   2.712   9.784
 5864W        W 9383   7.888   3.618   3.310
 5865W        W 9384   0.914   7.730   9.639
 5866W        W 9385   4.723   1.959  10.340
 5867W        W 9386   8.720   6.715   2.840
 5868W        W 9387   3.105   0.602   1.407
 5869W        W 9388   4.611   2.863   9.936
 5870W        W 9389   5.089   0.693  10.007
 5871W        W 9390   7.414   6.788  11.107
 5872W        W 9391   4.431   8.204   1.901
 5873W        W 9392   9.877   6.667  11.782
 5874W        W 9393   1.345   1.715   8.801
 5875W        W 9394   4.336   6.550   8.649
 5876W        W 9395   9.043   3.916   3.612
 5877W        W 9396   2.807   2.619   1.835
 5878W        W 9397   0.866   2.522   3.019
 5879W        W 9398   6.032   3.265   2.944
 5880W        W 9399   6.892   6.853   8.910
 5881W        W 9400   9.857   5.955   9.457
 5882W        W 9401   7.437   8.000  10.008
 5883W        W 9402   9.898   2.038   3.764
 5884W        W 9403   0.294   7.435  10.152
 5885W        W 9404   4.622   6.207  11.348
 5886W        W 9405   4.102   3.575   0.845
 5887W        W 9406   3.075   0.418  10.639
 5888W        W 9407   6.786   1.220   9.459
 5889W        W 9408   5.342   2.323   3.518
 5890W        W 9409   5.648   4.790   0.136
 5891W        W 9410   1.837   9.989  10.162
 5892W        W 9411   5.073   4.570   2.556
 5893W        W 9412   7.316   2.674   9.076
 5894W        W 9413   2.882   0.409   2.979
 5895W        W 9414   0.218   8.996   2.347
 5896W        W 9415   7.939   6.909   1.272
 5897W        W 9416   0.819   1.404   2.228
 5898W        W 9417   0.930   8.416  11.840
 5899W        W 9418   7.292   1.185  11.503
 5900W        W 9419   9.144   6.561  10.374
 5901W        W 9420   2.643   9.716   2.297
 5902W        W 9421   2.720   3.115   1.974
 5903W        W 9422   7.161   5.661   9.884
 5904W        W 9423   3.883   4.723   0.810
 5905W        W 9424   2.410   0.612   9.808
 5906W        W 9425   0.408   0.847   9.344
 5907W        W 9426   0.898   1.243   1.299
 5908W        W 9427   3.963   9.535   9.498
 5909W        W 9428   7.525   8.170   0.266
 5910W        W 9429   2.358   5.134  11.060
 5911W        W 9430   0.161   0.663   8.139
 5912W        W 9431   9.859   2.712  10.065
 5913W        W 9432   6.468   5.474   1.719
 5914W        W 9433   5.014   1.550   9.441
 5915W        W 9434   1.333   0.449   0.578
 5916W        W 9435   9.984   1.595   9.348
 5917W        W 9436   0.587   6.548   9.060
 5918W        W 9437   5.114   4.841  11.589
 5919W        W 9438   7.187   4.868   1.474
 5920W        W 9439   6.524   8.583   8.630
 5921W        W 9440   8.151   2.365   9.565
 5922W        W 9441   1.633   7.154  10.383
 5923W        W 9442   6.283   9.445   2.030
 5924W        W 9443   3.095   8.951   8.710
 5925W        W 9444   5.565   8.042   1.313
 5926W        W 9445   5.744   4.121   0.719
 5927W        W 9446   2.800   9.530   2.761
 5928W        W 9447   1.261   5.958   1.594
 5929W        W 9448   1.843   3.304   0.969
 5930W        W 9449   8.564   6.263   2.949
 5931W        W 9450   3.439   5.296   9.992
 5932W        W 9451   8.847   6.126   9.012
 5933W        W 9452   8.083   4.560   9.193
 5934W        W 9453   8.855   2.775   0.227
 5935W        W 9454   6.267   2.140   3.544
 5936W        W 9455   0.519   5.207  10.072
 5937W        W 9456   3.498   8.659   8.570
 5938W        W 9457   5.529   5.319   2.116
 5939W        W 9458   1.684   4.234   3.505
 5940W        W 9459   9.573   6.993   0.751
 5941W        W 9460   1.351   9.451   1.011
 5942W        W 9461   7.674   5.602   0.955
 5943W        W 9462   0.920   3.311   1.391
 5944W        W 9463   9.187   9.637   3.416
 5945W        W 9464   1.203   6.958   2.631
 5946W        W 9465   3.015   4.222   3.363
 5947W        W 9466   3.537   2.944   8.817
 5948W        W 9467   5.287   1.255   1.388
 5949W        W 9468   4.470   0.226   0.358
 5950W        W 9469   2.239   5.631   3.010
 5951W        W 9470   8.938   8.308   3.261
 5952W        W 9471   6.226   9.087  11.678
 5953W        W 9472   7.163   8.654   1.887
 5954W        W 9473   1.405   4.697   1.922
 5955W        W 9474   3.208   7.074  11.892
 5956W        W 9475   5.920   2.253  10.035
 5957W        W 9476   3.055   7.400   1.389
 5958W        W 9477   1.840   6.599   0.455
 5959W        W 9478   4.209   2.154   3.370
 5960W        W 9479   1.071   0.773   1.449
 5961W        W 9480   8.290   0.655  11.991
 5962W        W 9481   4.027   5.069  11.909
 5963W        W 9482   2.656   5.565   9.422
 5964W        W 9483   4.724   4.416   0.734
 5965W        W 9484   5.717   6.259   1.599
 5966W        W 9485   7.497   0.961   2.841
 5967W        W 9486   1.634   7.364   8.761
 5968W        W 9487   1.894   9.106  11.292
 5969W        W 9488   8.481   8.012   0.579
 5970W        W 9489   3.688   6.200   3.426
 5971W        W 9490   6.709   2.838   0.596
 5972W        W 9491   5.674   2.660   2.400
 5973W        W 9492   4.389   2.758   9.083
 5974W        W 9493   6.580   8.424   3.422
 5975W        W 9494   4.120   6.636   0.074
 5976W        W 9495   3.315   5.730   8.819
 5977W        W 9496   2.626   1.807   9.626
 5978W        W 9497   0.361   2.234   2.859
 5979W        W 9498   5.146   1.905   9.056
 5980W        W 9499   1.862   7.605  10.299
 5981W        W 9500   9.976   1.491   2.109
 5982W        W 9501   3.340   9.908   8.779
 5983W        W 9502   5.879   4.161   9.560
 5984W        W 9503   2.108   6.343   3.531
 5985W        W 9504   5.320   1.513   1.873
 5986W        W 9505   4.605   1.770  11.869
 5987W        W 9506   8.583   0.880   9.398
 5988W        W 9507   0.620   9.138  11.022
 5989W        W 9508   2.737   2.166  10.961
 5990W        W 9509   9.156   4.835  10.720
 5991W        W 9510   4.994   7.852  10.729
 5992W        W 9511   9.386   5.553  10.521
 5993W        W 9512   0.710   3.097  10.455
 5994W        W 9513   5.566   1.665   9.231
 5995W        W 9514   3.225   8.649  11.123
 5996W        W 9515   1.500   4.948  10.953
 5997W        W 9516   9.720   6.141  11.829
 5998W        W 9517   4.847   7.132   3.646
 5999W        W 9518   7.965   0.442   3.558
 6000W        W 9519   3.348   4.380  10.661
 6001W        W 9520   4.508   3.103   8.734
 6002W        W 9521   6.421   9.499  11.949
 6003W        W 9522   2.718   2.294   9.830
 6004W        W 9523   3.113   7.552   2.366
 6005W        W 9524   5.125   8.540  11.800
 6006W        W 9525   9.794   8.864  11.303
 6007W        W 9526   7.628   3.990  11.328
 6008W        W 9527   4.483   4.154  10.230
 6009W        W 9528   7.010   8.256   9.883
 6010W        W 9529   9.783   3.462   1.079
 6011W        W 9530   3.731   9.787   2.775
 6012W        W 9531   8.866   3.837  10.465
 6013W        W 9532   9.948   4.859   3.388
 6014W        W 9533   4.915   9.058   3.099
 6015W        W 9534   8.977   0.338  11.529
 6016W        W 9535   2.724   2.901   9.936
 6017W        W 9536   9.084   3.026  10.893
 6018W        W 9537   9.331   2.306   2.692
 6019W        W 9538   1.463   1.033   3.759
 6020W        W 9539   0.358   8.850   1.891
 6021W        W 9540   9.308   2.306   2.189
 6022W        W 9541   3.658   0.680   8.745
 6023W        W 9542   0.428   2.654   8.738
 6024W        W 9543   8.761   0.679   1.180
 6025W        W 9544   6.165   7.107   1.694
 6026W        W 9545   6.466   2.849   1.840
 6027W        W 9546   8.293   0.503   9.586
 6028W        W 9547   7.173   9.985   0.381
 6029W        W 9548   4.938   2.271  11.296
 6030W        W 9549   4.093   5.308  10.428
 6031W        W 9550   5.377   8.240   3.609
 6032W        W 9551   8.019   6.101   2.547
 6033W        W 9552   9.758   6.653   1.845
 6034W        W 9553   7.811   8.612  10.800
 6035W        W 9554   5.662   6.254   0.448
 6036W        W 9555   5.009   1.690  10.910
 6037W        W 9556   7.117   2.839   2.378
 6038W        W 9557   9.777   4.380  11.221
 6039W        W 9558   7.962   5.771   3.469
 6040W        W 9559   6.744   6.476   2.249
 6041W        W 9560   2.624   8.210   9.871
 6042W        W 9561   4.435   5.588   1.438
 6043W        W 9562   4.342   6.487   3.973
 6044W        W 9563   3.782   1.601  10.384
 6045W        W 9564   3.056   7.157   2.041
 6046W        W 9565   2.533   7.847   8.923
 6047W        W 9566   4.695   8.522   0.801
 6048W        W 9567   2.945   1.580   0.946
 6049W        W 9568   4.049   3.231   0.405
 6050W        W 9569   3.544   2.309   1.825
 6051W        W 9570   0.292   8.612   1.051
 6052W        W 9571   1.202   8.000   0.293
 6053W        W 9572   4.525   4.498  11.428
 6054W        W 9573   2.082   2.856   0.892
 6055W        W 9574   0.034   5.899   2.957
 6056W        W 9575   0.898   4.485  10.408
 6057W        W 9576   4.949   4.207   9.488
 6058W        W 9577   3.276   8.859   1.772
 6059W        W 9578   0.368   8.135   1.206
 6060W        W 9579   2.168   5.885   1.480
 6061W        W 9580   0.939   1.583   9.431
 6062W        W 9581   1.416   2.180   8.581
 6063W        W 9582   4.420   8.755   9.300
 6064W        W 9583   5.569   3.035   3.661
 6065W        W 9584   0.825   8.727   9.662
 6066W        W 9585   0.802   8.240   9.800
 6067W        W 9586   8.804   9.048  11.689
 6068W        W 9587   0.376   3.631   3.072
 6069W        W 9588   4.793   3.900   3.919
 6070W        W 9589   5.778   2.808   8.440
 6071W        W 9590   0.525   9.825   0.463
 6072W        W 9591   2.448   1.697   1.631
 6073W        W 9592   6.531   5.598   8.737
 6074W        W 9593   0.028   4.384   2.183
 6075W        W 9594   0.321   8.098   9.733
 6076W        W 9595   6.922   3.092   1.967
 6077W        W 9596   3.072   7.967   9.736
 6078W        W 9597   8.038   0.910   0.362
 6079W        W 9598   7.088   0.221  10.156
 6080W        W 9599   5.522   3.568   2.677
 6081W        W 9600   7.902   2.824   0.727
 6082W        W 9601   2.264   6.289   9.578
 6083W        W 9602   6.684   3.191   9.814
 6084W        W 9603   5.708   3.197   1.570
 6085W        W 9604   0.540   4.338   2.249
 6086W        W 9605   6.525   7.332  10.308
 6087W        W 9606   0.232   5.040   9.688
 6088W        W 9607   9.814   2.616   0.187
 6089W        W 9608   3.716   4.972   9.683
 6090W        W 9609   7.736   2.712   1.576
 6091W        W 9610   3.391   7.816   3.374
 6092W        W 9611   9.093   1.351   1.785
 6093W        W 9612   7.961   7.369   2.190
 6094W        W 9613   9.310   1.060   9.826
 6095W        W 9614   7.948   1.825  10.760
 6096W        W 9615   5.253   2.905   9.267
 6097W        W 9616   3.150   0.395   1.914
 6098W        W 9617   1.507   0.910   3.264
 6099W        W 9618   1.329   9.438   3.168
 6100W        W 9619   4.997   3.646   2.703
 6101W        W 9620   5.712   9.899   0.027
 6102W        W 9621   1.412   1.873   2.112
 6103W        W 9622   6.688   5.509   9.762
 6104W        W 9623   3.759   1.880   3.335
 6105W        W 9624   9.823   5.240   8.754
 6106W        W 9625   2.343   2.098   3.061
 6107W        W 9626   6.636   7.575   2.224
 6108W        W 9627   2.140   8.205  11.163
 6109W        W 9628   6.013   5.863  11.218
 6110W        W 9629   8.070   8.916  11.820
 6111W        W 9630   2.741   9.859   1.821
 6112W        W 9631   0.085   7.346   9.378
 6113W        W 9632   1.779   8.481   8.837
 6114W        W 9633   3.589   1.414   1.686
 6115W        W 9634   0.227   3.829   0.323
 6116W        W 9635   2.576   4.207   3.099
 6117W        W 9636   4.762   4.488   8.383
 6118W        W 9637   1.824   6.681   1.339
 6119W        W 9638   1.495   1.325   0.280
 6120W        W 9639   8.123   2.360   1.361
 6121W        W 9640   6.147   9.030   8.940
 6122W        W 9641   6.750   3.721   1.940
 6123W        W 9642   3.796   5.481   0.669
 6124W        W 9643   5.072   9.660  10.083
 6125W        W 9644   1.514   6.224  10.551
 6126W        W 9645   4.452   8.109   3.215
 6127W        W 9646   0.446   5.069  11.107
 6128W        W 9647   7.897   9.971   3.769
 6129W        W 9648   6.940   3.619  11.523
 6130W        W 9649   6.284   4.166  11.994
 6131W        W 9650   8.036   4.309   1.026
 6132W        W 9651   5.950   1.327  11.264
 6133W        W 9652   4.800   6.421   2.886
 6134W        W 9653   5.689   8.873   1.448
 6135W        W 9654   0.420   6.627   0.408
 6136W        W 9655   1.168   6.525   2.317
 6137W        W 9656   9.590   1.926   2.392
 6138W        W 9657   7.359   6.113   0.702
 6139W        W 9658   4.008   1.089  10.552
 6140W        W 9659   0.837   5.609   9.329
 6141W        W 9660   9.988   2.014   3.154
 6142W        W 9661   0.560   5.108   9.284
 6143W        W 9662   1.736   3.280  11.862
 6144W        W 9663   5.284   5.574   9.280
 6145W        W 9664   5.937   3.804   3.624
 6146W        W 9665   8.798   5.309   3.062
 6147W        W 9666   1.887   4.542   0.457
 6148W        W 9667   2.541   8.754  11.819
 6149W        W 9668   6.590   0.244   3.111
 6150W        W 9669   7.387   3.590  10.491
 6151W        W 9670   9.382   2.744   3.213
 6152W        W 9671   8.899   3.491  10.954
 6153W        W 9672   1.707   8.099  11.520
 6154W        W 9673   7.544   0.303   2.862
 6155W        W 9674   6.498   8.702   9.137
 6156W        W 9675   1.052   9.065   1.227
 6157W        W 9676   9.798   4.331   8.797
 6158W        W 9677   8.036   6.711  11.352
 6159W        W 9678   0.411   5.036  11.816
 6160W        W 9679   1.847   4.634   2.238
 6161W        W 9680   9.945   2.854   8.819
 6162W        W 9681   0.556   0.896  10.468
 6163W        W 9682   4.478   9.762   2.029
 6164W        W 9683   6.250   1.362  10.265
 6165W        W 9684   9.316   2.660   0.040
 6166W        W 9685   1.069   9.875  11.549
 6167W        W 9686   6.438   0.286   1.627
 6168W        W 9687   6.380   5.187  10.302
 6169W        W 9688   9.508   3.611   2.678
 6170W        W 9689   6.437   2.963   2.987
 6171W        W 9690   7.023   1.154   0.758
 6172W        W 9691   6.654   6.080  10.663
 6173W        W 9692   3.082   4.680   2.885
 6174W        W 9693   2.636   9.949   0.228
 6175W        W 9694   1.980   7.842   1.014
 6176W        W 9695   1.224   9.992  11.071
 6177W        W 9696   9.353   7.449   0.783
 6178W        W 9697   3.335   0.773   2.666
 6179W        W 9698   1.862   1.055   1.714
 6180W        W 9699   7.095   3.226  10.257
 6181W        W 9700   8.932   2.630  11.198
 6182W        W 9701   4.377   0.351   1.399
 6183W        W 9702   7.050   4.162  10.332
 6184W        W 9703   5.042   8.352   2.439
 6185W        W 9704   3.513   7.367   1.621
 6186W        W 9705   0.397   6.884  10.870
 6187W        W 9706   4.959   7.331   1.882
 6188W        W 9707   1.800   6.157   9.374
 6189W        W 9708   3.093   6.340   8.115
 6190W        W 9709   0.459   0.919  10.968
 6191W        W 9710   1.928   1.674  11.129
 6192W        W 9711   9.581   9.482   2.285
 6193W        W 9712   9.605   9.385   9.152
 6194W        W 9713   9.298   3.087  11.496
 6195W        W 9714   7.273   5.123   1.916
 6196W        W 9715   3.554   3.563  10.230
 6197W        W 9716   0.774   2.178   1.072
 6198W        W 9717   8.904   5.161   2.131
 6199W        W 9718   7.589   7.244  10.808
 6200W        W 9719   3.288   5.601   4.164
 6201W        W 9720   8.672   5.318   9.004
 6202W        W 9721   4.710   6.372  11.833
 6203W        W 9722   2.039   5.027   1.358
 6204W        W 9723   4.627   9.752   8.878
 6205W        W 9724   7.082   3.674   2.774
 6206W        W 9725   4.608   0.641   9.301
 6207W        W 9726   1.352   1.097  11.846
 6208W        W 9727   7.317   0.617   8.545
 6209W        W 9728   1.860   1.322   9.986
 6210W        W 9729   8.522   9.311  10.918
 6211W        W 9730   2.222   1.734  10.440
 6212W        W 9731   8.535   7.123   9.185
 6213W        W 9732   8.477   3.605  10.703
 6214W        W 9733   2.263   9.389   8.965
 6215W        W 9734   2.678   2.429   1.288
 6216W        W 9735   1.705   3.757   3.293
 6217W        W 9736   4.699   7.798   2.881
 6218W        W 9737   5.160   7.995   1.602
 6219W        W 9738   3.368   3.049  11.733
 6220W        W 9739   5.634   1.003   2.572
 6221W        W 9740   3.732   7.834   2.997
 6222W        W 9741   1.791   6.211   2.333
 6223W        W 9742   7.727   2.101  11.157
 6224W        W 9743   4.586   0.111   9.321
 6225W        W 9744   3.601   3.384  11.380
 6226W        W 9745   8.363   8.018   3.501
 6227W        W 9746   1.568   7.786   3.107
 6228W        W 9747   3.485   7.159   9.093
 6229W        W 9748   0.873   0.315   1.413
 6230W        W 9749   5.798   5.041   9.628
 6231W        W 9750   7.995   8.802   9.059
 6232W        W 9751   5.077   4.054   8.475
 6233W        W 9752   6.242   7.320   9.047
 6234W        W 9753   3.112   2.319   1.542
 6235W        W 9754   7.198   1.466   0.273
 6236W        W 9755   2.886   6.570   1.846
 6237W        W 9756   7.919   0.651   2.807
 6238W        W 9757   4.990   5.799   3.923
 6239W        W 9758   2.162   3.075   1.336
 6240W        W 9759   5.446   4.000   2.013
 6241W        W 9760   8.474   7.535  10.324
 6242W        W 9761   7.593   7.669   3.228
 6243W        W 9762   2.632   6.039   3.051
 6244W        W 9763   4.625   0.872   9.766
 6245W        W 9764   5.232   9.814  11.814
 6246W        W 9765   0.444   7.032   9.243
 6247W        W 9766   6.496   3.691   1.278
 6248W        W 9767   6.206   5.074   3.387
 6249W        W 9768   6.584   4.018  10.169
 6250W        W 9769   5.662   8.871   2.332
 6251W        W 9770   0.715   1.733   0.819
 6252W        W 9771   2.517   0.423  10.784
 6253W        W 9772   4.895   3.284   1.010
 6254W        W 9773   0.883   4.853  10.050
 6255W        W 9774   3.163   8.410   1.584
 6256W        W 9775   0.835   3.130   9.168
 6257W        W 9776   6.155   4.513   2.126
 6258W        W 9777   5.671   1.019   8.537
 6259W        W 9778   9.379   4.383   9.891
 6260W        W 9779   1.912   0.861   3.597
 6261W        W 9780   4.622   8.817   3.584
 6262W        W 9781   9.963   8.456   0.032
 6263W        W 9782   7.613   5.833  11.551
 6264W        W 9783   2.528   1.696   0.620
 6265W        W 9784   6.939   2.861   9.422
 6266W        W 9785   9.457   8.737   3.277
 6267W        W 9786   9.925   4.342   2.704
 6268W        W 9787   1.019   8.366   3.650
 6269W        W 9788   0.431   5.724  10.011
 6270W        W 9789   4.754   7.223   9.648
 6271W        W 9790   9.410   1.392   3.290
 6272W        W 9791   2.542   4.235  10.884
 6273W        W 9792   9.497   6.095   3.054
 6274W        W 9793   4.165   2.301   9.766
 6275W        W 9794   3.520   5.076  11.924
 6276W        W 9795   3.172   6.569   2.648
 6277W        W 9796   3.485   6.081   4.177
 6278W        W 9797   0.373   8.594   9.822
 6279W        W 9798   3.142   9.418  11.520
 6280W        W 9799   4.488   3.829   3.355
 6281W        W 9800   9.240   9.439   1.407
 6282W        W 9801   8.294   1.013  10.687
 6283W        W 9802   0.365   8.688  11.674
 6284W        W 9803   3.326   6.132  10.570
 6285W        W 9804   4.080   5.090   2.029
 6286W        W 9805   7.380   5.906  11.057
 6287W        W 9806   7.862   2.817   0.203
 6288W        W 9807   7.250   9.159   1.871
 6289W        W 9808   1.866   6.939  10.825
 6290W        W 9809   4.218   1.912  10.430
 6291W        W 9810   6.453   3.205   0.328
 6292W        W 9811   8.170   9.926   0.575
 6293W        W 9812   1.731   0.870   0.333
 6294W        W 9813   9.463   1.035   1.924
 6295W        W 9814   5.509   9.605   9.241
 6296W        W 9815   4.534   7.585  10.541
 6297W        W 9816   0.435   7.892   1.971
 6298W        W 9817   5.947   6.175   2.039
 6299W        W 9818   6.615   0.682   2.841
 6300W        W 9819   2.264   9.851  10.471
 6301W        W 9820   3.141   5.507  11.259
 6302W        W 9821   7.652   2.204   9.479
 6303W        W 9822   9.625   4.131   1.928
 6304W        W 9823   3.029   8.429   8.559
 6305W        W 9824   7.258   3.574   8.668
 6306W        W 9825   8.379   5.200   1.374
 6307W        W 9826   8.167   9.753   8.904
 6308W        W 9827   1.355   3.220   1.109
 6309W        W 9828   5.566   7.527   9.390
 6310W        W 9829   7.790   3.315   0.317
 6311W        W 9830   3.171   4.061  11.952
 6312W        W 9831   6.339   5.023   2.029
 6313W        W 9832   8.286   9.339   1.225
 6314W        W 9833   8.261   8.919   9.481
 6315W        W 9834   9.853   1.285   2.561
 6316W        W 9835   7.185   3.125   9.763
 6317W        W 9836   7.945   1.018   3.140
 6318W        W 9837   1.860   9.531  11.615
 6319W        W 9838   2.115   8.301   9.898
 6320W        W 9839   5.021   4.144   8.968
 6321W        W 9840   4.230   1.577   0.756
 6322W        W 9841   2.660   5.137  11.760
 6323W        W 9842   1.667   2.159   0.537
 6324W        W 9843   0.877   4.665   1.900
 6325W        W 9844   7.417   9.472   8.521
 6326W        W 9845   9.351   1.608  10.453
 6327W        W 9846   8.267   0.483   1.291
 6328W        W 9847   1.180   2.646  11.878
 6329W        W 9848   9.071   1.872   9.300
 6330W        W 9849   1.618   2.399   3.581
 6331W        W 9850   2.700   3.449  10.184
 6332W        W 9851   3.462   5.897   1.974
 6333W        W 9852   8.934   7.800  10.267
 6334W        W 9853   6.098   2.148   8.434
 6335W        W 9854   7.261   1.784  11.090
 6336W        W 9855   6.847   9.603   2.696
 6337W        W 9856   5.589   8.400  10.872
 6338W        W 9857   2.911   1.341   0.481
 6339W        W 9858   5.146   9.692  10.925
 6340W        W 9859   0.294   8.543   8.567
 6341W        W 9860   4.280   9.695   2.773
 6342W        W 9861   3.527   9.677   2.315
 6343W        W 9862   0.198   3.814  11.412
 6344W        W 9863   8.858   6.991   2.121
 6345W        W 9864   4.184   1.277   9.766
 6346W        W 9865   7.355   6.689   3.415
 6347W        W 9866   1.274   1.923   0.334
 6348W        W 9867   6.542   9.511   9.982
 6349W        W 9868   4.964   2.218   9.898
 6350W        W 9869   4.970   5.984   9.022
 6351W        W 9870   7.465   0.439   1.092
 6352W        W 9871   8.799   0.779   3.214
 6353W        W 9872   8.092   6.662   1.685
 6354W        W 9873   1.421   9.217   9.272
 6355W        W 9874   1.728   5.750  10.422
 6356W        W 9875   6.828   6.101   3.270
 6357W        W 9876   3.022   5.327   8.523
 6358W        W 9877   6.446   3.191  10.959
 6359W        W 9878   5.494   0.208  10.399
 6360W        W 9879   1.297   3.417   2.757
 6361W        W 9880   5.116   2.025   0.675
 6362W        W 9881   3.247   6.792   0.314
 6363W        W 9882   1.689   3.770   1.803
 6364W        W 9883   0.388   5.681   1.207
 6365W        W 9884   4.644   1.043  10.249
 6366W        W 9885   7.375   5.222   0.677
 6367W        W 9886   1.071   3.640   0.958
 6368W        W 9887   3.434   8.487   0.858
 6369W        W 9888   4.447   2.979   3.596
 6370W        W 9889   2.263   0.840  10.250
 6371W        W 9890   3.085   8.009  10.526
 6372W        W 9891   9.832   8.640   0.496
 6373W        W 9892   2.836   6.714  11.872
 6374W        W 9893   6.121   0.554   9.887
 6375W        W 9894   8.768   0.882  10.868
 6376W        W 9895   8.028   2.572   1.966
 6377W        W 9896   2.529   0.150  11.769
 6378W        W 9897   9.772   2.570   1.237
 6379W        W 9898   2.910   6.932   0.725
 6380W        W 9899   2.143   1.612   3.017
 6381W        W 9900   8.975   3.437   9.648
 6382W        W 9901   0.711   6.531   3.467
 6383W        W 9902   6.031   9.200   0.758
 6384W        W 9903   6.431   9.384  10.888
 6385W        W 9904   5.284   4.005   3.745
 6386W        W 9905   9.977   2.325   8.890
 6387W        W 9906   4.018   8.275   2.975
 6388W        W 9907   0.250   6.724   2.606
 6389W        W 9908   2.185   5.348   0.189
 6390W        W 9909   4.874   6.672  11.460
 6391W        W 9910   0.003   1.363   1.347
 6392W        W 9911   7.998   3.319   0.805
 6393W        W 9912   5.516   1.198  10.120
 6394W        W 9913   8.391   5.980  10.723
 6395W        W 9914   8.593   5.009  11.370
 6396W        W 9915   7.018   6.393  10.449
 6397W        W 9916   8.092   7.722   0.837
 6398W        W 9917   4.793   4.620  11.931
 6399W        W 9918   4.025   1.322   9.296
 6400W        W 9919   7.372   2.378   1.751
 6401W        W 9920   2.451   7.863   0.808
 6402W        W 9921   5.122   2.401   9.353
 6403W        W 9922   8.059   0.884   9.355
 6404W        W 9923   7.159   0.817  11.159
 6405W        W 9924   1.715   0.547   2.783
 6406W        W 9925   0.851   1.683   3.422
 6407W        W 9926   6.585   8.589  11.843
 6408W        W 9927   9.328   8.950   9.404
 6409W        W 9928   3.022   0.205  11.978
 6410W        W 9929   1.588   6.560   1.979
 6411W        W 9930   7.564   1.611   9.492
 6412W        W 9931   1.143   5.043   2.699
 6413W        W 9932   8.644   6.677   0.634
 6414W        W 9933   2.347   2.809  10.455
 6415W        W 9934   9.184   2.902  10.397
 6416W        W 9935   0.980   6.851   1.380
 6417W        W 9936   5.800   0.861  11.412
 6418W        W 9937   3.979   0.760   0.911
 6419W        W 9938   7.382   8.903   2.299
 6420W        W 9939   3.189   9.369   0.018
 6421W        W 9940   1.598   6.301  11.723
 6422W        W 9941   3.109   3.753   9.331
 6423W        W 9942   6.913   6.654  10.971
 6424W        W 9943   2.347   2.473   0.029
 6425W        W 9944   9.796   4.640   9.237
 6426W        W 9945   2.457   8.681  10.052
 6427W        W 9946   4.501   4.361   0.281
 6428W        W 9947   1.309   3.875   2.989
 6429W        W 9948   9.373   2.087  11.163
 6430W        W 9949   5.973   2.950   0.278
 6431W        W 9950   5.672   5.823  10.799
 6432W        W 9951   0.760   3.148  10.988
 6433W        W 9952   2.744   9.675   0.642
 6434W        W 9953   8.411   4.347   8.836
 6435W        W 9954   7.649   6.060  10.386
 6436W        W 9955   0.757   8.607  10.180
 6437W        W 9956   3.159   2.692   2.793
 6438W        W 9957   9.442   0.122  11.408
 6439W        W 9958   2.707   9.426   0.196
 6440W        W 9959   8.231   1.731   8.970
 6441W        W 9960   5.918   3.165  11.035
 6442W        W 9961   9.513   5.770   0.247
 6443W        W 9962   0.020   0.466   3.159
 6444W        W 9963   7.576   1.898   2.480
 6445W        W 9964   8.151   3.203  11.938
 6446W        W 9965   1.650   8.427   9.703
 6447W        W 9966   7.986   1.586   9.838
 6448W        W 9967   1.224   5.791  10.439
 6449W        W 9968   8.484   5.507  10.200
 6450W        W 9969   8.327   5.843  11.780
 6451W        W 9970   9.592   2.413  10.383
 6452W        W 9971   4.717   0.167   3.224
 6453W        W 9972   8.630   5.607   2.060
 6454W        W 9973   8.895   0.434   2.309
 6455W        W 9974   2.896   1.868   1.382
 6456W        W 9975   1.946   3.164   0.405
 6457W        W 9976   3.340   7.427   9.664
 6458W        W 9977   2.093   2.920  11.975
 6459W        W 9978   3.929   4.334   8.175
 6460W        W 9979   5.767   2.031   3.519
 6461W        W 9980   9.561   3.145  10.146
 6462W        W 9981   8.776   1.328  11.621
 6463W        W 9982   0.416   6.206   1.212
 6464W        W 9983   1.280   7.546   0.507
 6465W        W 9984   0.980   6.233  10.490
 6466W        W 9985   8.035   4.445   1.509
 6467W        W 9986   2.434   1.212   2.885
 6468W        W 9987   0.911   1.617  11.254
 6469W        W 9988   0.063   8.235   2.755
 6470W        W 9989   1.531   4.976   0.618
 6471W        W 9990   3.413   9.399   2.728
 6472W        W 9991   7.373   2.290   2.750
 6473W        W 9992   1.540   4.208   2.078
 6474W        W 9993   3.562   7.606   1.141
 6475W        W 9994   9.165   5.051   0.210
 6476W        W 9995   6.906   0.921  10.743
 6477W        W 9996   4.332   9.838   9.683
 6478W        W 9997   3.689   1.780  10.872
 6479W        W 9998   0.740   6.697   9.512
 6480W        W 9999   6.516   9.407   9.084
 6481W        W10000   2.625   4.987  10.280
 6482W        W10001   5.734   5.770   1.787
 6483W        W10002   2.730   8.341   8.982
 6484W        W10003   4.206   7.106   0.985
 6485W        W10004   6.495   2.333   1.884
 6486W        W10005   8.285   7.991   9.127
 6487W        W10006   5.926   2.205  11.556
 6488W        W10007   8.309   4.092   2.783
 6489W        W10008   5.173   7.500   1.421
 6490W        W10009   3.086   5.687   2.317
 6491W        W10010   1.879   7.173   3.339
 6492W        W10011   9.348   9.650   1.861
 6493W        W10012   5.217   6.902   1.920
 6494W        W10013   0.143   5.385   0.058
 6495W        W10014   8.555   0.710   0.428
 6496W        W10015   0.116   5.049   1.786
 6497W        W10016   7.842   1.485   8.702
 6498W        W10017   7.167   8.166   0.663
 6499W        W10018   9.218   6.241   1.201
 6500W        W10019   0.426   8.440   3.615
 6501W        W10020   8.091   7.807  10.047
 6502W        W10021   2.378   7.505   9.355
 6503W        W10022   3.197   5.229   8.984
 6504W        W10023   6.055   7.698   9.347
 6505W        W10024   2.903   8.879  11.446
 6506W        W10025   2.950   5.141   0.754
 6507W        W10026   5.099   0.680   0.936
 6508W        W10027   2.293   3.967  11.991
 6509W        W10028   5.611   4.950   0.879
 6510W        W10029   0.936   9.494  10.595
 6511W        W10030   7.508   1.172   3.398
 6512W        W10031   2.300   4.341   9.156
 6513W        W10032   5.012   9.951  10.493
 6514W        W10033   9.862   7.692  10.280
 6515W        W10034   5.834   1.533   0.111
 6516W        W10035   4.943   2.455  10.358
 6517W        W10036   6.003   3.886   9.141
 6518W        W10037   6.800   1.088  11.405
 6519W        W10038   7.623   3.652   0.937
 6520W        W10039   6.127   0.395   2.959
 6521W        W10040   4.252   7.996   0.629
 6522W        W10041   0.019   3.000   1.364
 6523W        W10042   2.672   0.815   9.102
 6524W        W10043   2.669   5.968   2.321
 6525W        W10044   5.673   7.702   0.427
 6526W        W10045   2.596   5.582  12.000
 6527W        W10046   6.156   9.818  10.865
 6528W        W10047   7.457   8.168   3.435
 6529W        W10048   9.383   4.605   8.937
 6530W        W10049   5.484   6.908   2.375
 6531W        W10050   1.591   7.845   8.960
 6532W        W10051   7.631   5.798   8.758
 6533W        W10052   5.467   9.339  11.690
 6534W        W10053   9.395   7.892  10.496
 6535W        W10054   9.016   4.100   0.089
 6536W        W10055   1.633   8.078   8.504
 6537W        W10056   8.094   8.867   1.375
 6538W        W10057   1.440   3.933  11.978
 6539W        W10058   4.690   4.522   8.881
 6540W        W10059   2.976   8.465   9.453
 6541W        W10060   2.761   4.167   9.357
 6542W        W10061   1.468   2.545  10.799
 6543W        W10062   2.212   5.778   9.560
 6544W        W10063   1.813   4.721  11.778
 6545W        W10064   8.078   2.797  11.179
 6546W        W10065   3.881   0.912   0.320
 6547W        W10066   3.745   3.306   3.189
 6548W        W10067   9.636   7.569   9.463
 6549W        W10068   5.857   5.879   3.484
 6550W        W10069   8.520   6.785   9.632
 6551W        W10070   7.649   6.113   8.325
 6552W        W10071   2.190   0.370   0.934
 6553W        W10072   3.183   9.503  11.028
 6554W        W10073   9.785   0.845   2.255
 6555W        W10074   4.477   0.234  11.848
 6556W        W10075   3.636   9.323  11.787
 6557W        W10076   7.409   3.280   1.240
 6558W        W10077   8.472   4.031   3.618
 6559W        W10078   0.084   9.020   9.859
 6560W        W10079   4.366   6.083   8.399
 6561W        W10080   1.810   9.536   9.192
 6562W        W10081   2.731   2.661   9.079
 6563W        W10082   3.662   7.086   0.439
 6564W        W10083   5.309   5.541   2.668
 6565W        W10084   7.749   5.317  11.153
 6566W        W10085   7.483   7.107   2.052
 6567W        W10086   4.985   6.096   2.488
 6568W        W10087   7.184   3.750  11.062
 6569W        W10088   9.910   3.704   1.885
 6570W        W10089   4.604   0.536  10.163
 6571W        W10090   5.598   3.071   2.676
 6572W        W10091   2.725   2.532  10.283
 6573W        W10092   9.666   9.304  11.555
 6574W        W10093   5.285   5.445   3.556
 6575W        W10094   9.644   7.543  11.250
 6576W        W10095   6.780   5.023   1.764
 6577W        W10096   7.623   2.736   2.549
 6578W        W10097   8.825   0.466   9.579
 6579W        W10098   7.482   7.921   1.430
 6580W        W10099   2.441   8.411  10.815
 6581W        W10100   4.789   3.808  10.889
 6582W        W10101   6.450   1.206   0.005
 6583W        W10102   7.176   9.883  11.883
 6584W        W10103   3.497   5.536   8.386
 6585W        W10104   5.175   0.874   0.443
 6586W        W10105   5.096   8.048   8.574
 6587W        W10106   0.743   0.337  11.595
 6588W        W10107   4.819   6.105  10.687
 6589W        W10108   9.726   5.618   3.358
 6590W        W10109   6.065   0.578   1.002
 6591W        W10110   0.355   7.055   2.226
 6592W        W10111   4.608   3.212   0.197
 6593W        W10112   5.046   5.246   2.359
 6594W        W10113   6.339   9.329   3.279
 6595W        W10114   2.523   5.673   1.931
 6596W        W10115   1.336   2.635   1.635
 6597W        W10116   4.200   3.005  11.960
 6598W        W10117   4.744   5.709  11.503
 6599W        W10118   7.496   4.910   3.281
 6600W        W10119   6.789   2.911   1.455
 6601W        W10120   7.403   4.869   2.767
 6602W        W10121   5.480   8.172   0.341
 6603W        W10122   4.049   4.110   9.934
 6604W        W10123   4.505   9.580  10.315
 6605W        W10124   1.835   9.334  10.096
 6606W        W10125   9.586   6.266   1.558
 6607W        W10126   8.922   7.464   9.026
 6608W        W10127   2.607   4.100   1.710
 6609W        W10128   2.780   4.297   2.638
 6610W        W10129   3.408   3.859   2.042
 6611W        W10130   3.970   0.266   3.631
 6612W        W10131   5.393   5.552  11.128
 6613W        W10132   9.167   2.736   2.477
 6614W        W10133   5.633   3.814  11.220
 6615W        W10134   4.849   0.394   2.413
 6616W        W10135   5.748   1.362   1.598
 6617W        W10136   2.776   5.109  10.755
 6618W        W10137   0.313   8.460   0.548
 6619W        W10138   1.877   1.942   1.807
 6620W        W10139   7.273   2.193  11.392
 6621W        W10140   7.026   4.462   0.377
 6622W        W10141   0.758   6.635  11.487
 6623W        W10142   4.492   5.876   9.394
 6624W        W10143   1.465   9.752  11.871
 6625W        W10144   4.905   1.150   1.092
 6626W        W10145   1.641   5.761  11.889
 6627W        W10146   0.529   2.299   9.569
 6628W        W10147   8.558   0.228  10.859
 6629W        W10148   5.568   9.599   3.291
 6630W        W10149   0.832   7.406  10.021
 6631W        W10150   0.742   1.333  10.841
 6632W        W10151   4.184   2.030   0.015
 6633W        W10152   8.342   5.518   3.250
 6634W        W10153   7.357   1.407   2.529
 6635W        W10154   7.243   4.716   2.215
 6636W        W10155   4.596   4.612  10.513
 6637W        W10156   3.991   7.226   2.389
 6638W        W10157   5.385   8.467   1.605
 6639W        W10158   7.943   8.052  10.498
 6640W        W10159   4.221   3.532   8.736
 6641W        W10160   0.885   6.903   9.957
 6642W        W10161   7.894   6.065   0.729
 6643W        W10162   1.662   9.076   3.304
 6644W        W10163   3.824   7.615  10.704
 6645W        W10164   5.129   6.602   9.643
 6646W        W10165   5.029   1.174  10.879
 6647W        W10166   7.070   7.819   2.197
 6648W        W10167   9.979   8.568   9.007
 6649W        W10168   1.682   3.398   3.642
 6650W        W10169   3.845   7.504   3.375
 6651W        W10170   6.986   8.613   8.942
 6652W        W10171   6.027   8.134  11.743
 6653W        W10172   5.868   4.195   2.922
 6654W        W10173   4.913   5.152   0.925
 6655W        W10174   0.241   3.718   9.296
 6656W        W10175   5.039   8.555   0.295
 6657W        W10176   0.538   7.638  11.362
 6658W        W10177   4.559   9.373   0.248
 6659W        W10178   1.379   7.140  10.818
 6660W        W10179   2.419   9.676   8.563
 6661W        W10180   4.699   1.881   0.932
 6662W        W10181   5.948   3.440   0.309
 6663W        W10182   4.428   4.149   8.163
 6664W        W10183   5.535   0.949   9.653
 6665W        W10184   8.310   6.208   1.654
 6666W        W10185   8.420   3.677   1.380
 6667W        W10186   1.625   6.669   2.495
 6668W        W10187   0.330   2.240   0.814
 6669W        W10188   4.818   5.438  10.950
 6670W        W10189   1.249   0.725   2.860
 6671W        W10190   9.209   9.212   2.511
 6672W        W10191   6.725   2.193   1.453
 6673W        W10192   1.671   8.049   0.074
 6674W        W10193   5.951   3.621   1.249
 6675W        W10194   2.085   7.981  10.699
 6676W        W10195   1.799   1.200   1.222
 6677W        W10196   8.135   8.390   0.428
 6678W        W10197   0.636   5.378   3.431
 6679W        W10198   2.187   5.478   1.076
 6680W        W10199   6.321   4.067  11.096
 6681W        W10200   5.807   7.181   2.664
 6682W        W10201   0.418   0.462   2.392
 6683W        W10202   1.107   8.992  10.000
 6684W        W10203   3.361   9.718   1.209
 6685W        W10204   6.650   0.706   3.372
 6686W        W10205   4.090   9.825  10.139
 6687W        W10206   4.578   6.002  10.263
 6688W        W10207   0.728   8.007   3.463
 6689W        W10208   2.577   4.465  10.307
 6690W        W10209   6.154   5.711   2.077
 6691W        W10210   6.191   2.638   8.695
 6692W        W10211   3.600   4.818  10.669
 6693W        W10212   1.030   7.803   3.056
 6694W        W10213   7.960   5.526   2.889
 6695W        W10214   3.652   6.848  11.997
 6696W        W10215   2.874   1.366   9.790
 6697W        W10216   7.217   4.797   0.958
 6698W        W10217   6.698   1.735   9.564
 6699W        W10218   7.070   3.168   0.451
 6700W        W10219   6.501   6.947   9.251
 6701W        W10220   6.977   0.335  11.828
 6702W        W10221   7.618   5.902   2.939
 6703W        W10222   0.222   0.582  10.231
 6704W        W10223   3.510   4.068  10.097
 6705ION    NA+10224   4.469   0.493  10.976
 6706ION    NA+10225   7.936   4.162   8.818
 6707ION    NA+10226   6.273   8.426   0.723
 6708ION    NA+10227   3.383   1.605   1.235
 6709ION    NA+10228   3.882   6.167   1.804
 6710ION    NA+10229   2.262   5.732  10.445
 6711ION    NA+10230   4.580   6.502  10.382
 6712ION    NA+10231   6.639   5.064  11.681
 6713ION    NA+10232   9.535   3.078   8.559
 6714ION    NA+10233   4.649   8.724   9.858
 6715ION    NA+10234   6.096   3.676   9.608
 6716ION    NA+10235   4.728   7.867   0.758
 6717ION    NA+10236   7.904   5.607  11.953
 6718ION    NA+10237   0.849   3.151  11.954
 6719ION    NA+10238   0.033   9.959   3.048
 6720ION    NA+10239   7.566   8.955  11.751
 6721ION    NA+10240   1.705   7.040   9.509
 6722ION    NA+10241   4.047   2.382  10.307
 6723ION    NA+10242   3.789   0.188   8.900
 6724ION    NA+10243   3.889   8.463   9.534
 6725ION    NA+10244   6.945   1.227   8.977
 6726ION    NA+10245   3.602   5.503  10.998
 6727ION    NA+10246   7.470   4.054   9.595
 6728ION    NA+10247   5.355   9.252  10.150
 6729ION    NA+10248   6.914   9.531  10.683
 6730ION    NA+10249   3.134   0.943   8.921
 6731ION    NA+10250   0.275   5.418  11.507
 6732ION    NA+10251   9.311   3.406   1.304
 6733ION    NA+10252   7.969   1.432   3.411
 6734ION    NA+10253   2.621   5.051   8.783
 6735ION    NA+10254   6.360   0.870   1.747
 6736ION    NA+10255   8.663   1.382  10.773
 6737ION    NA+10256   5.313   8.754   2.654
 6738ION    NA+10257   1.880   4.676   1.728
 6739ION    NA+10258   7.283   9.368   2.829
 6740ION    NA+10259   1.792   9.818   0.418
 6741ION    NA+10260   7.914   7.887   2.239
 6742ION    NA+10261   2.802   6.786   2.323
 6743ION    NA+10262   1.557   6.560   0.887
 6744ION    NA+10263   1.334   8.621   1.113
 6745ION    NA+10264   2.152   5.923   0.022
 6746ION    NA+10265   8.180   4.796   2.112
 6747ION    NA+10266   8.904   9.010  10.250
 6748ION    NA+10267   8.401   7.980  11.985
 6749ION    NA+10268   8.417   8.000   1.624
 6750ION    NA+10269   5.954   6.644   4.012
 6751ION    NA+10270   4.223   9.471   1.010
 6752ION    NA+10271   0.901   3.254   9.661
 6753ION    NA+10272   1.309   0.566   3.703
 6754ION    NA+10273   4.089   5.497   2.374
 6755ION    NA+10274   8.695   2.726   1.221
 6756ION    NA+10275   6.445   8.471   2.250
 6757ION    NA+10276   7.790   4.836  10.954
 6758ION    NA+10277   4.175   5.283   0.370
 6759ION    NA+10278   0.573   4.868   0.287
 6760ION    NA+10279   1.798   0.018   3.158
 6761ION    NA+10280   3.798   4.950  10.188
 6762ION    NA+10281   9.711   7.900   2.988
 6763ION    NA+10282   5.366   5.952   3.593
 6764ION    NA+10283   3.589   9.591   0.245
 6765ION    NA+10284   0.270   0.444   8.598
 6766ION    NA+10285   8.733   7.957   2.405
 6767ION    NA+10286   3.898   6.299   9.181
 6768ION    NA+10287   4.341   0.396   9.723
 6769ION    NA+10288   7.980   7.854   9.534
 6770ION    NA+10289   2.734   1.868   2.461
 6771ION    NA+10290   3.016   2.710  11.596
 6772ION    NA+10291   7.563   2.563  10.472
 6773ION    NA+10292   2.176   5.778   8.872
 6774ION    NA+10293   5.304   4.566   1.541
 6775ION    NA+10294   6.530   6.975   9.862
 6776ION    CL-10295   8.606   4.717   2.227
 6777ION    CL-10296   0.207   1.195   2.931
 6778ION    CL-10297   5.186   8.844   1.291
 6779ION    CL-10298   6.119   0.535  11.181
 6780ION    CL-10299   4.999   4.585   3.054
 6781ION    CL-10300   6.120   3.912   9.983
 6782ION    CL-10301   1.128   3.634   9.697
 6783ION    CL-10302   2.369   5.375   9.006
 6784ION    CL-10303   3.943   5.848   2.122
 6785ION    CL-10304   1.791   1.831   3.326
 6786ION    CL-10305   6.434   8.549   0.326
 6787ION    CL-10306   4.337   8.420   9.668
 6788ION    CL-10307   4.485   1.564   9.434
 6789ION    CL-10308   2.677   5.326   2.290
 6790ION    CL-10309   0.898   4.657   0.064
 6791ION    CL-10310   7.022   1.038   8.550
 6792ION    CL-10311   7.763   4.088   9.239
 6793ION    CL-10312   4.706   7.714   0.336
 6794ION    CL-10313   2.154   8.518  11.573
 6795ION    CL-10314   4.220   6.675  10.579
 6796ION    CL-10315   2.156   9.101   2.107
 6797ION    CL-10316   7.723   9.195   0.094
 6798ION    CL-10317   9.194   2.688   9.502
 6799ION    CL-10318   5.074   4.263   1.292
 6800ION    CL-10319   1.396   9.996   0.322
 6801ION    CL-10320   9.006   3.052   1.282
 6802ION    CL-10321   3.334   3.700   3.689
 6803ION    CL-10322   5.723   7.328   2.185
 6804ION    CL-10323   3.202   4.924   0.369
 6805ION    CL-10324   0.227   0.561   0.918
 6806ION    CL-10325   6.196   2.397   2.316
 6807ION    CL-10326   4.822   4.995   8.658
 6808ION    CL-10327   9.057   1.240  10.626
 6809ION    CL-10328   7.511   4.318   0.282
 6810ION    CL-10329   7.774   5.151  10.638
 6811ION    CL-10330   5.579   6.700   0.236
 6812ION    CL-10331   0.992   8.715   0.830
 6813ION    CL-10332   0.834   8.357   2.279
 6814ION    CL-10333   6.635   1.542   9.091
 6815ION    CL-10334   1.301   4.544  10.097
 6816ION    CL-10335   0.114   7.745   2.865
 6817ION    CL-10336   4.340   4.670  10.992
 6818ION    CL-10337   4.386   0.065  11.076
 6819ION    CL-10338   3.489   8.682   9.500
 6820ION    CL-10339   3.158   7.290   0.378
 6821ION    CL-10340   2.017   6.017  11.606
 6822ION    CL-10341   2.451   1.531   2.375
 6823ION    CL-10342   5.496   4.916   1.759
 6824ION    CL-10343   8.355   7.965   2.092
 6825ION    CL-10344   7.086   4.121   9.827
 6826ION    CL-10345   9.891   0.699   8.727
 6827ION    CL-10346   5.216   8.659   3.082
 6828ION    CL-10347   5.743   3.182   1.060
 6829ION    CL-10348   6.751   3.403   3.100
 6830ION    CL-10349   7.519   9.911   0.822
 6831ION    CL-10350   8.916   9.314  10.574
 6832ION    CL-10351   8.470   9.184   3.554
 6833ION    CL-10352   3.728   6.707   9.248
 6834ION    CL-10353   0.017   3.735   2.740
 6835ION    CL-10354   6.391   7.816   8.966
 6836ION    CL-10355   4.589   3.342   9.731
 6837ION    CL-10356   4.990   9.026   9.992
 6838ION    CL-10357   5.656   0.246   3.118
 6839ION    CL-10358   5.782   3.642   3.151
 6840ION    CL-10359   5.014   7.586   9.393
 6841ION    CL-10360   9.545   5.702   9.122
 6842ION    CL-10361   9.853   2.604   3.086
 6843ION    CL-10362   2.686   4.685  11.547
 6844ION    CL-10363   7.775   2.549  10.861
 6845ION    CL-10364   1.682   8.552   1.407
 6846ION    CL-10365   9.600   3.715   1.474
  10.00000  10.00000  12.00000
