Protein in INSANE! Membrane UpperLeaflet>POPC=1.0 LowerLeaflet>POPC=1.0
12914
   81AUC    AUC    1   5.751   5.830   6.002
   82AUC    AUC    2   5.997   5.830   5.850
   83AUC    AUC    3   5.997   5.830   6.153
   84AUC    AUC    4   5.506   5.830   5.850
   85AUC    AUC    5   5.506   5.830   6.153
   86AUC    AUC    6   5.599   6.075   6.002
   87AUC    AUC    7   5.903   6.075   6.002
   88AUC    AUC    8   5.599   5.584   6.002
   89AUC    AUC    9   5.903   5.584   6.002
   90AUC    AUC   10   5.751   5.678   6.247
   91AUC    AUC   11   5.751   5.981   6.247
   92AUC    AUC   12   5.751   5.678   5.756
   93AUC    AUC   13   5.751   5.981   5.756
   94AUC    AUC   14   6.242   5.830   5.698
   95AUC    AUC   15   6.242   5.830   6.002
   96AUC    AUC   16   6.242   5.830   6.305
   97AUC    AUC   17   5.260   5.830   5.698
   98AUC    AUC   18   5.260   5.830   6.002
   99AUC    AUC   19   5.260   5.830   6.305
  100AUC    AUC   20   5.448   6.320   6.002
  101AUC    AUC   21   5.751   6.320   6.002
  102AUC    AUC   22   6.054   6.320   6.002
  103AUC    AUC   23   5.448   5.339   6.002
  104AUC    AUC   24   5.751   5.339   6.002
  105AUC    AUC   25   6.054   5.339   6.002
  106AUC    AUC   26   5.751   5.526   6.492
  107AUC    AUC   27   5.751   5.830   6.492
  108AUC    AUC   28   5.751   6.133   6.492
  109AUC    AUC   29   5.751   5.526   5.511
  110AUC    AUC   30   5.751   5.830   5.511
  111AUC    AUC   31   5.751   6.133   5.511
  112AUC    AUC   32   5.997   5.678   6.399
  113AUC    AUC   33   5.997   5.981   6.399
  114AUC    AUC   34   5.997   5.678   5.605
  115AUC    AUC   35   5.997   5.981   5.605
  116AUC    AUC   36   5.506   5.678   6.399
  117AUC    AUC   37   5.506   5.981   6.399
  118AUC    AUC   38   5.506   5.678   5.605
  119AUC    AUC   39   5.506   5.981   5.605
  120AUC    AUC   40   6.148   6.075   5.850
  121AUC    AUC   41   6.148   6.075   6.153
  122AUC    AUC   42   5.354   6.075   5.850
  123AUC    AUC   43   5.354   6.075   6.153
  124AUC    AUC   44   6.148   5.584   5.850
  125AUC    AUC   45   6.148   5.584   6.153
  126AUC    AUC   46   5.354   5.584   5.850
  127AUC    AUC   47   5.354   5.584   6.153
  128AUC    AUC   48   5.599   6.227   6.247
  129AUC    AUC   49   5.903   6.227   6.247
  130AUC    AUC   50   5.599   5.432   6.247
  131AUC    AUC   51   5.903   5.432   6.247
  132AUC    AUC   52   5.599   6.227   5.756
  133AUC    AUC   53   5.903   6.227   5.756
  134AUC    AUC   54   5.599   5.432   5.756
  135AUC    AUC   55   5.903   5.432   5.756
   56AUSL   AUS   56   6.160   5.830   6.582
   57AUSL   AUS   57   6.016   5.413   6.512
   58AUL    AUL   58   6.242   5.526   6.796
   59THSLK  S     59   6.130   5.225   6.656
   60ETHY   C1    60   6.196   4.840   6.891
   62ETHY   C1    61   6.339   4.432   7.210
   64ETHY   C1    62   6.548   4.096   7.566
   66ETHY   C1    63   6.814   3.838   7.950
   68ETHY   C1    64   7.130   3.662   8.355
   70THSLK  S     65   6.256   5.780   6.826
   71ETHY   C1    66   6.472   5.594   7.181
   73ETHY   C1    67   6.747   5.459   7.624
   75ETHY   C1    68   7.028   5.429   8.075
   77ETHY   C1    69   7.306   5.498   8.525
   79ETHY   C1    70   7.575   5.666   8.966
   56AUSL   AUS   71   5.915   5.678   6.675
   57AUSL   AUS   72   5.588   5.981   6.675
   58AUL    AUL   73   5.751   5.830   6.983
   59THSLK  S     74   5.993   5.625   6.917
   60ETHY   C1    75   6.070   5.375   7.290
   62ETHY   C1    76   6.186   5.158   7.769
   64ETHY   C1    77   6.323   5.042   8.269
   66ETHY   C1    78   6.473   5.024   8.781
   68ETHY   C1    79   6.632   5.105   9.294
   70THSLK  S     80   5.501   5.938   6.931
   71ETHY   C1    81   5.419   5.826   7.364
   73ETHY   C1    82   5.305   5.780   7.888
   75ETHY   C1    83   5.173   5.838   8.401
   77ETHY   C1    84   5.022   5.991   8.889
   79ETHY   C1    85   4.856   6.235   9.344
   56AUSL   AUS   86   5.915   5.981   6.675
   57AUSL   AUS   87   6.261   6.094   6.418
   58AUL    AUL   88   6.242   6.133   6.796
   59THSLK  S     89   6.002   6.035   6.914
   60ETHY   C1    90   6.083   6.286   7.286
   62ETHY   C1    91   6.197   6.502   7.765
   64ETHY   C1    92   6.330   6.618   8.267
   66ETHY   C1    93   6.480   6.636   8.779
   68ETHY   C1    94   6.646   6.556   9.289
   70THSLK  S     95   6.435   6.196   6.580
   71ETHY   C1    96   6.799   6.206   6.854
   73ETHY   C1    97   7.215   6.308   7.180
   75ETHY   C1    98   7.595   6.507   7.495
   77ETHY   C1    99   7.930   6.794   7.796
   79ETHY   C1   100   8.211   7.162   8.077
   56AUSL   AUS  101   6.160   5.830   5.422
   57AUSL   AUS  102   6.016   6.246   5.492
   58AUL    AUL  103   6.242   6.133   5.207
   59THSLK  S    104   6.263   5.780   5.181
   60ETHY   C1   105   6.484   5.594   4.829
   62ETHY   C1   106   6.757   5.459   4.385
   64ETHY   C1   107   7.035   5.429   3.932
   66ETHY   C1   108   7.313   5.498   3.482
   68ETHY   C1   109   7.587   5.666   3.045
   70THSLK  S    110   6.194   6.361   5.325
   71ETHY   C1   111   6.482   6.466   4.988
   73ETHY   C1   112   6.782   6.670   4.590
   75ETHY   C1   113   7.025   6.958   4.214
   77ETHY   C1   114   7.209   7.322   3.871
   79ETHY   C1   115   7.333   7.753   3.565
   56AUSL   AUS  116   5.915   5.678   5.328
   57AUSL   AUS  117   6.261   5.565   5.585
   58AUL    AUL  118   6.242   5.526   5.207
   59THSLK  S    119   6.398   5.373   5.444
   60ETHY   C1   120   6.606   5.030   5.229
   62ETHY   C1   121   6.907   4.688   4.942
   64ETHY   C1   122   7.258   4.435   4.633
   66ETHY   C1   123   7.652   4.273   4.312
   68ETHY   C1   124   8.081   4.202   3.986
   70THSLK  S    125   6.002   5.624   5.090
   71ETHY   C1   126   6.083   5.373   4.717
   73ETHY   C1   127   6.197   5.157   4.238
   75ETHY   C1   128   6.330   5.041   3.736
   77ETHY   C1   129   6.480   5.023   3.225
   79ETHY   C1   130   6.646   5.103   2.714
   56AUSL   AUS  131   5.915   5.981   5.328
   57AUSL   AUS  132   5.588   5.678   5.328
   58AUL    AUL  133   5.751   5.830   5.020
   59THSLK  S    134   5.493   5.624   5.092
   60ETHY   C1   135   5.356   5.376   4.735
   62ETHY   C1   136   5.196   5.162   4.267
   64ETHY   C1   137   5.049   5.047   3.769
   66ETHY   C1   138   4.922   5.028   3.251
   68ETHY   C1   139   4.817   5.104   2.724
   70THSLK  S    140   6.018   5.939   5.078
   71ETHY   C1   141   6.159   5.824   4.660
   73ETHY   C1   142   6.317   5.777   4.147
   75ETHY   C1   143   6.460   5.833   3.638
   77ETHY   C1   144   6.588   5.987   3.143
   79ETHY   C1   145   6.699   6.235   2.674
   56AUSL   AUS  146   5.342   5.830   6.582
   57AUSL   AUS  147   5.486   6.246   6.512
   58AUL    AUL  148   5.260   6.133   6.796
   59THSLK  S    149   5.239   5.780   6.822
   60ETHY   C1   150   5.018   5.594   7.174
   62ETHY   C1   151   4.745   5.459   7.618
   64ETHY   C1   152   4.468   5.429   8.071
   66ETHY   C1   153   4.190   5.498   8.521
   68ETHY   C1   154   3.915   5.666   8.958
   70THSLK  S    155   5.366   6.375   6.702
   71ETHY   C1   156   5.297   6.544   7.120
   73ETHY   C1   157   5.155   6.797   7.573
   75ETHY   C1   158   4.949   7.098   7.960
   77ETHY   C1   159   4.682   7.437   8.275
   79ETHY   C1   160   4.362   7.804   8.513
   56AUSL   AUS  161   5.588   5.678   6.675
   57AUSL   AUS  162   5.241   5.565   6.418
   58AUL    AUL  163   5.260   5.526   6.796
   59THSLK  S    164   5.063   5.401   6.529
   60ETHY   C1   165   4.695   5.148   6.625
   62ETHY   C1   166   4.280   4.869   6.823
   64ETHY   C1   167   3.902   4.629   7.111
   66ETHY   C1   168   3.568   4.433   7.478
   68ETHY   C1   169   3.282   4.287   7.915
   70THSLK  S    170   5.485   5.626   6.910
   71ETHY   C1   171   5.343   5.379   7.266
   73ETHY   C1   172   5.185   5.164   7.733
   75ETHY   C1   173   5.042   5.048   8.233
   77ETHY   C1   174   4.915   5.030   8.750
   79ETHY   C1   175   4.803   5.108   9.275
   56AUSL   AUS  176   5.342   5.830   5.422
   57AUSL   AUS  177   5.486   5.413   5.492
   58AUL    AUL  178   5.260   5.526   5.207
   59THSLK  S    179   5.247   5.780   5.177
   60ETHY   C1   180   5.030   5.594   4.822
   62ETHY   C1   181   4.755   5.459   4.379
   64ETHY   C1   182   4.474   5.429   3.929
   66ETHY   C1   183   4.196   5.498   3.478
   68ETHY   C1   184   3.928   5.666   3.037
   70THSLK  S    185   5.314   5.239   5.372
   71ETHY   C1   186   5.029   4.918   5.217
   73ETHY   C1   187   4.728   4.559   4.953
   75ETHY   C1   188   4.483   4.236   4.609
   77ETHY   C1   189   4.299   3.953   4.196
   79ETHY   C1   190   4.180   3.713   3.723
   56AUSL   AUS  191   5.588   5.981   5.328
   57AUSL   AUS  192   5.241   6.094   5.585
   58AUL    AUL  193   5.260   6.133   5.207
   59THSLK  S    194   5.110   6.224   5.393
   60ETHY   C1   195   4.904   6.324   4.999
   62ETHY   C1   196   4.602   6.488   4.585
   64ETHY   C1   197   4.248   6.700   4.248
   66ETHY   C1   198   3.855   6.954   3.994
   68ETHY   C1   199   3.430   7.247   3.824
   70THSLK  S    200   5.509   5.940   5.071
   71ETHY   C1   201   5.432   5.828   4.636
   73ETHY   C1   202   5.316   5.783   4.112
   75ETHY   C1   203   5.180   5.839   3.601
   77ETHY   C1   204   5.030   5.993   3.113
   79ETHY   C1   205   4.870   6.238   2.656
   56AUSL   AUS  206   6.331   6.239   6.002
   57AUSL   AUS  207   6.261   6.094   5.585
   58AUL    AUL  208   6.545   6.320   5.698
   59THSLK  S    209   6.440   6.197   5.430
   60ETHY   C1   210   6.807   6.208   5.159
   62ETHY   C1   211   7.222   6.310   4.832
   64ETHY   C1   212   7.600   6.508   4.514
   66ETHY   C1   213   7.934   6.795   4.213
   68ETHY   C1   214   8.220   7.165   3.938
   70THSLK  S    215   6.599   6.295   6.006
   71ETHY   C1   216   7.051   6.356   6.008
   73ETHY   C1   217   7.565   6.515   6.007
   75ETHY   C1   218   8.033   6.769   6.005
   77ETHY   C1   219   8.446   7.106   6.006
   79ETHY   C1   220   8.798   7.520   6.009
   56AUSL   AUS  221   6.425   5.993   5.850
   57AUSL   AUS  222   6.425   5.666   6.153
   58AUL    AUL  223   6.733   5.830   6.002
   59THSLK  S    224   6.684   6.036   5.848
   60ETHY   C1   225   7.129   5.966   5.778
   62ETHY   C1   226   7.660   5.973   5.690
   64ETHY   C1   227   8.173   6.083   5.601
   66ETHY   C1   228   8.658   6.289   5.517
   68ETHY   C1   229   9.105   6.586   5.440
   70THSLK  S    230   6.657   5.528   6.162
   71ETHY   C1   231   7.003   5.239   6.228
   73ETHY   C1   232   7.464   4.972   6.309
   75ETHY   C1   233   7.961   4.803   6.392
   77ETHY   C1   234   8.482   4.731   6.480
   79ETHY   C1   235   9.017   4.757   6.571
   56AUSL   AUS  236   6.425   5.993   6.153
   57AUSL   AUS  237   6.168   6.340   6.266
   58AUL    AUL  238   6.545   6.320   6.305
   59THSLK  S    239   6.351   6.459   6.426
   60ETHY   C1   240   6.723   6.614   6.639
   62ETHY   C1   241   7.123   6.879   6.885
   64ETHY   C1   242   7.457   7.223   7.115
   66ETHY   C1   243   7.719   7.636   7.327
   68ETHY   C1   244   7.906   8.108   7.519
   70THSLK  S    245   6.683   6.036   6.164
   71ETHY   C1   246   7.127   5.966   6.238
   73ETHY   C1   247   7.658   5.973   6.325
   75ETHY   C1   248   8.172   6.083   6.410
   77ETHY   C1   249   8.656   6.289   6.494
   79ETHY   C1   250   9.103   6.586   6.578
   56AUSL   AUS  251   5.171   6.239   6.002
   57AUSL   AUS  252   5.241   6.094   6.418
   58AUL    AUL  253   4.957   6.320   6.305
   59THSLK  S    254   5.105   6.217   6.609
   60ETHY   C1   255   4.896   6.313   7.003
   62ETHY   C1   256   4.595   6.479   7.417
   64ETHY   C1   257   4.244   6.694   7.754
   66ETHY   C1   258   3.850   6.948   8.009
   68ETHY   C1   259   3.421   7.235   8.178
   70THSLK  S    260   4.955   6.379   6.006
   71ETHY   C1   261   4.699   6.757   6.008
   73ETHY   C1   262   4.326   7.145   6.007
   75ETHY   C1   263   3.890   7.451   6.005
   77ETHY   C1   264   3.404   7.669   6.006
   79ETHY   C1   265   2.877   7.799   6.009
   56AUSL   AUS  266   5.077   5.993   5.850
   57AUSL   AUS  267   5.335   6.340   5.737
   58AUL    AUL  268   4.957   6.320   5.698
   59THSLK  S    269   4.846   6.108   5.803
   60ETHY   C1   270   4.499   6.296   5.575
   62ETHY   C1   271   4.039   6.488   5.372
   64ETHY   C1   272   3.541   6.638   5.258
   66ETHY   C1   273   3.020   6.748   5.233
   68ETHY   C1   274   2.486   6.818   5.296
   70THSLK  S    275   5.219   6.505   5.558
   71ETHY   C1   276   5.103   6.821   5.250
   73ETHY   C1   277   4.889   7.199   4.932
   75ETHY   C1   278   4.597   7.568   4.683
   77ETHY   C1   279   4.239   7.921   4.508
   79ETHY   C1   280   3.821   8.254   4.409
   56AUSL   AUS  281   5.077   5.993   6.153
   57AUSL   AUS  282   5.077   5.666   5.850
   58AUL    AUL  283   4.769   5.830   6.002
   59THSLK  S    284   4.819   5.592   5.890
   60ETHY   C1   285   4.375   5.557   5.986
   62ETHY   C1   286   3.844   5.476   6.018
   64ETHY   C1   287   3.330   5.351   5.958
   66ETHY   C1   288   2.846   5.183   5.811
   68ETHY   C1   289   2.399   4.976   5.583
   70THSLK  S    290   4.844   6.100   6.204
   71ETHY   C1   291   4.497   6.284   6.435
   73ETHY   C1   292   4.037   6.477   6.637
   75ETHY   C1   293   3.540   6.632   6.749
   77ETHY   C1   294   3.019   6.742   6.774
   79ETHY   C1   295   2.483   6.805   6.713
   56AUSL   AUS  296   6.331   5.420   6.002
   57AUSL   AUS  297   6.261   5.565   6.418
   58AUL    AUL  298   6.545   5.339   6.305
   59THSLK  S    299   6.547   5.280   6.006
   60ETHY   C1   300   6.803   4.902   6.008
   62ETHY   C1   301   7.176   4.514   6.007
   64ETHY   C1   302   7.612   4.208   6.005
   66ETHY   C1   303   8.098   3.990   6.006
   68ETHY   C1   304   8.625   3.860   6.009
   70THSLK  S    305   6.393   5.375   6.566
   71ETHY   C1   306   6.598   5.032   6.785
   73ETHY   C1   307   6.900   4.690   7.070
   75ETHY   C1   308   7.254   4.437   7.377
   77ETHY   C1   309   7.648   4.274   7.698
   79ETHY   C1   310   8.072   4.204   8.029
   56AUSL   AUS  311   6.425   5.666   5.850
   57AUSL   AUS  312   6.168   5.319   5.737
   58AUL    AUL  313   6.545   5.339   5.698
   59THSLK  S    314   6.658   5.528   5.850
   60ETHY   C1   315   7.006   5.239   5.789
   62ETHY   C1   316   7.465   4.972   5.706
   64ETHY   C1   317   7.962   4.803   5.618
   66ETHY   C1   318   8.484   4.731   5.531
   68ETHY   C1   319   9.019   4.757   5.447
   70THSLK  S    320   6.287   5.129   5.604
   71ETHY   C1   321   6.404   4.712   5.463
   73ETHY   C1   322   6.618   4.258   5.265
   75ETHY   C1   323   6.908   3.872   5.043
   77ETHY   C1   324   7.267   3.557   4.806
   79ETHY   C1   325   7.687   3.318   4.558
   56AUSL   AUS  326   5.171   5.420   6.002
   57AUSL   AUS  327   5.241   5.565   5.585
   58AUL    AUL  328   4.957   5.339   5.698
   59THSLK  S    329   5.068   5.394   5.473
   60ETHY   C1   330   4.703   5.137   5.377
   62ETHY   C1   331   4.287   4.860   5.179
   64ETHY   C1   332   3.907   4.623   4.892
   66ETHY   C1   333   3.573   4.427   4.525
   68ETHY   C1   334   3.291   4.275   4.087
   70THSLK  S    335   4.903   5.364   6.006
   71ETHY   C1   336   4.451   5.303   6.008
   73ETHY   C1   337   3.937   5.144   6.007
   75ETHY   C1   338   3.469   4.890   6.005
   77ETHY   C1   339   3.056   4.553   6.006
   79ETHY   C1   340   2.704   4.139   6.009
   56AUSL   AUS  341   5.077   5.666   6.153
   57AUSL   AUS  342   5.335   5.319   6.266
   58AUL    AUL  343   4.957   5.339   6.305
   59THSLK  S    344   5.147   5.175   6.380
   60ETHY   C1   345   4.773   4.918   6.426
   62ETHY   C1   346   4.375   4.578   6.552
   64ETHY   C1   347   4.042   4.216   6.755
   66ETHY   C1   348   3.780   3.842   7.029
   68ETHY   C1   349   3.589   3.464   7.370
   70THSLK  S    350   4.818   5.599   6.117
   71ETHY   C1   351   4.373   5.569   6.024
   73ETHY   C1   352   3.842   5.487   5.990
   75ETHY   C1   353   3.329   5.358   6.049
   77ETHY   C1   354   2.845   5.190   6.196
   79ETHY   C1   355   2.397   4.988   6.428
   56AUSL   AUS  356   5.751   6.410   6.411
   57AUSL   AUS  357   5.335   6.340   6.266
   58AUL    AUL  358   5.448   6.624   6.492
   59THSLK  S    359   5.215   6.499   6.450
   60ETHY   C1   360   5.098   6.811   6.761
   62ETHY   C1   361   4.884   7.191   7.078
   64ETHY   C1   362   4.594   7.562   7.324
   66ETHY   C1   363   4.236   7.916   7.500
   68ETHY   C1   364   3.815   8.244   7.602
   70THSLK  S    365   5.791   6.636   6.535
   71ETHY   C1   366   5.948   6.938   6.839
   73ETHY   C1   367   6.063   7.344   7.172
   75ETHY   C1   368   6.090   7.788   7.464
   77ETHY   C1   369   6.030   8.257   7.711
   79ETHY   C1   370   5.886   8.741   7.910
   56AUSL   AUS  371   5.599   6.503   6.165
   57AUSL   AUS  372   5.903   6.503   5.838
   58AUL    AUL  373   5.751   6.811   6.002
   59THSLK  S    374   5.640   6.751   6.274
   60ETHY   C1   375   5.749   7.161   6.442
   62ETHY   C1   376   5.793   7.668   6.618
   64ETHY   C1   377   5.736   8.176   6.765
   66ETHY   C1   378   5.583   8.673   6.883
   68ETHY   C1   379   5.340   9.150   6.972
   70THSLK  S    380   5.956   6.738   5.741
   71ETHY   C1   381   6.201   7.094   5.594
   73ETHY   C1   382   6.414   7.559   5.427
   75ETHY   C1   383   6.529   8.057   5.279
   77ETHY   C1   384   6.549   8.576   5.155
   79ETHY   C1   385   6.474   9.105   5.058
   56AUSL   AUS  386   5.903   6.503   6.165
   57AUSL   AUS  387   6.016   6.246   6.512
   58AUL    AUL  388   6.054   6.624   6.492
   59THSLK  S    389   6.188   6.359   6.684
   60ETHY   C1   390   6.473   6.462   7.024
   62ETHY   C1   391   6.775   6.666   7.421
   64ETHY   C1   392   7.020   6.956   7.794
   66ETHY   C1   393   7.204   7.319   8.138
   68ETHY   C1   394   7.323   7.749   8.448
   70THSLK  S    395   5.954   6.737   6.271
   71ETHY   C1   396   6.198   7.091   6.422
   73ETHY   C1   397   6.411   7.557   6.587
   75ETHY   C1   398   6.527   8.056   6.731
   77ETHY   C1   399   6.546   8.574   6.856
   79ETHY   C1   400   6.471   9.102   6.958
   56AUSL   AUS  401   5.751   5.250   6.411
   57AUSL   AUS  402   6.168   5.319   6.266
   58AUL    AUL  403   6.054   5.035   6.492
   59THSLK  S    404   5.707   4.995   6.490
   60ETHY   C1   405   5.547   4.591   6.628
   62ETHY   C1   406   5.433   4.110   6.841
   64ETHY   C1   407   5.408   3.649   7.105
   66ETHY   C1   408   5.467   3.219   7.415
   68ETHY   C1   409   5.608   2.827   7.763
   70THSLK  S    410   6.283   5.130   6.408
   71ETHY   C1   411   6.399   4.714   6.552
   73ETHY   C1   412   6.613   4.261   6.748
   75ETHY   C1   413   6.905   3.873   6.967
   77ETHY   C1   414   7.264   3.558   7.205
   79ETHY   C1   415   7.681   3.321   7.458
   56AUSL   AUS  416   5.599   5.156   6.165
   57AUSL   AUS  417   5.486   5.413   6.512
   58AUL    AUL  418   5.448   5.035   6.492
   59THSLK  S    419   5.546   4.916   6.245
   60ETHY   C1   420   5.301   4.535   6.301
   62ETHY   C1   421   5.088   4.050   6.397
   64ETHY   C1   422   4.973   3.547   6.525
   66ETHY   C1   423   4.954   3.038   6.686
   68ETHY   C1   424   5.028   2.535   6.874
   70THSLK  S    425   5.308   5.245   6.633
   71ETHY   C1   426   5.020   4.927   6.789
   73ETHY   C1   427   4.720   4.567   7.052
   75ETHY   C1   428   4.477   4.241   7.396
   77ETHY   C1   429   4.293   3.958   7.809
   79ETHY   C1   430   4.169   3.724   8.283
   56AUSL   AUS  431   5.903   5.156   6.165
   57AUSL   AUS  432   5.599   5.156   5.838
   58AUL    AUL  433   5.751   4.848   6.002
   59THSLK  S    434   5.548   4.913   5.766
   60ETHY   C1   435   5.304   4.531   5.715
   62ETHY   C1   436   5.091   4.047   5.617
   64ETHY   C1   437   4.975   3.545   5.484
   66ETHY   C1   438   4.956   3.036   5.325
   68ETHY   C1   439   5.032   2.531   5.142
   70THSLK  S    440   5.860   4.900   6.249
   71ETHY   C1   441   5.750   4.464   6.321
   73ETHY   C1   442   5.707   3.938   6.428
   75ETHY   C1   443   5.764   3.426   6.559
   77ETHY   C1   444   5.917   2.938   6.713
   79ETHY   C1   445   6.159   2.485   6.888
   56AUSL   AUS  446   5.751   6.410   5.593
   57AUSL   AUS  447   6.168   6.340   5.737
   58AUL    AUL  448   6.054   6.624   5.511
   59THSLK  S    449   5.795   6.640   5.475
   60ETHY   C1   450   5.955   6.944   5.174
   62ETHY   C1   451   6.069   7.349   4.839
   64ETHY   C1   452   6.094   7.792   4.545
   66ETHY   C1   453   6.035   8.261   4.298
   68ETHY   C1   454   5.894   8.748   4.104
   70THSLK  S    455   6.355   6.461   5.585
   71ETHY   C1   456   6.729   6.617   5.376
   73ETHY   C1   457   7.127   6.881   5.129
   75ETHY   C1   458   7.460   7.225   4.895
   77ETHY   C1   459   7.722   7.637   4.684
   79ETHY   C1   460   7.913   8.111   4.498
   56AUSL   AUS  461   5.599   6.503   5.838
   57AUSL   AUS  462   5.486   6.246   5.492
   58AUL    AUL  463   5.448   6.624   5.511
   59THSLK  S    464   5.642   6.754   5.737
   60ETHY   C1   465   5.752   7.165   5.574
   62ETHY   C1   466   5.795   7.671   5.396
   64ETHY   C1   467   5.738   8.179   5.245
   66ETHY   C1   468   5.585   8.676   5.127
   68ETHY   C1   469   5.343   9.155   5.045
   70THSLK  S    470   5.372   6.381   5.302
   71ETHY   C1   471   5.306   6.553   4.885
   73ETHY   C1   472   5.163   6.805   4.432
   75ETHY   C1   473   4.954   7.104   4.044
   77ETHY   C1   474   4.688   7.442   3.730
   79ETHY   C1   475   4.372   7.815   3.493
   56AUSL   AUS  476   5.751   5.250   5.593
   57AUSL   AUS  477   5.335   5.319   5.737
   58AUL    AUL  478   5.448   5.035   5.511
   59THSLK  S    479   5.151   5.169   5.628
   60ETHY   C1   480   4.779   4.908   5.585
   62ETHY   C1   481   4.380   4.570   5.458
   64ETHY   C1   482   4.045   4.211   5.253
   66ETHY   C1   483   3.783   3.837   4.978
   68ETHY   C1   484   3.596   3.454   4.642
   70THSLK  S    485   5.711   4.991   5.519
   71ETHY   C1   486   5.554   4.585   5.385
   73ETHY   C1   487   5.439   4.105   5.171
   75ETHY   C1   488   5.412   3.646   4.904
   77ETHY   C1   489   5.472   3.215   4.594
   79ETHY   C1   490   5.616   2.820   4.251
   56AUSL   AUS  491   5.903   5.156   5.838
   57AUSL   AUS  492   6.016   5.413   5.492
   58AUL    AUL  493   6.054   5.035   5.511
   59THSLK  S    494   5.862   4.899   5.762
   60ETHY   C1   495   5.753   4.461   5.695
   62ETHY   C1   496   5.710   3.935   5.586
   64ETHY   C1   497   5.766   3.424   5.451
   66ETHY   C1   498   5.919   2.936   5.298
   68ETHY   C1   499   6.163   2.482   5.129
   70THSLK  S    500   6.136   5.223   5.353
   71ETHY   C1   501   6.205   4.837   5.121
   73ETHY   C1   502   6.347   4.429   4.800
   75ETHY   C1   503   6.554   4.093   4.442
   77ETHY   C1   504   6.820   3.836   4.059
   79ETHY   C1   505   7.140   3.658   3.658
   80POPC   NC3  506   2.114   8.192   7.953
   80POPC   PO4  507   2.136   8.171   7.653
   80POPC   GL1  508   2.153   8.179   7.353
   80POPC   GL2  509   1.967   8.053   7.353
   80POPC   C1A  510   2.143   8.155   7.053
   80POPC   D2A  511   2.152   8.199   6.753
   80POPC   C3A  512   2.073   8.193   6.453
   80POPC   C4A  513   2.072   8.216   6.153
   80POPC   C1B  514   1.818   8.010   7.053
   80POPC   C2B  515   1.852   8.047   6.753
   80POPC   C3B  516   1.780   7.986   6.453
   80POPC   C4B  517   1.831   8.038   6.153
   81POPC   NC3  518   1.825   2.703   7.953
   81POPC   PO4  519   1.800   2.663   7.653
   81POPC   GL1  520   1.780   2.618   7.353
   81POPC   GL2  521   2.010   2.696   7.353
   81POPC   C1A  522   1.839   2.636   7.053
   81POPC   D2A  523   1.801   2.677   6.753
   81POPC   C3A  524   1.809   2.704   6.453
   81POPC   C4A  525   1.757   2.670   6.153
   81POPC   C1B  526   2.145   2.759   7.053
   81POPC   C2B  527   2.129   2.841   6.753
   81POPC   C3B  528   2.114   2.791   6.453
   81POPC   C4B  529   2.111   2.767   6.153
   82POPC   NC3  530   8.295   9.518   7.953
   82POPC   PO4  531   8.265   9.559   7.653
   82POPC   GL1  532   8.272   9.547   7.353
   82POPC   GL2  533   8.116   9.634   7.353
   82POPC   C1A  534   8.267   9.489   7.053
   82POPC   D2A  535   8.230   9.507   6.753
   82POPC   C3A  536   8.248   9.550   6.453
   82POPC   C4A  537   8.284   9.515   6.153
   82POPC   C1B  538   7.935   9.696   7.053
   82POPC   C2B  539   7.933   9.734   6.753
   82POPC   C3B  540   7.972   9.762   6.453
   82POPC   C4B  541   7.917   9.680   6.153
   83POPC   NC3  542   1.824   0.363   7.953
   83POPC   PO4  543   1.794   0.332   7.653
   83POPC   GL1  544   1.870   0.358   7.353
   83POPC   GL2  545   1.971   0.461   7.353
   83POPC   C1A  546   1.801   0.290   7.053
   83POPC   D2A  547   1.846   0.342   6.753
   83POPC   C3A  548   1.847   0.310   6.453
   83POPC   C4A  549   1.848   0.296   6.153
   83POPC   C1B  550   2.064   0.559   7.053
   83POPC   C2B  551   2.091   0.514   6.753
   83POPC   C3B  552   2.063   0.529   6.453
   83POPC   C4B  553   2.125   0.579   6.153
   84POPC   NC3  554   7.493   9.616   7.953
   84POPC   PO4  555   7.538   9.637   7.653
   84POPC   GL1  556   7.510   9.644   7.353
   84POPC   GL2  557   7.289   9.671   7.353
   84POPC   C1A  558   7.505   9.604   7.053
   84POPC   D2A  559   7.510   9.608   6.753
   84POPC   C3A  560   7.519   9.591   6.453
   84POPC   C4A  561   7.518   9.630   6.153
   84POPC   C1B  562   7.144   9.646   7.053
   84POPC   C2B  563   7.193   9.619   6.753
   84POPC   C3B  564   7.194   9.610   6.453
   84POPC   C4B  565   7.154   9.665   6.153
   85POPC   NC3  566  11.330   0.432   7.953
   85POPC   PO4  567  11.337   0.480   7.653
   85POPC   GL1  568  11.357   0.397   7.353
   85POPC   GL2  569  11.201   0.432   7.353
   85POPC   C1A  570  11.393   0.422   7.053
   85POPC   D2A  571  11.365   0.437   6.753
   85POPC   C3A  572  11.311   0.442   6.453
   85POPC   C4A  573  11.353   0.474   6.153
   85POPC   C1B  574  11.028   0.392   7.053
   85POPC   C2B  575  10.992   0.389   6.753
   85POPC   C3B  576  10.947   0.464   6.453
   85POPC   C4B  577  10.952   0.409   6.153
   86POPC   NC3  578  10.552   7.417   7.953
   86POPC   PO4  579  10.550   7.456   7.653
   86POPC   GL1  580  10.573   7.465   7.353
   86POPC   GL2  581  10.400   7.340   7.353
   86POPC   C1A  582  10.527   7.393   7.053
   86POPC   D2A  583  10.601   7.435   6.753
   86POPC   C3A  584  10.570   7.386   6.453
   86POPC   C4A  585  10.524   7.415   6.153
   86POPC   C1B  586  10.246   7.284   7.053
   86POPC   C2B  587  10.244   7.223   6.753
   86POPC   C3B  588  10.271   7.259   6.453
   86POPC   C4B  589  10.288   7.217   6.153
   87POPC   NC3  590   1.894   8.661   7.953
   87POPC   PO4  591   1.849   8.683   7.653
   87POPC   GL1  592   1.919   8.727   7.353
   87POPC   GL2  593   1.996   8.910   7.353
   87POPC   C1A  594   1.885   8.660   7.053
   87POPC   D2A  595   1.844   8.666   6.753
   87POPC   C3A  596   1.865   8.665   6.453
   87POPC   C4A  597   1.867   8.686   6.153
   87POPC   C1B  598   2.047   8.985   7.053
   87POPC   C2B  599   2.015   8.991   6.753
   87POPC   C3B  600   2.072   9.007   6.453
   87POPC   C4B  601   2.024   9.029   6.153
   88POPC   NC3  602   9.043   1.906   7.953
   88POPC   PO4  603   8.975   1.872   7.653
   88POPC   GL1  604   9.015   1.910   7.353
   88POPC   GL2  605   8.832   2.011   7.353
   88POPC   C1A  606   8.981   1.876   7.053
   88POPC   D2A  607   8.982   1.866   6.753
   88POPC   C3A  608   9.013   1.897   6.453
   88POPC   C4A  609   9.000   1.856   6.153
   88POPC   C1B  610   8.716   2.088   7.053
   88POPC   C2B  611   8.763   2.041   6.753
   88POPC   C3B  612   8.734   2.047   6.453
   88POPC   C4B  613   8.734   2.084   6.153
   89POPC   NC3  614  11.160   5.936   7.953
   89POPC   PO4  615  11.144   5.955   7.653
   89POPC   GL1  616  11.138   5.978   7.353
   89POPC   GL2  617  11.134   5.779   7.353
   89POPC   C1A  618  11.160   5.937   7.053
   89POPC   D2A  619  11.090   5.927   6.753
   89POPC   C3A  620  11.129   5.960   6.453
   89POPC   C4A  621  11.127   6.002   6.153
   89POPC   C1B  622  11.236   5.656   7.053
   89POPC   C2B  623  11.160   5.581   6.753
   89POPC   C3B  624  11.174   5.587   6.453
   89POPC   C4B  625  11.160   5.614   6.153
   90POPC   NC3  626   0.559   0.594   7.953
   90POPC   PO4  627   0.504   0.572   7.653
   90POPC   GL1  628   0.521   0.618   7.353
   90POPC   GL2  629   0.465   0.462   7.353
   90POPC   C1A  630   0.542   0.547   7.053
   90POPC   D2A  631   0.541   0.537   6.753
   90POPC   C3A  632   0.564   0.546   6.453
   90POPC   C4A  633   0.570   0.611   6.153
   90POPC   C1B  634   0.310   0.301   7.053
   90POPC   C2B  635   0.290   0.288   6.753
   90POPC   C3B  636   0.277   0.332   6.453
   90POPC   C4B  637   0.287   0.320   6.153
   91POPC   NC3  638   2.787   2.928   7.953
   91POPC   PO4  639   2.799   2.854   7.653
   91POPC   GL1  640   2.849   2.900   7.353
   91POPC   GL2  641   2.758   2.767   7.353
   91POPC   C1A  642   2.818   2.878   7.053
   91POPC   D2A  643   2.786   2.921   6.753
   91POPC   C3A  644   2.864   2.892   6.453
   91POPC   C4A  645   2.828   2.882   6.153
   91POPC   C1B  646   2.638   2.598   7.053
   91POPC   C2B  647   2.665   2.620   6.753
   91POPC   C3B  648   2.596   2.547   6.453
   91POPC   C4B  649   2.590   2.590   6.153
   92POPC   NC3  650  10.998   8.781   7.953
   92POPC   PO4  651  11.000   8.808   7.653
   92POPC   GL1  652  11.050   8.741   7.353
   92POPC   GL2  653  11.173   8.907   7.353
   92POPC   C1A  654  11.018   8.809   7.053
   92POPC   D2A  655  11.037   8.747   6.753
   92POPC   C3A  656  10.988   8.809   6.453
   92POPC   C4A  657  11.045   8.805   6.153
   92POPC   C1B  658  11.367   8.993   7.053
   92POPC   C2B  659  11.286   8.973   6.753
   92POPC   C3B  660  11.292   8.964   6.453
   92POPC   C4B  661  11.271   8.945   6.153
   93POPC   NC3  662   8.878  11.015   7.953
   93POPC   PO4  663   8.857  10.963   7.653
   93POPC   GL1  664   8.872  11.036   7.353
   93POPC   GL2  665   8.899  11.160   7.353
   93POPC   C1A  666   8.868  10.968   7.053
   93POPC   D2A  667   8.910  11.008   6.753
   93POPC   C3A  668   8.896  10.953   6.453
   93POPC   C4A  669   8.835  11.027   6.153
   93POPC   C1B  670   8.853  11.338   7.053
   93POPC   C2B  671   8.830  11.360   6.753
   93POPC   C3B  672   8.886  11.298   6.453
   93POPC   C4B  673   8.919  11.324   6.153
   94POPC   NC3  674   6.666  11.020   7.953
   94POPC   PO4  675   6.616  10.973   7.653
   94POPC   GL1  676   6.577  10.968   7.353
   94POPC   GL2  677   6.571  11.212   7.353
   94POPC   C1A  678   6.647  10.976   7.053
   94POPC   D2A  679   6.637  10.982   6.753
   94POPC   C3A  680   6.653  10.982   6.453
   94POPC   C4A  681   6.643  11.048   6.153
   94POPC   C1B  682   6.519  11.351   7.053
   94POPC   C2B  683   6.488  11.319   6.753
   94POPC   C3B  684   6.534  11.384   6.453
   94POPC   C4B  685   6.526  11.358   6.153
   95POPC   NC3  686   0.265   8.044   7.953
   95POPC   PO4  687   0.228   7.977   7.653
   95POPC   GL1  688   0.258   8.043   7.353
   95POPC   GL2  689   0.443   8.076   7.353
   95POPC   C1A  690   0.320   8.026   7.053
   95POPC   D2A  691   0.284   8.027   6.753
   95POPC   C3A  692   0.259   8.010   6.453
   95POPC   C4A  693   0.318   8.071   6.153
   95POPC   C1B  694   0.553   8.170   7.053
   95POPC   C2B  695   0.604   8.213   6.753
   95POPC   C3B  696   0.637   8.197   6.453
   95POPC   C4B  697   0.583   8.200   6.153
   96POPC   NC3  698   4.134  11.271   7.953
   96POPC   PO4  699   4.170  11.333   7.653
   96POPC   GL1  700   4.164  11.324   7.353
   96POPC   GL2  701   4.308  11.118   7.353
   96POPC   C1A  702   4.179  11.322   7.053
   96POPC   D2A  703   4.153  11.325   6.753
   96POPC   C3A  704   4.165  11.314   6.453
   96POPC   C4A  705   4.145  11.334   6.153
   96POPC   C1B  706   4.421  10.988   7.053
   96POPC   C2B  707   4.418  11.001   6.753
   96POPC   C3B  708   4.411  11.049   6.453
   96POPC   C4B  709   4.401  11.063   6.153
   97POPC   NC3  710   5.937  10.986   7.953
   97POPC   PO4  711   5.936  11.071   7.653
   97POPC   GL1  712   5.910  11.076   7.353
   97POPC   GL2  713   5.811  11.189   7.353
   97POPC   C1A  714   5.935  11.072   7.053
   97POPC   D2A  715   5.893  11.023   6.753
   97POPC   C3A  716   5.867  11.026   6.453
   97POPC   C4A  717   5.867  11.071   6.153
   97POPC   C1B  718   5.637  11.266   7.053
   97POPC   C2B  719   5.693  11.340   6.753
   97POPC   C3B  720   5.724  11.316   6.453
   97POPC   C4B  721   5.691  11.353   6.153
   98POPC   NC3  722   6.378   1.262   7.953
   98POPC   PO4  723   6.424   1.312   7.653
   98POPC   GL1  724   6.390   1.302   7.353
   98POPC   GL2  725   6.527   1.162   7.353
   98POPC   C1A  726   6.430   1.270   7.053
   98POPC   D2A  727   6.372   1.333   6.753
   98POPC   C3A  728   6.458   1.252   6.453
   98POPC   C4A  729   6.431   1.340   6.153
   98POPC   C1B  730   6.761   1.060   7.053
   98POPC   C2B  731   6.733   1.069   6.753
   98POPC   C3B  732   6.682   1.125   6.453
   98POPC   C4B  733   6.728   1.115   6.153
   99POPC   NC3  734   0.264   6.563   7.953
   99POPC   PO4  735   0.279   6.640   7.653
   99POPC   GL1  736   0.219   6.626   7.353
   99POPC   GL2  737   0.418   6.552   7.353
   99POPC   C1A  738   0.213   6.633   7.053
   99POPC   D2A  739   0.272   6.620   6.753
   99POPC   C3A  740   0.232   6.628   6.453
   99POPC   C4A  741   0.267   6.591   6.153
   99POPC   C1B  742   0.641   6.542   7.053
   99POPC   C2B  743   0.620   6.527   6.753
   99POPC   C3B  744   0.586   6.519   6.453
   99POPC   C4B  745   0.566   6.568   6.153
  100POPC   NC3  746   2.107   6.692   7.953
  100POPC   PO4  747   2.112   6.701   7.653
  100POPC   GL1  748   2.088   6.673   7.353
  100POPC   GL2  749   1.997   6.537   7.353
  100POPC   C1A  750   2.042   6.741   7.053
  100POPC   D2A  751   2.113   6.722   6.753
  100POPC   C3A  752   2.044   6.757   6.453
  100POPC   C4A  753   2.047   6.741   6.153
  100POPC   C1B  754   1.890   6.406   7.053
  100POPC   C2B  755   1.875   6.413   6.753
  100POPC   C3B  756   1.861   6.436   6.453
  100POPC   C4B  757   1.902   6.418   6.153
  101POPC   NC3  758  11.051   7.923   7.953
  101POPC   PO4  759  11.088   7.977   7.653
  101POPC   GL1  760  11.018   7.945   7.353
  101POPC   GL2  761  11.200   8.061   7.353
  101POPC   C1A  762  11.017   8.009   7.053
  101POPC   D2A  763  11.061   7.962   6.753
  101POPC   C3A  764  11.025   8.006   6.453
  101POPC   C4A  765  11.075   8.007   6.153
  101POPC   C1B  766  11.331   8.238   7.053
  101POPC   C2B  767  11.337   8.199   6.753
  101POPC   C3B  768  11.294   8.248   6.453
  101POPC   C4B  769  11.282   8.252   6.153
  102POPC   NC3  770   0.383   4.056   7.953
  102POPC   PO4  771   0.450   4.076   7.653
  102POPC   GL1  772   0.394   4.100   7.353
  102POPC   GL2  773   0.429   4.249   7.353
  102POPC   C1A  774   0.445   4.132   7.053
  102POPC   D2A  775   0.427   4.075   6.753
  102POPC   C3A  776   0.420   4.059   6.453
  102POPC   C4A  777   0.403   4.063   6.153
  102POPC   C1B  778   0.426   4.483   7.053
  102POPC   C2B  779   0.467   4.442   6.753
  102POPC   C3B  780   0.445   4.428   6.453
  102POPC   C4B  781   0.423   4.423   6.153
  103POPC   NC3  782   1.187   1.390   7.953
  103POPC   PO4  783   1.244   1.330   7.653
  103POPC   GL1  784   1.183   1.327   7.353
  103POPC   GL2  785   1.239   1.218   7.353
  103POPC   C1A  786   1.208   1.338   7.053
  103POPC   D2A  787   1.206   1.362   6.753
  103POPC   C3A  788   1.186   1.423   6.453
  103POPC   C4A  789   1.216   1.333   6.153
  103POPC   C1B  790   1.139   1.055   7.053
  103POPC   C2B  791   1.199   1.025   6.753
  103POPC   C3B  792   1.152   1.058   6.453
  103POPC   C4B  793   1.205   1.038   6.153
  104POPC   NC3  794   1.371   9.628   7.953
  104POPC   PO4  795   1.395   9.603   7.653
  104POPC   GL1  796   1.369   9.555   7.353
  104POPC   GL2  797   1.237   9.675   7.353
  104POPC   C1A  798   1.421   9.633   7.053
  104POPC   D2A  799   1.383   9.545   6.753
  104POPC   C3A  800   1.388   9.540   6.453
  104POPC   C4A  801   1.406   9.618   6.153
  104POPC   C1B  802   1.025   9.656   7.053
  104POPC   C2B  803   0.993   9.666   6.753
  104POPC   C3B  804   1.052   9.721   6.453
  104POPC   C4B  805   1.003   9.640   6.153
  105POPC   NC3  806   5.659   2.093   7.953
  105POPC   PO4  807   5.617   2.028   7.653
  105POPC   GL1  808   5.604   2.052   7.353
  105POPC   GL2  809   5.847   1.921   7.353
  105POPC   C1A  810   5.607   2.017   7.053
  105POPC   D2A  811   5.626   2.047   6.753
  105POPC   C3A  812   5.620   2.052   6.453
  105POPC   C4A  813   5.634   2.082   6.153
  105POPC   C1B  814   5.981   1.855   7.053
  105POPC   C2B  815   5.949   1.860   6.753
  105POPC   C3B  816   5.906   1.922   6.453
  105POPC   C4B  817   5.953   1.854   6.153
  106POPC   NC3  818   7.309   0.248   7.953
  106POPC   PO4  819   7.270   0.282   7.653
  106POPC   GL1  820   7.282   0.219   7.353
  106POPC   GL2  821   7.321   0.406   7.353
  106POPC   C1A  822   7.264   0.269   7.053
  106POPC   D2A  823   7.257   0.295   6.753
  106POPC   C3A  824   7.327   0.249   6.453
  106POPC   C4A  825   7.298   0.295   6.153
  106POPC   C1B  826   7.375   0.648   7.053
  106POPC   C2B  827   7.388   0.633   6.753
  106POPC   C3B  828   7.339   0.604   6.453
  106POPC   C4B  829   7.363   0.599   6.153
  107POPC   NC3  830   8.090   8.692   7.953
  107POPC   PO4  831   8.077   8.692   7.653
  107POPC   GL1  832   8.075   8.713   7.353
  107POPC   GL2  833   8.129   8.905   7.353
  107POPC   C1A  834   8.009   8.708   7.053
  107POPC   D2A  835   8.022   8.715   6.753
  107POPC   C3A  836   8.065   8.718   6.453
  107POPC   C4A  837   8.006   8.729   6.153
  107POPC   C1B  838   8.143   9.050   7.053
  107POPC   C2B  839   8.142   8.999   6.753
  107POPC   C3B  840   8.175   9.075   6.453
  107POPC   C4B  841   8.161   9.007   6.153
  108POPC   NC3  842   6.758   9.624   7.953
  108POPC   PO4  843   6.792   9.639   7.653
  108POPC   GL1  844   6.754   9.588   7.353
  108POPC   GL2  845   6.593   9.653   7.353
  108POPC   C1A  846   6.760   9.668   7.053
  108POPC   D2A  847   6.699   9.617   6.753
  108POPC   C3A  848   6.787   9.655   6.453
  108POPC   C4A  849   6.740   9.606   6.153
  108POPC   C1B  850   6.393   9.603   7.053
  108POPC   C2B  851   6.397   9.619   6.753
  108POPC   C3B  852   6.373   9.631   6.453
  108POPC   C4B  853   6.415   9.642   6.153
  109POPC   NC3  854   2.732   5.615   7.953
  109POPC   PO4  855   2.721   5.643   7.653
  109POPC   GL1  856   2.672   5.649   7.353
  109POPC   GL2  857   2.689   5.756   7.353
  109POPC   C1A  858   2.665   5.645   7.053
  109POPC   D2A  859   2.752   5.580   6.753
  109POPC   C3A  860   2.729   5.642   6.453
  109POPC   C4A  861   2.753   5.591   6.153
  109POPC   C1B  862   2.715   6.011   7.053
  109POPC   C2B  863   2.766   5.995   6.753
  109POPC   C3B  864   2.734   6.017   6.453
  109POPC   C4B  865   2.745   5.938   6.153
  110POPC   NC3  866   7.952   1.791   7.953
  110POPC   PO4  867   7.958   1.841   7.653
  110POPC   GL1  868   8.014   1.829   7.353
  110POPC   GL2  869   8.140   1.993   7.353
  110POPC   C1A  870   7.994   1.784   7.053
  110POPC   D2A  871   8.024   1.772   6.753
  110POPC   C3A  872   7.996   1.812   6.453
  110POPC   C4A  873   8.029   1.804   6.153
  110POPC   C1B  874   8.178   2.137   7.053
  110POPC   C2B  875   8.159   2.139   6.753
  110POPC   C3B  876   8.210   2.125   6.453
  110POPC   C4B  877   8.169   2.063   6.153
  111POPC   NC3  878   4.450  10.448   7.953
  111POPC   PO4  879   4.453  10.418   7.653
  111POPC   GL1  880   4.470  10.372   7.353
  111POPC   GL2  881   4.296  10.438   7.353
  111POPC   C1A  882   4.492  10.362   7.053
  111POPC   D2A  883   4.452  10.416   6.753
  111POPC   C3A  884   4.405  10.408   6.453
  111POPC   C4A  885   4.414  10.400   6.153
  111POPC   C1B  886   4.084  10.344   7.053
  111POPC   C2B  887   4.082  10.434   6.753
  111POPC   C3B  888   4.097  10.435   6.453
  111POPC   C4B  889   4.058  10.439   6.153
  112POPC   NC3  890   7.145   8.113   7.953
  112POPC   PO4  891   7.146   8.035   7.653
  112POPC   GL1  892   7.113   8.127   7.353
  112POPC   GL2  893   7.383   8.087   7.353
  112POPC   C1A  894   7.173   8.038   7.053
  112POPC   D2A  895   7.156   8.035   6.753
  112POPC   C3A  896   7.156   8.117   6.453
  112POPC   C4A  897   7.202   8.126   6.153
  112POPC   C1B  898   7.505   8.129   7.053
  112POPC   C2B  899   7.514   8.114   6.753
  112POPC   C3B  900   7.521   8.077   6.453
  112POPC   C4B  901   7.475   8.151   6.153
  113POPC   NC3  902   1.042   6.565   7.953
  113POPC   PO4  903   0.983   6.506   7.653
  113POPC   GL1  904   0.991   6.546   7.353
  113POPC   GL2  905   1.163   6.590   7.353
  113POPC   C1A  906   1.046   6.544   7.053
  113POPC   D2A  907   1.005   6.550   6.753
  113POPC   C3A  908   1.053   6.570   6.453
  113POPC   C4A  909   1.070   6.588   6.153
  113POPC   C1B  910   1.418   6.528   7.053
  113POPC   C2B  911   1.336   6.545   6.753
  113POPC   C3B  912   1.370   6.598   6.453
  113POPC   C4B  913   1.411   6.530   6.153
  114POPC   NC3  914   3.444   5.953   7.953
  114POPC   PO4  915   3.498   5.997   7.653
  114POPC   GL1  916   3.471   6.021   7.353
  114POPC   GL2  917   3.501   5.837   7.353
  114POPC   C1A  918   3.447   6.017   7.053
  114POPC   D2A  919   3.442   5.995   6.753
  114POPC   C3A  920   3.530   5.990   6.453
  114POPC   C4A  921   3.455   5.939   6.153
  114POPC   C1B  922   3.530   5.657   7.053
  114POPC   C2B  923   3.557   5.667   6.753
  114POPC   C3B  924   3.558   5.636   6.453
  114POPC   C4B  925   3.539   5.631   6.153
  115POPC   NC3  926   8.139   0.315   7.953
  115POPC   PO4  927   8.206   0.268   7.653
  115POPC   GL1  928   8.162   0.263   7.353
  115POPC   GL2  929   8.145   0.477   7.353
  115POPC   C1A  930   8.124   0.264   7.053
  115POPC   D2A  931   8.137   0.258   6.753
  115POPC   C3A  932   8.190   0.307   6.453
  115POPC   C4A  933   8.168   0.311   6.153
  115POPC   C1B  934   8.029   0.612   7.053
  115POPC   C2B  935   8.042   0.577   6.753
  115POPC   C3B  936   8.039   0.588   6.453
  115POPC   C4B  937   8.033   0.580   6.153
  116POPC   NC3  938   1.329   2.595   7.953
  116POPC   PO4  939   1.332   2.638   7.653
  116POPC   GL1  940   1.343   2.609   7.353
  116POPC   GL2  941   1.175   2.701   7.353
  116POPC   C1A  942   1.324   2.648   7.053
  116POPC   D2A  943   1.358   2.632   6.753
  116POPC   C3A  944   1.365   2.559   6.453
  116POPC   C4A  945   1.317   2.606   6.153
  116POPC   C1B  946   1.124   2.898   7.053
  116POPC   C2B  947   1.079   2.872   6.753
  116POPC   C3B  948   1.067   2.901   6.453
  116POPC   C4B  949   1.096   2.888   6.153
  117POPC   NC3  950   0.596   2.648   7.953
  117POPC   PO4  951   0.543   2.624   7.653
  117POPC   GL1  952   0.567   2.627   7.353
  117POPC   GL2  953   0.407   2.684   7.353
  117POPC   C1A  954   0.605   2.685   7.053
  117POPC   D2A  955   0.556   2.613   6.753
  117POPC   C3A  956   0.597   2.626   6.453
  117POPC   C4A  957   0.616   2.614   6.153
  117POPC   C1B  958   0.280   2.818   7.053
  117POPC   C2B  959   0.305   2.814   6.753
  117POPC   C3B  960   0.309   2.863   6.453
  117POPC   C4B  961   0.244   2.853   6.153
  118POPC   NC3  962   5.083   2.084   7.953
  118POPC   PO4  963   5.114   2.121   7.653
  118POPC   GL1  964   5.110   2.087   7.353
  118POPC   GL2  965   4.996   1.977   7.353
  118POPC   C1A  966   5.127   2.123   7.053
  118POPC   D2A  967   5.147   2.175   6.753
  118POPC   C3A  968   5.079   2.161   6.453
  118POPC   C4A  969   5.095   2.089   6.153
  118POPC   C1B  970   4.940   1.769   7.053
  118POPC   C2B  971   4.963   1.772   6.753
  118POPC   C3B  972   4.998   1.816   6.453
  118POPC   C4B  973   4.974   1.854   6.153
  119POPC   NC3  974   8.654  10.386   7.953
  119POPC   PO4  975   8.717  10.403   7.653
  119POPC   GL1  976   8.733  10.367   7.353
  119POPC   GL2  977   8.885  10.361   7.353
  119POPC   C1A  978   8.672  10.347   7.053
  119POPC   D2A  979   8.726  10.349   6.753
  119POPC   C3A  980   8.727  10.442   6.453
  119POPC   C4A  981   8.712  10.398   6.153
  119POPC   C1B  982   9.016  10.357   7.053
  119POPC   C2B  983   9.053  10.430   6.753
  119POPC   C3B  984   9.008  10.372   6.453
  119POPC   C4B  985   9.061  10.357   6.153
  120POPC   NC3  986   7.486   1.947   7.953
  120POPC   PO4  987   7.528   1.920   7.653
  120POPC   GL1  988   7.473   1.993   7.353
  120POPC   GL2  989   7.371   1.999   7.353
  120POPC   C1A  990   7.513   1.913   7.053
  120POPC   D2A  991   7.541   1.922   6.753
  120POPC   C3A  992   7.515   1.953   6.453
  120POPC   C4A  993   7.545   1.910   6.153
  120POPC   C1B  994   7.136   2.019   7.053
  120POPC   C2B  995   7.162   1.998   6.753
  120POPC   C3B  996   7.169   2.007   6.453
  120POPC   C4B  997   7.159   1.982   6.153
  121POPC   NC3  998   7.213   1.288   7.953
  121POPC   PO4  999   7.224   1.321   7.653
  121POPC   GL1 1000   7.167   1.251   7.353
  121POPC   GL2 1001   7.334   1.210   7.353
  121POPC   C1A 1002   7.149   1.253   7.053
  121POPC   D2A 1003   7.190   1.254   6.753
  121POPC   C3A 1004   7.158   1.309   6.453
  121POPC   C4A 1005   7.133   1.328   6.153
  121POPC   C1B 1006   7.534   1.160   7.053
  121POPC   C2B 1007   7.493   1.157   6.753
  121POPC   C3B 1008   7.529   1.159   6.453
  121POPC   C4B 1009   7.467   1.061   6.153
  122POPC   NC3 1010   2.173   9.640   7.953
  122POPC   PO4 1011   2.160   9.633   7.653
  122POPC   GL1 1012   2.166   9.588   7.353
  122POPC   GL2 1013   2.003   9.592   7.353
  122POPC   C1A 1014   2.096   9.664   7.053
  122POPC   D2A 1015   2.117   9.639   6.753
  122POPC   C3A 1016   2.169   9.569   6.453
  122POPC   C4A 1017   2.169   9.659   6.153
  122POPC   C1B 1018   1.794   9.616   7.053
  122POPC   C2B 1019   1.801   9.673   6.753
  122POPC   C3B 1020   1.783   9.628   6.453
  122POPC   C4B 1021   1.748   9.697   6.153
  123POPC   NC3 1022  11.048   3.351   7.953
  123POPC   PO4 1023  11.106   3.318   7.653
  123POPC   GL1 1024  11.116   3.365   7.353
  123POPC   GL2 1025  11.124   3.527   7.353
  123POPC   C1A 1026  11.086   3.365   7.053
  123POPC   D2A 1027  11.093   3.353   6.753
  123POPC   C3A 1028  11.113   3.343   6.453
  123POPC   C4A 1029  11.034   3.331   6.153
  123POPC   C1B 1030  11.263   3.690   7.053
  123POPC   C2B 1031  11.268   3.674   6.753
  123POPC   C3B 1032  11.240   3.663   6.453
  123POPC   C4B 1033  11.220   3.638   6.153
  124POPC   NC3 1034   8.852   7.898   7.953
  124POPC   PO4 1035   8.823   7.942   7.653
  124POPC   GL1 1036   8.836   7.898   7.353
  124POPC   GL2 1037   8.843   8.082   7.353
  124POPC   C1A 1038   8.861   7.904   7.053
  124POPC   D2A 1039   8.817   7.890   6.753
  124POPC   C3A 1040   8.828   7.932   6.453
  124POPC   C4A 1041   8.814   7.946   6.153
  124POPC   C1B 1042   8.849   8.303   7.053
  124POPC   C2B 1043   8.914   8.276   6.753
  124POPC   C3B 1044   8.900   8.316   6.453
  124POPC   C4B 1045   8.908   8.296   6.153
  125POPC   NC3 1046   1.219   8.252   7.953
  125POPC   PO4 1047   1.167   8.259   7.653
  125POPC   GL1 1048   1.198   8.293   7.353
  125POPC   GL2 1049   1.177   8.062   7.353
  125POPC   C1A 1050   1.187   8.274   7.053
  125POPC   D2A 1051   1.170   8.274   6.753
  125POPC   C3A 1052   1.174   8.318   6.453
  125POPC   C4A 1053   1.208   8.248   6.153
  125POPC   C1B 1054   1.227   7.913   7.053
  125POPC   C2B 1055   1.233   7.945   6.753
  125POPC   C3B 1056   1.211   7.945   6.453
  125POPC   C4B 1057   1.254   7.907   6.153
  126POPC   NC3 1058   0.525  10.190   7.953
  126POPC   PO4 1059   0.491  10.229   7.653
  126POPC   GL1 1060   0.534  10.191   7.353
  126POPC   GL2 1061   0.425  10.398   7.353
  126POPC   C1A 1062   0.509  10.189   7.053
  126POPC   D2A 1063   0.451  10.212   6.753
  126POPC   C3A 1064   0.465  10.214   6.453
  126POPC   C4A 1065   0.488  10.278   6.153
  126POPC   C1B 1066   0.350  10.531   7.053
  126POPC   C2B 1067   0.389  10.570   6.753
  126POPC   C3B 1068   0.382  10.593   6.453
  126POPC   C4B 1069   0.325  10.560   6.153
  127POPC   NC3 1070   1.080   3.674   7.953
  127POPC   PO4 1071   1.139   3.669   7.653
  127POPC   GL1 1072   1.079   3.685   7.353
  127POPC   GL2 1073   1.210   3.454   7.353
  127POPC   C1A 1074   1.136   3.624   7.053
  127POPC   D2A 1075   1.061   3.601   6.753
  127POPC   C3A 1076   1.053   3.683   6.453
  127POPC   C4A 1077   1.140   3.685   6.153
  127POPC   C1B 1078   1.338   3.347   7.053
  127POPC   C2B 1079   1.276   3.380   6.753
  127POPC   C3B 1080   1.307   3.370   6.453
  127POPC   C4B 1081   1.274   3.389   6.153
  128POPC   NC3 1082   1.378   7.202   7.953
  128POPC   PO4 1083   1.290   7.240   7.653
  128POPC   GL1 1084   1.334   7.205   7.353
  128POPC   GL2 1085   1.190   7.316   7.353
  128POPC   C1A 1086   1.326   7.256   7.053
  128POPC   D2A 1087   1.307   7.260   6.753
  128POPC   C3A 1088   1.387   7.191   6.453
  128POPC   C4A 1089   1.363   7.265   6.153
  128POPC   C1B 1090   1.052   7.399   7.053
  128POPC   C2B 1091   1.075   7.420   6.753
  128POPC   C3B 1092   1.103   7.485   6.453
  128POPC   C4B 1093   1.030   7.413   6.153
  129POPC   NC3 1094   3.495   9.788   7.953
  129POPC   PO4 1095   3.528   9.848   7.653
  129POPC   GL1 1096   3.457   9.790   7.353
  129POPC   GL2 1097   3.549   9.639   7.353
  129POPC   C1A 1098   3.524   9.859   7.053
  129POPC   D2A 1099   3.458   9.786   6.753
  129POPC   C3A 1100   3.536   9.822   6.453
  129POPC   C4A 1101   3.497   9.843   6.153
  129POPC   C1B 1102   3.522   9.496   7.053
  129POPC   C2B 1103   3.517   9.444   6.753
  129POPC   C3B 1104   3.525   9.459   6.453
  129POPC   C4B 1105   3.524   9.451   6.153
  130POPC   NC3 1106   8.966   3.663   7.953
  130POPC   PO4 1107   8.976   3.671   7.653
  130POPC   GL1 1108   8.933   3.672   7.353
  130POPC   GL2 1109   8.904   3.526   7.353
  130POPC   C1A 1110   9.006   3.700   7.053
  130POPC   D2A 1111   8.950   3.636   6.753
  130POPC   C3A 1112   8.936   3.640   6.453
  130POPC   C4A 1113   8.912   3.683   6.153
  130POPC   C1B 1114   8.812   3.322   7.053
  130POPC   C2B 1115   8.814   3.347   6.753
  130POPC   C3B 1116   8.740   3.318   6.453
  130POPC   C4B 1117   8.757   3.391   6.153
  131POPC   NC3 1118   2.014   5.641   7.953
  131POPC   PO4 1119   2.022   5.686   7.653
  131POPC   GL1 1120   1.988   5.640   7.353
  131POPC   GL2 1121   1.920   5.771   7.353
  131POPC   C1A 1122   2.079   5.601   7.053
  131POPC   D2A 1123   1.998   5.631   6.753
  131POPC   C3A 1124   2.024   5.602   6.453
  131POPC   C4A 1125   1.992   5.635   6.153
  131POPC   C1B 1126   1.905   6.002   7.053
  131POPC   C2B 1127   1.868   5.961   6.753
  131POPC   C3B 1128   1.873   5.965   6.453
  131POPC   C4B 1129   1.876   5.961   6.153
  132POPC   NC3 1130  11.349   9.734   7.953
  132POPC   PO4 1131  11.325   9.647   7.653
  132POPC   GL1 1132  11.385   9.711   7.353
  132POPC   GL2 1133  11.150   9.663   7.353
  132POPC   C1A 1134  11.296   9.681   7.053
  132POPC   D2A 1135  11.337   9.711   6.753
  132POPC   C3A 1136  11.308   9.691   6.453
  132POPC   C4A 1137  11.344   9.679   6.153
  132POPC   C1B 1138  11.011   9.621   7.053
  132POPC   C2B 1139  10.976   9.560   6.753
  132POPC   C3B 1140  10.985   9.580   6.453
  132POPC   C4B 1141  10.983   9.549   6.153
  133POPC   NC3 1142  10.376   5.202   7.953
  133POPC   PO4 1143  10.365   5.213   7.653
  133POPC   GL1 1144  10.446   5.222   7.353
  133POPC   GL2 1145  10.424   5.053   7.353
  133POPC   C1A 1146  10.372   5.163   7.053
  133POPC   D2A 1147  10.417   5.246   6.753
  133POPC   C3A 1148  10.411   5.223   6.453
  133POPC   C4A 1149  10.426   5.164   6.153
  133POPC   C1B 1150  10.417   4.896   7.053
  133POPC   C2B 1151  10.393   4.848   6.753
  133POPC   C3B 1152  10.428   4.846   6.453
  133POPC   C4B 1153  10.440   4.870   6.153
  134POPC   NC3 1154   5.751   0.234   7.953
  134POPC   PO4 1155   5.725   0.295   7.653
  134POPC   GL1 1156   5.784   0.315   7.353
  134POPC   GL2 1157   5.759   0.433   7.353
  134POPC   C1A 1158   5.748   0.275   7.053
  134POPC   D2A 1159   5.727   0.282   6.753
  134POPC   C3A 1160   5.779   0.316   6.453
  134POPC   C4A 1161   5.786   0.224   6.153
  134POPC   C1B 1162   5.858   0.559   7.053
  134POPC   C2B 1163   5.897   0.641   6.753
  134POPC   C3B 1164   5.856   0.638   6.453
  134POPC   C4B 1165   5.871   0.632   6.153
  135POPC   NC3 1166   9.613  11.038   7.953
  135POPC   PO4 1167   9.625  10.948   7.653
  135POPC   GL1 1168   9.685  11.038   7.353
  135POPC   GL2 1169   9.601  11.158   7.353
  135POPC   C1A 1170   9.671  10.992   7.053
  135POPC   D2A 1171   9.671  10.948   6.753
  135POPC   C3A 1172   9.636  11.019   6.453
  135POPC   C4A 1173   9.636  10.997   6.153
  135POPC   C1B 1174   9.658  11.298   7.053
  135POPC   C2B 1175   9.596  11.306   6.753
  135POPC   C3B 1176   9.571  11.375   6.453
  135POPC   C4B 1177   9.585  11.322   6.153
  136POPC   NC3 1178  10.321   8.230   7.953
  136POPC   PO4 1179  10.294   8.255   7.653
  136POPC   GL1 1180  10.275   8.274   7.353
  136POPC   GL2 1181  10.395   8.073   7.353
  136POPC   C1A 1182  10.303   8.191   7.053
  136POPC   D2A 1183  10.278   8.196   6.753
  136POPC   C3A 1184  10.274   8.275   6.453
  136POPC   C4A 1185  10.265   8.209   6.153
  136POPC   C1B 1186  10.553   7.941   7.053
  136POPC   C2B 1187  10.557   7.998   6.753
  136POPC   C3B 1188  10.525   7.962   6.453
  136POPC   C4B 1189  10.556   7.985   6.153
  137POPC   NC3 1190   4.211   1.071   7.953
  137POPC   PO4 1191   4.252   1.015   7.653
  137POPC   GL1 1192   4.255   0.996   7.353
  137POPC   GL2 1193   4.261   1.237   7.353
  137POPC   C1A 1194   4.222   1.038   7.053
  137POPC   D2A 1195   4.268   0.976   6.753
  137POPC   C3A 1196   4.235   1.046   6.453
  137POPC   C4A 1197   4.200   1.027   6.153
  137POPC   C1B 1198   4.238   1.349   7.053
  137POPC   C2B 1199   4.292   1.334   6.753
  137POPC   C3B 1200   4.308   1.368   6.453
  137POPC   C4B 1201   4.273   1.380   6.153
  138POPC   NC3 1202   1.781   4.962   7.953
  138POPC   PO4 1203   1.830   4.947   7.653
  138POPC   GL1 1204   1.786   4.973   7.353
  138POPC   GL2 1205   1.920   5.023   7.353
  138POPC   C1A 1206   1.799   4.963   7.053
  138POPC   D2A 1207   1.804   4.969   6.753
  138POPC   C3A 1208   1.840   4.938   6.453
  138POPC   C4A 1209   1.801   4.942   6.153
  138POPC   C1B 1210   2.137   5.179   7.053
  138POPC   C2B 1211   2.109   5.181   6.753
  138POPC   C3B 1212   2.144   5.109   6.453
  138POPC   C4B 1213   2.128   5.097   6.153
  139POPC   NC3 1214   9.764   4.867   7.953
  139POPC   PO4 1215   9.726   4.936   7.653
  139POPC   GL1 1216   9.792   4.919   7.353
  139POPC   GL2 1217   9.661   5.006   7.353
  139POPC   C1A 1218   9.742   4.946   7.053
  139POPC   D2A 1219   9.757   4.868   6.753
  139POPC   C3A 1220   9.720   4.945   6.453
  139POPC   C4A 1221   9.749   4.886   6.153
  139POPC   C1B 1222   9.488   5.170   7.053
  139POPC   C2B 1223   9.541   5.196   6.753
  139POPC   C3B 1224   9.528   5.188   6.453
  139POPC   C4B 1225   9.556   5.140   6.153
  140POPC   NC3 1226  11.190  11.320   7.953
  140POPC   PO4 1227  11.121  11.383   7.653
  140POPC   GL1 1228  11.150  11.377   7.353
  140POPC   GL2 1229  11.125  11.203   7.353
  140POPC   C1A 1230  11.181  11.341   7.053
  140POPC   D2A 1231  11.131  11.356   6.753
  140POPC   C3A 1232  11.196  11.328   6.453
  140POPC   C4A 1233  11.203  11.324   6.153
  140POPC   C1B 1234  11.174  10.996   7.053
  140POPC   C2B 1235  11.148  10.958   6.753
  140POPC   C3B 1236  11.225  11.006   6.453
  140POPC   C4B 1237  11.191  10.949   6.153
  141POPC   NC3 1238  10.394   3.279   7.953
  141POPC   PO4 1239  10.395   3.291   7.653
  141POPC   GL1 1240  10.436   3.328   7.353
  141POPC   GL2 1241  10.368   3.530   7.353
  141POPC   C1A 1242  10.373   3.321   7.053
  141POPC   D2A 1243  10.392   3.352   6.753
  141POPC   C3A 1244  10.390   3.361   6.453
  141POPC   C4A 1245  10.468   3.278   6.153
  141POPC   C1B 1246  10.344   3.685   7.053
  141POPC   C2B 1247  10.432   3.674   6.753
  141POPC   C3B 1248  10.351   3.672   6.453
  141POPC   C4B 1249  10.343   3.637   6.153
  142POPC   NC3 1250   6.364   0.346   7.953
  142POPC   PO4 1251   6.375   0.356   7.653
  142POPC   GL1 1252   6.384   0.382   7.353
  142POPC   GL2 1253   6.560   0.386   7.353
  142POPC   C1A 1254   6.391   0.360   7.053
  142POPC   D2A 1255   6.430   0.327   6.753
  142POPC   C3A 1256   6.451   0.381   6.453
  142POPC   C4A 1257   6.410   0.327   6.153
  142POPC   C1B 1258   6.749   0.505   7.053
  142POPC   C2B 1259   6.703   0.486   6.753
  142POPC   C3B 1260   6.751   0.549   6.453
  142POPC   C4B 1261   6.737   0.464   6.153
  143POPC   NC3 1262   4.854  10.275   7.953
  143POPC   PO4 1263   4.903  10.278   7.653
  143POPC   GL1 1264   4.847  10.276   7.353
  143POPC   GL2 1265   5.013  10.444   7.353
  143POPC   C1A 1266   4.935  10.315   7.053
  143POPC   D2A 1267   4.904  10.318   6.753
  143POPC   C3A 1268   4.863  10.292   6.453
  143POPC   C4A 1269   4.849  10.279   6.153
  143POPC   C1B 1270   5.160  10.501   7.053
  143POPC   C2B 1271   5.211  10.532   6.753
  143POPC   C3B 1272   5.194  10.493   6.453
  143POPC   C4B 1273   5.201  10.531   6.153
  144POPC   NC3 1274  11.297   4.884   7.953
  144POPC   PO4 1275  11.255   4.860   7.653
  144POPC   GL1 1276  11.218   4.840   7.353
  144POPC   GL2 1277  11.158   5.082   7.353
  144POPC   C1A 1278  11.309   4.874   7.053
  144POPC   D2A 1279  11.254   4.863   6.753
  144POPC   C3A 1280  11.221   4.868   6.453
  144POPC   C4A 1281  11.215   4.911   6.153
  144POPC   C1B 1282  11.060   5.189   7.053
  144POPC   C2B 1283  11.075   5.150   6.753
  144POPC   C3B 1284  11.069   5.170   6.453
  144POPC   C4B 1285  11.041   5.219   6.153
  145POPC   NC3 1286   8.153  10.199   7.953
  145POPC   PO4 1287   8.144  10.204   7.653
  145POPC   GL1 1288   8.105  10.236   7.353
  145POPC   GL2 1289   8.137  10.386   7.353
  145POPC   C1A 1290   8.181  10.268   7.053
  145POPC   D2A 1291   8.180  10.247   6.753
  145POPC   C3A 1292   8.168  10.275   6.453
  145POPC   C4A 1293   8.100  10.254   6.153
  145POPC   C1B 1294   8.065  10.560   7.053
  145POPC   C2B 1295   8.045  10.601   6.753
  145POPC   C3B 1296   8.062  10.556   6.453
  145POPC   C4B 1297   8.084  10.619   6.153
  146POPC   NC3 1298   4.429   2.654   7.953
  146POPC   PO4 1299   4.437   2.660   7.653
  146POPC   GL1 1300   4.470   2.712   7.353
  146POPC   GL2 1301   4.279   2.778   7.353
  146POPC   C1A 1302   4.446   2.671   7.053
  146POPC   D2A 1303   4.463   2.670   6.753
  146POPC   C3A 1304   4.476   2.688   6.453
  146POPC   C4A 1305   4.392   2.639   6.153
  146POPC   C1B 1306   4.121   2.768   7.053
  146POPC   C2B 1307   4.146   2.816   6.753
  146POPC   C3B 1308   4.057   2.792   6.453
  146POPC   C4B 1309   4.141   2.840   6.153
  147POPC   NC3 1310   1.124   5.997   7.953
  147POPC   PO4 1311   1.101   5.979   7.653
  147POPC   GL1 1312   1.066   5.919   7.353
  147POPC   GL2 1313   1.237   5.825   7.353
  147POPC   C1A 1314   1.099   5.996   7.053
  147POPC   D2A 1315   1.093   5.937   6.753
  147POPC   C3A 1316   1.084   5.953   6.453
  147POPC   C4A 1317   1.124   5.962   6.153
  147POPC   C1B 1318   1.299   5.668   7.053
  147POPC   C2B 1319   1.316   5.673   6.753
  147POPC   C3B 1320   1.298   5.688   6.453
  147POPC   C4B 1321   1.268   5.638   6.153
  148POPC   NC3 1322   3.679  11.175   7.953
  148POPC   PO4 1323   3.649  11.128   7.653
  148POPC   GL1 1324   3.664  11.180   7.353
  148POPC   GL2 1325   3.502  11.179   7.353
  148POPC   C1A 1326   3.701  11.096   7.053
  148POPC   D2A 1327   3.703  11.137   6.753
  148POPC   C3A 1328   3.659  11.160   6.453
  148POPC   C4A 1329   3.629  11.141   6.153
  148POPC   C1B 1330   3.310  11.203   7.053
  148POPC   C2B 1331   3.276  11.210   6.753
  148POPC   C3B 1332   3.324  11.188   6.453
  148POPC   C4B 1333   3.305  11.156   6.153
  149POPC   NC3 1334  11.370   4.243   7.953
  149POPC   PO4 1335  11.312   4.192   7.653
  149POPC   GL1 1336  11.307   4.220   7.353
  149POPC   GL2 1337  11.206   4.226   7.353
  149POPC   C1A 1338  11.297   4.237   7.053
  149POPC   D2A 1339  11.384   4.165   6.753
  149POPC   C3A 1340  11.357   4.211   6.453
  149POPC   C4A 1341  11.314   4.188   6.153
  149POPC   C1B 1342  10.988   4.367   7.053
  149POPC   C2B 1343  11.016   4.323   6.753
  149POPC   C3B 1344  10.956   4.338   6.453
  149POPC   C4B 1345  10.982   4.285   6.153
  150POPC   NC3 1346   9.760   4.133   7.953
  150POPC   PO4 1347   9.762   4.110   7.653
  150POPC   GL1 1348   9.759   4.101   7.353
  150POPC   GL2 1349   9.647   4.230   7.353
  150POPC   C1A 1350   9.691   4.095   7.053
  150POPC   D2A 1351   9.701   4.160   6.753
  150POPC   C3A 1352   9.673   4.113   6.453
  150POPC   C4A 1353   9.703   4.155   6.153
  150POPC   C1B 1354   9.573   4.407   7.053
  150POPC   C2B 1355   9.543   4.442   6.753
  150POPC   C3B 1356   9.533   4.410   6.453
  150POPC   C4B 1357   9.593   4.371   6.153
  151POPC   NC3 1358   2.147   7.456   7.953
  151POPC   PO4 1359   2.158   7.402   7.653
  151POPC   GL1 1360   2.142   7.379   7.353
  151POPC   GL2 1361   1.997   7.341   7.353
  151POPC   C1A 1362   2.123   7.425   7.053
  151POPC   D2A 1363   2.154   7.461   6.753
  151POPC   C3A 1364   2.081   7.418   6.453
  151POPC   C4A 1365   2.073   7.452   6.153
  151POPC   C1B 1366   1.834   7.261   7.053
  151POPC   C2B 1367   1.782   7.235   6.753
  151POPC   C3B 1368   1.816   7.281   6.453
  151POPC   C4B 1369   1.830   7.238   6.153
  152POPC   NC3 1370  10.356   1.049   7.953
  152POPC   PO4 1371  10.406   1.042   7.653
  152POPC   GL1 1372  10.354   1.029   7.353
  152POPC   GL2 1373  10.406   1.203   7.353
  152POPC   C1A 1374  10.388   0.992   7.053
  152POPC   D2A 1375  10.342   1.046   6.753
  152POPC   C3A 1376  10.335   1.032   6.453
  152POPC   C4A 1377  10.385   0.997   6.153
  152POPC   C1B 1378  10.390   1.407   7.053
  152POPC   C2B 1379  10.458   1.339   6.753
  152POPC   C3B 1380  10.393   1.338   6.453
  152POPC   C4B 1381  10.455   1.416   6.153
  153POPC   NC3 1382   0.591   5.093   7.953
  153POPC   PO4 1383   0.601   5.099   7.653
  153POPC   GL1 1384   0.597   5.104   7.353
  153POPC   GL2 1385   0.475   5.053   7.353
  153POPC   C1A 1386   0.634   5.145   7.053
  153POPC   D2A 1387   0.557   5.058   6.753
  153POPC   C3A 1388   0.551   5.090   6.453
  153POPC   C4A 1389   0.575   5.056   6.153
  153POPC   C1B 1390   0.298   4.932   7.053
  153POPC   C2B 1391   0.239   4.914   6.753
  153POPC   C3B 1392   0.222   4.991   6.453
  153POPC   C4B 1393   0.307   5.011   6.153
  154POPC   NC3 1394   0.530   7.495   7.953
  154POPC   PO4 1395   0.464   7.518   7.653
  154POPC   GL1 1396   0.464   7.549   7.353
  154POPC   GL2 1397   0.446   7.371   7.353
  154POPC   C1A 1398   0.504   7.485   7.053
  154POPC   D2A 1399   0.465   7.505   6.753
  154POPC   C3A 1400   0.483   7.531   6.453
  154POPC   C4A 1401   0.452   7.518   6.153
  154POPC   C1B 1402   0.362   7.125   7.053
  154POPC   C2B 1403   0.402   7.159   6.753
  154POPC   C3B 1404   0.343   7.174   6.453
  154POPC   C4B 1405   0.402   7.157   6.153
  155POPC   NC3 1406   1.802   4.300   7.953
  155POPC   PO4 1407   1.748   4.283   7.653
  155POPC   GL1 1408   1.805   4.279   7.353
  155POPC   GL2 1409   1.930   4.264   7.353
  155POPC   C1A 1410   1.765   4.275   7.053
  155POPC   D2A 1411   1.805   4.213   6.753
  155POPC   C3A 1412   1.818   4.212   6.453
  155POPC   C4A 1413   1.765   4.294   6.153
  155POPC   C1B 1414   2.113   4.268   7.053
  155POPC   C2B 1415   2.168   4.245   6.753
  155POPC   C3B 1416   2.115   4.269   6.453
  155POPC   C4B 1417   2.124   4.318   6.153
  156POPC   NC3 1418   7.325  10.549   7.953
  156POPC   PO4 1419   7.356  10.548   7.653
  156POPC   GL1 1420   7.302  10.540   7.353
  156POPC   GL2 1421   7.339  10.395   7.353
  156POPC   C1A 1422   7.314  10.538   7.053
  156POPC   D2A 1423   7.321  10.548   6.753
  156POPC   C3A 1424   7.351  10.548   6.453
  156POPC   C4A 1425   7.354  10.610   6.153
  156POPC   C1B 1426   7.298  10.260   7.053
  156POPC   C2B 1427   7.293  10.215   6.753
  156POPC   C3B 1428   7.280  10.177   6.453
  156POPC   C4B 1429   7.323  10.218   6.153
  157POPC   NC3 1430   2.185   1.178   7.953
  157POPC   PO4 1431   2.162   1.201   7.653
  157POPC   GL1 1432   2.108   1.244   7.353
  157POPC   GL2 1433   1.969   1.233   7.353
  157POPC   C1A 1434   2.102   1.230   7.053
  157POPC   D2A 1435   2.137   1.255   6.753
  157POPC   C3A 1436   2.100   1.248   6.453
  157POPC   C4A 1437   2.100   1.210   6.153
  157POPC   C1B 1438   1.812   1.187   7.053
  157POPC   C2B 1439   1.750   1.218   6.753
  157POPC   C3B 1440   1.799   1.137   6.453
  157POPC   C4B 1441   1.822   1.155   6.153
  158POPC   NC3 1442  10.474   9.442   7.953
  158POPC   PO4 1443  10.479   9.463   7.653
  158POPC   GL1 1444  10.534   9.509   7.353
  158POPC   GL2 1445  10.354   9.586   7.353
  158POPC   C1A 1446  10.486   9.529   7.053
  158POPC   D2A 1447  10.464   9.503   6.753
  158POPC   C3A 1448  10.503   9.473   6.453
  158POPC   C4A 1449  10.548   9.496   6.153
  158POPC   C1B 1450  10.276   9.792   7.053
  158POPC   C2B 1451  10.289   9.769   6.753
  158POPC   C3B 1452  10.291   9.733   6.453
  158POPC   C4B 1453  10.337   9.820   6.153
  159POPC   NC3 1454   2.106   3.610   7.953
  159POPC   PO4 1455   2.016   3.658   7.653
  159POPC   GL1 1456   2.070   3.656   7.353
  159POPC   GL2 1457   2.008   3.523   7.353
  159POPC   C1A 1458   2.044   3.673   7.053
  159POPC   D2A 1459   2.109   3.604   6.753
  159POPC   C3A 1460   2.076   3.695   6.453
  159POPC   C4A 1461   2.106   3.679   6.153
  159POPC   C1B 1462   1.834   3.321   7.053
  159POPC   C2B 1463   1.898   3.344   6.753
  159POPC   C3B 1464   1.914   3.360   6.453
  159POPC   C4B 1465   1.896   3.328   6.153
  160POPC   NC3 1466   9.831   1.984   7.953
  160POPC   PO4 1467   9.790   1.961   7.653
  160POPC   GL1 1468   9.774   1.930   7.353
  160POPC   GL2 1469   9.592   1.939   7.353
  160POPC   C1A 1470   9.769   2.004   7.053
  160POPC   D2A 1471   9.850   1.988   6.753
  160POPC   C3A 1472   9.814   1.966   6.453
  160POPC   C4A 1473   9.768   1.980   6.153
  160POPC   C1B 1474   9.478   1.958   7.053
  160POPC   C2B 1475   9.458   1.976   6.753
  160POPC   C3B 1476   9.500   1.970   6.453
  160POPC   C4B 1477   9.497   1.983   6.153
  161POPC   NC3 1478   0.511   5.646   7.953
  161POPC   PO4 1479   0.482   5.673   7.653
  161POPC   GL1 1480   0.479   5.647   7.353
  161POPC   GL2 1481   0.483   5.753   7.353
  161POPC   C1A 1482   0.459   5.675   7.053
  161POPC   D2A 1483   0.467   5.603   6.753
  161POPC   C3A 1484   0.477   5.587   6.453
  161POPC   C4A 1485   0.507   5.580   6.153
  161POPC   C1B 1486   0.394   6.006   7.053
  161POPC   C2B 1487   0.391   5.944   6.753
  161POPC   C3B 1488   0.425   5.973   6.453
  161POPC   C4B 1489   0.367   6.000   6.153
  162POPC   NC3 1490  10.257  10.403   7.953
  162POPC   PO4 1491  10.238  10.406   7.653
  162POPC   GL1 1492  10.245  10.358   7.353
  162POPC   GL2 1493  10.363  10.352   7.353
  162POPC   C1A 1494  10.208  10.363   7.053
  162POPC   D2A 1495  10.229  10.440   6.753
  162POPC   C3A 1496  10.246  10.422   6.453
  162POPC   C4A 1497  10.196  10.422   6.153
  162POPC   C1B 1498  10.570  10.377   7.053
  162POPC   C2B 1499  10.580  10.396   6.753
  162POPC   C3B 1500  10.552  10.375   6.453
  162POPC   C4B 1501  10.554  10.404   6.153
  163POPC   NC3 1502   4.147   0.373   7.953
  163POPC   PO4 1503   4.061   0.328   7.653
  163POPC   GL1 1504   4.070   0.418   7.353
  163POPC   GL2 1505   4.238   0.446   7.353
  163POPC   C1A 1506   4.092   0.379   7.053
  163POPC   D2A 1507   4.082   0.378   6.753
  163POPC   C3A 1508   4.125   0.337   6.453
  163POPC   C4A 1509   4.121   0.362   6.153
  163POPC   C1B 1510   4.485   0.527   7.053
  163POPC   C2B 1511   4.473   0.505   6.753
  163POPC   C3B 1512   4.485   0.458   6.453
  163POPC   C4B 1513   4.426   0.497   6.153
  164POPC   NC3 1514   1.899   2.142   7.953
  164POPC   PO4 1515   1.895   2.151   7.653
  164POPC   GL1 1516   1.964   2.161   7.353
  164POPC   GL2 1517   1.972   1.925   7.353
  164POPC   C1A 1518   1.943   2.096   7.053
  164POPC   D2A 1519   1.909   2.099   6.753
  164POPC   C3A 1520   1.958   2.096   6.453
  164POPC   C4A 1521   1.937   2.160   6.153
  164POPC   C1B 1522   1.996   1.833   7.053
  164POPC   C2B 1523   2.045   1.836   6.753
  164POPC   C3B 1524   1.957   1.779   6.453
  164POPC   C4B 1525   1.950   1.775   6.153
  165POPC   NC3 1526   9.810   3.551   7.953
  165POPC   PO4 1527   9.855   3.555   7.653
  165POPC   GL1 1528   9.857   3.540   7.353
  165POPC   GL2 1529   9.679   3.470   7.353
  165POPC   C1A 1530   9.761   3.479   7.053
  165POPC   D2A 1531   9.804   3.518   6.753
  165POPC   C3A 1532   9.778   3.565   6.453
  165POPC   C4A 1533   9.781   3.509   6.153
  165POPC   C1B 1534   9.495   3.480   7.053
  165POPC   C2B 1535   9.416   3.526   6.753
  165POPC   C3B 1536   9.488   3.438   6.453
  165POPC   C4B 1537   9.495   3.452   6.153
  166POPC   NC3 1538   8.779   8.741   7.953
  166POPC   PO4 1539   8.872   8.721   7.653
  166POPC   GL1 1540   8.816   8.709   7.353
  166POPC   GL2 1541   8.890   8.830   7.353
  166POPC   C1A 1542   8.803   8.712   7.053
  166POPC   D2A 1543   8.795   8.696   6.753
  166POPC   C3A 1544   8.826   8.644   6.453
  166POPC   C4A 1545   8.783   8.719   6.153
  166POPC   C1B 1546   8.918   9.057   7.053
  166POPC   C2B 1547   8.891   9.071   6.753
  166POPC   C3B 1548   8.895   9.004   6.453
  166POPC   C4B 1549   8.913   9.055   6.153
  167POPC   NC3 1550   2.646   1.087   7.953
  167POPC   PO4 1551   2.671   1.055   7.653
  167POPC   GL1 1552   2.591   1.095   7.353
  167POPC   GL2 1553   2.759   1.196   7.353
  167POPC   C1A 1554   2.595   1.072   7.053
  167POPC   D2A 1555   2.663   1.061   6.753
  167POPC   C3A 1556   2.599   1.016   6.453
  167POPC   C4A 1557   2.654   1.041   6.153
  167POPC   C1B 1558   2.871   1.353   7.053
  167POPC   C2B 1559   2.860   1.323   6.753
  167POPC   C3B 1560   2.836   1.343   6.453
  167POPC   C4B 1561   2.840   1.352   6.153
  168POPC   NC3 1562   9.438   8.129   7.953
  168POPC   PO4 1563   9.457   8.102   7.653
  168POPC   GL1 1564   9.422   8.148   7.353
  168POPC   GL2 1565   9.659   8.147   7.353
  168POPC   C1A 1566   9.495   8.074   7.053
  168POPC   D2A 1567   9.452   8.074   6.753
  168POPC   C3A 1568   9.491   8.113   6.453
  168POPC   C4A 1569   9.490   8.113   6.153
  168POPC   C1B 1570   9.823   8.115   7.053
  168POPC   C2B 1571   9.775   8.119   6.753
  168POPC   C3B 1572   9.832   8.081   6.453
  168POPC   C4B 1573   9.809   8.102   6.153
  169POPC   NC3 1574   6.713   2.000   7.953
  169POPC   PO4 1575   6.717   2.011   7.653
  169POPC   GL1 1576   6.712   1.951   7.353
  169POPC   GL2 1577   6.537   1.943   7.353
  169POPC   C1A 1578   6.775   1.991   7.053
  169POPC   D2A 1579   6.733   1.979   6.753
  169POPC   C3A 1580   6.700   1.934   6.453
  169POPC   C4A 1581   6.769   1.956   6.153
  169POPC   C1B 1582   6.385   1.927   7.053
  169POPC   C2B 1583   6.391   1.962   6.753
  169POPC   C3B 1584   6.382   1.959   6.453
  169POPC   C4B 1585   6.413   1.936   6.153
  170POPC   NC3 1586   6.532   3.317   7.953
  170POPC   PO4 1587   6.522   3.337   7.653
  170POPC   GL1 1588   6.508   3.332   7.353
  170POPC   GL2 1589   6.537   3.510   7.353
  170POPC   C1A 1590   6.494   3.333   7.053
  170POPC   D2A 1591   6.564   3.352   6.753
  170POPC   C3A 1592   6.481   3.328   6.453
  170POPC   C4A 1593   6.543   3.329   6.153
  170POPC   C1B 1594   6.643   3.671   7.053
  170POPC   C2B 1595   6.582   3.629   6.753
  170POPC   C3B 1596   6.651   3.708   6.453
  170POPC   C4B 1597   6.614   3.676   6.153
  171POPC   NC3 1598   7.918   1.305   7.953
  171POPC   PO4 1599   7.985   1.302   7.653
  171POPC   GL1 1600   7.959   1.263   7.353
  171POPC   GL2 1601   8.135   1.246   7.353
  171POPC   C1A 1602   7.955   1.319   7.053
  171POPC   D2A 1603   7.938   1.273   6.753
  171POPC   C3A 1604   7.958   1.310   6.453
  171POPC   C4A 1605   7.926   1.247   6.153
  171POPC   C1B 1606   8.267   1.162   7.053
  171POPC   C2B 1607   8.261   1.149   6.753
  171POPC   C3B 1608   8.309   1.095   6.453
  171POPC   C4B 1609   8.265   1.125   6.153
  172POPC   NC3 1610   6.430  10.561   7.953
  172POPC   PO4 1611   6.475  10.514   7.653
  172POPC   GL1 1612   6.431  10.551   7.353
  172POPC   GL2 1613   6.560  10.351   7.353
  172POPC   C1A 1614   6.464  10.532   7.053
  172POPC   D2A 1615   6.522  10.510   6.753
  172POPC   C3A 1616   6.463  10.586   6.453
  172POPC   C4A 1617   6.441  10.584   6.153
  172POPC   C1B 1618   6.619  10.239   7.053
  172POPC   C2B 1619   6.694  10.197   6.753
  172POPC   C3B 1620   6.633  10.216   6.453
  172POPC   C4B 1621   6.643  10.293   6.153
  173POPC   NC3 1622   7.172   2.857   7.953
  173POPC   PO4 1623   7.173   2.826   7.653
  173POPC   GL1 1624   7.160   2.861   7.353
  173POPC   GL2 1625   7.350   2.712   7.353
  173POPC   C1A 1626   7.156   2.868   7.053
  173POPC   D2A 1627   7.203   2.801   6.753
  173POPC   C3A 1628   7.226   2.810   6.453
  173POPC   C4A 1629   7.168   2.843   6.153
  173POPC   C1B 1630   7.478   2.663   7.053
  173POPC   C2B 1631   7.487   2.579   6.753
  173POPC   C3B 1632   7.500   2.636   6.453
  173POPC   C4B 1633   7.441   2.637   6.153
  174POPC   NC3 1634  10.971   1.961   7.953
  174POPC   PO4 1635  11.019   1.965   7.653
  174POPC   GL1 1636  11.038   2.021   7.353
  174POPC   GL2 1637  11.185   1.918   7.353
  174POPC   C1A 1638  10.989   2.035   7.053
  174POPC   D2A 1639  11.040   1.961   6.753
  174POPC   C3A 1640  11.040   1.987   6.453
  174POPC   C4A 1641  11.016   1.980   6.153
  174POPC   C1B 1642  11.385   1.971   7.053
  174POPC   C2B 1643  11.379   1.935   6.753
  174POPC   C3B 1644  11.323   1.954   6.453
  174POPC   C4B 1645  11.344   1.938   6.153
  175POPC   NC3 1646   4.898   1.032   7.953
  175POPC   PO4 1647   4.880   1.058   7.653
  175POPC   GL1 1648   4.887   1.112   7.353
  175POPC   GL2 1649   5.063   1.191   7.353
  175POPC   C1A 1650   4.935   1.066   7.053
  175POPC   D2A 1651   4.941   1.112   6.753
  175POPC   C3A 1652   4.937   1.062   6.453
  175POPC   C4A 1653   4.869   1.021   6.153
  175POPC   C1B 1654   5.115   1.288   7.053
  175POPC   C2B 1655   5.107   1.316   6.753
  175POPC   C3B 1656   5.194   1.300   6.453
  175POPC   C4B 1657   5.162   1.333   6.153
  176POPC   NC3 1658   0.324   3.382   7.953
  176POPC   PO4 1659   0.361   3.309   7.653
  176POPC   GL1 1660   0.356   3.314   7.353
  176POPC   GL2 1661   0.465   3.463   7.353
  176POPC   C1A 1662   0.352   3.339   7.053
  176POPC   D2A 1663   0.321   3.366   6.753
  176POPC   C3A 1664   0.346   3.352   6.453
  176POPC   C4A 1665   0.314   3.339   6.153
  176POPC   C1B 1666   0.504   3.671   7.053
  176POPC   C2B 1667   0.521   3.682   6.753
  176POPC   C3B 1668   0.528   3.636   6.453
  176POPC   C4B 1669   0.498   3.673   6.153
  177POPC   NC3 1670  10.447   6.703   7.953
  177POPC   PO4 1671  10.456   6.697   7.653
  177POPC   GL1 1672  10.393   6.764   7.353
  177POPC   GL2 1673  10.443   6.534   7.353
  177POPC   C1A 1674  10.422   6.779   7.053
  177POPC   D2A 1675  10.395   6.718   6.753
  177POPC   C3A 1676  10.480   6.776   6.453
  177POPC   C4A 1677  10.476   6.753   6.153
  177POPC   C1B 1678  10.365   6.436   7.053
  177POPC   C2B 1679  10.402   6.348   6.753
  177POPC   C3B 1680  10.325   6.387   6.453
  177POPC   C4B 1681  10.368   6.387   6.153
  178POPC   NC3 1682  10.568   5.892   7.953
  178POPC   PO4 1683  10.528   5.886   7.653
  178POPC   GL1 1684  10.520   5.897   7.353
  178POPC   GL2 1685  10.418   5.751   7.353
  178POPC   C1A 1686  10.518   5.871   7.053
  178POPC   D2A 1687  10.605   5.863   6.753
  178POPC   C3A 1688  10.592   5.898   6.453
  178POPC   C4A 1689  10.513   5.884   6.153
  178POPC   C1B 1690  10.249   5.667   7.053
  178POPC   C2B 1691  10.282   5.713   6.753
  178POPC   C3B 1692  10.239   5.704   6.453
  178POPC   C4B 1693  10.285   5.712   6.153
  179POPC   NC3 1694  11.096   2.912   7.953
  179POPC   PO4 1695  11.113   2.908   7.653
  179POPC   GL1 1696  11.027   2.845   7.353
  179POPC   GL2 1697  11.149   2.762   7.353
  179POPC   C1A 1698  11.027   2.883   7.053
  179POPC   D2A 1699  11.062   2.858   6.753
  179POPC   C3A 1700  11.064   2.848   6.453
  179POPC   C4A 1701  11.108   2.894   6.153
  179POPC   C1B 1702  11.222   2.569   7.053
  179POPC   C2B 1703  11.285   2.598   6.753
  179POPC   C3B 1704  11.218   2.583   6.453
  179POPC   C4B 1705  11.233   2.567   6.153
  180POPC   NC3 1706   3.326   2.891   7.953
  180POPC   PO4 1707   3.350   2.825   7.653
  180POPC   GL1 1708   3.355   2.898   7.353
  180POPC   GL2 1709   3.522   2.760   7.353
  180POPC   C1A 1710   3.403   2.874   7.053
  180POPC   D2A 1711   3.371   2.834   6.753
  180POPC   C3A 1712   3.407   2.846   6.453
  180POPC   C4A 1713   3.365   2.834   6.153
  180POPC   C1B 1714   3.589   2.569   7.053
  180POPC   C2B 1715   3.605   2.606   6.753
  180POPC   C3B 1716   3.632   2.624   6.453
  180POPC   C4B 1717   3.597   2.603   6.153
  181POPC   NC3 1718   9.749   7.188   7.953
  181POPC   PO4 1719   9.736   7.205   7.653
  181POPC   GL1 1720   9.705   7.217   7.353
  181POPC   GL2 1721   9.608   7.377   7.353
  181POPC   C1A 1722   9.790   7.230   7.053
  181POPC   D2A 1723   9.795   7.161   6.753
  181POPC   C3A 1724   9.724   7.176   6.453
  181POPC   C4A 1725   9.751   7.239   6.153
  181POPC   C1B 1726   9.531   7.424   7.053
  181POPC   C2B 1727   9.466   7.482   6.753
  181POPC   C3B 1728   9.539   7.480   6.453
  181POPC   C4B 1729   9.490   7.469   6.153
  182POPC   NC3 1730   5.685   9.830   7.953
  182POPC   PO4 1731   5.700   9.798   7.653
  182POPC   GL1 1732   5.759   9.745   7.353
  182POPC   GL2 1733   5.835   9.589   7.353
  182POPC   C1A 1734   5.662   9.826   7.053
  182POPC   D2A 1735   5.707   9.768   6.753
  182POPC   C3A 1736   5.737   9.834   6.453
  182POPC   C4A 1737   5.713   9.812   6.153
  182POPC   C1B 1738   5.927   9.454   7.053
  182POPC   C2B 1739   5.858   9.495   6.753
  182POPC   C3B 1740   5.900   9.462   6.453
  182POPC   C4B 1741   5.910   9.487   6.153
  183POPC   NC3 1742   1.826  11.109   7.953
  183POPC   PO4 1743   1.767  11.147   7.653
  183POPC   GL1 1744   1.749  11.111   7.353
  183POPC   GL2 1745   1.932  11.203   7.353
  183POPC   C1A 1746   1.773  11.159   7.053
  183POPC   D2A 1747   1.781  11.103   6.753
  183POPC   C3A 1748   1.822  11.146   6.453
  183POPC   C4A 1749   1.837  11.134   6.153
  183POPC   C1B 1750   2.152  11.196   7.053
  183POPC   C2B 1751   2.173  11.237   6.753
  183POPC   C3B 1752   2.151  11.169   6.453
  183POPC   C4B 1753   2.136  11.189   6.153
  184POPC   NC3 1754   4.421   9.783   7.953
  184POPC   PO4 1755   4.423   9.753   7.653
  184POPC   GL1 1756   4.439   9.708   7.353
  184POPC   GL2 1757   4.237   9.663   7.353
  184POPC   C1A 1758   4.410   9.720   7.053
  184POPC   D2A 1759   4.438   9.720   6.753
  184POPC   C3A 1760   4.418   9.779   6.453
  184POPC   C4A 1761   4.388   9.756   6.153
  184POPC   C1B 1762   4.079   9.519   7.053
  184POPC   C2B 1763   4.076   9.533   6.753
  184POPC   C3B 1764   4.121   9.516   6.453
  184POPC   C4B 1765   4.170   9.510   6.153
  185POPC   NC3 1766   2.655   9.817   7.953
  185POPC   PO4 1767   2.633   9.807   7.653
  185POPC   GL1 1768   2.629   9.771   7.353
  185POPC   GL2 1769   2.733   9.675   7.353
  185POPC   C1A 1770   2.687   9.767   7.053
  185POPC   D2A 1771   2.652   9.824   6.753
  185POPC   C3A 1772   2.628   9.798   6.453
  185POPC   C4A 1773   2.666   9.783   6.153
  185POPC   C1B 1774   2.794   9.436   7.053
  185POPC   C2B 1775   2.795   9.473   6.753
  185POPC   C3B 1776   2.833   9.423   6.453
  185POPC   C4B 1777   2.776   9.432   6.153
  186POPC   NC3 1778   7.412   8.713   7.953
  186POPC   PO4 1779   7.487   8.760   7.653
  186POPC   GL1 1780   7.446   8.751   7.353
  186POPC   GL2 1781   7.352   8.889   7.353
  186POPC   C1A 1782   7.474   8.761   7.053
  186POPC   D2A 1783   7.479   8.700   6.753
  186POPC   C3A 1784   7.446   8.716   6.453
  186POPC   C4A 1785   7.457   8.710   6.153
  186POPC   C1B 1786   7.217   9.046   7.053
  186POPC   C2B 1787   7.237   8.979   6.753
  186POPC   C3B 1788   7.227   8.978   6.453
  186POPC   C4B 1789   7.195   9.019   6.153
  187POPC   NC3 1790  10.502   2.599   7.953
  187POPC   PO4 1791  10.525   2.545   7.653
  187POPC   GL1 1792  10.514   2.552   7.353
  187POPC   GL2 1793  10.357   2.708   7.353
  187POPC   C1A 1794  10.484   2.615   7.053
  187POPC   D2A 1795  10.502   2.555   6.753
  187POPC   C3A 1796  10.475   2.541   6.453
  187POPC   C4A 1797  10.460   2.568   6.153
  187POPC   C1B 1798  10.326   2.938   7.053
  187POPC   C2B 1799  10.335   2.927   6.753
  187POPC   C3B 1800  10.353   2.888   6.453
  187POPC   C4B 1801  10.322   2.916   6.153
  188POPC   NC3 1802   9.496   8.880   7.953
  188POPC   PO4 1803   9.509   8.877   7.653
  188POPC   GL1 1804   9.462   8.900   7.353
  188POPC   GL2 1805   9.588   8.852   7.353
  188POPC   C1A 1806   9.469   8.942   7.053
  188POPC   D2A 1807   9.458   8.966   6.753
  188POPC   C3A 1808   9.465   8.892   6.453
  188POPC   C4A 1809   9.448   8.887   6.153
  188POPC   C1B 1810   9.808   8.772   7.053
  188POPC   C2B 1811   9.816   8.788   6.753
  188POPC   C3B 1812   9.787   8.801   6.453
  188POPC   C4B 1813   9.798   8.794   6.153
  189POPC   NC3 1814   2.852  10.602   7.953
  189POPC   PO4 1815   2.789  10.564   7.653
  189POPC   GL1 1816   2.792  10.590   7.353
  189POPC   GL2 1817   2.704  10.388   7.353
  189POPC   C1A 1818   2.778  10.606   7.053
  189POPC   D2A 1819   2.814  10.547   6.753
  189POPC   C3A 1820   2.797  10.531   6.453
  189POPC   C4A 1821   2.823  10.548   6.153
  189POPC   C1B 1822   2.697  10.263   7.053
  189POPC   C2B 1823   2.604  10.263   6.753
  189POPC   C3B 1824   2.656  10.283   6.453
  189POPC   C4B 1825   2.701  10.227   6.153
  190POPC   NC3 1826   8.176  10.968   7.953
  190POPC   PO4 1827   8.175  11.060   7.653
  190POPC   GL1 1828   8.173  11.035   7.353
  190POPC   GL2 1829   8.064  11.212   7.353
  190POPC   C1A 1830   8.192  11.062   7.053
  190POPC   D2A 1831   8.149  11.036   6.753
  190POPC   C3A 1832   8.207  11.051   6.453
  190POPC   C4A 1833   8.211  10.979   6.153
  190POPC   C1B 1834   7.976  11.302   7.053
  190POPC   C2B 1835   8.056  11.272   6.753
  190POPC   C3B 1836   8.055  11.364   6.453
  190POPC   C4B 1837   8.046  11.363   6.153
  191POPC   NC3 1838   2.603   2.029   7.953
  191POPC   PO4 1839   2.597   1.986   7.653
  191POPC   GL1 1840   2.533   2.048   7.353
  191POPC   GL2 1841   2.747   1.996   7.353
  191POPC   C1A 1842   2.524   1.995   7.053
  191POPC   D2A 1843   2.538   2.046   6.753
  191POPC   C3A 1844   2.518   2.045   6.453
  191POPC   C4A 1845   2.542   2.035   6.153
  191POPC   C1B 1846   2.930   1.880   7.053
  191POPC   C2B 1847   2.911   1.948   6.753
  191POPC   C3B 1848   2.929   1.944   6.453
  191POPC   C4B 1849   2.865   1.909   6.153
  192POPC   NC3 1850   4.180   9.001   7.953
  192POPC   PO4 1851   4.093   9.010   7.653
  192POPC   GL1 1852   4.186   8.993   7.353
  192POPC   GL2 1853   4.224   8.859   7.353
  192POPC   C1A 1854   4.163   9.024   7.053
  192POPC   D2A 1855   4.095   8.941   6.753
  192POPC   C3A 1856   4.117   9.017   6.453
  192POPC   C4A 1857   4.177   8.970   6.153
  192POPC   C1B 1858   4.403   8.697   7.053
  192POPC   C2B 1859   4.368   8.696   6.753
  192POPC   C3B 1860   4.445   8.768   6.453
  192POPC   C4B 1861   4.407   8.739   6.153
  193POPC   NC3 1862  10.576   1.864   7.953
  193POPC   PO4 1863  10.603   1.933   7.653
  193POPC   GL1 1864  10.558   1.844   7.353
  193POPC   GL2 1865  10.364   2.012   7.353
  193POPC   C1A 1866  10.567   1.937   7.053
  193POPC   D2A 1867  10.537   1.903   6.753
  193POPC   C3A 1868  10.517   1.924   6.453
  193POPC   C4A 1869  10.608   1.905   6.153
  193POPC   C1B 1870  10.280   2.041   7.053
  193POPC   C2B 1871  10.258   2.026   6.753
  193POPC   C3B 1872  10.203   2.042   6.453
  193POPC   C4B 1873  10.274   2.058   6.153
  194POPC   NC3 1874  11.251   6.436   7.953
  194POPC   PO4 1875  11.274   6.418   7.653
  194POPC   GL1 1876  11.216   6.447   7.353
  194POPC   GL2 1877  11.189   6.612   7.353
  194POPC   C1A 1878  11.254   6.404   7.053
  194POPC   D2A 1879  11.191   6.396   6.753
  194POPC   C3A 1880  11.198   6.446   6.453
  194POPC   C4A 1881  11.257   6.418   6.153
  194POPC   C1B 1882  11.130   6.771   7.053
  194POPC   C2B 1883  11.097   6.748   6.753
  194POPC   C3B 1884  11.085   6.755   6.453
  194POPC   C4B 1885  11.138   6.721   6.153
  195POPC   NC3 1886   1.901  10.272   7.953
  195POPC   PO4 1887   1.849  10.274   7.653
  195POPC   GL1 1888   1.887  10.275   7.353
  195POPC   GL2 1889   1.918  10.449   7.353
  195POPC   C1A 1890   1.827  10.252   7.053
  195POPC   D2A 1891   1.886  10.268   6.753
  195POPC   C3A 1892   1.866  10.292   6.453
  195POPC   C4A 1893   1.818  10.240   6.153
  195POPC   C1B 1894   2.029  10.568   7.053
  195POPC   C2B 1895   2.067  10.504   6.753
  195POPC   C3B 1896   2.115  10.594   6.453
  195POPC   C4B 1897   2.045  10.543   6.153
  196POPC   NC3 1898   2.539   0.538   7.953
  196POPC   PO4 1899   2.540   0.537   7.653
  196POPC   GL1 1900   2.610   0.467   7.353
  196POPC   GL2 1901   2.731   0.407   7.353
  196POPC   C1A 1902   2.542   0.551   7.053
  196POPC   D2A 1903   2.548   0.489   6.753
  196POPC   C3A 1904   2.592   0.484   6.453
  196POPC   C4A 1905   2.553   0.502   6.153
  196POPC   C1B 1906   2.925   0.327   7.053
  196POPC   C2B 1907   2.906   0.392   6.753
  196POPC   C3B 1908   2.916   0.362   6.453
  196POPC   C4B 1909   2.920   0.387   6.153
  197POPC   NC3 1910   2.848  11.306   7.953
  197POPC   PO4 1911   2.836  11.315   7.653
  197POPC   GL1 1912   2.824  11.286   7.353
  197POPC   GL2 1913   2.740  11.157   7.353
  197POPC   C1A 1914   2.878  11.319   7.053
  197POPC   D2A 1915   2.871  11.291   6.753
  197POPC   C3A 1916   2.897  11.326   6.453
  197POPC   C4A 1917   2.881  11.310   6.153
  197POPC   C1B 1918   2.617  10.996   7.053
  197POPC   C2B 1919   2.636  11.024   6.753
  197POPC   C3B 1920   2.629  11.051   6.453
  197POPC   C4B 1921   2.603  11.063   6.153
  198POPC   NC3 1922   1.227  10.535   7.953
  198POPC   PO4 1923   1.291  10.588   7.653
  198POPC   GL1 1924   1.306  10.551   7.353
  198POPC   GL2 1925   1.170  10.412   7.353
  198POPC   C1A 1926   1.289  10.583   7.053
  198POPC   D2A 1927   1.224  10.555   6.753
  198POPC   C3A 1928   1.226  10.523   6.453
  198POPC   C4A 1929   1.256  10.617   6.153
  198POPC   C1B 1930   1.129  10.208   7.053
  198POPC   C2B 1931   1.114  10.261   6.753
  198POPC   C3B 1932   1.172  10.230   6.453
  198POPC   C4B 1933   1.116  10.183   6.153
  199POPC   NC3 1934   9.509   1.168   7.953
  199POPC   PO4 1935   9.431   1.139   7.653
  199POPC   GL1 1936   9.421   1.134   7.353
  199POPC   GL2 1937   9.675   1.201   7.353
  199POPC   C1A 1938   9.462   1.084   7.053
  199POPC   D2A 1939   9.463   1.167   6.753
  199POPC   C3A 1940   9.446   1.147   6.453
  199POPC   C4A 1941   9.487   1.122   6.153
  199POPC   C1B 1942   9.827   1.305   7.053
  199POPC   C2B 1943   9.819   1.263   6.753
  199POPC   C3B 1944   9.811   1.315   6.453
  199POPC   C4B 1945   9.823   1.253   6.153
  200POPC   NC3 1946   9.805   0.438   7.953
  200POPC   PO4 1947   9.784   0.493   7.653
  200POPC   GL1 1948   9.845   0.508   7.353
  200POPC   GL2 1949   9.591   0.451   7.353
  200POPC   C1A 1950   9.825   0.485   7.053
  200POPC   D2A 1951   9.837   0.513   6.753
  200POPC   C3A 1952   9.835   0.515   6.453
  200POPC   C4A 1953   9.773   0.511   6.153
  200POPC   C1B 1954   9.428   0.415   7.053
  200POPC   C2B 1955   9.445   0.394   6.753
  200POPC   C3B 1956   9.432   0.376   6.453
  200POPC   C4B 1957   9.500   0.416   6.153
  201POPC   NC3 1958   5.226  11.081   7.953
  201POPC   PO4 1959   5.248  11.113   7.653
  201POPC   GL1 1960   5.176  11.147   7.353
  201POPC   GL2 1961   5.023  11.188   7.353
  201POPC   C1A 1962   5.232  11.146   7.053
  201POPC   D2A 1963   5.192  11.115   6.753
  201POPC   C3A 1964   5.220  11.089   6.453
  201POPC   C4A 1965   5.181  11.151   6.153
  201POPC   C1B 1966   4.888  11.206   7.053
  201POPC   C2B 1967   4.909  11.158   6.753
  201POPC   C3B 1968   4.847  11.231   6.453
  201POPC   C4B 1969   4.815  11.221   6.153
  202POPC   NC3 1970   0.593   8.904   7.953
  202POPC   PO4 1971   0.643   8.847   7.653
  202POPC   GL1 1972   0.637   8.839   7.353
  202POPC   GL2 1973   0.385   8.822   7.353
  202POPC   C1A 1974   0.646   8.884   7.053
  202POPC   D2A 1975   0.567   8.883   6.753
  202POPC   C3A 1976   0.591   8.856   6.453
  202POPC   C4A 1977   0.625   8.866   6.153
  202POPC   C1B 1978   0.258   8.881   7.053
  202POPC   C2B 1979   0.231   8.888   6.753
  202POPC   C3B 1980   0.241   8.840   6.453
  202POPC   C4B 1981   0.206   8.879   6.153
  203POPC   NC3 1982   3.714   0.432   7.953
  203POPC   PO4 1983   3.623   0.410   7.653
  203POPC   GL1 1984   3.647   0.410   7.353
  203POPC   GL2 1985   3.505   0.396   7.353
  203POPC   C1A 1986   3.626   0.426   7.053
  203POPC   D2A 1987   3.635   0.398   6.753
  203POPC   C3A 1988   3.647   0.438   6.453
  203POPC   C4A 1989   3.655   0.411   6.153
  203POPC   C1B 1990   3.305   0.515   7.053
  203POPC   C2B 1991   3.290   0.466   6.753
  203POPC   C3B 1992   3.344   0.448   6.453
  203POPC   C4B 1993   3.296   0.440   6.153
  204POPC   NC3 1994   1.358   8.881   7.953
  204POPC   PO4 1995   1.357   8.819   7.653
  204POPC   GL1 1996   1.416   8.858   7.353
  204POPC   GL2 1997   1.244   8.870   7.353
  204POPC   C1A 1998   1.386   8.899   7.053
  204POPC   D2A 1999   1.351   8.889   6.753
  204POPC   C3A 2000   1.401   8.873   6.453
  204POPC   C4A 2001   1.382   8.889   6.153
  204POPC   C1B 2002   1.032   8.845   7.053
  204POPC   C2B 2003   1.066   8.883   6.753
  204POPC   C3B 2004   1.023   8.852   6.453
  204POPC   C4B 2005   1.008   8.877   6.153
  205POPC   NC3 2006   9.440  10.369   7.953
  205POPC   PO4 2007   9.499  10.345   7.653
  205POPC   GL1 2008   9.508  10.359   7.353
  205POPC   GL2 2009   9.585  10.360   7.353
  205POPC   C1A 2010   9.464  10.376   7.053
  205POPC   D2A 2011   9.422  10.385   6.753
  205POPC   C3A 2012   9.466  10.374   6.453
  205POPC   C4A 2013   9.438  10.349   6.153
  205POPC   C1B 2014   9.773  10.420   7.053
  205POPC   C2B 2015   9.846  10.467   6.753
  205POPC   C3B 2016   9.783  10.440   6.453
  205POPC   C4B 2017   9.756  10.430   6.153
  206POPC   NC3 2018   3.354   8.755   7.953
  206POPC   PO4 2019   3.398   8.713   7.653
  206POPC   GL1 2020   3.372   8.768   7.353
  206POPC   GL2 2021   3.529   8.821   7.353
  206POPC   C1A 2022   3.391   8.728   7.053
  206POPC   D2A 2023   3.391   8.691   6.753
  206POPC   C3A 2024   3.404   8.758   6.453
  206POPC   C4A 2025   3.367   8.779   6.153
  206POPC   C1B 2026   3.592   9.038   7.053
  206POPC   C2B 2027   3.599   9.031   6.753
  206POPC   C3B 2028   3.613   8.954   6.453
  206POPC   C4B 2029   3.643   8.992   6.153
  207POPC   NC3 2030  10.353   0.308   7.953
  207POPC   PO4 2031  10.316   0.283   7.653
  207POPC   GL1 2032  10.313   0.227   7.353
  207POPC   GL2 2033  10.447   0.466   7.353
  207POPC   C1A 2034  10.350   0.270   7.053
  207POPC   D2A 2035  10.325   0.249   6.753
  207POPC   C3A 2036  10.297   0.301   6.453
  207POPC   C4A 2037  10.335   0.261   6.153
  207POPC   C1B 2038  10.468   0.576   7.053
  207POPC   C2B 2039  10.437   0.605   6.753
  207POPC   C3B 2040  10.428   0.650   6.453
  207POPC   C4B 2041  10.498   0.594   6.153
  208POPC   NC3 2042   2.831   7.441   7.953
  208POPC   PO4 2043   2.835   7.486   7.653
  208POPC   GL1 2044   2.883   7.420   7.353
  208POPC   GL2 2045   2.709   7.313   7.353
  208POPC   C1A 2046   2.825   7.459   7.053
  208POPC   D2A 2047   2.834   7.496   6.753
  208POPC   C3A 2048   2.820   7.483   6.453
  208POPC   C4A 2049   2.834   7.505   6.153
  208POPC   C1B 2050   2.613   7.180   7.053
  208POPC   C2B 2051   2.620   7.223   6.753
  208POPC   C3B 2052   2.645   7.240   6.453
  208POPC   C4B 2053   2.568   7.169   6.153
  209POPC   NC3 2054   1.348   2.077   7.953
  209POPC   PO4 2055   1.408   2.081   7.653
  209POPC   GL1 2056   1.354   2.041   7.353
  209POPC   GL2 2057   1.164   1.953   7.353
  209POPC   C1A 2058   1.404   2.094   7.053
  209POPC   D2A 2059   1.353   2.057   6.753
  209POPC   C3A 2060   1.405   2.046   6.453
  209POPC   C4A 2061   1.373   2.061   6.153
  209POPC   C1B 2062   1.049   1.882   7.053
  209POPC   C2B 2063   1.011   1.879   6.753
  209POPC   C3B 2064   1.078   1.924   6.453
  209POPC   C4B 2065   1.081   1.870   6.153
  210POPC   NC3 2066   4.998   9.766   7.953
  210POPC   PO4 2067   5.029   9.811   7.653
  210POPC   GL1 2068   5.044   9.843   7.353
  210POPC   GL2 2069   5.067   9.626   7.353
  210POPC   C1A 2070   4.953   9.857   7.053
  210POPC   D2A 2071   5.031   9.837   6.753
  210POPC   C3A 2072   5.003   9.798   6.453
  210POPC   C4A 2073   5.036   9.797   6.153
  210POPC   C1B 2074   5.106   9.505   7.053
  210POPC   C2B 2075   5.042   9.453   6.753
  210POPC   C3B 2076   5.080   9.423   6.453
  210POPC   C4B 2077   5.077   9.499   6.153
  211POPC   NC3 2078   5.985   1.225   7.953
  211POPC   PO4 2079   5.995   1.228   7.653
  211POPC   GL1 2080   5.930   1.198   7.353
  211POPC   GL2 2081   5.774   1.157   7.353
  211POPC   C1A 2082   5.993   1.200   7.053
  211POPC   D2A 2083   6.001   1.231   6.753
  211POPC   C3A 2084   6.001   1.192   6.453
  211POPC   C4A 2085   5.997   1.151   6.153
  211POPC   C1B 2086   5.628   1.183   7.053
  211POPC   C2B 2087   5.601   1.240   6.753
  211POPC   C3B 2088   5.632   1.194   6.453
  211POPC   C4B 2089   5.585   1.164   6.153
  212POPC   NC3 2090   9.603   9.803   7.953
  212POPC   PO4 2091   9.620   9.860   7.653
  212POPC   GL1 2092   9.631   9.765   7.353
  212POPC   GL2 2093   9.683   9.667   7.353
  212POPC   C1A 2094   9.649   9.838   7.053
  212POPC   D2A 2095   9.654   9.796   6.753
  212POPC   C3A 2096   9.667   9.788   6.453
  212POPC   C4A 2097   9.611   9.815   6.153
  212POPC   C1B 2098   9.620   9.470   7.053
  212POPC   C2B 2099   9.655   9.464   6.753
  212POPC   C3B 2100   9.625   9.460   6.453
  212POPC   C4B 2101   9.645   9.418   6.153
  213POPC   NC3 2102   8.813   1.073   7.953
  213POPC   PO4 2103   8.778   1.081   7.653
  213POPC   GL1 2104   8.751   1.085   7.353
  213POPC   GL2 2105   8.912   1.193   7.353
  213POPC   C1A 2106   8.786   1.062   7.053
  213POPC   D2A 2107   8.823   1.015   6.753
  213POPC   C3A 2108   8.773   1.069   6.453
  213POPC   C4A 2109   8.745   1.065   6.153
  213POPC   C1B 2110   8.979   1.337   7.053
  213POPC   C2B 2111   9.003   1.317   6.753
  213POPC   C3B 2112   8.905   1.394   6.453
  213POPC   C4B 2113   8.950   1.325   6.153
  214POPC   NC3 2114   8.894   0.656   7.953
  214POPC   PO4 2115   8.836   0.640   7.653
  214POPC   GL1 2116   8.904   0.581   7.353
  214POPC   GL2 2117   8.886   0.472   7.353
  214POPC   C1A 2118   8.844   0.625   7.053
  214POPC   D2A 2119   8.885   0.567   6.753
  214POPC   C3A 2120   8.879   0.629   6.453
  214POPC   C4A 2121   8.861   0.632   6.153
  214POPC   C1B 2122   8.853   0.265   7.053
  214POPC   C2B 2123   8.908   0.211   6.753
  214POPC   C3B 2124   8.852   0.290   6.453
  214POPC   C4B 2125   8.894   0.269   6.153
  215POPC   NC3 2126   3.425   1.041   7.953
  215POPC   PO4 2127   3.409   1.011   7.653
  215POPC   GL1 2128   3.430   1.067   7.353
  215POPC   GL2 2129   3.528   1.240   7.353
  215POPC   C1A 2130   3.496   0.986   7.053
  215POPC   D2A 2131   3.457   1.067   6.753
  215POPC   C3A 2132   3.447   1.045   6.453
  215POPC   C4A 2133   3.461   1.023   6.153
  215POPC   C1B 2134   3.509   1.364   7.053
  215POPC   C2B 2135   3.576   1.384   6.753
  215POPC   C3B 2136   3.524   1.363   6.453
  215POPC   C4B 2137   3.556   1.358   6.153
  216POPC   NC3 2138   3.694  10.504   7.953
  216POPC   PO4 2139   3.628  10.510   7.653
  216POPC   GL1 2140   3.667  10.473   7.353
  216POPC   GL2 2141   3.503  10.405   7.353
  216POPC   C1A 2142   3.653  10.439   7.053
  216POPC   D2A 2143   3.687  10.422   6.753
  216POPC   C3A 2144   3.657  10.484   6.453
  216POPC   C4A 2145   3.654  10.472   6.153
  216POPC   C1B 2146   3.322  10.324   7.053
  216POPC   C2B 2147   3.337  10.290   6.753
  216POPC   C3B 2148   3.355  10.367   6.453
  216POPC   C4B 2149   3.367  10.375   6.153
  217POPC   NC3 2150  11.061  10.302   7.953
  217POPC   PO4 2151  10.975  10.315   7.653
  217POPC   GL1 2152  11.042  10.336   7.353
  217POPC   GL2 2153  11.173  10.421   7.353
  217POPC   C1A 2154  11.049  10.331   7.053
  217POPC   D2A 2155  10.979  10.301   6.753
  217POPC   C3A 2156  11.002  10.257   6.453
  217POPC   C4A 2157  11.016  10.257   6.153
  217POPC   C1B 2158  11.335  10.482   7.053
  217POPC   C2B 2159  11.276  10.504   6.753
  217POPC   C3B 2160  11.299  10.516   6.453
  217POPC   C4B 2161  11.304  10.476   6.153
  218POPC   NC3 2162   3.346   1.830   7.953
  218POPC   PO4 2163   3.380   1.806   7.653
  218POPC   GL1 2164   3.377   1.816   7.353
  218POPC   GL2 2165   3.461   2.000   7.353
  218POPC   C1A 2166   3.426   1.862   7.053
  218POPC   D2A 2167   3.416   1.843   6.753
  218POPC   C3A 2168   3.388   1.831   6.453
  218POPC   C4A 2169   3.416   1.796   6.153
  218POPC   C1B 2170   3.637   2.114   7.053
  218POPC   C2B 2171   3.652   2.085   6.753
  218POPC   C3B 2172   3.637   2.062   6.453
  218POPC   C4B 2173   3.603   2.154   6.153
  219POPC   NC3 2174   2.866   3.421   7.953
  219POPC   PO4 2175   2.842   3.446   7.653
  219POPC   GL1 2176   2.926   3.407   7.353
  219POPC   GL2 2177   2.703   3.514   7.353
  219POPC   C1A 2178   2.844   3.401   7.053
  219POPC   D2A 2179   2.891   3.398   6.753
  219POPC   C3A 2180   2.857   3.454   6.453
  219POPC   C4A 2181   2.862   3.384   6.153
  219POPC   C1B 2182   2.552   3.606   7.053
  219POPC   C2B 2183   2.598   3.623   6.753
  219POPC   C3B 2184   2.543   3.568   6.453
  219POPC   C4B 2185   2.617   3.566   6.153
  220POPC   NC3 2186   9.054   9.599   7.953
  220POPC   PO4 2187   8.981   9.510   7.653
  220POPC   GL1 2188   8.991   9.531   7.353
  220POPC   GL2 2189   8.826   9.588   7.353
  220POPC   C1A 2190   9.069   9.527   7.053
  220POPC   D2A 2191   9.067   9.570   6.753
  220POPC   C3A 2192   9.023   9.520   6.453
  220POPC   C4A 2193   9.070   9.578   6.153
  220POPC   C1B 2194   8.671   9.749   7.053
  220POPC   C2B 2195   8.690   9.671   6.753
  220POPC   C3B 2196   8.754   9.702   6.453
  220POPC   C4B 2197   8.691   9.692   6.153
  221POPC   NC3 2198   7.500  11.346   7.953
  221POPC   PO4 2199   7.489  11.297   7.653
  221POPC   GL1 2200   7.426  11.325   7.353
  221POPC   GL2 2201   7.290  11.154   7.353
  221POPC   C1A 2202   7.503  11.271   7.053
  221POPC   D2A 2203   7.421  11.333   6.753
  221POPC   C3A 2204   7.476  11.335   6.453
  221POPC   C4A 2205   7.502  11.301   6.153
  221POPC   C1B 2206   7.242  11.065   7.053
  221POPC   C2B 2207   7.181  11.046   6.753
  221POPC   C3B 2208   7.229  11.000   6.453
  221POPC   C4B 2209   7.188  10.988   6.153
  222POPC   NC3 2210   9.058   2.745   7.953
  222POPC   PO4 2211   9.058   2.747   7.653
  222POPC   GL1 2212   9.052   2.724   7.353
  222POPC   GL2 2213   8.909   2.777   7.353
  222POPC   C1A 2214   9.065   2.756   7.053
  222POPC   D2A 2215   9.043   2.763   6.753
  222POPC   C3A 2216   9.002   2.782   6.453
  222POPC   C4A 2217   9.059   2.780   6.153
  222POPC   C1B 2218   8.668   2.653   7.053
  222POPC   C2B 2219   8.655   2.746   6.753
  222POPC   C3B 2220   8.646   2.671   6.453
  222POPC   C4B 2221   8.719   2.744   6.153
  223POPC   NC3 2222  11.058   1.081   7.953
  223POPC   PO4 2223  10.991   1.126   7.653
  223POPC   GL1 2224  11.043   1.115   7.353
  223POPC   GL2 2225  11.190   1.206   7.353
  223POPC   C1A 2226  11.009   1.073   7.053
  223POPC   D2A 2227  10.989   1.063   6.753
  223POPC   C3A 2228  11.055   1.080   6.453
  223POPC   C4A 2229  10.992   1.095   6.153
  223POPC   C1B 2230  11.269   1.357   7.053
  223POPC   C2B 2231  11.346   1.281   6.753
  223POPC   C3B 2232  11.277   1.342   6.453
  223POPC   C4B 2233  11.290   1.269   6.153
  224POPC   NC3 2234   4.871   0.445   7.953
  224POPC   PO4 2235   4.875   0.479   7.653
  224POPC   GL1 2236   4.812   0.460   7.353
  224POPC   GL2 2237   5.029   0.472   7.353
  224POPC   C1A 2238   4.899   0.495   7.053
  224POPC   D2A 2239   4.852   0.430   6.753
  224POPC   C3A 2240   4.816   0.412   6.453
  224POPC   C4A 2241   4.813   0.467   6.153
  224POPC   C1B 2242   5.198   0.400   7.053
  224POPC   C2B 2243   5.194   0.408   6.753
  224POPC   C3B 2244   5.205   0.441   6.453
  224POPC   C4B 2245   5.190   0.462   6.153
  225POPC   NC3 2246   5.149   7.931   7.953
  225POPC   PO4 2247   5.100   7.985   7.653
  225POPC   GL1 2248   5.093   7.915   7.353
  225POPC   GL2 2249   5.021   8.077   7.353
  225POPC   C1A 2250   5.150   7.952   7.053
  225POPC   D2A 2251   5.165   7.938   6.753
  225POPC   C3A 2252   5.172   7.965   6.453
  225POPC   C4A 2253   5.163   7.916   6.153
  225POPC   C1B 2254   4.946   8.262   7.053
  225POPC   C2B 2255   4.938   8.271   6.753
  225POPC   C3B 2256   4.923   8.225   6.453
  225POPC   C4B 2257   4.958   8.224   6.153
  226POPC   NC3 2258   0.275  11.277   7.953
  226POPC   PO4 2259   0.350  11.257   7.653
  226POPC   GL1 2260   0.309  11.261   7.353
  226POPC   GL2 2261   0.450  11.180   7.353
  226POPC   C1A 2262   0.322  11.317   7.053
  226POPC   D2A 2263   0.307  11.301   6.753
  226POPC   C3A 2264   0.362  11.287   6.453
  226POPC   C4A 2265   0.280  11.336   6.153
  226POPC   C1B 2266   0.504  11.055   7.053
  226POPC   C2B 2267   0.524  11.055   6.753
  226POPC   C3B 2268   0.518  11.037   6.453
  226POPC   C4B 2269   0.556  11.019   6.153
  227POPC   NC3 2270   1.037   5.119   7.953
  227POPC   PO4 2271   1.058   5.035   7.653
  227POPC   GL1 2272   1.010   5.052   7.353
  227POPC   GL2 2273   1.165   5.032   7.353
  227POPC   C1A 2274   1.051   5.103   7.053
  227POPC   D2A 2275   0.987   5.050   6.753
  227POPC   C3A 2276   0.988   5.092   6.453
  227POPC   C4A 2277   1.051   5.085   6.153
  227POPC   C1B 2278   1.397   4.966   7.053
  227POPC   C2B 2279   1.352   4.940   6.753
  227POPC   C3B 2280   1.367   5.008   6.453
  227POPC   C4B 2281   1.325   4.949   6.153
  228POPC   NC3 2282   1.344   4.353   7.953
  228POPC   PO4 2283   1.307   4.379   7.653
  228POPC   GL1 2284   1.293   4.442   7.353
  228POPC   GL2 2285   1.188   4.265   7.353
  228POPC   C1A 2286   1.374   4.367   7.053
  228POPC   D2A 2287   1.284   4.391   6.753
  228POPC   C3A 2288   1.304   4.370   6.453
  228POPC   C4A 2289   1.329   4.374   6.153
  228POPC   C1B 2290   1.041   4.155   7.053
  228POPC   C2B 2291   1.103   4.124   6.753
  228POPC   C3B 2292   1.075   4.140   6.453
  228POPC   C4B 2293   1.124   4.094   6.153
  229POPC   NC3 2294   0.535   1.335   7.953
  229POPC   PO4 2295   0.574   1.344   7.653
  229POPC   GL1 2296   0.565   1.299   7.353
  229POPC   GL2 2297   0.404   1.212   7.353
  229POPC   C1A 2298   0.566   1.384   7.053
  229POPC   D2A 2299   0.546   1.306   6.753
  229POPC   C3A 2300   0.520   1.305   6.453
  229POPC   C4A 2301   0.567   1.358   6.153
  229POPC   C1B 2302   0.371   1.016   7.053
  229POPC   C2B 2303   0.338   1.024   6.753
  229POPC   C3B 2304   0.325   1.005   6.453
  229POPC   C4B 2305   0.351   1.030   6.153
  230POPC   NC3 2306   0.275   2.058   7.953
  230POPC   PO4 2307   0.218   2.043   7.653
  230POPC   GL1 2308   0.236   2.037   7.353
  230POPC   GL2 2309   0.435   1.941   7.353
  230POPC   C1A 2310   0.227   2.008   7.053
  230POPC   D2A 2311   0.245   2.040   6.753
  230POPC   C3A 2312   0.261   2.015   6.453
  230POPC   C4A 2313   0.246   2.062   6.153
  230POPC   C1B 2314   0.584   1.909   7.053
  230POPC   C2B 2315   0.643   1.890   6.753
  230POPC   C3B 2316   0.558   1.868   6.453
  230POPC   C4B 2317   0.553   1.905   6.153
  231POPC   NC3 2318   9.457   6.516   7.953
  231POPC   PO4 2319   9.473   6.518   7.653
  231POPC   GL1 2320   9.499   6.510   7.353
  231POPC   GL2 2321   9.595   6.579   7.353
  231POPC   C1A 2322   9.418   6.592   7.053
  231POPC   D2A 2323   9.412   6.524   6.753
  231POPC   C3A 2324   9.495   6.508   6.453
  231POPC   C4A 2325   9.484   6.543   6.153
  231POPC   C1B 2326   9.802   6.573   7.053
  231POPC   C2B 2327   9.786   6.607   6.753
  231POPC   C3B 2328   9.786   6.563   6.453
  231POPC   C4B 2329   9.770   6.596   6.153
  232POPC   NC3 2330   2.714   9.060   7.953
  232POPC   PO4 2331   2.740   9.034   7.653
  232POPC   GL1 2332   2.671   9.040   7.353
  232POPC   GL2 2333   2.743   8.876   7.353
  232POPC   C1A 2334   2.673   9.029   7.053
  232POPC   D2A 2335   2.713   9.034   6.753
  232POPC   C3A 2336   2.744   9.064   6.453
  232POPC   C4A 2337   2.649   9.010   6.153
  232POPC   C1B 2338   2.723   8.737   7.053
  232POPC   C2B 2339   2.726   8.732   6.753
  232POPC   C3B 2340   2.776   8.714   6.453
  232POPC   C4B 2341   2.756   8.643   6.153
  233POPC   NC3 2342  11.327   7.427   7.953
  233POPC   PO4 2343  11.295   7.409   7.653
  233POPC   GL1 2344  11.328   7.449   7.353
  233POPC   GL2 2345  11.142   7.376   7.353
  233POPC   C1A 2346  11.346   7.436   7.053
  233POPC   D2A 2347  11.366   7.409   6.753
  233POPC   C3A 2348  11.323   7.399   6.453
  233POPC   C4A 2349  11.308   7.429   6.153
  233POPC   C1B 2350  11.023   7.245   7.053
  233POPC   C2B 2351  11.050   7.254   6.753
  233POPC   C3B 2352  10.973   7.248   6.453
  233POPC   C4B 2353  10.991   7.207   6.153
  234POPC   NC3 2354  10.297   4.445   7.953
  234POPC   PO4 2355  10.355   4.382   7.653
  234POPC   GL1 2356  10.303   4.424   7.353
  234POPC   GL2 2357  10.375   4.286   7.353
  234POPC   C1A 2358  10.275   4.409   7.053
  234POPC   D2A 2359  10.292   4.384   6.753
  234POPC   C3A 2360  10.352   4.440   6.453
  234POPC   C4A 2361  10.306   4.396   6.153
  234POPC   C1B 2362  10.442   4.158   7.053
  234POPC   C2B 2363  10.453   4.068   6.753
  234POPC   C3B 2364  10.535   4.099   6.453
  234POPC   C4B 2365  10.446   4.069   6.153
  235POPC   NC3 2366  10.333  11.293   7.953
  235POPC   PO4 2367  10.281  11.329   7.653
  235POPC   GL1 2368  10.255  11.299   7.353
  235POPC   GL2 2369  10.447  11.167   7.353
  235POPC   C1A 2370  10.269  11.268   7.053
  235POPC   D2A 2371  10.253  11.275   6.753
  235POPC   C3A 2372  10.301  11.281   6.453
  235POPC   C4A 2373  10.293  11.348   6.153
  235POPC   C1B 2374  10.495  11.028   7.053
  235POPC   C2B 2375  10.518  11.015   6.753
  235POPC   C3B 2376  10.501  11.067   6.453
  235POPC   C4B 2377  10.532  10.983   6.153
  236POPC   NC3 2378   1.370  11.137   7.953
  236POPC   PO4 2379   1.337  11.192   7.653
  236POPC   GL1 2380   1.330  11.173   7.353
  236POPC   GL2 2381   1.208  11.138   7.353
  236POPC   C1A 2382   1.334  11.194   7.053
  236POPC   D2A 2383   1.384  11.171   6.753
  236POPC   C3A 2384   1.411  11.145   6.453
  236POPC   C4A 2385   1.391  11.190   6.153
  236POPC   C1B 2386   1.025  11.151   7.053
  236POPC   C2B 2387   1.017  11.198   6.753
  236POPC   C3B 2388   1.044  11.133   6.453
  236POPC   C4B 2389   0.985  11.140   6.153
  237POPC   NC3 2390   0.589   9.576   7.953
  237POPC   PO4 2391   0.584   9.521   7.653
  237POPC   GL1 2392   0.604   9.568   7.353
  237POPC   GL2 2393   0.470   9.609   7.353
  237POPC   C1A 2394   0.540   9.543   7.053
  237POPC   D2A 2395   0.556   9.570   6.753
  237POPC   C3A 2396   0.630   9.578   6.453
  237POPC   C4A 2397   0.630   9.540   6.153
  237POPC   C1B 2398   0.262   9.715   7.053
  237POPC   C2B 2399   0.271   9.690   6.753
  237POPC   C3B 2400   0.261   9.720   6.453
  237POPC   C4B 2401   0.257   9.737   6.153
  238POPC   NC3 2402   9.554   5.934   7.953
  238POPC   PO4 2403   9.519   5.966   7.653
  238POPC   GL1 2404   9.558   5.943   7.353
  238POPC   GL2 2405   9.633   5.834   7.353
  238POPC   C1A 2406   9.546   5.984   7.053
  238POPC   D2A 2407   9.548   5.992   6.753
  238POPC   C3A 2408   9.566   5.971   6.453
  238POPC   C4A 2409   9.511   5.981   6.153
  238POPC   C1B 2410   9.751   5.646   7.053
  238POPC   C2B 2411   9.720   5.699   6.753
  238POPC   C3B 2412   9.781   5.667   6.453
  238POPC   C4B 2413   9.773   5.656   6.153
  239POPC   NC3 2414   6.011  10.358   7.953
  239POPC   PO4 2415   5.934  10.354   7.653
  239POPC   GL1 2416   5.934  10.307   7.353
  239POPC   GL2 2417   5.790  10.413   7.353
  239POPC   C1A 2418   5.982  10.353   7.053
  239POPC   D2A 2419   5.942  10.345   6.753
  239POPC   C3A 2420   5.982  10.326   6.453
  239POPC   C4A 2421   5.941  10.339   6.153
  239POPC   C1B 2422   5.646  10.435   7.053
  239POPC   C2B 2423   5.599  10.441   6.753
  239POPC   C3B 2424   5.613  10.440   6.453
  239POPC   C4B 2425   5.616  10.467   6.153
  240POPC   NC3 2426   4.367   1.814   7.953
  240POPC   PO4 2427   4.440   1.837   7.653
  240POPC   GL1 2428   4.430   1.861   7.353
  240POPC   GL2 2429   4.309   1.979   7.353
  240POPC   C1A 2430   4.410   1.873   7.053
  240POPC   D2A 2431   4.369   1.849   6.753
  240POPC   C3A 2432   4.448   1.826   6.453
  240POPC   C4A 2433   4.392   1.806   6.153
  240POPC   C1B 2434   4.123   2.071   7.053
  240POPC   C2B 2435   4.149   2.073   6.753
  240POPC   C3B 2436   4.106   2.080   6.453
  240POPC   C4B 2437   4.130   2.093   6.153
  241POPC   NC3 2438   8.919   5.652   7.953
  241POPC   PO4 2439   8.993   5.621   7.653
  241POPC   GL1 2440   8.919   5.612   7.353
  241POPC   GL2 2441   8.915   5.750   7.353
  241POPC   C1A 2442   8.999   5.670   7.053
  241POPC   D2A 2443   8.977   5.678   6.753
  241POPC   C3A 2444   8.928   5.659   6.453
  241POPC   C4A 2445   8.943   5.638   6.153
  241POPC   C1B 2446   8.793   5.983   7.053
  241POPC   C2B 2447   8.743   5.948   6.753
  241POPC   C3B 2448   8.770   5.991   6.453
  241POPC   C4B 2449   8.728   5.971   6.153
  242POPC   NC3 2450   8.023   2.599   7.953
  242POPC   PO4 2451   8.032   2.539   7.653
  242POPC   GL1 2452   8.006   2.525   7.353
  242POPC   GL2 2453   8.054   2.774   7.353
  242POPC   C1A 2454   8.039   2.518   7.053
  242POPC   D2A 2455   8.037   2.593   6.753
  242POPC   C3A 2456   8.084   2.590   6.453
  242POPC   C4A 2457   8.075   2.567   6.153
  242POPC   C1B 2458   8.152   2.941   7.053
  242POPC   C2B 2459   8.142   2.941   6.753
  242POPC   C3B 2460   8.126   2.948   6.453
  242POPC   C4B 2461   8.130   2.868   6.153
  243POPC   NC3 2462   1.176   0.569   7.953
  243POPC   PO4 2463   1.222   0.623   7.653
  243POPC   GL1 2464   1.228   0.568   7.353
  243POPC   GL2 2465   1.157   0.387   7.353
  243POPC   C1A 2466   1.242   0.595   7.053
  243POPC   D2A 2467   1.160   0.614   6.753
  243POPC   C3A 2468   1.152   0.620   6.453
  243POPC   C4A 2469   1.232   0.591   6.153
  243POPC   C1B 2470   1.226   0.302   7.053
  243POPC   C2B 2471   1.234   0.229   6.753
  243POPC   C3B 2472   1.177   0.248   6.453
  243POPC   C4B 2473   1.172   0.266   6.153
  244POPC   NC3 2474   9.783   2.759   7.953
  244POPC   PO4 2475   9.834   2.742   7.653
  244POPC   GL1 2476   9.828   2.705   7.353
  244POPC   GL2 2477   9.589   2.713   7.353
  244POPC   C1A 2478   9.763   2.763   7.053
  244POPC   D2A 2479   9.824   2.739   6.753
  244POPC   C3A 2480   9.840   2.754   6.453
  244POPC   C4A 2481   9.834   2.711   6.153
  244POPC   C1B 2482   9.446   2.687   7.053
  244POPC   C2B 2483   9.418   2.691   6.753
  244POPC   C3B 2484   9.427   2.766   6.453
  244POPC   C4B 2485   9.500   2.765   6.153
  245POPC   NC3 2486  10.416   8.644   7.953
  245POPC   PO4 2487  10.397   8.707   7.653
  245POPC   GL1 2488  10.380   8.722   7.353
  245POPC   GL2 2489  10.424   8.833   7.353
  245POPC   C1A 2490  10.405   8.717   7.053
  245POPC   D2A 2491  10.367   8.647   6.753
  245POPC   C3A 2492  10.355   8.679   6.453
  245POPC   C4A 2493  10.383   8.722   6.153
  245POPC   C1B 2494  10.381   9.010   7.053
  245POPC   C2B 2495  10.393   9.029   6.753
  245POPC   C3B 2496  10.466   9.022   6.453
  245POPC   C4B 2497  10.408   9.047   6.153
  246POPC   NC3 2498   1.424   1.185   4.053
  246POPC   PO4 2499   1.327   1.225   4.353
  246POPC   GL1 2500   1.354   1.195   4.653
  246POPC   GL2 2501   1.230   1.232   4.653
  246POPC   C1A 2502   1.338   1.262   4.953
  246POPC   D2A 2503   1.376   1.201   5.253
  246POPC   C3A 2504   1.421   1.247   5.553
  246POPC   C4A 2505   1.328   1.277   5.853
  246POPC   C1B 2506   1.069   1.187   4.953
  246POPC   C2B 2507   1.000   1.178   5.253
  246POPC   C3B 2508   1.069   1.191   5.553
  246POPC   C4B 2509   1.058   1.191   5.853
  247POPC   NC3 2510  10.302   3.377   4.053
  247POPC   PO4 2511  10.231   3.394   4.353
  247POPC   GL1 2512  10.301   3.352   4.653
  247POPC   GL2 2513  10.404   3.525   4.653
  247POPC   C1A 2514  10.225   3.442   4.953
  247POPC   D2A 2515  10.231   3.361   5.253
  247POPC   C3A 2516  10.254   3.432   5.553
  247POPC   C4A 2517  10.212   3.395   5.853
  247POPC   C1B 2518  10.591   3.611   4.953
  247POPC   C2B 2519  10.545   3.640   5.253
  247POPC   C3B 2520  10.503   3.584   5.553
  247POPC   C4B 2521  10.521   3.579   5.853
  248POPC   NC3 2522   9.628   5.638   4.053
  248POPC   PO4 2523   9.629   5.604   4.353
  248POPC   GL1 2524   9.715   5.580   4.653
  248POPC   GL2 2525   9.605   5.763   4.653
  248POPC   C1A 2526   9.656   5.603   4.953
  248POPC   D2A 2527   9.625   5.654   5.253
  248POPC   C3A 2528   9.635   5.635   5.553
  248POPC   C4A 2529   9.651   5.632   5.853
  248POPC   C1B 2530   9.589   6.022   4.953
  248POPC   C2B 2531   9.620   5.946   5.253
  248POPC   C3B 2532   9.584   5.993   5.553
  248POPC   C4B 2533   9.593   5.927   5.853
  249POPC   NC3 2534   3.620  10.519   4.053
  249POPC   PO4 2535   3.674  10.508   4.353
  249POPC   GL1 2536   3.601  10.493   4.653
  249POPC   GL2 2537   3.486  10.397   4.653
  249POPC   C1A 2538   3.663  10.472   4.953
  249POPC   D2A 2539   3.658  10.513   5.253
  249POPC   C3A 2540   3.687  10.475   5.553
  249POPC   C4A 2541   3.596  10.463   5.853
  249POPC   C1B 2542   3.397  10.315   4.953
  249POPC   C2B 2543   3.403  10.332   5.253
  249POPC   C3B 2544   3.386  10.336   5.553
  249POPC   C4B 2545   3.395  10.270   5.853
  250POPC   NC3 2546  10.309   2.146   4.053
  250POPC   PO4 2547  10.258   2.095   4.353
  250POPC   GL1 2548  10.268   2.117   4.653
  250POPC   GL2 2549  10.352   1.977   4.653
  250POPC   C1A 2550  10.304   2.136   4.953
  250POPC   D2A 2551  10.329   2.143   5.253
  250POPC   C3A 2552  10.267   2.134   5.553
  250POPC   C4A 2553  10.355   2.139   5.853
  250POPC   C1B 2554  10.513   1.775   4.953
  250POPC   C2B 2555  10.515   1.858   5.253
  250POPC   C3B 2556  10.539   1.843   5.553
  250POPC   C4B 2557  10.452   1.832   5.853
  251POPC   NC3 2558  10.506  11.061   4.053
  251POPC   PO4 2559  10.534  10.992   4.353
  251POPC   GL1 2560  10.539  11.032   4.653
  251POPC   GL2 2561  10.400  11.214   4.653
  251POPC   C1A 2562  10.508  11.022   4.953
  251POPC   D2A 2563  10.469  10.974   5.253
  251POPC   C3A 2564  10.450  11.050   5.553
  251POPC   C4A 2565  10.491  11.015   5.853
  251POPC   C1B 2566  10.339  11.358   4.953
  251POPC   C2B 2567  10.281  11.277   5.253
  251POPC   C3B 2568  10.325  11.314   5.553
  251POPC   C4B 2569  10.337  11.283   5.853
  252POPC   NC3 2570   6.552  11.340   4.053
  252POPC   PO4 2571   6.559  11.385   4.353
  252POPC   GL1 2572   6.556  11.350   4.653
  252POPC   GL2 2573   6.532  11.145   4.653
  252POPC   C1A 2574   6.515  11.355   4.953
  252POPC   D2A 2575   6.509  11.364   5.253
  252POPC   C3A 2576   6.508  11.374   5.553
  252POPC   C4A 2577   6.473  11.301   5.853
  252POPC   C1B 2578   6.593  11.002   4.953
  252POPC   C2B 2579   6.575  10.983   5.253
  252POPC   C3B 2580   6.597  10.998   5.553
  252POPC   C4B 2581   6.632  10.960   5.853
  253POPC   NC3 2582   3.543   9.775   4.053
  253POPC   PO4 2583   3.595   9.765   4.353
  253POPC   GL1 2584   3.561   9.819   4.653
  253POPC   GL2 2585   3.492   9.635   4.653
  253POPC   C1A 2586   3.603   9.794   4.953
  253POPC   D2A 2587   3.548   9.784   5.253
  253POPC   C3A 2588   3.574   9.825   5.553
  253POPC   C4A 2589   3.556   9.847   5.853
  253POPC   C1B 2590   3.435   9.475   4.953
  253POPC   C2B 2591   3.424   9.511   5.253
  253POPC   C3B 2592   3.422   9.442   5.553
  253POPC   C4B 2593   3.448   9.466   5.853
  254POPC   NC3 2594  10.525   8.232   4.053
  254POPC   PO4 2595  10.508   8.254   4.353
  254POPC   GL1 2596  10.535   8.238   4.653
  254POPC   GL2 2597  10.365   8.078   4.653
  254POPC   C1A 2598  10.491   8.278   4.953
  254POPC   D2A 2599  10.550   8.261   5.253
  254POPC   C3A 2600  10.523   8.236   5.553
  254POPC   C4A 2601  10.524   8.244   5.853
  254POPC   C1B 2602  10.288   7.914   4.953
  254POPC   C2B 2603  10.332   7.936   5.253
  254POPC   C3B 2604  10.313   7.962   5.553
  254POPC   C4B 2605  10.261   7.939   5.853
  255POPC   NC3 2606   9.435   2.779   4.053
  255POPC   PO4 2607   9.464   2.828   4.353
  255POPC   GL1 2608   9.468   2.769   4.653
  255POPC   GL2 2609   9.678   2.723   4.653
  255POPC   C1A 2610   9.468   2.765   4.953
  255POPC   D2A 2611   9.446   2.815   5.253
  255POPC   C3A 2612   9.435   2.801   5.553
  255POPC   C4A 2613   9.507   2.753   5.853
  255POPC   C1B 2614   9.758   2.636   4.953
  255POPC   C2B 2615   9.849   2.660   5.253
  255POPC   C3B 2616   9.796   2.662   5.553
  255POPC   C4B 2617   9.768   2.651   5.853
  256POPC   NC3 2618  10.986   0.473   4.053
  256POPC   PO4 2619  10.982   0.489   4.353
  256POPC   GL1 2620  10.952   0.398   4.653
  256POPC   GL2 2621  11.170   0.464   4.653
  256POPC   C1A 2622  11.015   0.484   4.953
  256POPC   D2A 2623  10.997   0.407   5.253
  256POPC   C3A 2624  11.016   0.454   5.553
  256POPC   C4A 2625  11.007   0.467   5.853
  256POPC   C1B 2626  11.345   0.373   4.953
  256POPC   C2B 2627  11.320   0.460   5.253
  256POPC   C3B 2628  11.314   0.416   5.553
  256POPC   C4B 2629  11.313   0.451   5.853
  257POPC   NC3 2630   6.402   9.589   4.053
  257POPC   PO4 2631   6.382   9.595   4.353
  257POPC   GL1 2632   6.385   9.541   4.653
  257POPC   GL2 2633   6.589   9.593   4.653
  257POPC   C1A 2634   6.427   9.603   4.953
  257POPC   D2A 2635   6.417   9.522   5.253
  257POPC   C3A 2636   6.359   9.561   5.553
  257POPC   C4A 2637   6.413   9.614   5.853
  257POPC   C1B 2638   6.750   9.663   4.953
  257POPC   C2B 2639   6.709   9.673   5.253
  257POPC   C3B 2640   6.726   9.713   5.553
  257POPC   C4B 2641   6.744   9.716   5.853
  258POPC   NC3 2642   9.660   9.052   4.053
  258POPC   PO4 2643   9.626   9.005   4.353
  258POPC   GL1 2644   9.646   9.042   4.653
  258POPC   GL2 2645   9.594   8.857   4.653
  258POPC   C1A 2646   9.654   9.078   4.953
  258POPC   D2A 2647   9.715   9.052   5.253
  258POPC   C3A 2648   9.652   9.009   5.553
  258POPC   C4A 2649   9.709   9.080   5.853
  258POPC   C1B 2650   9.622   8.683   4.953
  258POPC   C2B 2651   9.563   8.698   5.253
  258POPC   C3B 2652   9.549   8.719   5.553
  258POPC   C4B 2653   9.589   8.676   5.853
  259POPC   NC3 2654  11.071   8.225   4.053
  259POPC   PO4 2655  11.080   8.226   4.353
  259POPC   GL1 2656  11.074   8.255   4.653
  259POPC   GL2 2657  11.152   8.100   4.653
  259POPC   C1A 2658  11.019   8.267   4.953
  259POPC   D2A 2659  11.064   8.217   5.253
  259POPC   C3A 2660  11.037   8.227   5.553
  259POPC   C4A 2661  11.074   8.239   5.853
  259POPC   C1B 2662  11.284   7.912   4.953
  259POPC   C2B 2663  11.251   7.949   5.253
  259POPC   C3B 2664  11.229   7.941   5.553
  259POPC   C4B 2665  11.240   7.991   5.853
  260POPC   NC3 2666   5.896  11.026   4.053
  260POPC   PO4 2667   5.958  11.034   4.353
  260POPC   GL1 2668   5.901  11.003   4.653
  260POPC   GL2 2669   5.839  11.201   4.653
  260POPC   C1A 2670   5.905  11.010   4.953
  260POPC   D2A 2671   5.946  11.071   5.253
  260POPC   C3A 2672   5.887  11.062   5.553
  260POPC   C4A 2673   5.882  11.015   5.853
  260POPC   C1B 2674   5.684  11.276   4.953
  260POPC   C2B 2675   5.636  11.284   5.253
  260POPC   C3B 2676   5.710  11.307   5.553
  260POPC   C4B 2677   5.708  11.336   5.853
  261POPC   NC3 2678   1.323   8.164   4.053
  261POPC   PO4 2679   1.343   8.157   4.353
  261POPC   GL1 2680   1.323   8.174   4.653
  261POPC   GL2 2681   1.193   8.111   4.653
  261POPC   C1A 2682   1.398   8.115   4.953
  261POPC   D2A 2683   1.390   8.212   5.253
  261POPC   C3A 2684   1.335   8.113   5.553
  261POPC   C4A 2685   1.366   8.134   5.853
  261POPC   C1B 2686   1.014   8.055   4.953
  261POPC   C2B 2687   1.048   8.023   5.253
  261POPC   C3B 2688   1.077   8.022   5.553
  261POPC   C4B 2689   1.058   8.000   5.853
  262POPC   NC3 2690  11.000  11.106   4.053
  262POPC   PO4 2691  10.960  11.133   4.353
  262POPC   GL1 2692  10.970  11.165   4.653
  262POPC   GL2 2693  11.204  11.213   4.653
  262POPC   C1A 2694  10.957  11.083   4.953
  262POPC   D2A 2695  10.954  11.134   5.253
  262POPC   C3A 2696  11.013  11.121   5.553
  262POPC   C4A 2697  10.999  11.148   5.853
  262POPC   C1B 2698  11.292  11.239   4.953
  262POPC   C2B 2699  11.328  11.176   5.253
  262POPC   C3B 2700  11.364  11.228   5.553
  262POPC   C4B 2701  11.358  11.166   5.853
  263POPC   NC3 2702   2.081  11.065   4.053
  263POPC   PO4 2703   2.090  11.002   4.353
  263POPC   GL1 2704   2.086  11.055   4.653
  263POPC   GL2 2705   2.016  11.127   4.653
  263POPC   C1A 2706   2.106  11.014   4.953
  263POPC   D2A 2707   2.039  11.009   5.253
  263POPC   C3A 2708   2.037  11.041   5.553
  263POPC   C4A 2709   2.046  10.983   5.853
  263POPC   C1B 2710   1.863  11.258   4.953
  263POPC   C2B 2711   1.802  11.306   5.253
  263POPC   C3B 2712   1.825  11.285   5.553
  263POPC   C4B 2713   1.868  11.263   5.853
  264POPC   NC3 2714   3.596   2.878   4.053
  264POPC   PO4 2715   3.580   2.870   4.353
  264POPC   GL1 2716   3.546   2.884   4.653
  264POPC   GL2 2717   3.529   2.732   4.653
  264POPC   C1A 2718   3.580   2.856   4.953
  264POPC   D2A 2719   3.523   2.884   5.253
  264POPC   C3A 2720   3.547   2.918   5.553
  264POPC   C4A 2721   3.583   2.948   5.853
  264POPC   C1B 2722   3.395   2.542   4.953
  264POPC   C2B 2723   3.441   2.539   5.253
  264POPC   C3B 2724   3.398   2.610   5.553
  264POPC   C4B 2725   3.419   2.541   5.853
  265POPC   NC3 2726   9.527   1.871   4.053
  265POPC   PO4 2727   9.560   1.858   4.353
  265POPC   GL1 2728   9.532   1.825   4.653
  265POPC   GL2 2729   9.597   1.926   4.653
  265POPC   C1A 2730   9.514   1.801   4.953
  265POPC   D2A 2731   9.490   1.859   5.253
  265POPC   C3A 2732   9.529   1.829   5.553
  265POPC   C4A 2733   9.526   1.779   5.853
  265POPC   C1B 2734   9.708   2.079   4.953
  265POPC   C2B 2735   9.785   2.125   5.253
  265POPC   C3B 2736   9.731   2.077   5.553
  265POPC   C4B 2737   9.734   2.065   5.853
  266POPC   NC3 2738   2.932   7.316   4.053
  266POPC   PO4 2739   2.880   7.249   4.353
  266POPC   GL1 2740   2.914   7.300   4.653
  266POPC   GL2 2741   2.747   7.358   4.653
  266POPC   C1A 2742   2.944   7.284   4.953
  266POPC   D2A 2743   2.873   7.281   5.253
  266POPC   C3A 2744   2.913   7.291   5.553
  266POPC   C4A 2745   2.919   7.328   5.853
  266POPC   C1B 2746   2.597   7.343   4.953
  266POPC   C2B 2747   2.574   7.407   5.253
  266POPC   C3B 2748   2.565   7.399   5.553
  266POPC   C4B 2749   2.540   7.355   5.853
  267POPC   NC3 2750   8.236  11.112   4.053
  267POPC   PO4 2751   8.250  11.057   4.353
  267POPC   GL1 2752   8.275  11.096   4.653
  267POPC   GL2 2753   8.110  11.148   4.653
  267POPC   C1A 2754   8.261  11.040   4.953
  267POPC   D2A 2755   8.243  11.099   5.253
  267POPC   C3A 2756   8.221  11.110   5.553
  267POPC   C4A 2757   8.281  11.060   5.853
  267POPC   C1B 2758   7.967  11.299   4.953
  267POPC   C2B 2759   7.987  11.282   5.253
  267POPC   C3B 2760   7.937  11.251   5.553
  267POPC   C4B 2761   7.943  11.273   5.853
  268POPC   NC3 2762   5.226   0.320   4.053
  268POPC   PO4 2763   5.233   0.357   4.353
  268POPC   GL1 2764   5.229   0.311   4.653
  268POPC   GL2 2765   5.032   0.419   4.653
  268POPC   C1A 2766   5.208   0.385   4.953
  268POPC   D2A 2767   5.135   0.306   5.253
  268POPC   C3A 2768   5.220   0.299   5.553
  268POPC   C4A 2769   5.162   0.366   5.853
  268POPC   C1B 2770   4.837   0.549   4.953
  268POPC   C2B 2771   4.847   0.534   5.253
  268POPC   C3B 2772   4.906   0.577   5.553
  268POPC   C4B 2773   4.903   0.527   5.853
  269POPC   NC3 2774   4.900   2.058   4.053
  269POPC   PO4 2775   4.887   2.107   4.353
  269POPC   GL1 2776   4.908   2.103   4.653
  269POPC   GL2 2777   5.002   2.015   4.653
  269POPC   C1A 2778   4.875   2.063   4.953
  269POPC   D2A 2779   4.906   2.070   5.253
  269POPC   C3A 2780   4.928   2.049   5.553
  269POPC   C4A 2781   4.913   2.135   5.853
  269POPC   C1B 2782   5.162   1.821   4.953
  269POPC   C2B 2783   5.198   1.869   5.253
  269POPC   C3B 2784   5.216   1.857   5.553
  269POPC   C4B 2785   5.160   1.847   5.853
  270POPC   NC3 2786   4.314   0.299   4.053
  270POPC   PO4 2787   4.394   0.314   4.353
  270POPC   GL1 2788   4.310   0.292   4.653
  270POPC   GL2 2789   4.227   0.476   4.653
  270POPC   C1A 2790   4.349   0.277   4.953
  270POPC   D2A 2791   4.404   0.287   5.253
  270POPC   C3A 2792   4.375   0.289   5.553
  270POPC   C4A 2793   4.352   0.241   5.853
  270POPC   C1B 2794   4.212   0.588   4.953
  270POPC   C2B 2795   4.189   0.605   5.253
  270POPC   C3B 2796   4.129   0.595   5.553
  270POPC   C4B 2797   4.215   0.606   5.853
  271POPC   NC3 2798   1.377   1.887   4.053
  271POPC   PO4 2799   1.317   1.880   4.353
  271POPC   GL1 2800   1.317   1.876   4.653
  271POPC   GL2 2801   1.228   1.987   4.653
  271POPC   C1A 2802   1.318   1.858   4.953
  271POPC   D2A 2803   1.300   1.812   5.253
  271POPC   C3A 2804   1.308   1.894   5.553
  271POPC   C4A 2805   1.366   1.822   5.853
  271POPC   C1B 2806   1.053   2.066   4.953
  271POPC   C2B 2807   1.017   2.091   5.253
  271POPC   C3B 2808   1.084   2.115   5.553
  271POPC   C4B 2809   1.040   2.041   5.853
  272POPC   NC3 2810   5.686   0.369   4.053
  272POPC   PO4 2811   5.626   0.355   4.353
  272POPC   GL1 2812   5.694   0.350   4.653
  272POPC   GL2 2813   5.767   0.474   4.653
  272POPC   C1A 2814   5.625   0.298   4.953
  272POPC   D2A 2815   5.694   0.330   5.253
  272POPC   C3A 2816   5.688   0.302   5.553
  272POPC   C4A 2817   5.602   0.309   5.853
  272POPC   C1B 2818   5.914   0.575   4.953
  272POPC   C2B 2819   5.960   0.546   5.253
  272POPC   C3B 2820   5.924   0.581   5.553
  272POPC   C4B 2821   5.954   0.566   5.853
  273POPC   NC3 2822   4.186   9.467   4.053
  273POPC   PO4 2823   4.230   9.474   4.353
  273POPC   GL1 2824   4.150   9.481   4.653
  273POPC   GL2 2825   4.218   9.608   4.653
  273POPC   C1A 2826   4.172   9.513   4.953
  273POPC   D2A 2827   4.155   9.455   5.253
  273POPC   C3A 2828   4.242   9.482   5.553
  273POPC   C4A 2829   4.148   9.520   5.853
  273POPC   C1B 2830   4.315   9.813   4.953
  273POPC   C2B 2831   4.303   9.820   5.253
  273POPC   C3B 2832   4.303   9.760   5.553
  273POPC   C4B 2833   4.382   9.797   5.853
  274POPC   NC3 2834   2.630   1.797   4.053
  274POPC   PO4 2835   2.588   1.797   4.353
  274POPC   GL1 2836   2.589   1.859   4.653
  274POPC   GL2 2837   2.694   1.923   4.653
  274POPC   C1A 2838   2.599   1.843   4.953
  274POPC   D2A 2839   2.658   1.784   5.253
  274POPC   C3A 2840   2.637   1.784   5.553
  274POPC   C4A 2841   2.660   1.787   5.853
  274POPC   C1B 2842   2.842   2.149   4.953
  274POPC   C2B 2843   2.800   2.135   5.253
  274POPC   C3B 2844   2.876   2.088   5.553
  274POPC   C4B 2845   2.873   2.067   5.853
  275POPC   NC3 2846   7.148   0.473   4.053
  275POPC   PO4 2847   7.176   0.472   4.353
  275POPC   GL1 2848   7.202   0.500   4.653
  275POPC   GL2 2849   7.318   0.467   4.653
  275POPC   C1A 2850   7.136   0.496   4.953
  275POPC   D2A 2851   7.140   0.551   5.253
  275POPC   C3A 2852   7.199   0.513   5.553
  275POPC   C4A 2853   7.200   0.541   5.853
  275POPC   C1B 2854   7.481   0.372   4.953
  275POPC   C2B 2855   7.524   0.323   5.253
  275POPC   C3B 2856   7.456   0.333   5.553
  275POPC   C4B 2857   7.537   0.396   5.853
  276POPC   NC3 2858   1.381   7.333   4.053
  276POPC   PO4 2859   1.357   7.341   4.353
  276POPC   GL1 2860   1.368   7.271   4.653
  276POPC   GL2 2861   1.181   7.284   4.653
  276POPC   C1A 2862   1.420   7.293   4.953
  276POPC   D2A 2863   1.348   7.347   5.253
  276POPC   C3A 2864   1.333   7.301   5.553
  276POPC   C4A 2865   1.382   7.274   5.853
  276POPC   C1B 2866   0.998   7.392   4.953
  276POPC   C2B 2867   1.026   7.309   5.253
  276POPC   C3B 2868   1.022   7.372   5.553
  276POPC   C4B 2869   1.054   7.372   5.853
  277POPC   NC3 2870   0.627   3.412   4.053
  277POPC   PO4 2871   0.592   3.417   4.353
  277POPC   GL1 2872   0.623   3.406   4.653
  277POPC   GL2 2873   0.477   3.547   4.653
  277POPC   C1A 2874   0.614   3.378   4.953
  277POPC   D2A 2875   0.585   3.450   5.253
  277POPC   C3A 2876   0.576   3.395   5.553
  277POPC   C4A 2877   0.612   3.452   5.853
  277POPC   C1B 2878   0.321   3.564   4.953
  277POPC   C2B 2879   0.248   3.561   5.253
  277POPC   C3B 2880   0.285   3.579   5.553
  277POPC   C4B 2881   0.284   3.571   5.853
  278POPC   NC3 2882  10.251   5.725   4.053
  278POPC   PO4 2883  10.239   5.681   4.353
  278POPC   GL1 2884  10.233   5.669   4.653
  278POPC   GL2 2885  10.351   5.776   4.653
  278POPC   C1A 2886  10.300   5.662   4.953
  278POPC   D2A 2887  10.266   5.651   5.253
  278POPC   C3A 2888  10.284   5.677   5.553
  278POPC   C4A 2889  10.254   5.727   5.853
  278POPC   C1B 2890  10.547   5.857   4.953
  278POPC   C2B 2891  10.581   5.954   5.253
  278POPC   C3B 2892  10.524   5.880   5.553
  278POPC   C4B 2893  10.584   5.919   5.853
  279POPC   NC3 2894   8.694   5.738   4.053
  279POPC   PO4 2895   8.694   5.827   4.353
  279POPC   GL1 2896   8.678   5.759   4.653
  279POPC   GL2 2897   8.891   5.782   4.653
  279POPC   C1A 2898   8.690   5.807   4.953
  279POPC   D2A 2899   8.689   5.785   5.253
  279POPC   C3A 2900   8.669   5.745   5.553
  279POPC   C4A 2901   8.698   5.746   5.853
  279POPC   C1B 2902   9.002   5.847   4.953
  279POPC   C2B 2903   9.081   5.835   5.253
  279POPC   C3B 2904   9.061   5.776   5.553
  279POPC   C4B 2905   9.089   5.798   5.853
  280POPC   NC3 2906   5.677   1.109   4.053
  280POPC   PO4 2907   5.676   1.115   4.353
  280POPC   GL1 2908   5.616   1.177   4.653
  280POPC   GL2 2909   5.765   1.246   4.653
  280POPC   C1A 2910   5.663   1.175   4.953
  280POPC   D2A 2911   5.648   1.122   5.253
  280POPC   C3A 2912   5.671   1.089   5.553
  280POPC   C4A 2913   5.632   1.169   5.853
  280POPC   C1B 2914   5.918   1.306   4.953
  280POPC   C2B 2915   5.954   1.265   5.253
  280POPC   C3B 2916   5.957   1.264   5.553
  280POPC   C4B 2917   5.940   1.228   5.853
  281POPC   NC3 2918   7.275   1.767   4.053
  281POPC   PO4 2919   7.315   1.794   4.353
  281POPC   GL1 2920   7.354   1.771   4.653
  281POPC   GL2 2921   7.339   1.998   4.653
  281POPC   C1A 2922   7.352   1.794   4.953
  281POPC   D2A 2923   7.274   1.792   5.253
  281POPC   C3A 2924   7.359   1.771   5.553
  281POPC   C4A 2925   7.291   1.748   5.853
  281POPC   C1B 2926   7.313   2.146   4.953
  281POPC   C2B 2927   7.376   2.136   5.253
  281POPC   C3B 2928   7.316   2.172   5.553
  281POPC   C4B 2929   7.352   2.166   5.853
  282POPC   NC3 2930   8.133   1.009   4.053
  282POPC   PO4 2931   8.185   0.995   4.353
  282POPC   GL1 2932   8.181   1.062   4.653
  282POPC   GL2 2933   8.079   1.221   4.653
  282POPC   C1A 2934   8.215   1.076   4.953
  282POPC   D2A 2935   8.146   1.085   5.253
  282POPC   C3A 2936   8.155   1.020   5.553
  282POPC   C4A 2937   8.200   1.060   5.853
  282POPC   C1B 2938   7.974   1.344   4.953
  282POPC   C2B 2939   8.035   1.371   5.253
  282POPC   C3B 2940   7.995   1.376   5.553
  282POPC   C4B 2941   8.056   1.378   5.853
  283POPC   NC3 2942   8.849   9.093   4.053
  283POPC   PO4 2943   8.863   9.004   4.353
  283POPC   GL1 2944   8.878   9.047   4.653
  283POPC   GL2 2945   8.859   8.916   4.653
  283POPC   C1A 2946   8.856   9.053   4.953
  283POPC   D2A 2947   8.820   9.037   5.253
  283POPC   C3A 2948   8.884   9.025   5.553
  283POPC   C4A 2949   8.812   9.054   5.853
  283POPC   C1B 2950   8.878   8.661   4.953
  283POPC   C2B 2951   8.854   8.671   5.253
  283POPC   C3B 2952   8.853   8.697   5.553
  283POPC   C4B 2953   8.917   8.731   5.853
  284POPC   NC3 2954   4.449  11.203   4.053
  284POPC   PO4 2955   4.402  11.208   4.353
  284POPC   GL1 2956   4.473  11.292   4.653
  284POPC   GL2 2957   4.292  11.148   4.653
  284POPC   C1A 2958   4.456  11.263   4.953
  284POPC   D2A 2959   4.445  11.221   5.253
  284POPC   C3A 2960   4.447  11.276   5.553
  284POPC   C4A 2961   4.397  11.236   5.853
  284POPC   C1B 2962   4.121  11.064   4.953
  284POPC   C2B 2963   4.111  11.121   5.253
  284POPC   C3B 2964   4.128  11.134   5.553
  284POPC   C4B 2965   4.138  11.096   5.853
  285POPC   NC3 2966   0.557  11.309   4.053
  285POPC   PO4 2967   0.590  11.264   4.353
  285POPC   GL1 2968   0.538  11.305   4.653
  285POPC   GL2 2969   0.435  11.147   4.653
  285POPC   C1A 2970   0.552  11.292   4.953
  285POPC   D2A 2971   0.575  11.237   5.253
  285POPC   C3A 2972   0.539  11.282   5.553
  285POPC   C4A 2973   0.610  11.297   5.853
  285POPC   C1B 2974   0.236  11.040   4.953
  285POPC   C2B 2975   0.334  11.044   5.253
  285POPC   C3B 2976   0.238  11.110   5.553
  285POPC   C4B 2977   0.236  11.104   5.853
  286POPC   NC3 2978   8.777  10.584   4.053
  286POPC   PO4 2979   8.833  10.551   4.353
  286POPC   GL1 2980   8.838  10.548   4.653
  286POPC   GL2 2981   8.832  10.422   4.653
  286POPC   C1A 2982   8.829  10.574   4.953
  286POPC   D2A 2983   8.741  10.524   5.253
  286POPC   C3A 2984   8.807  10.586   5.553
  286POPC   C4A 2985   8.830  10.524   5.853
  286POPC   C1B 2986   8.934  10.273   4.953
  286POPC   C2B 2987   8.896  10.224   5.253
  286POPC   C3B 2988   8.907  10.204   5.553
  286POPC   C4B 2989   8.909  10.235   5.853
  287POPC   NC3 2990   5.127  11.364   4.053
  287POPC   PO4 2991   5.155  11.278   4.353
  287POPC   GL1 2992   5.109  11.290   4.653
  287POPC   GL2 2993   5.018  11.180   4.653
  287POPC   C1A 2994   5.140  11.279   4.953
  287POPC   D2A 2995   5.126  11.282   5.253
  287POPC   C3A 2996   5.085  11.315   5.553
  287POPC   C4A 2997   5.108  11.304   5.853
  287POPC   C1B 2998   4.907  11.015   4.953
  287POPC   C2B 2999   4.965  11.047   5.253
  287POPC   C3B 3000   4.943  11.015   5.553
  287POPC   C4B 3001   5.006  11.048   5.853
  288POPC   NC3 3002   0.245  10.261   4.053
  288POPC   PO4 3003   0.240  10.270   4.353
  288POPC   GL1 3004   0.251  10.343   4.653
  288POPC   GL2 3005   0.427  10.392   4.653
  288POPC   C1A 3006   0.332  10.267   4.953
  288POPC   D2A 3007   0.240  10.262   5.253
  288POPC   C3A 3008   0.267  10.277   5.553
  288POPC   C4A 3009   0.293  10.332   5.853
  288POPC   C1B 3010   0.547  10.542   4.953
  288POPC   C2B 3011   0.541  10.527   5.253
  288POPC   C3B 3012   0.575  10.536   5.553
  288POPC   C4B 3013   0.604  10.516   5.853
  289POPC   NC3 3014   2.036   2.135   4.053
  289POPC   PO4 3015   2.013   2.099   4.353
  289POPC   GL1 3016   2.010   2.171   4.653
  289POPC   GL2 3017   1.923   1.938   4.653
  289POPC   C1A 3018   1.980   2.138   4.953
  289POPC   D2A 3019   1.987   2.177   5.253
  289POPC   C3A 3020   2.008   2.108   5.553
  289POPC   C4A 3021   2.044   2.121   5.853
  289POPC   C1B 3022   1.879   1.828   4.953
  289POPC   C2B 3023   1.880   1.840   5.253
  289POPC   C3B 3024   1.931   1.799   5.553
  289POPC   C4B 3025   1.923   1.816   5.853
  290POPC   NC3 3026  11.192   8.669   4.053
  290POPC   PO4 3027  11.226   8.717   4.353
  290POPC   GL1 3028  11.210   8.654   4.653
  290POPC   GL2 3029  11.166   8.849   4.653
  290POPC   C1A 3030  11.161   8.665   4.953
  290POPC   D2A 3031  11.162   8.707   5.253
  290POPC   C3A 3032  11.234   8.658   5.553
  290POPC   C4A 3033  11.196   8.729   5.853
  290POPC   C1B 3034  11.131   9.057   4.953
  290POPC   C2B 3035  11.133   9.093   5.253
  290POPC   C3B 3036  11.145   9.059   5.553
  290POPC   C4B 3037  11.109   9.012   5.853
  291POPC   NC3 3038   7.311  11.030   4.053
  291POPC   PO4 3039   7.334  11.039   4.353
  291POPC   GL1 3040   7.374  11.007   4.653
  291POPC   GL2 3041   7.349  11.181   4.653
  291POPC   C1A 3042   7.350  11.026   4.953
  291POPC   D2A 3043   7.337  11.006   5.253
  291POPC   C3A 3044   7.393  10.962   5.553
  291POPC   C4A 3045   7.331  11.034   5.853
  291POPC   C1B 3046   7.313  11.300   4.953
  291POPC   C2B 3047   7.305  11.367   5.253
  291POPC   C3B 3048   7.314  11.380   5.553
  291POPC   C4B 3049   7.286  11.345   5.853
  292POPC   NC3 3050   3.548   1.336   4.053
  292POPC   PO4 3051   3.501   1.360   4.353
  292POPC   GL1 3052   3.544   1.397   4.653
  292POPC   GL2 3053   3.514   1.154   4.653
  292POPC   C1A 3054   3.550   1.375   4.953
  292POPC   D2A 3055   3.550   1.414   5.253
  292POPC   C3A 3056   3.508   1.403   5.553
  292POPC   C4A 3057   3.572   1.375   5.853
  292POPC   C1B 3058   3.438   1.000   4.953
  292POPC   C2B 3059   3.484   1.041   5.253
  292POPC   C3B 3060   3.477   1.041   5.553
  292POPC   C4B 3061   3.496   0.979   5.853
  293POPC   NC3 3062   9.815   6.533   4.053
  293POPC   PO4 3063   9.827   6.491   4.353
  293POPC   GL1 3064   9.758   6.440   4.653
  293POPC   GL2 3065   9.656   6.538   4.653
  293POPC   C1A 3066   9.766   6.507   4.953
  293POPC   D2A 3067   9.802   6.446   5.253
  293POPC   C3A 3068   9.768   6.521   5.553
  293POPC   C4A 3069   9.831   6.524   5.853
  293POPC   C1B 3070   9.430   6.605   4.953
  293POPC   C2B 3071   9.479   6.643   5.253
  293POPC   C3B 3072   9.475   6.605   5.553
  293POPC   C4B 3073   9.445   6.638   5.853
  294POPC   NC3 3074   4.080   8.898   4.053
  294POPC   PO4 3075   4.116   8.831   4.353
  294POPC   GL1 3076   4.126   8.886   4.653
  294POPC   GL2 3077   4.228   8.869   4.653
  294POPC   C1A 3078   4.114   8.825   4.953
  294POPC   D2A 3079   4.090   8.845   5.253
  294POPC   C3A 3080   4.045   8.869   5.553
  294POPC   C4A 3081   4.089   8.851   5.853
  294POPC   C1B 3082   4.486   8.852   4.953
  294POPC   C2B 3083   4.441   8.838   5.253
  294POPC   C3B 3084   4.469   8.849   5.553
  294POPC   C4B 3085   4.452   8.896   5.853
  295POPC   NC3 3086   1.241   4.434   4.053
  295POPC   PO4 3087   1.242   4.413   4.353
  295POPC   GL1 3088   1.265   4.412   4.653
  295POPC   GL2 3089   1.229   4.219   4.653
  295POPC   C1A 3090   1.266   4.436   4.953
  295POPC   D2A 3091   1.324   4.448   5.253
  295POPC   C3A 3092   1.314   4.421   5.553
  295POPC   C4A 3093   1.325   4.451   5.853
  295POPC   C1B 3094   1.163   4.070   4.953
  295POPC   C2B 3095   1.127   4.077   5.253
  295POPC   C3B 3096   1.143   4.156   5.553
  295POPC   C4B 3097   1.134   4.071   5.853
  296POPC   NC3 3098   1.879   3.648   4.053
  296POPC   PO4 3099   1.863   3.634   4.353
  296POPC   GL1 3100   1.953   3.638   4.653
  296POPC   GL2 3101   1.995   3.515   4.653
  296POPC   C1A 3102   1.888   3.641   4.953
  296POPC   D2A 3103   1.882   3.700   5.253
  296POPC   C3A 3104   1.920   3.693   5.553
  296POPC   C4A 3105   1.943   3.677   5.853
  296POPC   C1B 3106   2.029   3.320   4.953
  296POPC   C2B 3107   2.069   3.329   5.253
  296POPC   C3B 3108   2.060   3.309   5.553
  296POPC   C4B 3109   1.989   3.292   5.853
  297POPC   NC3 3110  10.242   1.211   4.053
  297POPC   PO4 3111  10.223   1.191   4.353
  297POPC   GL1 3112  10.257   1.198   4.653
  297POPC   GL2 3113  10.445   1.197   4.653
  297POPC   C1A 3114  10.210   1.117   4.953
  297POPC   D2A 3115  10.178   1.138   5.253
  297POPC   C3A 3116  10.274   1.212   5.553
  297POPC   C4A 3117  10.197   1.125   5.853
  297POPC   C1B 3118  10.605   1.231   4.953
  297POPC   C2B 3119  10.581   1.205   5.253
  297POPC   C3B 3120  10.559   1.274   5.553
  297POPC   C4B 3121  10.583   1.252   5.853
  298POPC   NC3 3122   9.048   3.501   4.053
  298POPC   PO4 3123   9.038   3.490   4.353
  298POPC   GL1 3124   9.077   3.445   4.653
  298POPC   GL2 3125   8.906   3.470   4.653
  298POPC   C1A 3126   9.048   3.480   4.953
  298POPC   D2A 3127   9.013   3.499   5.253
  298POPC   C3A 3128   9.032   3.441   5.553
  298POPC   C4A 3129   9.072   3.487   5.853
  298POPC   C1B 3130   8.727   3.542   4.953
  298POPC   C2B 3131   8.687   3.541   5.253
  298POPC   C3B 3132   8.705   3.513   5.553
  298POPC   C4B 3133   8.681   3.576   5.853
  299POPC   NC3 3134   1.027   0.271   4.053
  299POPC   PO4 3135   1.118   0.274   4.353
  299POPC   GL1 3136   1.024   0.323   4.653
  299POPC   GL2 3137   1.234   0.470   4.653
  299POPC   C1A 3138   1.038   0.320   4.953
  299POPC   D2A 3139   1.074   0.328   5.253
  299POPC   C3A 3140   1.097   0.330   5.553
  299POPC   C4A 3141   1.037   0.341   5.853
  299POPC   C1B 3142   1.377   0.556   4.953
  299POPC   C2B 3143   1.370   0.584   5.253
  299POPC   C3B 3144   1.357   0.542   5.553
  299POPC   C4B 3145   1.287   0.567   5.853
  300POPC   NC3 3146   1.266   8.691   4.053
  300POPC   PO4 3147   1.248   8.686   4.353
  300POPC   GL1 3148   1.185   8.699   4.653
  300POPC   GL2 3149   1.189   8.852   4.653
  300POPC   C1A 3150   1.279   8.671   4.953
  300POPC   D2A 3151   1.232   8.738   5.253
  300POPC   C3A 3152   1.234   8.676   5.553
  300POPC   C4A 3153   1.225   8.705   5.853
  300POPC   C1B 3154   1.158   9.081   4.953
  300POPC   C2B 3155   1.209   9.076   5.253
  300POPC   C3B 3156   1.132   9.077   5.553
  300POPC   C4B 3157   1.130   9.080   5.853
  301POPC   NC3 3158   9.816   0.364   4.053
  301POPC   PO4 3159   9.744   0.288   4.353
  301POPC   GL1 3160   9.782   0.334   4.653
  301POPC   GL2 3161   9.599   0.482   4.653
  301POPC   C1A 3162   9.737   0.373   4.953
  301POPC   D2A 3163   9.804   0.325   5.253
  301POPC   C3A 3164   9.746   0.314   5.553
  301POPC   C4A 3165   9.821   0.297   5.853
  301POPC   C1B 3166   9.506   0.495   4.953
  301POPC   C2B 3167   9.472   0.506   5.253
  301POPC   C3B 3168   9.498   0.513   5.553
  301POPC   C4B 3169   9.471   0.558   5.853
  302POPC   NC3 3170   8.293   2.685   4.053
  302POPC   PO4 3171   8.207   2.681   4.353
  302POPC   GL1 3172   8.252   2.634   4.653
  302POPC   GL2 3173   8.099   2.762   4.653
  302POPC   C1A 3174   8.288   2.691   4.953
  302POPC   D2A 3175   8.265   2.598   5.253
  302POPC   C3A 3176   8.302   2.636   5.553
  302POPC   C4A 3177   8.260   2.662   5.853
  302POPC   C1B 3178   7.925   2.859   4.953
  302POPC   C2B 3179   7.911   2.869   5.253
  302POPC   C3B 3180   7.922   2.776   5.553
  302POPC   C4B 3181   7.964   2.835   5.853
  303POPC   NC3 3182   7.479   1.271   4.053
  303POPC   PO4 3183   7.441   1.306   4.353
  303POPC   GL1 3184   7.509   1.304   4.653
  303POPC   GL2 3185   7.370   1.180   4.653
  303POPC   C1A 3186   7.441   1.258   4.953
  303POPC   D2A 3187   7.501   1.298   5.253
  303POPC   C3A 3188   7.453   1.260   5.553
  303POPC   C4A 3189   7.451   1.256   5.853
  303POPC   C1B 3190   7.160   1.152   4.953
  303POPC   C2B 3191   7.207   1.155   5.253
  303POPC   C3B 3192   7.147   1.107   5.553
  303POPC   C4B 3193   7.208   1.116   5.853
  304POPC   NC3 3194  10.584   5.041   4.053
  304POPC   PO4 3195  10.581   5.089   4.353
  304POPC   GL1 3196  10.612   5.107   4.653
  304POPC   GL2 3197  10.374   4.996   4.653
  304POPC   C1A 3198  10.597   5.094   4.953
  304POPC   D2A 3199  10.522   5.122   5.253
  304POPC   C3A 3200  10.586   5.049   5.553
  304POPC   C4A 3201  10.525   5.074   5.853
  304POPC   C1B 3202  10.217   4.942   4.953
  304POPC   C2B 3203  10.193   4.960   5.253
  304POPC   C3B 3204  10.218   4.981   5.553
  304POPC   C4B 3205  10.250   4.970   5.853
  305POPC   NC3 3206   1.769   4.260   4.053
  305POPC   PO4 3207   1.751   4.203   4.353
  305POPC   GL1 3208   1.818   4.205   4.653
  305POPC   GL2 3209   1.928   4.229   4.653
  305POPC   C1A 3210   1.835   4.203   4.953
  305POPC   D2A 3211   1.807   4.217   5.253
  305POPC   C3A 3212   1.820   4.230   5.553
  305POPC   C4A 3213   1.840   4.242   5.853
  305POPC   C1B 3214   2.162   4.321   4.953
  305POPC   C2B 3215   2.158   4.302   5.253
  305POPC   C3B 3216   2.183   4.319   5.553
  305POPC   C4B 3217   2.172   4.338   5.853
  306POPC   NC3 3218  11.293   4.347   4.053
  306POPC   PO4 3219  11.280   4.367   4.353
  306POPC   GL1 3220  11.342   4.369   4.653
  306POPC   GL2 3221  11.120   4.219   4.653
  306POPC   C1A 3222  11.330   4.402   4.953
  306POPC   D2A 3223  11.341   4.332   5.253
  306POPC   C3A 3224  11.319   4.373   5.553
  306POPC   C4A 3225  11.350   4.350   5.853
  306POPC   C1B 3226  11.019   4.132   4.953
  306POPC   C2B 3227  11.050   4.128   5.253
  306POPC   C3B 3228  10.997   4.141   5.553
  306POPC   C4B 3229  11.065   4.133   5.853
  307POPC   NC3 3230   3.638   5.824   4.053
  307POPC   PO4 3231   3.673   5.864   4.353
  307POPC   GL1 3232   3.662   5.836   4.653
  307POPC   GL2 3233   3.470   5.846   4.653
  307POPC   C1A 3234   3.692   5.870   4.953
  307POPC   D2A 3235   3.663   5.808   5.253
  307POPC   C3A 3236   3.695   5.849   5.553
  307POPC   C4A 3237   3.714   5.901   5.853
  307POPC   C1B 3238   3.354   5.701   4.953
  307POPC   C2B 3239   3.290   5.737   5.253
  307POPC   C3B 3240   3.312   5.739   5.553
  307POPC   C4B 3241   3.313   5.696   5.853
  308POPC   NC3 3242   8.868   2.944   4.053
  308POPC   PO4 3243   8.854   2.954   4.353
  308POPC   GL1 3244   8.859   2.887   4.653
  308POPC   GL2 3245   8.883   2.726   4.653
  308POPC   C1A 3246   8.810   2.904   4.953
  308POPC   D2A 3247   8.831   2.897   5.253
  308POPC   C3A 3248   8.852   2.905   5.553
  308POPC   C4A 3249   8.803   2.885   5.853
  308POPC   C1B 3250   8.940   2.570   4.953
  308POPC   C2B 3251   8.896   2.586   5.253
  308POPC   C3B 3252   8.898   2.561   5.553
  308POPC   C4B 3253   8.919   2.509   5.853
  309POPC   NC3 3254  10.210   2.812   4.053
  309POPC   PO4 3255  10.284   2.785   4.353
  309POPC   GL1 3256  10.254   2.809   4.653
  309POPC   GL2 3257  10.400   2.724   4.653
  309POPC   C1A 3258  10.232   2.864   4.953
  309POPC   D2A 3259  10.227   2.785   5.253
  309POPC   C3A 3260  10.215   2.823   5.553
  309POPC   C4A 3261  10.211   2.784   5.853
  309POPC   C1B 3262  10.558   2.677   4.953
  309POPC   C2B 3263  10.580   2.597   5.253
  309POPC   C3B 3264  10.568   2.677   5.553
  309POPC   C4B 3265  10.498   2.617   5.853
  310POPC   NC3 3266   2.054   7.494   4.053
  310POPC   PO4 3267   2.015   7.522   4.353
  310POPC   GL1 3268   2.057   7.472   4.653
  310POPC   GL2 3269   2.003   7.347   4.653
  310POPC   C1A 3270   2.021   7.503   4.953
  310POPC   D2A 3271   2.069   7.482   5.253
  310POPC   C3A 3272   2.089   7.453   5.553
  310POPC   C4A 3273   2.090   7.488   5.853
  310POPC   C1B 3274   1.875   7.142   4.953
  310POPC   C2B 3275   1.918   7.169   5.253
  310POPC   C3B 3276   1.854   7.142   5.553
  310POPC   C4B 3277   1.863   7.214   5.853
  311POPC   NC3 3278   0.425   8.739   4.053
  311POPC   PO4 3279   0.353   8.657   4.353
  311POPC   GL1 3280   0.376   8.714   4.653
  311POPC   GL2 3281   0.444   8.886   4.653
  311POPC   C1A 3282   0.361   8.737   4.953
  311POPC   D2A 3283   0.363   8.673   5.253
  311POPC   C3A 3284   0.418   8.682   5.553
  311POPC   C4A 3285   0.359   8.688   5.853
  311POPC   C1B 3286   0.440   9.091   4.953
  311POPC   C2B 3287   0.430   9.076   5.253
  311POPC   C3B 3288   0.429   9.073   5.553
  311POPC   C4B 3289   0.497   9.076   5.853
  312POPC   NC3 3290   3.491   8.661   4.053
  312POPC   PO4 3291   3.536   8.698   4.353
  312POPC   GL1 3292   3.500   8.646   4.653
  312POPC   GL2 3293   3.473   8.915   4.653
  312POPC   C1A 3294   3.518   8.659   4.953
  312POPC   D2A 3295   3.523   8.715   5.253
  312POPC   C3A 3296   3.499   8.688   5.553
  312POPC   C4A 3297   3.515   8.707   5.853
  312POPC   C1B 3298   3.454   9.005   4.953
  312POPC   C2B 3299   3.467   9.041   5.253
  312POPC   C3B 3300   3.507   9.009   5.553
  312POPC   C4B 3301   3.479   9.017   5.853
  313POPC   NC3 3302   2.877   2.584   4.053
  313POPC   PO4 3303   2.893   2.568   4.353
  313POPC   GL1 3304   2.915   2.576   4.653
  313POPC   GL2 3305   2.696   2.733   4.653
  313POPC   C1A 3306   2.873   2.570   4.953
  313POPC   D2A 3307   2.840   2.611   5.253
  313POPC   C3A 3308   2.852   2.567   5.553
  313POPC   C4A 3309   2.872   2.620   5.853
  313POPC   C1B 3310   2.637   2.840   4.953
  313POPC   C2B 3311   2.622   2.805   5.253
  313POPC   C3B 3312   2.604   2.831   5.553
  313POPC   C4B 3313   2.630   2.893   5.853
  314POPC   NC3 3314   1.930   0.240   4.053
  314POPC   PO4 3315   1.892   0.305   4.353
  314POPC   GL1 3316   1.909   0.282   4.653
  314POPC   GL2 3317   1.952   0.471   4.653
  314POPC   C1A 3318   1.906   0.226   4.953
  314POPC   D2A 3319   1.965   0.288   5.253
  314POPC   C3A 3320   1.921   0.265   5.553
  314POPC   C4A 3321   1.914   0.251   5.853
  314POPC   C1B 3322   1.998   0.620   4.953
  314POPC   C2B 3323   2.018   0.621   5.253
  314POPC   C3B 3324   1.976   0.627   5.553
  314POPC   C4B 3325   2.034   0.604   5.853
  315POPC   NC3 3326   2.158   2.772   4.053
  315POPC   PO4 3327   2.165   2.808   4.353
  315POPC   GL1 3328   2.153   2.720   4.653
  315POPC   GL2 3329   1.975   2.708   4.653
  315POPC   C1A 3330   2.190   2.774   4.953
  315POPC   D2A 3331   2.173   2.733   5.253
  315POPC   C3A 3332   2.129   2.809   5.553
  315POPC   C4A 3333   2.184   2.790   5.853
  315POPC   C1B 3334   1.828   2.727   4.953
  315POPC   C2B 3335   1.825   2.693   5.253
  315POPC   C3B 3336   1.803   2.655   5.553
  315POPC   C4B 3337   1.808   2.678   5.853
  316POPC   NC3 3338   0.461   0.587   4.053
  316POPC   PO4 3339   0.472   0.646   4.353
  316POPC   GL1 3340   0.469   0.583   4.653
  316POPC   GL2 3341   0.430   0.423   4.653
  316POPC   C1A 3342   0.473   0.603   4.953
  316POPC   D2A 3343   0.410   0.583   5.253
  316POPC   C3A 3344   0.472   0.574   5.553
  316POPC   C4A 3345   0.500   0.610   5.853
  316POPC   C1B 3346   0.370   0.239   4.953
  316POPC   C2B 3347   0.445   0.295   5.253
  316POPC   C3B 3348   0.375   0.251   5.553
  316POPC   C4B 3349   0.429   0.299   5.853
  317POPC   NC3 3350   2.100   9.645   4.053
  317POPC   PO4 3351   2.123   9.592   4.353
  317POPC   GL1 3352   2.115   9.641   4.653
  317POPC   GL2 3353   1.982   9.658   4.653
  317POPC   C1A 3354   2.147   9.651   4.953
  317POPC   D2A 3355   2.122   9.621   5.253
  317POPC   C3A 3356   2.119   9.676   5.553
  317POPC   C4A 3357   2.107   9.687   5.853
  317POPC   C1B 3358   1.759   9.673   4.953
  317POPC   C2B 3359   1.832   9.633   5.253
  317POPC   C3B 3360   1.820   9.589   5.553
  317POPC   C4B 3361   1.786   9.604   5.853
  318POPC   NC3 3362   0.254   2.007   4.053
  318POPC   PO4 3363   0.232   2.043   4.353
  318POPC   GL1 3364   0.247   1.993   4.653
  318POPC   GL2 3365   0.388   2.008   4.653
  318POPC   C1A 3366   0.280   2.043   4.953
  318POPC   D2A 3367   0.265   2.045   5.253
  318POPC   C3A 3368   0.252   1.961   5.553
  318POPC   C4A 3369   0.268   2.038   5.853
  318POPC   C1B 3370   0.575   1.964   4.953
  318POPC   C2B 3371   0.584   1.902   5.253
  318POPC   C3B 3372   0.570   1.883   5.553
  318POPC   C4B 3373   0.616   1.961   5.853
  319POPC   NC3 3374   8.851   7.524   4.053
  319POPC   PO4 3375   8.778   7.493   4.353
  319POPC   GL1 3376   8.761   7.525   4.653
  319POPC   GL2 3377   8.847   7.335   4.653
  319POPC   C1A 3378   8.786   7.522   4.953
  319POPC   D2A 3379   8.803   7.521   5.253
  319POPC   C3A 3380   8.836   7.509   5.553
  319POPC   C4A 3381   8.809   7.508   5.853
  319POPC   C1B 3382   8.923   7.187   4.953
  319POPC   C2B 3383   8.966   7.183   5.253
  319POPC   C3B 3384   8.957   7.148   5.553
  319POPC   C4B 3385   8.900   7.184   5.853
  320POPC   NC3 3386   2.583  11.256   4.053
  320POPC   PO4 3387   2.596  11.260   4.353
  320POPC   GL1 3388   2.615  11.283   4.653
  320POPC   GL2 3389   2.732  11.193   4.653
  320POPC   C1A 3390   2.564  11.307   4.953
  320POPC   D2A 3391   2.623  11.283   5.253
  320POPC   C3A 3392   2.583  11.297   5.553
  320POPC   C4A 3393   2.582  11.297   5.853
  320POPC   C1B 3394   2.835  11.036   4.953
  320POPC   C2B 3395   2.828  11.043   5.253
  320POPC   C3B 3396   2.828  11.075   5.553
  320POPC   C4B 3397   2.904  11.050   5.853
  321POPC   NC3 3398   6.465   1.832   4.053
  321POPC   PO4 3399   6.438   1.812   4.353
  321POPC   GL1 3400   6.457   1.877   4.653
  321POPC   GL2 3401   6.559   1.972   4.653
  321POPC   C1A 3402   6.466   1.813   4.953
  321POPC   D2A 3403   6.405   1.801   5.253
  321POPC   C3A 3404   6.479   1.841   5.553
  321POPC   C4A 3405   6.394   1.868   5.853
  321POPC   C1B 3406   6.653   2.053   4.953
  321POPC   C2B 3407   6.677   2.088   5.253
  321POPC   C3B 3408   6.731   2.138   5.553
  321POPC   C4B 3409   6.702   2.058   5.853
  322POPC   NC3 3410   9.732   1.067   4.053
  322POPC   PO4 3411   9.650   0.994   4.353
  322POPC   GL1 3412   9.679   0.985   4.653
  322POPC   GL2 3413   9.668   1.161   4.653
  322POPC   C1A 3414   9.653   1.014   4.953
  322POPC   D2A 3415   9.712   0.986   5.253
  322POPC   C3A 3416   9.705   1.063   5.553
  322POPC   C4A 3417   9.714   1.011   5.853
  322POPC   C1B 3418   9.579   1.392   4.953
  322POPC   C2B 3419   9.618   1.334   5.253
  322POPC   C3B 3420   9.548   1.319   5.553
  322POPC   C4B 3421   9.595   1.323   5.853
  323POPC   NC3 3422   8.204   9.022   4.053
  323POPC   PO4 3423   8.236   9.003   4.353
  323POPC   GL1 3424   8.194   9.004   4.653
  323POPC   GL2 3425   8.060   8.904   4.653
  323POPC   C1A 3426   8.256   9.010   4.953
  323POPC   D2A 3427   8.212   9.023   5.253
  323POPC   C3A 3428   8.253   9.014   5.553
  323POPC   C4A 3429   8.252   9.045   5.853
  323POPC   C1B 3430   7.994   8.752   4.953
  323POPC   C2B 3431   7.985   8.756   5.253
  323POPC   C3B 3432   7.967   8.724   5.553
  323POPC   C4B 3433   8.035   8.751   5.853
  324POPC   NC3 3434   7.334   7.949   4.053
  324POPC   PO4 3435   7.352   7.899   4.353
  324POPC   GL1 3436   7.354   7.911   4.653
  324POPC   GL2 3437   7.326   8.058   4.653
  324POPC   C1A 3438   7.322   7.886   4.953
  324POPC   D2A 3439   7.365   7.923   5.253
  324POPC   C3A 3440   7.332   7.901   5.553
  324POPC   C4A 3441   7.327   7.919   5.853
  324POPC   C1B 3442   7.351   8.236   4.953
  324POPC   C2B 3443   7.332   8.303   5.253
  324POPC   C3B 3444   7.291   8.323   5.553
  324POPC   C4B 3445   7.299   8.241   5.853
  325POPC   NC3 3446   4.099   2.002   4.053
  325POPC   PO4 3447   4.129   1.952   4.353
  325POPC   GL1 3448   4.125   1.933   4.653
  325POPC   GL2 3449   4.259   2.007   4.653
  325POPC   C1A 3450   4.095   1.984   4.953
  325POPC   D2A 3451   4.117   2.024   5.253
  325POPC   C3A 3452   4.101   1.936   5.553
  325POPC   C4A 3453   4.109   1.973   5.853
  325POPC   C1B 3454   4.473   1.935   4.953
  325POPC   C2B 3455   4.400   1.929   5.253
  325POPC   C3B 3456   4.439   1.910   5.553
  325POPC   C4B 3457   4.422   1.988   5.853
  326POPC   NC3 3458  10.581   0.436   4.053
  326POPC   PO4 3459  10.600   0.488   4.353
  326POPC   GL1 3460  10.566   0.463   4.653
  326POPC   GL2 3461  10.434   0.394   4.653
  326POPC   C1A 3462  10.568   0.449   4.953
  326POPC   D2A 3463  10.609   0.428   5.253
  326POPC   C3A 3464  10.545   0.472   5.553
  326POPC   C4A 3465  10.546   0.435   5.853
  326POPC   C1B 3466  10.252   0.460   4.953
  326POPC   C2B 3467  10.179   0.447   5.253
  326POPC   C3B 3468  10.220   0.433   5.553
  326POPC   C4B 3469  10.266   0.442   5.853
  327POPC   NC3 3470   9.012   0.269   4.053
  327POPC   PO4 3471   8.956   0.263   4.353
  327POPC   GL1 3472   8.936   0.309   4.653
  327POPC   GL2 3473   8.822   0.388   4.653
  327POPC   C1A 3474   8.998   0.254   4.953
  327POPC   D2A 3475   8.950   0.313   5.253
  327POPC   C3A 3476   9.017   0.297   5.553
  327POPC   C4A 3477   8.974   0.342   5.853
  327POPC   C1B 3478   8.794   0.578   4.953
  327POPC   C2B 3479   8.781   0.591   5.253
  327POPC   C3B 3480   8.738   0.529   5.553
  327POPC   C4B 3481   8.697   0.565   5.853
  328POPC   NC3 3482   8.019   1.809   4.053
  328POPC   PO4 3483   8.009   1.797   4.353
  328POPC   GL1 3484   8.047   1.840   4.653
  328POPC   GL2 3485   8.141   2.005   4.653
  328POPC   C1A 3486   8.076   1.829   4.953
  328POPC   D2A 3487   8.091   1.832   5.253
  328POPC   C3A 3488   8.044   1.826   5.553
  328POPC   C4A 3489   7.996   1.772   5.853
  328POPC   C1B 3490   8.166   2.097   4.953
  328POPC   C2B 3491   8.159   2.104   5.253
  328POPC   C3B 3492   8.113   2.156   5.553
  328POPC   C4B 3493   8.192   2.185   5.853
  329POPC   NC3 3494   2.802   8.244   4.053
  329POPC   PO4 3495   2.761   8.255   4.353
  329POPC   GL1 3496   2.739   8.246   4.653
  329POPC   GL2 3497   2.748   8.055   4.653
  329POPC   C1A 3498   2.758   8.309   4.953
  329POPC   D2A 3499   2.812   8.291   5.253
  329POPC   C3A 3500   2.836   8.296   5.553
  329POPC   C4A 3501   2.795   8.237   5.853
  329POPC   C1B 3502   2.641   7.959   4.953
  329POPC   C2B 3503   2.646   7.940   5.253
  329POPC   C3B 3504   2.727   7.979   5.553
  329POPC   C4B 3505   2.728   7.971   5.853
  330POPC   NC3 3506   6.612   3.654   4.053
  330POPC   PO4 3507   6.668   3.701   4.353
  330POPC   GL1 3508   6.683   3.707   4.653
  330POPC   GL2 3509   6.521   3.539   4.653
  330POPC   C1A 3510   6.673   3.679   4.953
  330POPC   D2A 3511   6.605   3.631   5.253
  330POPC   C3A 3512   6.602   3.700   5.553
  330POPC   C4A 3513   6.661   3.614   5.853
  330POPC   C1B 3514   6.466   3.293   4.953
  330POPC   C2B 3515   6.519   3.323   5.253
  330POPC   C3B 3516   6.446   3.384   5.553
  330POPC   C4B 3517   6.443   3.382   5.853
  331POPC   NC3 3518   8.018   9.735   4.053
  331POPC   PO4 3519   7.948   9.797   4.353
  331POPC   GL1 3520   8.001   9.729   4.653
  331POPC   GL2 3521   8.122   9.655   4.653
  331POPC   C1A 3522   8.033   9.822   4.953
  331POPC   D2A 3523   8.010   9.803   5.253
  331POPC   C3A 3524   7.985   9.759   5.553
  331POPC   C4A 3525   7.946   9.797   5.853
  331POPC   C1B 3526   8.186   9.530   4.953
  331POPC   C2B 3527   8.221   9.531   5.253
  331POPC   C3B 3528   8.181   9.455   5.553
  331POPC   C4B 3529   8.196   9.464   5.853
  332POPC   NC3 3530   9.446   9.702   4.053
  332POPC   PO4 3531   9.465   9.667   4.353
  332POPC   GL1 3532   9.482   9.656   4.653
  332POPC   GL2 3533   9.587   9.650   4.653
  332POPC   C1A 3534   9.471   9.673   4.953
  332POPC   D2A 3535   9.447   9.646   5.253
  332POPC   C3A 3536   9.474   9.673   5.553
  332POPC   C4A 3537   9.433   9.702   5.853
  332POPC   C1B 3538   9.820   9.630   4.953
  332POPC   C2B 3539   9.770   9.618   5.253
  332POPC   C3B 3540   9.765   9.575   5.553
  332POPC   C4B 3541   9.823   9.564   5.853
  333POPC   NC3 3542   5.143   1.398   4.053
  333POPC   PO4 3543   5.080   1.359   4.353
  333POPC   GL1 3544   5.059   1.400   4.653
  333POPC   GL2 3545   5.004   1.217   4.653
  333POPC   C1A 3546   5.113   1.315   4.953
  333POPC   D2A 3547   5.135   1.394   5.253
  333POPC   C3A 3548   5.081   1.351   5.553
  333POPC   C4A 3549   5.092   1.393   5.853
  333POPC   C1B 3550   5.012   1.032   4.953
  333POPC   C2B 3551   4.948   1.043   5.253
  333POPC   C3B 3552   4.989   1.047   5.553
  333POPC   C4B 3553   4.953   1.028   5.853
  334POPC   NC3 3554   0.353   7.888   4.053
  334POPC   PO4 3555   0.394   7.963   4.353
  334POPC   GL1 3556   0.411   7.972   4.653
  334POPC   GL2 3557   0.466   8.086   4.653
  334POPC   C1A 3558   0.382   7.951   4.953
  334POPC   D2A 3559   0.339   7.946   5.253
  334POPC   C3A 3560   0.393   7.929   5.553
  334POPC   C4A 3561   0.363   7.959   5.853
  334POPC   C1B 3562   0.516   8.240   4.953
  334POPC   C2B 3563   0.456   8.284   5.253
  334POPC   C3B 3564   0.546   8.250   5.553
  334POPC   C4B 3565   0.548   8.305   5.853
  335POPC   NC3 3566   9.750   7.445   4.053
  335POPC   PO4 3567   9.759   7.451   4.353
  335POPC   GL1 3568   9.746   7.390   4.653
  335POPC   GL2 3569   9.593   7.358   4.653
  335POPC   C1A 3570   9.818   7.377   4.953
  335POPC   D2A 3571   9.786   7.428   5.253
  335POPC   C3A 3572   9.761   7.459   5.553
  335POPC   C4A 3573   9.820   7.410   5.853
  335POPC   C1B 3574   9.448   7.232   4.953
  335POPC   C2B 3575   9.495   7.264   5.253
  335POPC   C3B 3576   9.481   7.249   5.553
  335POPC   C4B 3577   9.504   7.271   5.853
  336POPC   NC3 3578   8.712  11.096   4.053
  336POPC   PO4 3579   8.744  11.033   4.353
  336POPC   GL1 3580   8.665  11.066   4.653
  336POPC   GL2 3581   8.875  11.118   4.653
  336POPC   C1A 3582   8.683  11.071   4.953
  336POPC   D2A 3583   8.696  11.041   5.253
  336POPC   C3A 3584   8.759  11.079   5.553
  336POPC   C4A 3585   8.747  11.030   5.853
  336POPC   C1B 3586   9.019  11.305   4.953
  336POPC   C2B 3587   9.019  11.253   5.253
  336POPC   C3B 3588   9.010  11.226   5.553
  336POPC   C4B 3589   9.059  11.211   5.853
  337POPC   NC3 3590   1.961   6.361   4.053
  337POPC   PO4 3591   1.918   6.422   4.353
  337POPC   GL1 3592   1.929   6.343   4.653
  337POPC   GL2 3593   1.964   6.525   4.653
  337POPC   C1A 3594   1.998   6.376   4.953
  337POPC   D2A 3595   1.907   6.416   5.253
  337POPC   C3A 3596   1.940   6.418   5.553
  337POPC   C4A 3597   1.996   6.388   5.853
  337POPC   C1B 3598   2.008   6.710   4.953
  337POPC   C2B 3599   1.981   6.756   5.253
  337POPC   C3B 3600   2.014   6.793   5.553
  337POPC   C4B 3601   1.985   6.774   5.853
  338POPC   NC3 3602  10.995   5.778   4.053
  338POPC   PO4 3603  11.037   5.802   4.353
  338POPC   GL1 3604  10.988   5.788   4.653
  338POPC   GL2 3605  11.216   5.790   4.653
  338POPC   C1A 3606  11.012   5.747   4.953
  338POPC   D2A 3607  10.965   5.802   5.253
  338POPC   C3A 3608  10.951   5.752   5.553
  338POPC   C4A 3609  11.002   5.738   5.853
  338POPC   C1B 3610  11.320   5.873   4.953
  338POPC   C2B 3611  11.313   5.869   5.253
  338POPC   C3B 3612  11.365   5.802   5.553
  338POPC   C4B 3613  11.381   5.846   5.853
  339POPC   NC3 3614   5.084   9.780   4.053
  339POPC   PO4 3615   5.136   9.768   4.353
  339POPC   GL1 3616   5.096   9.779   4.653
  339POPC   GL2 3617   5.060   9.668   4.653
  339POPC   C1A 3618   5.087   9.824   4.953
  339POPC   D2A 3619   5.138   9.793   5.253
  339POPC   C3A 3620   5.076   9.808   5.553
  339POPC   C4A 3621   5.080   9.787   5.853
  339POPC   C1B 3622   4.930   9.489   4.953
  339POPC   C2B 3623   4.915   9.428   5.253
  339POPC   C3B 3624   4.972   9.465   5.553
  339POPC   C4B 3625   4.912   9.463   5.853
  340POPC   NC3 3626  11.227   6.729   4.053
  340POPC   PO4 3627  11.259   6.748   4.353
  340POPC   GL1 3628  11.250   6.697   4.653
  340POPC   GL2 3629  11.172   6.532   4.653
  340POPC   C1A 3630  11.289   6.678   4.953
  340POPC   D2A 3631  11.195   6.749   5.253
  340POPC   C3A 3632  11.238   6.734   5.553
  340POPC   C4A 3633  11.290   6.738   5.853
  340POPC   C1B 3634  11.136   6.436   4.953
  340POPC   C2B 3635  11.042   6.426   5.253
  340POPC   C3B 3636  11.117   6.371   5.553
  340POPC   C4B 3637  11.086   6.405   5.853
  341POPC   NC3 3638  11.040   7.290   4.053
  341POPC   PO4 3639  10.963   7.263   4.353
  341POPC   GL1 3640  10.976   7.339   4.653
  341POPC   GL2 3641  11.188   7.358   4.653
  341POPC   C1A 3642  10.969   7.277   4.953
  341POPC   D2A 3643  11.024   7.285   5.253
  341POPC   C3A 3644  10.981   7.326   5.553
  341POPC   C4A 3645  10.994   7.294   5.853
  341POPC   C1B 3646  11.353   7.344   4.953
  341POPC   C2B 3647  11.350   7.398   5.253
  341POPC   C3B 3648  11.319   7.349   5.553
  341POPC   C4B 3649  11.331   7.396   5.853
  342POPC   NC3 3650   5.767  10.608   4.053
  342POPC   PO4 3651   5.791  10.602   4.353
  342POPC   GL1 3652   5.724  10.532   4.653
  342POPC   GL2 3653   5.832  10.396   4.653
  342POPC   C1A 3654   5.713  10.550   4.953
  342POPC   D2A 3655   5.726  10.579   5.253
  342POPC   C3A 3656   5.771  10.549   5.553
  342POPC   C4A 3657   5.788  10.589   5.853
  342POPC   C1B 3658   5.856  10.204   4.953
  342POPC   C2B 3659   5.848  10.258   5.253
  342POPC   C3B 3660   5.861  10.207   5.553
  342POPC   C4B 3661   5.875  10.238   5.853
  343POPC   NC3 3662  11.357   3.397   4.053
  343POPC   PO4 3663  11.273   3.424   4.353
  343POPC   GL1 3664  11.353   3.447   4.653
  343POPC   GL2 3665  11.160   3.464   4.653
  343POPC   C1A 3666  11.333   3.420   4.953
  343POPC   D2A 3667  11.288   3.400   5.253
  343POPC   C3A 3668  11.334   3.382   5.553
  343POPC   C4A 3669  11.346   3.370   5.853
  343POPC   C1B 3670  11.059   3.554   4.953
  343POPC   C2B 3671  11.007   3.578   5.253
  343POPC   C3B 3672  10.967   3.565   5.553
  343POPC   C4B 3673  11.036   3.576   5.853
  344POPC   NC3 3674   1.162  11.001   4.053
  344POPC   PO4 3675   1.147  10.952   4.353
  344POPC   GL1 3676   1.176  10.955   4.653
  344POPC   GL2 3677   1.196  11.126   4.653
  344POPC   C1A 3678   1.182  10.981   4.953
  344POPC   D2A 3679   1.140  10.972   5.253
  344POPC   C3A 3680   1.096  10.956   5.553
  344POPC   C4A 3681   1.138  10.994   5.853
  344POPC   C1B 3682   1.291  11.354   4.953
  344POPC   C2B 3683   1.254  11.369   5.253
  344POPC   C3B 3684   1.282  11.344   5.553
  344POPC   C4B 3685   1.262  11.323   5.853
  345POPC   NC3 3686   1.270   5.219   4.053
  345POPC   PO4 3687   1.195   5.218   4.353
  345POPC   GL1 3688   1.207   5.195   4.653
  345POPC   GL2 3689   1.183   5.047   4.653
  345POPC   C1A 3690   1.275   5.221   4.953
  345POPC   D2A 3691   1.179   5.193   5.253
  345POPC   C3A 3692   1.249   5.249   5.553
  345POPC   C4A 3693   1.248   5.189   5.853
  345POPC   C1B 3694   1.180   4.825   4.953
  345POPC   C2B 3695   1.151   4.839   5.253
  345POPC   C3B 3696   1.163   4.879   5.553
  345POPC   C4B 3697   1.207   4.842   5.853
  346POPC   NC3 3698   1.211   6.381   4.053
  346POPC   PO4 3699   1.281   6.375   4.353
  346POPC   GL1 3700   1.252   6.434   4.653
  346POPC   GL2 3701   1.245   6.581   4.653
  346POPC   C1A 3702   1.281   6.361   4.953
  346POPC   D2A 3703   1.241   6.397   5.253
  346POPC   C3A 3704   1.237   6.370   5.553
  346POPC   C4A 3705   1.265   6.441   5.853
  346POPC   C1B 3706   1.158   6.738   4.953
  346POPC   C2B 3707   1.164   6.758   5.253
  346POPC   C3B 3708   1.180   6.744   5.553
  346POPC   C4B 3709   1.145   6.756   5.853
  347POPC   NC3 3710   0.274   4.989   4.053
  347POPC   PO4 3711   0.304   4.927   4.353
  347POPC   GL1 3712   0.239   4.965   4.653
  347POPC   GL2 3713   0.478   5.030   4.653
  347POPC   C1A 3714   0.265   4.940   4.953
  347POPC   D2A 3715   0.327   4.905   5.253
  347POPC   C3A 3716   0.307   4.946   5.553
  347POPC   C4A 3717   0.249   4.913   5.853
  347POPC   C1B 3718   0.589   5.127   4.953
  347POPC   C2B 3719   0.565   5.143   5.253
  347POPC   C3B 3720   0.577   5.115   5.553
  347POPC   C4B 3721   0.630   5.150   5.853
  348POPC   NC3 3722   6.578   1.006   4.053
  348POPC   PO4 3723   6.644   1.002   4.353
  348POPC   GL1 3724   6.595   1.034   4.653
  348POPC   GL2 3725   6.537   1.225   4.653
  348POPC   C1A 3726   6.621   0.993   4.953
  348POPC   D2A 3727   6.646   1.056   5.253
  348POPC   C3A 3728   6.650   1.069   5.553
  348POPC   C4A 3729   6.577   1.002   5.853
  348POPC   C1B 3730   6.483   1.400   4.953
  348POPC   C2B 3731   6.573   1.346   5.253
  348POPC   C3B 3732   6.498   1.417   5.553
  348POPC   C4B 3733   6.558   1.353   5.853
  349POPC   NC3 3734  10.475   7.552   4.053
  349POPC   PO4 3735  10.445   7.520   4.353
  349POPC   GL1 3736  10.484   7.516   4.653
  349POPC   GL2 3737  10.394   7.343   4.653
  349POPC   C1A 3738  10.487   7.464   4.953
  349POPC   D2A 3739  10.485   7.552   5.253
  349POPC   C3A 3740  10.496   7.459   5.553
  349POPC   C4A 3741  10.465   7.526   5.853
  349POPC   C1B 3742  10.322   7.140   4.953
  349POPC   C2B 3743  10.313   7.122   5.253
  349POPC   C3B 3744  10.319   7.128   5.553
  349POPC   C4B 3745  10.307   7.206   5.853
  350POPC   NC3 3746   9.777   8.003   4.053
  350POPC   PO4 3747   9.839   8.039   4.353
  350POPC   GL1 3748   9.753   8.016   4.653
  350POPC   GL2 3749   9.643   8.140   4.653
  350POPC   C1A 3750   9.799   8.008   4.953
  350POPC   D2A 3751   9.801   8.029   5.253
  350POPC   C3A 3752   9.822   8.085   5.553
  350POPC   C4A 3753   9.801   8.052   5.853
  350POPC   C1B 3754   9.504   8.189   4.953
  350POPC   C2B 3755   9.442   8.179   5.253
  350POPC   C3B 3756   9.451   8.156   5.553
  350POPC   C4B 3757   9.485   8.201   5.853
  351POPC   NC3 3758   1.159   9.443   4.053
  351POPC   PO4 3759   1.133   9.505   4.353
  351POPC   GL1 3760   1.113   9.496   4.653
  351POPC   GL2 3761   1.195   9.655   4.653
  351POPC   C1A 3762   1.147   9.490   4.953
  351POPC   D2A 3763   1.160   9.455   5.253
  351POPC   C3A 3764   1.114   9.517   5.553
  351POPC   C4A 3765   1.154   9.479   5.853
  351POPC   C1B 3766   1.238   9.832   4.953
  351POPC   C2B 3767   1.225   9.768   5.253
  351POPC   C3B 3768   1.242   9.763   5.553
  351POPC   C4B 3769   1.294   9.778   5.853
  352POPC   NC3 3770   0.308   6.449   4.053
  352POPC   PO4 3771   0.296   6.501   4.353
  352POPC   GL1 3772   0.266   6.469   4.653
  352POPC   GL2 3773   0.467   6.535   4.653
  352POPC   C1A 3774   0.271   6.446   4.953
  352POPC   D2A 3775   0.255   6.525   5.253
  352POPC   C3A 3776   0.241   6.467   5.553
  352POPC   C4A 3777   0.326   6.503   5.853
  352POPC   C1B 3778   0.589   6.677   4.953
  352POPC   C2B 3779   0.552   6.601   5.253
  352POPC   C3B 3780   0.570   6.602   5.553
  352POPC   C4B 3781   0.548   6.643   5.853
  353POPC   NC3 3782   4.843  10.384   4.053
  353POPC   PO4 3783   4.874  10.420   4.353
  353POPC   GL1 3784   4.838  10.344   4.653
  353POPC   GL2 3785   5.074  10.387   4.653
  353POPC   C1A 3786   4.816  10.436   4.953
  353POPC   D2A 3787   4.877  10.385   5.253
  353POPC   C3A 3788   4.872  10.359   5.553
  353POPC   C4A 3789   4.878  10.411   5.853
  353POPC   C1B 3790   5.206  10.397   4.953
  353POPC   C2B 3791   5.201  10.434   5.253
  353POPC   C3B 3792   5.213  10.436   5.553
  353POPC   C4B 3793   5.230  10.388   5.853
  354POPC   NC3 3794   4.402   2.794   4.053
  354POPC   PO4 3795   4.401   2.806   4.353
  354POPC   GL1 3796   4.449   2.829   4.653
  354POPC   GL2 3797   4.296   2.695   4.653
  354POPC   C1A 3798   4.461   2.768   4.953
  354POPC   D2A 3799   4.427   2.842   5.253
  354POPC   C3A 3800   4.381   2.847   5.553
  354POPC   C4A 3801   4.463   2.806   5.853
  354POPC   C1B 3802   4.095   2.658   4.953
  354POPC   C2B 3803   4.066   2.699   5.253
  354POPC   C3B 3804   4.105   2.605   5.553
  354POPC   C4B 3805   4.142   2.699   5.853
  355POPC   NC3 3806   8.714   4.189   4.053
  355POPC   PO4 3807   8.770   4.208   4.353
  355POPC   GL1 3808   8.703   4.204   4.653
  355POPC   GL2 3809   8.875   4.274   4.653
  355POPC   C1A 3810   8.698   4.197   4.953
  355POPC   D2A 3811   8.676   4.133   5.253
  355POPC   C3A 3812   8.756   4.127   5.553
  355POPC   C4A 3813   8.684   4.138   5.853
  355POPC   C1B 3814   9.004   4.375   4.953
  355POPC   C2B 3815   8.994   4.334   5.253
  355POPC   C3B 3816   9.045   4.343   5.553
  355POPC   C4B 3817   9.014   4.403   5.853
  356POPC   NC3 3818   1.348   3.460   4.053
  356POPC   PO4 3819   1.377   3.532   4.353
  356POPC   GL1 3820   1.395   3.480   4.653
  356POPC   GL2 3821   1.162   3.530   4.653
  356POPC   C1A 3822   1.356   3.525   4.953
  356POPC   D2A 3823   1.390   3.538   5.253
  356POPC   C3A 3824   1.365   3.536   5.553
  356POPC   C4A 3825   1.354   3.509   5.853
  356POPC   C1B 3826   1.023   3.448   4.953
  356POPC   C2B 3827   1.009   3.522   5.253
  356POPC   C3B 3828   0.981   3.502   5.553
  356POPC   C4B 3829   1.005   3.445   5.853
  357POPC   NC3 3830   2.903   1.121   4.053
  357POPC   PO4 3831   2.863   1.149   4.353
  357POPC   GL1 3832   2.914   1.170   4.653
  357POPC   GL2 3833   2.722   1.184   4.653
  357POPC   C1A 3834   2.955   1.120   4.953
  357POPC   D2A 3835   2.892   1.178   5.253
  357POPC   C3A 3836   2.885   1.181   5.553
  357POPC   C4A 3837   2.932   1.192   5.853
  357POPC   C1B 3838   2.530   1.254   4.953
  357POPC   C2B 3839   2.604   1.196   5.253
  357POPC   C3B 3840   2.545   1.200   5.553
  357POPC   C4B 3841   2.521   1.246   5.853
  358POPC   NC3 3842   3.418  11.318   4.053
  358POPC   PO4 3843   3.350  11.309   4.353
  358POPC   GL1 3844   3.399  11.312   4.653
  358POPC   GL2 3845   3.491  11.213   4.653
  358POPC   C1A 3846   3.366  11.354   4.953
  358POPC   D2A 3847   3.405  11.311   5.253
  358POPC   C3A 3848   3.401  11.309   5.553
  358POPC   C4A 3849   3.434  11.327   5.853
  358POPC   C1B 3850   3.562  11.031   4.953
  358POPC   C2B 3851   3.600  11.041   5.253
  358POPC   C3B 3852   3.602  11.065   5.553
  358POPC   C4B 3853   3.650  10.980   5.853
  359POPC   NC3 3854   4.892   8.218   4.053
  359POPC   PO4 3855   4.921   8.208   4.353
  359POPC   GL1 3856   4.918   8.175   4.653
  359POPC   GL2 3857   5.077   8.091   4.653
  359POPC   C1A 3858   4.928   8.225   4.953
  359POPC   D2A 3859   4.910   8.203   5.253
  359POPC   C3A 3860   4.926   8.214   5.553
  359POPC   C4A 3861   4.941   8.208   5.853
  359POPC   C1B 3862   5.222   8.002   4.953
  359POPC   C2B 3863   5.182   7.944   5.253
  359POPC   C3B 3864   5.191   7.942   5.553
  359POPC   C4B 3865   5.186   8.012   5.853
  360POPC   NC3 3866   6.773   0.397   4.053
  360POPC   PO4 3867   6.740   0.383   4.353
  360POPC   GL1 3868   6.715   0.312   4.653
  360POPC   GL2 3869   6.555   0.403   4.653
  360POPC   C1A 3870   6.740   0.335   4.953
  360POPC   D2A 3871   6.734   0.384   5.253
  360POPC   C3A 3872   6.728   0.321   5.553
  360POPC   C4A 3873   6.762   0.307   5.853
  360POPC   C1B 3874   6.403   0.555   4.953
  360POPC   C2B 3875   6.437   0.530   5.253
  360POPC   C3B 3876   6.447   0.474   5.553
  360POPC   C4B 3877   6.419   0.469   5.853
  361POPC   NC3 3878   8.094  10.198   4.053
  361POPC   PO4 3879   8.137  10.185   4.353
  361POPC   GL1 3880   8.171  10.213   4.653
  361POPC   GL2 3881   8.050  10.433   4.653
  361POPC   C1A 3882   8.173  10.204   4.953
  361POPC   D2A 3883   8.177  10.176   5.253
  361POPC   C3A 3884   8.123  10.191   5.553
  361POPC   C4A 3885   8.148  10.233   5.853
  361POPC   C1B 3886   8.031  10.550   4.953
  361POPC   C2B 3887   8.064  10.604   5.253
  361POPC   C3B 3888   8.070  10.547   5.553
  361POPC   C4B 3889   8.065  10.610   5.853
  362POPC   NC3 3890   2.869   5.894   4.053
  362POPC   PO4 3891   2.913   5.897   4.353
  362POPC   GL1 3892   2.861   5.922   4.653
  362POPC   GL2 3893   2.762   5.771   4.653
  362POPC   C1A 3894   2.839   5.906   4.953
  362POPC   D2A 3895   2.841   5.961   5.253
  362POPC   C3A 3896   2.853   5.946   5.553
  362POPC   C4A 3897   2.917   5.884   5.853
  362POPC   C1B 3898   2.606   5.716   4.953
  362POPC   C2B 3899   2.564   5.685   5.253
  362POPC   C3B 3900   2.583   5.633   5.553
  362POPC   C4B 3901   2.571   5.675   5.853
  363POPC   NC3 3902   1.864   5.713   4.053
  363POPC   PO4 3903   1.845   5.696   4.353
  363POPC   GL1 3904   1.822   5.626   4.653
  363POPC   GL2 3905   1.983   5.845   4.653
  363POPC   C1A 3906   1.798   5.679   4.953
  363POPC   D2A 3907   1.825   5.660   5.253
  363POPC   C3A 3908   1.848   5.677   5.553
  363POPC   C4A 3909   1.826   5.664   5.853
  363POPC   C1B 3910   2.115   5.929   4.953
  363POPC   C2B 3911   2.119   5.887   5.253
  363POPC   C3B 3912   2.106   5.953   5.553
  363POPC   C4B 3913   2.061   5.957   5.853
  364POPC   NC3 3914   7.254  10.528   4.053
  364POPC   PO4 3915   7.242  10.566   4.353
  364POPC   GL1 3916   7.266  10.558   4.653
  364POPC   GL2 3917   7.331  10.403   4.653
  364POPC   C1A 3918   7.204  10.572   4.953
  364POPC   D2A 3919   7.255  10.587   5.253
  364POPC   C3A 3920   7.230  10.589   5.553
  364POPC   C4A 3921   7.209  10.530   5.853
  364POPC   C1B 3922   7.432  10.272   4.953
  364POPC   C2B 3923   7.482  10.253   5.253
  364POPC   C3B 3924   7.445  10.236   5.553
  364POPC   C4B 3925   7.404  10.232   5.853
  365POPC   NC3 3926   1.829   4.894   4.053
  365POPC   PO4 3927   1.890   4.883   4.353
  365POPC   GL1 3928   1.926   4.879   4.653
  365POPC   GL2 3929   1.945   4.996   4.653
  365POPC   C1A 3930   1.902   4.929   4.953
  365POPC   D2A 3931   1.853   4.927   5.253
  365POPC   C3A 3932   1.852   4.859   5.553
  365POPC   C4A 3933   1.863   4.843   5.853
  365POPC   C1B 3934   2.068   5.171   4.953
  365POPC   C2B 3935   2.023   5.158   5.253
  365POPC   C3B 3936   2.104   5.201   5.553
  365POPC   C4B 3937   2.049   5.220   5.853
  366POPC   NC3 3938   0.286   4.163   4.053
  366POPC   PO4 3939   0.346   4.115   4.353
  366POPC   GL1 3940   0.309   4.139   4.653
  366POPC   GL2 3941   0.451   4.258   4.653
  366POPC   C1A 3942   0.375   4.075   4.953
  366POPC   D2A 3943   0.379   4.112   5.253
  366POPC   C3A 3944   0.385   4.075   5.553
  366POPC   C4A 3945   0.343   4.100   5.853
  366POPC   C1B 3946   0.572   4.415   4.953
  366POPC   C2B 3947   0.530   4.445   5.253
  366POPC   C3B 3948   0.512   4.389   5.553
  366POPC   C4B 3949   0.575   4.378   5.853
  367POPC   NC3 3950   2.115   8.918   4.053
  367POPC   PO4 3951   2.132   8.981   4.353
  367POPC   GL1 3952   2.100   8.949   4.653
  367POPC   GL2 3953   1.938   8.866   4.653
  367POPC   C1A 3954   2.158   8.908   4.953
  367POPC   D2A 3955   2.098   8.930   5.253
  367POPC   C3A 3956   2.093   8.997   5.553
  367POPC   C4A 3957   2.115   8.979   5.853
  367POPC   C1B 3958   1.823   8.816   4.953
  367POPC   C2B 3959   1.803   8.752   5.253
  367POPC   C3B 3960   1.848   8.823   5.553
  367POPC   C4B 3961   1.832   8.835   5.853
  368POPC   NC3 3962   0.251   1.337   4.053
  368POPC   PO4 3963   0.290   1.314   4.353
  368POPC   GL1 3964   0.300   1.318   4.653
  368POPC   GL2 3965   0.481   1.202   4.653
  368POPC   C1A 3966   0.321   1.265   4.953
  368POPC   D2A 3967   0.329   1.298   5.253
  368POPC   C3A 3968   0.248   1.306   5.553
  368POPC   C4A 3969   0.276   1.258   5.853
  368POPC   C1B 3970   0.623   1.099   4.953
  368POPC   C2B 3971   0.580   1.140   5.253
  368POPC   C3B 3972   0.578   1.064   5.553
  368POPC   C4B 3973   0.580   1.088   5.853
  369POPC   NC3 3974   8.291   0.536   4.053
  369POPC   PO4 3975   8.255   0.481   4.353
  369POPC   GL1 3976   8.289   0.485   4.653
  369POPC   GL2 3977   8.085   0.463   4.653
  369POPC   C1A 3978   8.213   0.530   4.953
  369POPC   D2A 3979   8.215   0.498   5.253
  369POPC   C3A 3980   8.203   0.536   5.553
  369POPC   C4A 3981   8.248   0.505   5.853
  369POPC   C1B 3982   7.982   0.383   4.953
  369POPC   C2B 3983   7.958   0.294   5.253
  369POPC   C3B 3984   7.922   0.294   5.553
  369POPC   C4B 3985   7.963   0.345   5.853
  370POPC   NC3 3986   8.900   1.830   4.053
  370POPC   PO4 3987   8.914   1.776   4.353
  370POPC   GL1 3988   8.837   1.837   4.653
  370POPC   GL2 3989   8.905   2.005   4.653
  370POPC   C1A 3990   8.897   1.743   4.953
  370POPC   D2A 3991   8.868   1.780   5.253
  370POPC   C3A 3992   8.832   1.773   5.553
  370POPC   C4A 3993   8.905   1.747   5.853
  370POPC   C1B 3994   8.828   2.101   4.953
  370POPC   C2B 3995   8.851   2.123   5.253
  370POPC   C3B 3996   8.823   2.125   5.553
  370POPC   C4B 3997   8.899   2.156   5.853
  371POPC   NC3 3998   9.551  10.190   4.053
  371POPC   PO4 3999   9.521  10.243   4.353
  371POPC   GL1 4000   9.597  10.237   4.653
  371POPC   GL2 4001   9.634  10.412   4.653
  371POPC   C1A 4002   9.541  10.272   4.953
  371POPC   D2A 4003   9.605  10.231   5.253
  371POPC   C3A 4004   9.534  10.256   5.553
  371POPC   C4A 4005   9.567  10.235   5.853
  371POPC   C1B 4006   9.744  10.596   4.953
  371POPC   C2B 4007   9.659  10.598   5.253
  371POPC   C3B 4008   9.689  10.606   5.553
  371POPC   C4B 4009   9.745  10.564   5.853
  372POPC   NC3 4010   1.972   0.996   4.053
  372POPC   PO4 4011   2.009   1.056   4.353
  372POPC   GL1 4012   2.027   1.011   4.653
  372POPC   GL2 4013   2.000   1.222   4.653
  372POPC   C1A 4014   1.978   1.033   4.953
  372POPC   D2A 4015   1.995   0.989   5.253
  372POPC   C3A 4016   2.027   1.071   5.553
  372POPC   C4A 4017   2.018   1.025   5.853
  372POPC   C1B 4018   1.901   1.350   4.953
  372POPC   C2B 4019   1.966   1.400   5.253
  372POPC   C3B 4020   1.973   1.361   5.553
  372POPC   C4B 4021   1.939   1.371   5.853
  373POPC   NC3 4022   3.581   2.144   4.053
  373POPC   PO4 4023   3.615   2.092   4.353
  373POPC   GL1 4024   3.571   2.099   4.653
  373POPC   GL2 4025   3.462   1.983   4.653
  373POPC   C1A 4026   3.616   2.166   4.953
  373POPC   D2A 4027   3.603   2.154   5.253
  373POPC   C3A 4028   3.611   2.122   5.553
  373POPC   C4A 4029   3.607   2.122   5.853
  373POPC   C1B 4030   3.433   1.767   4.953
  373POPC   C2B 4031   3.465   1.799   5.253
  373POPC   C3B 4032   3.388   1.772   5.553
  373POPC   C4B 4033   3.424   1.800   5.853
  374POPC   NC3 4034   1.349   5.826   4.053
  374POPC   PO4 4035   1.415   5.826   4.353
  374POPC   GL1 4036   1.333   5.857   4.653
  374POPC   GL2 4037   1.232   5.836   4.653
  374POPC   C1A 4038   1.394   5.817   4.953
  374POPC   D2A 4039   1.415   5.851   5.253
  374POPC   C3A 4040   1.323   5.900   5.553
  374POPC   C4A 4041   1.412   5.895   5.853
  374POPC   C1B 4042   1.078   5.767   4.953
  374POPC   C2B 4043   0.996   5.734   5.253
  374POPC   C3B 4044   1.076   5.771   5.553
  374POPC   C4B 4045   1.053   5.698   5.853
  375POPC   NC3 4046   0.566   9.681   4.053
  375POPC   PO4 4047   0.629   9.687   4.353
  375POPC   GL1 4048   0.593   9.614   4.653
  375POPC   GL2 4049   0.423   9.585   4.653
  375POPC   C1A 4050   0.630   9.677   4.953
  375POPC   D2A 4051   0.630   9.643   5.253
  375POPC   C3A 4052   0.595   9.647   5.553
  375POPC   C4A 4053   0.581   9.649   5.853
  375POPC   C1B 4054   0.264   9.632   4.953
  375POPC   C2B 4055   0.228   9.596   5.253
  375POPC   C3B 4056   0.220   9.621   5.553
  375POPC   C4B 4057   0.269   9.566   5.853
  376POPC   NC3 4058   0.566   2.716   4.053
  376POPC   PO4 4059   0.612   2.691   4.353
  376POPC   GL1 4060   0.635   2.725   4.653
  376POPC   GL2 4061   0.446   2.721   4.653
  376POPC   C1A 4062   0.603   2.754   4.953
  376POPC   D2A 4063   0.561   2.733   5.253
  376POPC   C3A 4064   0.583   2.685   5.553
  376POPC   C4A 4065   0.633   2.731   5.853
  376POPC   C1B 4066   0.231   2.733   4.953
  376POPC   C2B 4067   0.270   2.712   5.253
  376POPC   C3B 4068   0.274   2.761   5.553
  376POPC   C4B 4069   0.299   2.759   5.853
  377POPC   NC3 4070   7.517   2.822   4.053
  377POPC   PO4 4071   7.500   2.840   4.353
  377POPC   GL1 4072   7.489   2.866   4.653
  377POPC   GL2 4073   7.377   2.743   4.653
  377POPC   C1A 4074   7.459   2.855   4.953
  377POPC   D2A 4075   7.503   2.776   5.253
  377POPC   C3A 4076   7.513   2.774   5.553
  377POPC   C4A 4077   7.460   2.855   5.853
  377POPC   C1B 4078   7.166   2.618   4.953
  377POPC   C2B 4079   7.140   2.600   5.253
  377POPC   C3B 4080   7.193   2.668   5.553
  377POPC   C4B 4081   7.212   2.662   5.853
  378POPC   NC3 4082   1.082  10.547   4.053
  378POPC   PO4 4083   1.091  10.587   4.353
  378POPC   GL1 4084   1.100  10.583   4.653
  378POPC   GL2 4085   1.216  10.399   4.653
  378POPC   C1A 4086   1.098  10.607   4.953
  378POPC   D2A 4087   1.094  10.521   5.253
  378POPC   C3A 4088   1.077  10.587   5.553
  378POPC   C4A 4089   1.137  10.547   5.853
  378POPC   C1B 4090   1.259  10.203   4.953
  378POPC   C2B 4091   1.259  10.227   5.253
  378POPC   C3B 4092   1.327  10.234   5.553
  378POPC   C4B 4093   1.301  10.281   5.853
  379POPC   NC3 4094   8.862   1.066   4.053
  379POPC   PO4 4095   8.826   1.074   4.353
  379POPC   GL1 4096   8.812   1.017   4.653
  379POPC   GL2 4097   8.861   1.227   4.653
  379POPC   C1A 4098   8.837   1.022   4.953
  379POPC   D2A 4099   8.872   1.026   5.253
  379POPC   C3A 4100   8.827   1.023   5.553
  379POPC   C4A 4101   8.832   1.010   5.853
  379POPC   C1B 4102   8.907   1.328   4.953
  379POPC   C2B 4103   8.869   1.337   5.253
  379POPC   C3B 4104   8.927   1.328   5.553
  379POPC   C4B 4105   8.956   1.392   5.853
  380POPC   NC3 4106  11.278   1.061   4.053
  380POPC   PO4 4107  11.211   1.090   4.353
  380POPC   GL1 4108  11.206   1.057   4.653
  380POPC   GL2 4109  11.141   1.217   4.653
  380POPC   C1A 4110  11.221   1.039   4.953
  380POPC   D2A 4111  11.220   1.022   5.253
  380POPC   C3A 4112  11.207   1.042   5.553
  380POPC   C4A 4113  11.203   1.014   5.853
  380POPC   C1B 4114  11.117   1.396   4.953
  380POPC   C2B 4115  11.078   1.359   5.253
  380POPC   C3B 4116  11.103   1.349   5.553
  380POPC   C4B 4117  11.119   1.379   5.853
  381POPC   NC3 4118   1.963   7.875   4.053
  381POPC   PO4 4119   1.902   7.914   4.353
  381POPC   GL1 4120   1.918   7.923   4.653
  381POPC   GL2 4121   1.992   8.141   4.653
  381POPC   C1A 4122   1.941   7.935   4.953
  381POPC   D2A 4123   1.911   7.895   5.253
  381POPC   C3A 4124   1.935   7.900   5.553
  381POPC   C4A 4125   1.909   7.896   5.853
  381POPC   C1B 4126   1.964   8.277   4.953
  381POPC   C2B 4127   2.007   8.318   5.253
  381POPC   C3B 4128   2.039   8.259   5.553
  381POPC   C4B 4129   1.993   8.263   5.853
  382POPC   NC3 4130   0.562   5.689   4.053
  382POPC   PO4 4131   0.585   5.692   4.353
  382POPC   GL1 4132   0.576   5.630   4.653
  382POPC   GL2 4133   0.449   5.818   4.653
  382POPC   C1A 4134   0.590   5.683   4.953
  382POPC   D2A 4135   0.562   5.695   5.253
  382POPC   C3A 4136   0.544   5.660   5.553
  382POPC   C4A 4137   0.544   5.678   5.853
  382POPC   C1B 4138   0.358   5.911   4.953
  382POPC   C2B 4139   0.338   5.934   5.253
  382POPC   C3B 4140   0.327   5.957   5.553
  382POPC   C4B 4141   0.342   5.903   5.853
  383POPC   NC3 4142  10.216   6.593   4.053
  383POPC   PO4 4143  10.202   6.593   4.353
  383POPC   GL1 4144  10.226   6.602   4.653
  383POPC   GL2 4145  10.392   6.590   4.653
  383POPC   C1A 4146  10.229   6.529   4.953
  383POPC   D2A 4147  10.174   6.558   5.253
  383POPC   C3A 4148  10.244   6.528   5.553
  383POPC   C4A 4149  10.267   6.552   5.853
  383POPC   C1B 4150  10.581   6.605   4.953
  383POPC   C2B 4151  10.585   6.604   5.253
  383POPC   C3B 4152  10.625   6.535   5.553
  383POPC   C4B 4153  10.529   6.563   5.853
  384POPC   NC3 4154   9.646  10.998   4.053
  384POPC   PO4 4155   9.665  10.997   4.353
  384POPC   GL1 4156   9.595  10.963   4.653
  384POPC   GL2 4157   9.604  11.165   4.653
  384POPC   C1A 4158   9.615  10.997   4.953
  384POPC   D2A 4159   9.635  10.949   5.253
  384POPC   C3A 4160   9.601  10.954   5.553
  384POPC   C4A 4161   9.637  11.009   5.853
  384POPC   C1B 4162   9.617  11.361   4.953
  384POPC   C2B 4163   9.612  11.350   5.253
  384POPC   C3B 4164   9.684  11.332   5.553
  384POPC   C4B 4165   9.677  11.330   5.853
  385POPC   NC3 4166   7.548   8.868   4.053
  385POPC   PO4 4167   7.516   8.893   4.353
  385POPC   GL1 4168   7.490   8.882   4.653
  385POPC   GL2 4169   7.378   8.900   4.653
  385POPC   C1A 4170   7.484   8.835   4.953
  385POPC   D2A 4171   7.546   8.821   5.253
  385POPC   C3A 4172   7.557   8.845   5.553
  385POPC   C4A 4173   7.529   8.869   5.853
  385POPC   C1B 4174   7.118   8.848   4.953
  385POPC   C2B 4175   7.129   8.925   5.253
  385POPC   C3B 4176   7.185   8.902   5.553
  385POPC   C4B 4177   7.170   8.929   5.853
  386POPC   NC3 4178   9.558   4.895   4.053
  386POPC   PO4 4179   9.561   4.910   4.353
  386POPC   GL1 4180   9.468   4.873   4.653
  386POPC   GL2 4181   9.611   5.079   4.653
  386POPC   C1A 4182   9.469   4.912   4.953
  386POPC   D2A 4183   9.498   4.906   5.253
  386POPC   C3A 4184   9.548   4.868   5.553
  386POPC   C4A 4185   9.480   4.951   5.853
  386POPC   C1B 4186   9.791   5.212   4.953
  386POPC   C2B 4187   9.728   5.163   5.253
  386POPC   C3B 4188   9.762   5.195   5.553
  386POPC   C4B 4189   9.739   5.156   5.853
  387POPC   NC3 4190  11.334   9.569   4.053
  387POPC   PO4 4191  11.345   9.592   4.353
  387POPC   GL1 4192  11.372   9.620   4.653
  387POPC   GL2 4193  11.128   9.604   4.653
  387POPC   C1A 4194  11.350   9.627   4.953
  387POPC   D2A 4195  11.324   9.603   5.253
  387POPC   C3A 4196  11.295   9.613   5.553
  387POPC   C4A 4197  11.295   9.543   5.853
  387POPC   C1B 4198  10.992   9.706   4.953
  387POPC   C2B 4199  11.006   9.704   5.253
  387POPC   C3B 4200  11.030   9.650   5.553
  387POPC   C4B 4201  10.949   9.712   5.853
  388POPC   NC3 4202   9.709   3.654   4.053
  388POPC   PO4 4203   9.736   3.684   4.353
  388POPC   GL1 4204   9.701   3.636   4.653
  388POPC   GL2 4205   9.674   3.513   4.653
  388POPC   C1A 4206   9.744   3.690   4.953
  388POPC   D2A 4207   9.707   3.704   5.253
  388POPC   C3A 4208   9.720   3.703   5.553
  388POPC   C4A 4209   9.727   3.666   5.853
  388POPC   C1B 4210   9.548   3.300   4.953
  388POPC   C2B 4211   9.511   3.375   5.253
  388POPC   C3B 4212   9.548   3.294   5.553
  388POPC   C4B 4213   9.580   3.343   5.853
  389POPC   NC3 4214   3.398   0.313   4.053
  389POPC   PO4 4215   3.387   0.342   4.353
  389POPC   GL1 4216   3.404   0.335   4.653
  389POPC   GL2 4217   3.542   0.450   4.653
  389POPC   C1A 4218   3.382   0.311   4.953
  389POPC   D2A 4219   3.383   0.307   5.253
  389POPC   C3A 4220   3.348   0.319   5.553
  389POPC   C4A 4221   3.388   0.298   5.853
  389POPC   C1B 4222   3.635   0.548   4.953
  389POPC   C2B 4223   3.637   0.518   5.253
  389POPC   C3B 4224   3.670   0.603   5.553
  389POPC   C4B 4225   3.611   0.560   5.853
  390POPC   NC3 4226   4.122  10.275   4.053
  390POPC   PO4 4227   4.128  10.277   4.353
  390POPC   GL1 4228   4.109  10.324   4.653
  390POPC   GL2 4229   4.249  10.392   4.653
  390POPC   C1A 4230   4.119  10.333   4.953
  390POPC   D2A 4231   4.122  10.347   5.253
  390POPC   C3A 4232   4.159  10.317   5.553
  390POPC   C4A 4233   4.139  10.333   5.853
  390POPC   C1B 4234   4.415  10.497   4.953
  390POPC   C2B 4235   4.369  10.503   5.253
  390POPC   C3B 4236   4.426  10.537   5.553
  390POPC   C4B 4237   4.370  10.515   5.853
  391POPC   NC3 4238  11.066   2.131   4.053
  391POPC   PO4 4239  11.009   2.094   4.353
  391POPC   GL1 4240  11.056   2.094   4.653
  391POPC   GL2 4241  11.189   1.923   4.653
  391POPC   C1A 4242  11.064   2.144   4.953
  391POPC   D2A 4243  11.049   2.086   5.253
  391POPC   C3A 4244  11.054   2.070   5.553
  391POPC   C4A 4245  11.035   2.079   5.853
  391POPC   C1B 4246  11.302   1.866   4.953
  391POPC   C2B 4247  11.263   1.865   5.253
  391POPC   C3B 4248  11.248   1.847   5.553
  391POPC   C4B 4249  11.277   1.830   5.853
  392POPC   NC3 4250  11.285   4.929   4.053
  392POPC   PO4 4251  11.354   4.943   4.353
  392POPC   GL1 4252  11.350   4.901   4.653
  392POPC   GL2 4253  11.133   5.011   4.653
  392POPC   C1A 4254  11.309   4.960   4.953
  392POPC   D2A 4255  11.315   4.968   5.253
  392POPC   C3A 4256  11.363   4.939   5.553
  392POPC   C4A 4257  11.288   4.918   5.853
  392POPC   C1B 4258  11.017   5.154   4.953
  392POPC   C2B 4259  10.990   5.164   5.253
  392POPC   C3B 4260  10.969   5.161   5.553
  392POPC   C4B 4261  11.036   5.078   5.853
  393POPC   NC3 4262  11.274  10.606   4.053
  393POPC   PO4 4263  11.233  10.580   4.353
  393POPC   GL1 4264  11.221  10.581   4.653
  393POPC   GL2 4265  11.192  10.412   4.653
  393POPC   C1A 4266  11.224  10.599   4.953
  393POPC   D2A 4267  11.220  10.582   5.253
  393POPC   C3A 4268  11.266  10.603   5.553
  393POPC   C4A 4269  11.182  10.519   5.853
  393POPC   C1B 4270  11.148  10.260   4.953
  393POPC   C2B 4271  11.063  10.282   5.253
  393POPC   C3B 4272  11.125  10.281   5.553
  393POPC   C4B 4273  11.152  10.254   5.853
  394POPC   NC3 4274   6.704  10.424   4.053
  394POPC   PO4 4275   6.785  10.403   4.353
  394POPC   GL1 4276   6.729  10.382   4.653
  394POPC   GL2 4277   6.520  10.392   4.653
  394POPC   C1A 4278   6.756  10.382   4.953
  394POPC   D2A 4279   6.718  10.415   5.253
  394POPC   C3A 4280   6.769  10.451   5.553
  394POPC   C4A 4281   6.713  10.415   5.853
  394POPC   C1B 4282   6.357  10.365   4.953
  394POPC   C2B 4283   6.399  10.339   5.253
  394POPC   C3B 4284   6.401  10.343   5.553
  394POPC   C4B 4285   6.421  10.391   5.853
  395POPC   NC3 4286   5.825   9.462   4.053
  395POPC   PO4 4287   5.849   9.425   4.353
  395POPC   GL1 4288   5.831   9.467   4.653
  395POPC   GL2 4289   5.794   9.659   4.653
  395POPC   C1A 4290   5.824   9.416   4.953
  395POPC   D2A 4291   5.824   9.479   5.253
  395POPC   C3A 4292   5.862   9.471   5.553
  395POPC   C4A 4293   5.830   9.431   5.853
  395POPC   C1B 4294   5.760   9.823   4.953
  395POPC   C2B 4295   5.739   9.773   5.253
  395POPC   C3B 4296   5.753   9.828   5.553
  395POPC   C4B 4297   5.769   9.826   5.853
  396POPC   NC3 4298   2.556   3.560   4.053
  396POPC   PO4 4299   2.568   3.580   4.353
  396POPC   GL1 4300   2.584   3.567   4.653
  396POPC   GL2 4301   2.692   3.471   4.653
  396POPC   C1A 4302   2.584   3.570   4.953
  396POPC   D2A 4303   2.522   3.578   5.253
  396POPC   C3A 4304   2.528   3.521   5.553
  396POPC   C4A 4305   2.576   3.553   5.853
  396POPC   C1B 4306   2.947   3.467   4.953
  396POPC   C2B 4307   2.882   3.491   5.253
  396POPC   C3B 4308   2.864   3.435   5.553
  396POPC   C4B 4309   2.947   3.480   5.853
  397POPC   NC3 4310  11.150   2.925   4.053
  397POPC   PO4 4311  11.147   2.889   4.353
  397POPC   GL1 4312  11.115   2.955   4.653
  397POPC   GL2 4313  11.184   2.764   4.653
  397POPC   C1A 4314  11.119   2.873   4.953
  397POPC   D2A 4315  11.093   2.951   5.253
  397POPC   C3A 4316  11.173   2.938   5.553
  397POPC   C4A 4317  11.103   2.914   5.853
  397POPC   C1B 4318  11.208   2.551   4.953
  397POPC   C2B 4319  11.164   2.538   5.253
  397POPC   C3B 4320  11.192   2.565   5.553
  397POPC   C4B 4321  11.207   2.596   5.853
  398POPC   NC3 4322   9.760   4.428   4.053
  398POPC   PO4 4323   9.754   4.438   4.353
  398POPC   GL1 4324   9.753   4.381   4.653
  398POPC   GL2 4325   9.625   4.308   4.653
  398POPC   C1A 4326   9.751   4.374   4.953
  398POPC   D2A 4327   9.792   4.411   5.253
  398POPC   C3A 4328   9.765   4.397   5.553
  398POPC   C4A 4329   9.773   4.357   5.853
  398POPC   C1B 4330   9.558   4.174   4.953
  398POPC   C2B 4331   9.477   4.186   5.253
  398POPC   C3B 4332   9.515   4.150   5.553
  398POPC   C4B 4333   9.503   4.116   5.853
  399POPC   NC3 4334   7.326   9.473   4.053
  399POPC   PO4 4335   7.308   9.437   4.353
  399POPC   GL1 4336   7.304   9.477   4.653
  399POPC   GL2 4337   7.379   9.636   4.653
  399POPC   C1A 4338   7.340   9.501   4.953
  399POPC   D2A 4339   7.334   9.461   5.253
  399POPC   C3A 4340   7.323   9.439   5.553
  399POPC   C4A 4341   7.325   9.445   5.853
  399POPC   C1B 4342   7.345   9.826   4.953
  399POPC   C2B 4343   7.284   9.764   5.253
  399POPC   C3B 4344   7.358   9.814   5.553
  399POPC   C4B 4345   7.342   9.808   5.853
  400POPC   NC3 4346  10.574  10.400   4.053
  400POPC   PO4 4347  10.541  10.450   4.353
  400POPC   GL1 4348  10.608  10.399   4.653
  400POPC   GL2 4349  10.410  10.417   4.653
  400POPC   C1A 4350  10.573  10.469   4.953
  400POPC   D2A 4351  10.622  10.461   5.253
  400POPC   C3A 4352  10.565  10.404   5.553
  400POPC   C4A 4353  10.597  10.455   5.853
  400POPC   C1B 4354  10.177  10.361   4.953
  400POPC   C2B 4355  10.183  10.393   5.253
  400POPC   C3B 4356  10.200  10.378   5.553
  400POPC   C4B 4357  10.273  10.358   5.853
  401POPC   NC3 4358   2.048  10.543   4.053
  401POPC   PO4 4359   1.991  10.536   4.353
  401POPC   GL1 4360   1.971  10.607   4.653
  401POPC   GL2 4361   1.947  10.421   4.653
  401POPC   C1A 4362   1.995  10.568   4.953
  401POPC   D2A 4363   2.053  10.552   5.253
  401POPC   C3A 4364   2.050  10.617   5.553
  401POPC   C4A 4365   1.988  10.612   5.853
  401POPC   C1B 4366   1.964  10.278   4.953
  401POPC   C2B 4367   1.901  10.247   5.253
  401POPC   C3B 4368   1.870  10.229   5.553
  401POPC   C4B 4369   1.966  10.195   5.853
  402POPC   NC3 4370   2.657   9.509   4.053
  402POPC   PO4 4371   2.657   9.468   4.353
  402POPC   GL1 4372   2.600   9.515   4.653
  402POPC   GL2 4373   2.757   9.605   4.653
  402POPC   C1A 4374   2.594   9.490   4.953
  402POPC   D2A 4375   2.629   9.463   5.253
  402POPC   C3A 4376   2.592   9.460   5.553
  402POPC   C4A 4377   2.655   9.494   5.853
  402POPC   C1B 4378   2.862   9.814   4.953
  402POPC   C2B 4379   2.789   9.758   5.253
  402POPC   C3B 4380   2.808   9.738   5.553
  402POPC   C4B 4381   2.887   9.791   5.853
  403POPC   NC3 4382  10.474   8.740   4.053
  403POPC   PO4 4383  10.448   8.753   4.353
  403POPC   GL1 4384  10.494   8.732   4.653
  403POPC   GL2 4385  10.378   8.854   4.653
  403POPC   C1A 4386  10.510   8.708   4.953
  403POPC   D2A 4387  10.527   8.693   5.253
  403POPC   C3A 4388  10.535   8.669   5.553
  403POPC   C4A 4389  10.514   8.729   5.853
  403POPC   C1B 4390  10.286   9.006   4.953
  403POPC   C2B 4391  10.307   9.068   5.253
  403POPC   C3B 4392  10.277   9.061   5.553
  403POPC   C4B 4393  10.308   9.009   5.853
  404POPC   NC3 4394  10.561   4.197   4.053
  404POPC   PO4 4395  10.590   4.147   4.353
  404POPC   GL1 4396  10.562   4.180   4.653
  404POPC   GL2 4397  10.394   4.237   4.653
  404POPC   C1A 4398  10.592   4.177   4.953
  404POPC   D2A 4399  10.581   4.158   5.253
  404POPC   C3A 4400  10.521   4.156   5.553
  404POPC   C4A 4401  10.555   4.141   5.853
  404POPC   C1B 4402  10.285   4.313   4.953
  404POPC   C2B 4403  10.228   4.319   5.253
  404POPC   C3B 4404  10.286   4.338   5.553
  404POPC   C4B 4405  10.279   4.308   5.853
  405POPC   NC3 4406   2.640   9.001   4.053
  405POPC   PO4 4407   2.701   9.047   4.353
  405POPC   GL1 4408   2.708   9.008   4.653
  405POPC   GL2 4409   2.739   8.857   4.653
  405POPC   C1A 4410   2.703   9.029   4.953
  405POPC   D2A 4411   2.647   9.005   5.253
  405POPC   C3A 4412   2.661   9.051   5.553
  405POPC   C4A 4413   2.708   8.992   5.853
  405POPC   C1B 4414   2.805   8.706   4.953
  405POPC   C2B 4415   2.776   8.745   5.253
  405POPC   C3B 4416   2.774   8.702   5.553
  405POPC   C4B 4417   2.774   8.753   5.853
  406POPC   NC3 4418   1.035   2.666   4.053
  406POPC   PO4 4419   1.070   2.659   4.353
  406POPC   GL1 4420   0.986   2.655   4.653
  406POPC   GL2 4421   1.207   2.692   4.653
  406POPC   C1A 4422   0.981   2.676   4.953
  406POPC   D2A 4423   1.017   2.680   5.253
  406POPC   C3A 4424   1.066   2.674   5.553
  406POPC   C4A 4425   1.009   2.657   5.853
  406POPC   C1B 4426   1.325   2.777   4.953
  406POPC   C2B 4427   1.419   2.767   5.253
  406POPC   C3B 4428   1.353   2.762   5.553
  406POPC   C4B 4429   1.385   2.823   5.853
  407POPC   NC3 4430   5.957   2.001   4.053
  407POPC   PO4 4431   6.019   1.941   4.353
  407POPC   GL1 4432   5.995   1.942   4.653
  407POPC   GL2 4433   5.831   1.995   4.653
  407POPC   C1A 4434   6.022   1.937   4.953
  407POPC   D2A 4435   6.024   1.974   5.253
  407POPC   C3A 4436   6.013   1.942   5.553
  407POPC   C4A 4437   6.000   2.005   5.853
  407POPC   C1B 4438   5.582   1.982   4.953
  407POPC   C2B 4439   5.598   1.964   5.253
  407POPC   C3B 4440   5.601   1.953   5.553
  407POPC   C4B 4441   5.643   1.928   5.853
  408POPC   NC3 4442  10.253   9.458   4.053
  408POPC   PO4 4443  10.294   9.527   4.353
  408POPC   GL1 4444  10.289   9.465   4.653
  408POPC   GL2 4445  10.414   9.604   4.653
  408POPC   C1A 4446  10.346   9.488   4.953
  408POPC   D2A 4447  10.257   9.499   5.253
  408POPC   C3A 4448  10.275   9.460   5.553
  408POPC   C4A 4449  10.312   9.500   5.853
  408POPC   C1B 4450  10.535   9.769   4.953
  408POPC   C2B 4451  10.451   9.764   5.253
  408POPC   C3B 4452  10.503   9.751   5.553
  408POPC   C4B 4453  10.509   9.746   5.853
  409POPC   NC3 4454   2.904  10.248   4.053
  409POPC   PO4 4455   2.905  10.251   4.353
  409POPC   GL1 4456   2.894  10.260   4.653
  409POPC   GL2 4457   2.739  10.420   4.653
  409POPC   C1A 4458   2.896  10.323   4.953
  409POPC   D2A 4459   2.886  10.291   5.253
  409POPC   C3A 4460   2.892  10.300   5.553
  409POPC   C4A 4461   2.888  10.334   5.853
  409POPC   C1B 4462   2.641  10.535   4.953
  409POPC   C2B 4463   2.566  10.465   5.253
  409POPC   C3B 4464   2.579  10.537   5.553
  409POPC   C4B 4465   2.573  10.553   5.853
  410POPC   NC3 4466   8.986   7.966   4.053
  410POPC   PO4 4467   8.984   7.987   4.353
  410POPC   GL1 4468   9.027   7.996   4.653
  410POPC   GL2 4469   8.830   8.129   4.653
  410POPC   C1A 4470   9.026   8.032   4.953
  410POPC   D2A 4471   9.038   8.015   5.253
  410POPC   C3A 4472   8.965   8.017   5.553
  410POPC   C4A 4473   8.999   8.037   5.853
  410POPC   C1B 4474   8.691   8.220   4.953
  410POPC   C2B 4475   8.704   8.180   5.253
  410POPC   C3B 4476   8.764   8.172   5.553
  410POPC   C4B 4477   8.760   8.182   5.853
  411POPC   NC3 4478   2.640   4.441   4.053
  411POPC   PO4 4479   2.674   4.377   4.353
  411POPC   GL1 4480   2.638   4.415   4.653
  411POPC   GL2 4481   2.703   4.248   4.653
  411POPC   C1A 4482   2.624   4.430   4.953
  411POPC   D2A 4483   2.697   4.407   5.253
  411POPC   C3A 4484   2.647   4.420   5.553
  411POPC   C4A 4485   2.666   4.423   5.853
  411POPC   C1B 4486   2.770   4.083   4.953
  411POPC   C2B 4487   2.835   4.067   5.253
  411POPC   C3B 4488   2.779   4.074   5.553
  411POPC   C4B 4489   2.855   4.151   5.853
  412POPC   NC3 4490   8.797   9.433   4.053
  412POPC   PO4 4491   8.848   9.464   4.353
  412POPC   GL1 4492   8.785   9.476   4.653
  412POPC   GL2 4493   8.863   9.661   4.653
  412POPC   C1A 4494   8.830   9.454   4.953
  412POPC   D2A 4495   8.792   9.424   5.253
  412POPC   C3A 4496   8.823   9.479   5.553
  412POPC   C4A 4497   8.809   9.432   5.853
  412POPC   C1B 4498   8.925   9.804   4.953
  412POPC   C2B 4499   8.905   9.815   5.253
  412POPC   C3B 4500   8.972   9.836   5.553
  412POPC   C4B 4501   8.913   9.780   5.853
  413POPC   NC3 4502   0.234   7.354   4.053
  413POPC   PO4 4503   0.226   7.406   4.353
  413POPC   GL1 4504   0.260   7.423   4.653
  413POPC   GL2 4505   0.466   7.327   4.653
  413POPC   C1A 4506   0.277   7.447   4.953
  413POPC   D2A 4507   0.283   7.364   5.253
  413POPC   C3A 4508   0.276   7.353   5.553
  413POPC   C4A 4509   0.243   7.394   5.853
  413POPC   C1B 4510   0.604   7.248   4.953
  413POPC   C2B 4511   0.568   7.236   5.253
  413POPC   C3B 4512   0.623   7.251   5.553
  413POPC   C4B 4513   0.620   7.301   5.853
  414POPC   NC3 4514   4.434   1.305   4.053
  414POPC   PO4 4515   4.400   1.353   4.353
  414POPC   GL1 4516   4.419   1.277   4.653
  414POPC   GL2 4517   4.315   1.178   4.653
  414POPC   C1A 4518   4.415   1.302   4.953
  414POPC   D2A 4519   4.396   1.365   5.253
  414POPC   C3A 4520   4.377   1.284   5.553
  414POPC   C4A 4521   4.354   1.349   5.853
  414POPC   C1B 4522   4.161   1.050   4.953
  414POPC   C2B 4523   4.104   1.072   5.253
  414POPC   C3B 4524   4.184   1.034   5.553
  414POPC   C4B 4525   4.098   1.048   5.853
  415POPC   NC3 4526   2.800   0.529   4.053
  415POPC   PO4 4527   2.809   0.614   4.353
  415POPC   GL1 4528   2.803   0.587   4.653
  415POPC   GL2 4529   2.718   0.412   4.653
  415POPC   C1A 4530   2.845   0.537   4.953
  415POPC   D2A 4531   2.836   0.535   5.253
  415POPC   C3A 4532   2.870   0.597   5.553
  415POPC   C4A 4533   2.796   0.570   5.853
  415POPC   C1B 4534   2.614   0.325   4.953
  415POPC   C2B 4535   2.656   0.258   5.253
  415POPC   C3B 4536   2.676   0.326   5.553
  415POPC   C4B 4537   2.621   0.267   5.853
  416W        W 4538   4.570   7.031   1.897
  417W        W 4539   5.135   6.055  11.780
  418W        W 4540   7.907   4.777  10.407
  419W        W 4541  10.045   0.303  10.500
  420W        W 4542   0.298   4.632   3.349
  421W        W 4543   7.546   3.814  10.430
  422W        W 4544  10.837   8.925  11.982
  423W        W 4545   8.456   3.247   9.108
  424W        W 4546   1.275   0.938   0.900
  425W        W 4547   1.382   6.551  10.888
  426W        W 4548   4.263   9.054   2.195
  427W        W 4549   7.539   6.681   2.671
  428W        W 4550  11.499   0.771   2.196
  429W        W 4551   9.859   2.755   3.729
  430W        W 4552   0.477  11.500   3.199
  431W        W 4553   2.270  10.418  10.495
  432W        W 4554  10.862   5.714  11.482
  433W        W 4555   3.810   7.662   0.794
  434W        W 4556  11.500   7.917  11.929
  435W        W 4557  10.920   8.083   2.192
  436W        W 4558   6.051   3.833   7.929
  437W        W 4559   5.992   4.120   4.313
  438W        W 4560   2.388   2.837  11.890
  439W        W 4561   8.939   5.195   2.845
  440W        W 4562   2.374  10.444   0.388
  441W        W 4563   2.801  10.828   3.339
  442W        W 4564   4.556   0.401   0.427
  443W        W 4565   6.122   0.366   2.678
  444W        W 4566   2.218   5.745   0.807
  445W        W 4567   9.554  10.947  10.454
  446W        W 4568   7.033   6.152  10.351
  447W        W 4569   6.076   7.074  11.511
  448W        W 4570  11.377  10.408  11.378
  449W        W 4571   2.377  11.004   3.241
  450W        W 4572   7.983   8.468   1.755
  451W        W 4573   7.098   4.707   1.332
  452W        W 4574   0.759   1.342  10.424
  453W        W 4575   5.552   0.294  11.911
  454W        W 4576  10.353   2.830   3.121
  455W        W 4577   2.290   8.547   3.814
  456W        W 4578   3.353   8.451   0.804
  457W        W 4579   5.186   2.307  10.942
  458W        W 4580   2.786   2.681   9.951
  459W        W 4581   2.845   4.708   3.243
  460W        W 4582   3.637   9.073   2.846
  461W        W 4583   6.087   0.299   9.367
  462W        W 4584   6.611   6.581   1.740
  463W        W 4585   5.695   4.280   8.034
  464W        W 4586   0.467   2.234  11.962
  465W        W 4587   1.693   5.091  10.349
  466W        W 4588   0.794   2.787   0.880
  467W        W 4589   3.115   1.416  11.765
  468W        W 4590   6.573   1.365   0.926
  469W        W 4591   6.225   7.541  10.371
  470W        W 4592   4.142   8.982   0.748
  471W        W 4593   2.680   4.251   9.934
  472W        W 4594   3.769   4.588  11.870
  473W        W 4595  10.826   6.688  11.314
  474W        W 4596   0.873  10.486   2.706
  475W        W 4597   9.385   0.392   1.809
  476W        W 4598   9.104   2.372  11.035
  477W        W 4599   9.346   9.090   2.791
  478W        W 4600   8.928  10.885  10.002
  479W        W 4601   8.913  11.299   1.791
  480W        W 4602   9.072   9.570   9.859
  481W        W 4603   5.088   8.983   1.342
  482W        W 4604   9.379  10.345  11.421
  483W        W 4605   7.579   5.260   0.849
  484W        W 4606   1.417   2.760   1.377
  485W        W 4607   3.650   4.749   2.850
  486W        W 4608   5.523  10.356  11.417
  487W        W 4609  10.527   3.158   8.948
  488W        W 4610   9.975  10.510  11.440
  489W        W 4611   4.206   1.851  10.537
  490W        W 4612   3.235   8.115   9.539
  491W        W 4613  10.342   4.671   1.224
  492W        W 4614   0.848   8.410   8.936
  493W        W 4615  11.461   4.305   0.455
  494W        W 4616  10.502   7.557   1.827
  495W        W 4617   6.690   7.536  11.421
  496W        W 4618   5.521   6.064   0.470
  497W        W 4619   4.223   2.697   0.309
  498W        W 4620   4.606   6.051   0.439
  499W        W 4621   8.020   9.963  10.824
  500W        W 4622   9.377  11.271   1.907
  501W        W 4623   4.106   0.364   9.881
  502W        W 4624   7.187   4.250  11.957
  503W        W 4625   9.063   7.173   3.152
  504W        W 4626   9.504   4.281  11.446
  505W        W 4627   5.565   3.635   9.052
  506W        W 4628  10.499   8.930   0.456
  507W        W 4629   5.541  11.463   2.380
  508W        W 4630   5.650   4.590   3.346
  509W        W 4631   5.198  11.479  10.469
  510W        W 4632   5.728   3.156  10.345
  511W        W 4633  10.973   8.133  11.000
  512W        W 4634   1.851   3.294   3.165
  513W        W 4635  11.336   0.262  10.827
  514W        W 4636   6.110   9.899  11.820
  515W        W 4637   3.720   5.041   8.002
  516W        W 4638   4.740   8.610   8.089
  517W        W 4639   2.302  10.405   9.867
  518W        W 4640   1.890   9.924  11.946
  519W        W 4641   7.042   2.797   1.795
  520W        W 4642   9.984   2.210  10.846
  521W        W 4643   0.329   0.262   9.045
  522W        W 4644   6.532   0.347  11.008
  523W        W 4645   6.497   3.650   9.861
  524W        W 4646   0.849   6.536   3.606
  525W        W 4647   9.468   9.502   8.998
  526W        W 4648   5.191   7.482   1.695
  527W        W 4649  10.414   7.620   0.865
  528W        W 4650   9.083   5.184  11.784
  529W        W 4651   5.049  10.429  10.446
  530W        W 4652   1.390   3.332  10.803
  531W        W 4653   2.648   4.145  11.852
  532W        W 4654   4.618   0.318   8.927
  533W        W 4655   4.612   3.168   2.680
  534W        W 4656   4.153   4.089  11.368
  535W        W 4657   2.706  10.358   0.957
  536W        W 4658  10.861   1.784  10.889
  537W        W 4659   7.074   9.477   3.196
  538W        W 4660  11.011   0.940   0.385
  539W        W 4661   9.893   1.307   9.912
  540W        W 4662   8.430   8.992   9.089
  541W        W 4663   2.350   5.042   1.817
  542W        W 4664   8.059   3.831   4.135
  543W        W 4665   0.864   6.647   8.622
  544W        W 4666   7.588   7.469  10.875
  545W        W 4667   2.253   6.536   3.303
  546W        W 4668   8.879   9.372   1.735
  547W        W 4669   9.523   0.341  10.014
  548W        W 4670   7.956   4.629  10.985
  549W        W 4671   2.219   2.187   0.242
  550W        W 4672  10.979   5.064  11.010
  551W        W 4673   8.510   5.667   0.343
  552W        W 4674   1.375   3.317  11.916
  553W        W 4675   2.270   3.756  10.019
  554W        W 4676   6.193   0.857  10.054
  555W        W 4677   6.540   7.021   2.384
  556W        W 4678  10.923  11.318   2.300
  557W        W 4679   3.699   6.006   1.745
  558W        W 4680   4.560   2.376  11.445
  559W        W 4681   9.374   0.295  11.474
  560W        W 4682   9.428   8.867  10.439
  561W        W 4683  10.336   8.576  11.295
  562W        W 4684   6.022   6.671   0.943
  563W        W 4685   2.338   7.982   8.924
  564W        W 4686   2.803  10.528   3.283
  565W        W 4687   5.663   3.703  11.483
  566W        W 4688   9.428   7.102   9.475
  567W        W 4689  10.463   7.009  11.979
  568W        W 4690   3.168   7.135  11.297
  569W        W 4691  11.486  10.905  11.968
  570W        W 4692   2.760   4.556  11.875
  571W        W 4693   6.626   4.303   9.396
  572W        W 4694   3.820   8.037   3.750
  573W        W 4695   1.226  10.022  10.935
  574W        W 4696   7.648  10.819   1.762
  575W        W 4697   9.929   3.770  11.501
  576W        W 4698  10.917   5.531  10.904
  577W        W 4699   7.166   4.083   2.202
  578W        W 4700   1.741   6.120  11.349
  579W        W 4701  10.020   8.953   0.820
  580W        W 4702   8.515   1.773  10.940
  581W        W 4703   9.437  11.286   2.783
  582W        W 4704   1.304   1.686   0.901
  583W        W 4705   4.081   9.094   1.223
  584W        W 4706   0.387   4.741  11.830
  585W        W 4707   0.475   4.136   0.794
  586W        W 4708  10.495  10.360   0.727
  587W        W 4709   0.722   0.293  11.861
  588W        W 4710   8.491   5.222   3.676
  589W        W 4711   0.778  10.905   9.940
  590W        W 4712   4.558   0.866   2.354
  591W        W 4713   3.604   8.616  11.778
  592W        W 4714   3.170   7.915   3.305
  593W        W 4715   4.246   3.304   2.848
  594W        W 4716   1.309   7.655   0.911
  595W        W 4717   9.100   1.205   2.704
  596W        W 4718   5.230   8.551   8.637
  597W        W 4719   7.919   1.316   9.428
  598W        W 4720   0.849  11.480   0.731
  599W        W 4721   6.685   5.727   2.205
  600W        W 4722   4.239   1.387   9.431
  601W        W 4723   2.393   6.500   1.402
  602W        W 4724   0.788   8.043   8.976
  603W        W 4725   3.829   0.296   2.173
  604W        W 4726   1.796   3.644   8.472
  605W        W 4727   7.133   1.261  11.461
  606W        W 4728   3.603   6.691   3.252
  607W        W 4729   0.942   6.675   9.983
  608W        W 4730   1.734   5.126   0.797
  609W        W 4731   1.756   2.777  11.507
  610W        W 4732   6.487   8.874  10.411
  611W        W 4733   3.126  10.848   3.269
  612W        W 4734  10.504   0.298   1.854
  613W        W 4735   9.951   8.414  10.055
  614W        W 4736   5.134   3.632  11.462
  615W        W 4737  10.457   3.223  11.352
  616W        W 4738   1.754   0.425   2.800
  617W        W 4739   5.589   3.663   4.223
  618W        W 4740   2.346   8.572  10.937
  619W        W 4741   1.739   8.000   2.756
  620W        W 4742   8.083   3.298   2.168
  621W        W 4743   9.351   9.506  11.990
  622W        W 4744   7.969  11.388   2.790
  623W        W 4745  10.012   7.476   0.355
  624W        W 4746   5.541   8.587  10.507
  625W        W 4747   2.275   0.899   9.426
  626W        W 4748   7.118   1.340   2.396
  627W        W 4749   7.150  10.378  10.831
  628W        W 4750   0.925   6.573   2.651
  629W        W 4751   2.370   1.699   2.191
  630W        W 4752   5.592   4.239  11.816
  631W        W 4753   2.358   5.245  11.909
  632W        W 4754   0.478   5.162   2.843
  633W        W 4755   4.117   8.428  10.371
  634W        W 4756   3.146   9.511   1.907
  635W        W 4757   5.121   8.046   2.832
  636W        W 4758  10.032   3.617  11.930
  637W        W 4759   0.848   3.768   2.675
  638W        W 4760   9.379   1.401  10.495
  639W        W 4761   4.240   6.531   1.868
  640W        W 4762  11.328   9.540   9.462
  641W        W 4763   9.499   9.476   3.147
  642W        W 4764   4.120  10.906   3.216
  643W        W 4765   7.161  10.939   1.323
  644W        W 4766   2.256   9.856  10.809
  645W        W 4767   4.089   2.710   2.192
  646W        W 4768   6.015   4.164   8.442
  647W        W 4769   3.164  11.268   2.170
  648W        W 4770   6.184   7.038   4.217
  649W        W 4771  10.536   6.634   2.743
  650W        W 4772   3.255   8.895   3.219
  651W        W 4773   6.653  10.822   0.443
  652W        W 4774   6.130   3.141   8.622
  653W        W 4775   5.639   5.593   9.849
  654W        W 4776   1.434   4.187   2.736
  655W        W 4777   7.638   0.249  11.419
  656W        W 4778   7.031   6.625   0.842
  657W        W 4779   2.294   4.715  10.829
  658W        W 4780   0.332   1.321  10.031
  659W        W 4781   6.000   0.422   9.987
  660W        W 4782   7.572   2.222   1.404
  661W        W 4783   3.803   2.178  11.934
  662W        W 4784   8.109   1.359   1.875
  663W        W 4785   0.899   9.013   2.771
  664W        W 4786   9.929  11.367   9.913
  665W        W 4787   5.125   1.761   3.189
  666W        W 4788   3.699   1.754   8.913
  667W        W 4789   7.472   7.068  11.518
  668W        W 4790   3.238   4.255   2.759
  669W        W 4791   5.559   7.441  10.523
  670W        W 4792  10.512   4.634   1.819
  671W        W 4793   5.095   5.585   0.342
  672W        W 4794   9.381   7.450   9.463
  673W        W 4795   5.073   1.321  11.353
  674W        W 4796   5.102   3.242   8.486
  675W        W 4797   0.380   8.889   9.374
  676W        W 4798   3.724   5.206   2.683
  677W        W 4799  10.372   4.610   2.276
  678W        W 4800   4.200   1.833  11.437
  679W        W 4801   2.336   3.604   1.895
  680W        W 4802  11.007   8.515  11.481
  681W        W 4803   3.668  11.485  10.804
  682W        W 4804   5.732   0.269   1.769
  683W        W 4805   1.812   1.870   1.828
  684W        W 4806   6.143   3.227  11.902
  685W        W 4807   5.079   8.065  11.368
  686W        W 4808   2.835   7.501   0.743
  687W        W 4809   3.703   2.694  11.323
  688W        W 4810   4.122   9.411   8.963
  689W        W 4811   5.557   6.589   1.290
  690W        W 4812  10.784   9.462  10.952
  691W        W 4813   3.687   7.612   3.187
  692W        W 4814   1.402   8.593  11.933
  693W        W 4815   0.353   3.116   9.497
  694W        W 4816   2.711   3.621   1.412
  695W        W 4817   3.215   2.777   2.376
  696W        W 4818   1.848   8.603   9.911
  697W        W 4819   4.718   2.853  11.905
  698W        W 4820   1.758   9.354   2.757
  699W        W 4821   4.101  10.317  11.947
  700W        W 4822   3.718   6.227  11.943
  701W        W 4823   1.266   9.061   0.741
  702W        W 4824   5.205   0.876   9.863
  703W        W 4825   8.924   8.127   2.824
  704W        W 4826   2.746   8.415   1.314
  705W        W 4827   0.860   3.338  10.914
  706W        W 4828   9.390   0.857   8.467
  707W        W 4829   4.280   8.020  11.900
  708W        W 4830   6.037   8.547   3.747
  709W        W 4831   7.448   2.319  11.902
  710W        W 4832   1.281   9.900   2.712
  711W        W 4833   3.188   0.298   1.916
  712W        W 4834   4.281   5.997   7.990
  713W        W 4835   3.150   6.019   0.736
  714W        W 4836   7.488   6.986   9.854
  715W        W 4837  11.309   5.729   2.875
  716W        W 4838   1.216   9.535  10.396
  717W        W 4839   7.506  11.290  11.836
  718W        W 4840   1.908   2.170  10.470
  719W        W 4841   9.395   9.924  11.417
  720W        W 4842   2.311  10.993   9.047
  721W        W 4843   8.417   6.220   3.293
  722W        W 4844   3.607   3.799   4.186
  723W        W 4845   6.505   1.740   0.315
  724W        W 4846   5.246   7.624   0.785
  725W        W 4847  10.943   6.633   3.653
  726W        W 4848   9.436   0.806   8.971
  727W        W 4849   3.721   5.183  10.823
  728W        W 4850   6.044   9.862  11.356
  729W        W 4851   1.830   4.246   9.394
  730W        W 4852   1.767   7.104   0.944
  731W        W 4853   8.082   3.350   2.716
  732W        W 4854   7.534   0.957  11.373
  733W        W 4855   7.008   1.848   1.787
  734W        W 4856   5.250   2.636  11.809
  735W        W 4857   7.979   9.015   0.777
  736W        W 4858   9.986   4.138   9.509
  737W        W 4859   9.901   3.653   3.172
  738W        W 4860   7.540   6.057  10.051
  739W        W 4861   8.515   1.430  11.325
  740W        W 4862   1.402   8.058   1.210
  741W        W 4863   7.947  10.789   0.282
  742W        W 4864   5.126   0.879   0.880
  743W        W 4865   8.105   6.088   0.410
  744W        W 4866   9.045   8.058  10.950
  745W        W 4867   5.642   6.651   9.033
  746W        W 4868   6.131   9.866   8.925
  747W        W 4869   9.879   5.677   8.988
  748W        W 4870  11.391   3.787   2.725
  749W        W 4871   7.524   4.648   1.692
  750W        W 4872   8.419   8.968  11.931
  751W        W 4873   2.724   6.157   1.914
  752W        W 4874   1.406   6.681  10.413
  753W        W 4875   4.756   9.428   1.304
  754W        W 4876   5.203   9.392  10.032
  755W        W 4877   5.132   8.421   2.220
  756W        W 4878  11.431   2.809   8.977
  757W        W 4879   0.873   9.095   0.386
  758W        W 4880   6.075   2.283   2.789
  759W        W 4881   4.237   2.754  10.893
  760W        W 4882   7.027   0.252   8.974
  761W        W 4883   1.821   8.128   0.241
  762W        W 4884  10.805   6.522   9.411
  763W        W 4885   1.270   6.592   9.997
  764W        W 4886   9.059  10.842   1.815
  765W        W 4887   7.944   7.131   0.733
  766W        W 4888   1.405  10.812   9.547
  767W        W 4889   1.314   7.114  11.002
  768W        W 4890   8.457   9.973   9.878
  769W        W 4891   8.910   4.270  11.798
  770W        W 4892   6.194   2.302   3.147
  771W        W 4893   6.211   9.468   0.751
  772W        W 4894   1.225   0.264  10.833
  773W        W 4895   4.776   5.691   0.464
  774W        W 4896   4.083   7.583  10.482
  775W        W 4897   8.991   8.553   8.623
  776W        W 4898   2.811   5.240   1.711
  777W        W 4899   6.475   3.208   1.307
  778W        W 4900   6.559   8.400  10.963
  779W        W 4901   4.121   7.116   2.845
  780W        W 4902  10.827   4.278   9.884
  781W        W 4903   2.662   1.325  10.860
  782W        W 4904   9.036   6.084  10.847
  783W        W 4905   7.082   0.446  11.417
  784W        W 4906   7.152   6.141   2.170
  785W        W 4907   3.169   3.115   9.544
  786W        W 4908   5.133   5.049  11.338
  787W        W 4909   4.141   0.261   1.263
  788W        W 4910   0.948   1.415   1.385
  789W        W 4911   4.662   2.830   3.188
  790W        W 4912  10.375   6.527   9.116
  791W        W 4913   2.864   6.161   2.753
  792W        W 4914  10.031   8.939  11.468
  793W        W 4915   7.994   0.335  10.472
  794W        W 4916   9.041   0.285   1.789
  795W        W 4917   6.669   8.045   1.910
  796W        W 4918   4.119   6.185   0.743
  797W        W 4919   6.031   1.341  11.997
  798W        W 4920   7.974   6.526  11.859
  799W        W 4921   2.697   3.326   0.480
  800W        W 4922   1.416   0.733   9.935
  801W        W 4923   4.607   5.584  11.396
  802W        W 4924   2.832   3.630   2.719
  803W        W 4925  11.005   1.782   2.850
  804W        W 4926   7.093   7.647  11.939
  805W        W 4927   3.786  10.840   8.948
  806W        W 4928   4.726  10.930   3.352
  807W        W 4929   4.305   0.771  11.955
  808W        W 4930  10.357   7.131  10.848
  809W        W 4931   6.667   1.849   0.781
  810W        W 4932   0.267   3.691   9.991
  811W        W 4933   5.151  10.435  11.886
  812W        W 4934   0.786   6.999   0.425
  813W        W 4935   6.116   2.780   1.319
  814W        W 4936   8.579   1.355   1.708
  815W        W 4937   1.420  10.046   3.273
  816W        W 4938  10.911   1.263  10.514
  817W        W 4939   1.809  11.487   9.994
  818W        W 4940   1.257   7.159   1.205
  819W        W 4941   2.206   6.185   0.859
  820W        W 4942   4.569   3.160   2.257
  821W        W 4943   9.914  11.004  10.908
  822W        W 4944  10.504   8.994  10.845
  823W        W 4945   8.005   9.977  10.537
  824W        W 4946   9.831   7.172   1.836
  825W        W 4947   5.553   8.462   9.022
  826W        W 4948   3.776  10.445   1.306
  827W        W 4949   4.622   0.855  11.769
  828W        W 4950   1.232  10.862   1.870
  829W        W 4951   1.711   2.362   2.826
  830W        W 4952   6.679   5.212   1.316
  831W        W 4953   9.964   8.614   9.434
  832W        W 4954   3.177   4.700   2.383
  833W        W 4955   4.721   3.654   1.826
  834W        W 4956   4.250   2.367  11.032
  835W        W 4957   8.520   1.809   9.436
  836W        W 4958  11.397   4.100   9.598
  837W        W 4959   9.535   5.667  10.066
  838W        W 4960   8.613   7.926   9.842
  839W        W 4961   7.097   4.304   0.434
  840W        W 4962   1.253   5.152   1.321
  841W        W 4963   3.713   3.185  10.356
  842W        W 4964   4.593   0.385   9.494
  843W        W 4965   9.910   6.541   8.432
  844W        W 4966   8.021   0.423  10.045
  845W        W 4967   6.528   6.012  11.435
  846W        W 4968   5.082   4.634  11.806
  847W        W 4969   2.166   3.671   9.062
  848W        W 4970  11.421  11.357   0.850
  849W        W 4971   9.843   6.102   8.995
  850W        W 4972   1.338   9.389   9.082
  851W        W 4973   6.228   5.211   1.727
  852W        W 4974   8.030   9.920  11.768
  853W        W 4975   4.649   2.346   9.984
  854W        W 4976   0.373   0.260   1.875
  855W        W 4977   7.605   0.909   2.850
  856W        W 4978   7.585   1.386  10.508
  857W        W 4979  11.295   7.470   0.473
  858W        W 4980  10.877   2.785   9.539
  859W        W 4981   8.505   2.391  11.462
  860W        W 4982   5.554   3.784   2.360
  861W        W 4983   7.159   8.439  11.998
  862W        W 4984   8.050   4.234   1.422
  863W        W 4985   0.275   6.061   9.895
  864W        W 4986   4.703   4.226   9.402
  865W        W 4987   7.507   9.463  10.060
  866W        W 4988   5.714   0.446  11.430
  867W        W 4989   5.616   9.391   8.494
  868W        W 4990  11.294   2.322  10.454
  869W        W 4991   7.940   8.007   0.386
  870W        W 4992  10.996   6.999  11.828
  871W        W 4993   8.051   4.278   2.766
  872W        W 4994   6.639   7.923   0.347
  873W        W 4995  11.367   0.287   9.982
  874W        W 4996   7.509  10.442   2.847
  875W        W 4997   4.617   0.847  10.553
  876W        W 4998   7.615   5.063  11.830
  877W        W 4999   7.171   0.873   9.930
  878W        W 5000   6.643  11.407   9.119
  879W        W 5001   7.991   6.017   8.414
  880W        W 5002   4.596   3.127   0.376
  881W        W 5003   3.121   9.058  11.475
  882W        W 5004   7.605   1.706  10.906
  883W        W 5005   8.938   7.968   1.863
  884W        W 5006  11.487  10.814   0.757
  885W        W 5007   0.730   7.604  11.838
  886W        W 5008   4.641   7.443  11.359
  887W        W 5009   0.853   7.924   9.401
  888W        W 5010   9.947   6.527  11.943
  889W        W 5011  11.281  11.315  11.991
  890W        W 5012  10.453   0.397   9.591
  891W        W 5013   5.247   6.695   1.808
  892W        W 5014   2.655  10.314   1.828
  893W        W 5015   5.540   6.664  11.864
  894W        W 5016  10.356   5.622   9.472
  895W        W 5017  10.808   4.679  10.508
  896W        W 5018   6.584   3.648   9.018
  897W        W 5019   4.207   6.624   2.267
  898W        W 5020   4.098   6.637   9.943
  899W        W 5021   8.909  10.027  11.037
  900W        W 5022   8.940   1.244  11.448
  901W        W 5023   9.531   8.064   1.871
  902W        W 5024   3.648   9.362   2.201
  903W        W 5025   0.303   7.639   1.686
  904W        W 5026   4.618   9.988   8.925
  905W        W 5027   6.978   9.553  11.417
  906W        W 5028   5.614  10.397  10.468
  907W        W 5029   5.523   3.778   8.496
  908W        W 5030  10.463  11.433   9.967
  909W        W 5031  11.401   8.404  10.850
  910W        W 5032   1.319  11.002   2.862
  911W        W 5033   9.077   1.289  10.890
  912W        W 5034   7.079  11.465   9.595
  913W        W 5035  10.335   5.681   0.420
  914W        W 5036   8.387   3.791   7.930
  915W        W 5037  10.425   7.008  10.418
  916W        W 5038  10.303   2.769   9.912
  917W        W 5039   0.346   2.381  10.895
  918W        W 5040  11.014  11.434   0.728
  919W        W 5041   7.949   5.669   0.269
  920W        W 5042  10.894   0.861   9.965
  921W        W 5043   4.280   5.522  11.823
  922W        W 5044   3.765   8.920   9.931
  923W        W 5045   9.371  10.324  11.789
  924W        W 5046   4.711   0.299   0.860
  925W        W 5047   0.931   2.726   2.378
  926W        W 5048   1.903   0.412  10.946
  927W        W 5049  10.899   6.102  11.913
  928W        W 5050   9.430   5.651   0.741
  929W        W 5051   6.030   3.610   9.001
  930W        W 5052   1.808   9.390   2.352
  931W        W 5053  11.492   7.020   3.264
  932W        W 5054   8.007   7.064   2.232
  933W        W 5055   0.914   3.300  11.484
  934W        W 5056   6.655   0.318   1.864
  935W        W 5057   8.107   0.259   3.313
  936W        W 5058  10.974   9.895  11.412
  937W        W 5059   7.539   2.256   2.176
  938W        W 5060   5.064   7.026  10.352
  939W        W 5061  10.043   2.170   1.863
  940W        W 5062   6.659  11.421  10.900
  941W        W 5063   4.613   9.844   0.877
  942W        W 5064   6.133   6.685  10.431
  943W        W 5065   1.346   7.537   8.983
  944W        W 5066   1.834  10.528   9.945
  945W        W 5067  10.892   8.429   0.264
  946W        W 5068   8.984   9.844   0.896
  947W        W 5069   0.749   6.032   2.732
  948W        W 5070  11.011   9.495   9.959
  949W        W 5071   9.989   9.947   1.884
  950W        W 5072   2.803   2.229   3.332
  951W        W 5073   5.642  11.287   3.162
  952W        W 5074  10.940  11.280   9.011
  953W        W 5075   7.948   1.893   1.914
  954W        W 5076   3.141   0.818   9.588
  955W        W 5077  11.004   8.900   9.895
  956W        W 5078   4.584   1.880   2.297
  957W        W 5079   5.670   7.141  11.878
  958W        W 5080   8.388   3.115  11.408
  959W        W 5081   9.835  10.052   9.521
  960W        W 5082   0.265   6.131   9.580
  961W        W 5083   4.093   1.699  11.998
  962W        W 5084   8.413   1.773   8.909
  963W        W 5085  10.515   9.883   0.437
  964W        W 5086   4.216   7.035  10.874
  965W        W 5087   5.608   9.883   2.197
  966W        W 5088   5.060   7.034  11.784
  967W        W 5089   5.160   4.220   1.236
  968W        W 5090   4.555  11.451   2.669
  969W        W 5091   6.965   7.515   2.840
  970W        W 5092  11.436  10.326   2.241
  971W        W 5093   0.468  10.039   1.853
  972W        W 5094   0.918   0.878   8.941
  973W        W 5095   5.730   0.849  11.884
  974W        W 5096   7.957  10.480   0.285
  975W        W 5097   6.561   7.579   1.832
  976W        W 5098   9.400   7.063   1.834
  977W        W 5099   6.519   3.244   9.554
  978W        W 5100   6.197   7.029   3.152
  979W        W 5101   6.136   3.737  10.346
  980W        W 5102   3.313   9.385   0.258
  981W        W 5103   3.617   1.747  10.906
  982W        W 5104   1.776   0.311   9.537
  983W        W 5105   1.881   1.430   2.775
  984W        W 5106   5.039   7.099   9.038
  985W        W 5107  10.350   5.142  10.467
  986W        W 5108   8.879   9.468   9.466
  987W        W 5109   1.251   3.235  10.071
  988W        W 5110   3.759   3.734   2.176
  989W        W 5111   6.014   7.635   9.572
  990W        W 5112   6.668   7.957   3.286
  991W        W 5113   6.517  10.040   2.841
  992W        W 5114   0.831   3.622   9.510
  993W        W 5115   5.636  10.490  10.926
  994W        W 5116   3.669   0.772  10.559
  995W        W 5117   7.142   7.000   9.873
  996W        W 5118   9.925  11.464  10.425
  997W        W 5119   5.060   8.608   0.362
  998W        W 5120   6.996   0.420   2.685
  999W        W 5121   0.330   7.562  10.424
 1000W        W 5122   3.615  10.313   2.395
 1001W        W 5123   7.049   7.460   9.932
 1002W        W 5124   8.877   6.676   8.500
 1003W        W 5125   3.731   9.891  11.417
 1004W        W 5126  10.378   7.643  11.441
 1005W        W 5127   9.851   6.482  10.851
 1006W        W 5128   2.681   1.330   3.330
 1007W        W 5129   2.871   9.945   9.375
 1008W        W 5130   7.499   6.631   0.275
 1009W        W 5131   9.364  10.483   0.473
 1010W        W 5132   0.379   4.721   0.899
 1011W        W 5133  11.019   2.661  10.965
 1012W        W 5134   1.699  10.484   2.669
 1013W        W 5135   2.366   0.789   1.691
 1014W        W 5136   9.855   4.275  11.969
 1015W        W 5137  10.015   3.662  11.030
 1016W        W 5138   1.234   7.449   3.163
 1017W        W 5139   5.240   3.620   9.986
 1018W        W 5140   8.494  10.457   0.852
 1019W        W 5141   1.873   8.475   1.432
 1020W        W 5142   9.348   2.873   1.295
 1021W        W 5143   9.564   5.606   8.459
 1022W        W 5144   6.551   7.536   0.921
 1023W        W 5145   3.255   7.463   0.308
 1024W        W 5146   4.599   9.371   3.148
 1025W        W 5147   4.789   1.213  11.422
 1026W        W 5148   7.601   3.331   2.378
 1027W        W 5149   3.200  10.370  11.905
 1028W        W 5150   6.703   8.928   9.868
 1029W        W 5151   0.388   2.829   9.994
 1030W        W 5152   2.388   7.172   9.055
 1031W        W 5153   6.209   3.777  11.372
 1032W        W 5154   0.733   7.170   2.657
 1033W        W 5155   3.625   9.387   0.761
 1034W        W 5156   0.479   1.842   9.111
 1035W        W 5157  11.484  11.287   8.983
 1036W        W 5158   6.590  10.001   0.411
 1037W        W 5159   6.112   7.441  11.960
 1038W        W 5160   5.178   8.059  10.915
 1039W        W 5161   3.270   2.222   9.049
 1040W        W 5162   3.804   1.786  11.356
 1041W        W 5163   7.444   3.323   9.928
 1042W        W 5164   7.628   9.457   0.351
 1043W        W 5165   9.953   5.210   9.392
 1044W        W 5166   4.570  11.020   0.791
 1045W        W 5167   9.855   2.205  11.452
 1046W        W 5168  10.826   9.401   9.068
 1047W        W 5169   5.119   5.189   0.415
 1048W        W 5170   9.031   6.058  10.334
 1049W        W 5171   6.202   9.524   2.814
 1050W        W 5172  11.389   6.580  11.837
 1051W        W 5173   0.833   0.298   9.535
 1052W        W 5174   0.940   0.334  10.472
 1053W        W 5175   7.433   7.930  10.411
 1054W        W 5176   0.260   0.887   2.871
 1055W        W 5177   6.225   7.501  11.290
 1056W        W 5178   4.632   4.603   1.224
 1057W        W 5179  10.372  10.999   1.865
 1058W        W 5180   3.259   0.735   1.327
 1059W        W 5181   8.583   4.644   1.764
 1060W        W 5182   4.568   7.494  10.476
 1061W        W 5183   8.597   4.657  11.769
 1062W        W 5184   3.268   7.456  11.819
 1063W        W 5185   7.462   2.193   1.908
 1064W        W 5186   8.396   2.851   3.246
 1065W        W 5187   5.537  10.782   9.511
 1066W        W 5188  11.323   8.507  11.884
 1067W        W 5189   9.059   4.579   8.038
 1068W        W 5190   9.495   0.398   0.945
 1069W        W 5191   7.041   5.551  11.777
 1070W        W 5192   3.818   2.185   2.711
 1071W        W 5193   8.038   6.524   1.348
 1072W        W 5194   3.749   6.584   8.993
 1073W        W 5195   5.249  11.471   9.598
 1074W        W 5196   6.986   8.614   1.257
 1075W        W 5197  10.964   9.989  11.902
 1076W        W 5198   1.828   5.138  10.973
 1077W        W 5199   4.115   8.075   1.320
 1078W        W 5200   0.948   5.189   2.713
 1079W        W 5201  10.343   9.087  11.850
 1080W        W 5202   2.794   1.218  10.545
 1081W        W 5203   8.923   2.847   1.716
 1082W        W 5204   8.000   8.924   2.855
 1083W        W 5205   7.024   3.174  10.525
 1084W        W 5206  11.009   5.716  11.819
 1085W        W 5207   2.713   3.184   9.869
 1086W        W 5208   3.813   0.821   1.768
 1087W        W 5209   7.184   9.097  11.289
 1088W        W 5210   7.636   3.667  10.917
 1089W        W 5211   2.799   4.252   1.429
 1090W        W 5212   1.211   3.831   3.155
 1091W        W 5213  10.845  10.514   1.753
 1092W        W 5214   0.928   6.073   2.227
 1093W        W 5215  10.023   8.120   8.903
 1094W        W 5216   3.763  10.413   1.708
 1095W        W 5217  10.804   2.385   9.381
 1096W        W 5218   0.428   0.406   9.551
 1097W        W 5219   6.018   0.306   3.143
 1098W        W 5220   5.178   7.099   2.690
 1099W        W 5221   9.533  10.510   3.216
 1100W        W 5222  11.424   5.654   3.736
 1101W        W 5223   6.033   9.930   3.356
 1102W        W 5224   5.555   6.518   9.550
 1103W        W 5225   6.524  10.865  10.356
 1104W        W 5226   7.993   2.392  10.403
 1105W        W 5227   0.281  10.952   1.743
 1106W        W 5228   9.073   5.102   7.938
 1107W        W 5229   5.680   3.751   0.375
 1108W        W 5230   0.799   2.858   3.268
 1109W        W 5231   1.427   2.365  10.461
 1110W        W 5232   8.869   2.265   9.553
 1111W        W 5233   6.998   7.930  10.537
 1112W        W 5234   2.775   8.110  11.794
 1113W        W 5235   4.169   0.280   2.179
 1114W        W 5236   9.495   3.633   8.994
 1115W        W 5237  10.875   6.660   0.341
 1116W        W 5238   8.401   4.610   0.921
 1117W        W 5239   0.762  11.332   8.908
 1118W        W 5240  10.845   9.873   9.005
 1119W        W 5241   8.904   7.633   3.289
 1120W        W 5242   0.841   2.247   8.571
 1121W        W 5243   6.217   1.349   1.308
 1122W        W 5244   5.540   5.719   2.326
 1123W        W 5245   7.635   8.417   9.574
 1124W        W 5246  11.329   0.744   2.648
 1125W        W 5247   9.015   8.934  10.821
 1126W        W 5248   5.623   4.615  11.308
 1127W        W 5249   2.852   0.449   0.775
 1128W        W 5250   4.115  10.032   8.940
 1129W        W 5251   3.236   6.659  10.882
 1130W        W 5252   0.363  11.432   9.053
 1131W        W 5253   7.122   0.737   1.734
 1132W        W 5254   5.601  11.481   3.809
 1133W        W 5255   1.889   7.053  10.412
 1134W        W 5256   4.763   8.521   8.463
 1135W        W 5257   3.691   0.312   3.300
 1136W        W 5258   3.276   5.567   1.380
 1137W        W 5259   7.451   6.008   1.376
 1138W        W 5260   6.139   2.180   1.226
 1139W        W 5261   3.627   8.608   3.183
 1140W        W 5262   7.659   9.902   2.182
 1141W        W 5263   4.766   9.492  10.514
 1142W        W 5264   5.526   7.609   1.311
 1143W        W 5265   7.588   5.203   9.366
 1144W        W 5266  11.482   0.892  10.072
 1145W        W 5267   3.326   9.556   3.296
 1146W        W 5268   5.662   7.469   1.766
 1147W        W 5269   2.781   4.784  10.988
 1148W        W 5270   9.988   1.901  11.323
 1149W        W 5271   0.243   1.337   8.982
 1150W        W 5272   9.553   3.306  11.001
 1151W        W 5273   1.281   3.662  10.399
 1152W        W 5274   4.295   4.241   0.738
 1153W        W 5275   5.668  10.356   2.331
 1154W        W 5276   9.077   3.202   2.728
 1155W        W 5277   5.663  11.446   1.704
 1156W        W 5278   1.217   2.868   3.333
 1157W        W 5279  10.945  11.300  10.975
 1158W        W 5280   7.651  11.430   2.180
 1159W        W 5281   7.139   0.923   2.717
 1160W        W 5282   2.678   4.173  11.497
 1161W        W 5283   0.952   4.670  10.807
 1162W        W 5284   2.194   1.795   8.506
 1163W        W 5285   7.085   2.216  11.933
 1164W        W 5286   0.754   3.633   1.412
 1165W        W 5287   9.839   9.348   1.801
 1166W        W 5288   7.582   3.754  11.449
 1167W        W 5289   6.507   7.530   3.206
 1168W        W 5290   8.593   5.079   0.467
 1169W        W 5291   4.778   9.049   3.819
 1170W        W 5292   4.167   6.626   9.592
 1171W        W 5293   4.133   4.199   1.373
 1172W        W 5294   8.123   5.244   4.249
 1173W        W 5295   7.079   3.798   9.406
 1174W        W 5296   2.707   1.304   9.496
 1175W        W 5297   5.714   3.331   3.171
 1176W        W 5298   6.993   0.953   9.503
 1177W        W 5299   7.933   9.382   2.808
 1178W        W 5300   4.751   6.540   9.927
 1179W        W 5301   5.191   2.205   1.239
 1180W        W 5302   4.570   6.644  11.420
 1181W        W 5303   7.467   7.468   0.769
 1182W        W 5304   5.697  10.500   0.366
 1183W        W 5305  10.989   2.245  11.860
 1184W        W 5306   5.240   2.163  10.378
 1185W        W 5307   4.698   5.512  10.956
 1186W        W 5308   2.759   0.832   2.739
 1187W        W 5309   1.381   0.457   0.321
 1188W        W 5310  10.422   0.777   1.842
 1189W        W 5311   6.192   7.938  10.868
 1190W        W 5312   5.202   4.279   3.678
 1191W        W 5313   0.417   6.153   8.933
 1192W        W 5314   3.761   4.157   0.847
 1193W        W 5315   5.154   2.798   8.949
 1194W        W 5316   3.250   9.092  10.362
 1195W        W 5317   6.630   8.939  11.989
 1196W        W 5318   5.611   3.203  11.846
 1197W        W 5319   5.262   4.561   2.183
 1198W        W 5320   5.512   6.145   9.842
 1199W        W 5321   4.685   5.248  10.939
 1200W        W 5322   5.178   0.421   1.808
 1201W        W 5323   2.843  10.856   1.302
 1202W        W 5324   1.827   7.945  10.838
 1203W        W 5325   3.716   0.862   0.353
 1204W        W 5326   9.429   0.310  11.772
 1205W        W 5327   5.035   0.458   8.911
 1206W        W 5328   8.014   8.880  11.346
 1207W        W 5329   7.489   0.405  11.986
 1208W        W 5330  10.349  10.423   3.253
 1209W        W 5331   0.307   8.909   1.349
 1210W        W 5332   7.461   9.557   3.234
 1211W        W 5333   0.377   7.981   2.211
 1212W        W 5334  10.500   7.110   1.864
 1213W        W 5335   6.674  11.489  11.782
 1214W        W 5336   5.736   7.520   2.185
 1215W        W 5337   7.175   6.513  11.893
 1216W        W 5338   9.909   8.011   1.352
 1217W        W 5339   6.012   9.573   9.071
 1218W        W 5340   7.094  10.952   3.271
 1219W        W 5341   5.169  11.461   0.452
 1220W        W 5342   4.751  11.449  10.524
 1221W        W 5343  10.515   0.951   8.978
 1222W        W 5344   6.086   2.863   1.770
 1223W        W 5345  11.295   2.816   1.425
 1224W        W 5346   0.793   6.997  11.852
 1225W        W 5347   9.531  10.950   2.674
 1226W        W 5348  10.841   1.222  10.043
 1227W        W 5349   3.330   0.899   1.731
 1228W        W 5350   8.907   2.198   0.723
 1229W        W 5351   8.429  10.444   1.270
 1230W        W 5352   0.810   7.167   9.584
 1231W        W 5353   7.516   1.241   0.785
 1232W        W 5354   6.708   7.441   0.381
 1233W        W 5355   5.056  10.019  11.763
 1234W        W 5356  10.943   3.324   1.293
 1235W        W 5357   1.327   1.428  10.331
 1236W        W 5358   5.115   1.775   2.313
 1237W        W 5359   0.412   6.549   0.372
 1238W        W 5360   0.325   6.635  11.378
 1239W        W 5361   4.757   3.318  11.304
 1240W        W 5362   4.708  11.390  11.491
 1241W        W 5363   8.092   4.300   1.841
 1242W        W 5364   5.066   0.836   2.353
 1243W        W 5365   9.855   0.793   0.730
 1244W        W 5366   8.602   3.614   8.630
 1245W        W 5367   4.187   2.258   9.889
 1246W        W 5368   2.383   1.815   0.886
 1247W        W 5369   0.391  10.912   3.624
 1248W        W 5370  11.429   8.474  10.538
 1249W        W 5371   2.257   9.568   8.994
 1250W        W 5372   5.096   5.575   1.341
 1251W        W 5373   9.576   4.140   8.967
 1252W        W 5374  11.374   5.119   0.745
 1253W        W 5375   1.802   1.227   9.088
 1254W        W 5376   3.609   7.160   0.781
 1255W        W 5377   3.636   5.114   9.384
 1256W        W 5378   7.548  10.857   1.291
 1257W        W 5379   3.211   1.393  11.032
 1258W        W 5380   9.846   8.884  10.839
 1259W        W 5381   3.235   7.477   9.849
 1260W        W 5382  11.387   1.838  11.959
 1261W        W 5383  11.403   1.306   9.940
 1262W        W 5384   8.036   4.613   1.205
 1263W        W 5385   7.918  10.501  10.392
 1264W        W 5386  10.054   5.059   2.807
 1265W        W 5387   7.522   4.126  10.876
 1266W        W 5388  11.406   0.936  11.809
 1267W        W 5389   5.685   1.421  11.937
 1268W        W 5390   2.817   4.156  10.899
 1269W        W 5391   6.565   8.110  11.832
 1270W        W 5392   9.056   0.823  10.476
 1271W        W 5393   4.713   0.304  10.031
 1272W        W 5394   8.019   5.249   1.397
 1273W        W 5395   5.138  11.005   1.849
 1274W        W 5396   8.442  10.863   0.901
 1275W        W 5397  10.444   9.084   0.799
 1276W        W 5398  11.286   5.096   3.285
 1277W        W 5399   1.718   5.055   9.049
 1278W        W 5400   2.767   8.081   0.892
 1279W        W 5401   6.199   6.524   3.691
 1280W        W 5402   7.180   5.540   1.432
 1281W        W 5403   8.555   4.292   2.296
 1282W        W 5404  11.490   1.893   8.886
 1283W        W 5405   9.088   2.349   2.879
 1284W        W 5406   1.238   1.704   0.293
 1285W        W 5407   1.769   2.351   1.742
 1286W        W 5408   0.857   9.896   9.886
 1287W        W 5409   7.069   9.921  11.023
 1288W        W 5410   4.778   4.722   8.035
 1289W        W 5411   8.068   8.869  10.373
 1290W        W 5412   4.594   3.646   0.888
 1291W        W 5413   8.977   9.957  10.508
 1292W        W 5414   1.880   7.585  11.439
 1293W        W 5415   6.080   3.739   4.210
 1294W        W 5416  11.427   0.427  10.411
 1295W        W 5417   7.918  10.928  11.397
 1296W        W 5418   6.046   3.251   1.436
 1297W        W 5419   2.185   4.080  10.428
 1298W        W 5420   0.733   8.994   8.897
 1299W        W 5421   6.141   4.669   9.591
 1300W        W 5422  11.414   9.868   1.423
 1301W        W 5423   1.741  10.000  11.428
 1302W        W 5424   0.770   1.848   9.507
 1303W        W 5425   8.614   9.528   2.658
 1304W        W 5426   5.567   0.802   9.572
 1305W        W 5427   5.524   3.147   1.241
 1306W        W 5428   9.101   2.228   0.403
 1307W        W 5429   5.522   8.988   1.778
 1308W        W 5430   9.872   9.972   2.735
 1309W        W 5431   6.604   4.157   3.272
 1310W        W 5432   9.863   9.929   1.276
 1311W        W 5433   8.924   0.467  10.559
 1312W        W 5434   3.689   8.103   9.897
 1313W        W 5435   8.615   2.287   0.274
 1314W        W 5436   9.075   9.519   1.327
 1315W        W 5437   1.907   2.792   9.921
 1316W        W 5438   9.092   7.158   9.929
 1317W        W 5439   5.556   9.372   9.026
 1318W        W 5440   3.302   2.260  10.060
 1319W        W 5441   1.385   4.719  11.951
 1320W        W 5442  11.432   1.814   1.897
 1321W        W 5443   9.394   5.230   9.040
 1322W        W 5444  11.432  11.295   0.471
 1323W        W 5445   2.657  10.827   9.543
 1324W        W 5446   8.493   9.430   0.891
 1325W        W 5447   3.634   0.271   9.577
 1326W        W 5448   6.099   4.791  11.876
 1327W        W 5449   0.815  11.441   0.359
 1328W        W 5450   7.154   2.288   9.498
 1329W        W 5451   2.691   2.389   0.242
 1330W        W 5452   3.192   1.818   2.723
 1331W        W 5453  11.005   8.114  11.431
 1332W        W 5454   8.584   1.791   1.874
 1333W        W 5455   9.435   7.559   3.329
 1334W        W 5456   8.400   5.654  11.889
 1335W        W 5457   5.644   2.309  10.865
 1336W        W 5458   2.380   6.225   8.539
 1337W        W 5459  10.789   4.251   8.883
 1338W        W 5460   4.698  10.406   8.973
 1339W        W 5461   3.270   6.098  10.330
 1340W        W 5462  11.428   2.343   2.659
 1341W        W 5463   0.877   1.800  10.376
 1342W        W 5464   8.992   9.924   1.862
 1343W        W 5465   3.206   1.679   9.594
 1344W        W 5466   0.907  10.902   8.910
 1345W        W 5467  10.333   1.322  10.929
 1346W        W 5468  11.376   8.625  11.281
 1347W        W 5469   8.493   3.181   3.752
 1348W        W 5470   2.208  11.277   1.437
 1349W        W 5471   3.770  11.405   2.671
 1350W        W 5472   6.129   4.202  11.467
 1351W        W 5473   2.280   9.077   0.756
 1352W        W 5474   0.871   0.388   2.641
 1353W        W 5475   7.639  10.883   2.660
 1354W        W 5476   3.603   7.933   8.571
 1355W        W 5477   6.204   6.530   0.260
 1356W        W 5478  11.444   7.644  11.939
 1357W        W 5479   1.753   4.283   8.995
 1358W        W 5480   5.620  11.339   2.698
 1359W        W 5481  11.322   7.642   1.265
 1360W        W 5482   6.194   4.654   0.938
 1361W        W 5483   4.695   3.780  10.968
 1362W        W 5484   8.439   2.222   1.401
 1363W        W 5485   1.829  10.844  10.806
 1364W        W 5486   7.648   4.261   3.144
 1365W        W 5487   6.497   8.531   9.032
 1366W        W 5488   7.515   2.176   2.653
 1367W        W 5489   1.803   6.966  11.433
 1368W        W 5490   7.177   1.908  11.383
 1369W        W 5491   5.702   6.606   2.764
 1370W        W 5492   8.879   3.175   1.245
 1371W        W 5493   9.503   7.433   0.268
 1372W        W 5494   8.016   2.832  11.908
 1373W        W 5495   0.450   7.107  11.903
 1374W        W 5496  10.892  10.977   2.758
 1375W        W 5497   5.560   2.234   3.734
 1376W        W 5498   0.943   2.363  11.361
 1377W        W 5499   9.983   9.384   2.213
 1378W        W 5500   0.880   8.395   8.557
 1379W        W 5501   9.045   4.201   2.364
 1380W        W 5502   6.071  10.337   1.849
 1381W        W 5503   5.545   4.151   3.830
 1382W        W 5504   3.602   9.917   8.959
 1383W        W 5505  10.928  10.924  10.349
 1384W        W 5506   3.777   9.850  10.534
 1385W        W 5507   2.673   7.466   1.288
 1386W        W 5508  10.907   9.973   0.789
 1387W        W 5509   0.859   3.800   1.720
 1388W        W 5510   2.343   0.741   9.997
 1389W        W 5511   7.075   1.222   0.912
 1390W        W 5512   6.673   4.186  11.796
 1391W        W 5513  10.950   8.450   1.761
 1392W        W 5514   0.893   0.801  10.934
 1393W        W 5515   3.669  11.267  10.489
 1394W        W 5516   9.567   0.886   2.712
 1395W        W 5517   9.448   2.185  11.963
 1396W        W 5518   1.679  10.931  11.821
 1397W        W 5519   9.975   6.133  11.918
 1398W        W 5520   6.601   4.587   1.201
 1399W        W 5521   2.725   7.496   8.947
 1400W        W 5522   9.088  11.411   3.174
 1401W        W 5523  10.905   9.884   3.610
 1402W        W 5524   1.309   5.740   3.217
 1403W        W 5525   2.379   7.999   1.329
 1404W        W 5526   0.457   3.191   2.854
 1405W        W 5527   6.503   6.678   0.797
 1406W        W 5528   3.197   9.995   3.303
 1407W        W 5529   3.745   0.373   1.375
 1408W        W 5530   2.667   1.290   9.919
 1409W        W 5531   3.328   7.083   0.420
 1410W        W 5532  10.817   1.803   9.103
 1411W        W 5533   2.769   3.599  11.805
 1412W        W 5534   5.549   5.082   1.392
 1413W        W 5535   6.203   2.862  11.901
 1414W        W 5536   6.156   1.269  10.397
 1415W        W 5537   4.683   8.110  11.380
 1416W        W 5538  11.359   9.528   9.120
 1417W        W 5539  11.468   9.853   0.406
 1418W        W 5540   7.541   7.111   9.372
 1419W        W 5541   3.318  10.426   8.947
 1420W        W 5542   2.270   6.970   2.330
 1421W        W 5543   9.020   4.614  10.526
 1422W        W 5544   8.890   3.243   3.159
 1423W        W 5545   7.543   7.008   2.301
 1424W        W 5546   9.004   6.505   0.863
 1425W        W 5547   5.533  11.404   9.028
 1426W        W 5548   0.908   9.850  11.782
 1427W        W 5549  10.809  10.895   1.722
 1428W        W 5550   5.732  10.526   2.776
 1429W        W 5551   3.819   1.713   2.245
 1430W        W 5552   3.171   4.696  11.779
 1431W        W 5553   7.118   9.466   2.867
 1432W        W 5554   4.142   1.313  10.523
 1433W        W 5555   3.607  10.904  10.323
 1434W        W 5556   5.634   4.160  11.470
 1435W        W 5557   7.028   9.100   1.395
 1436W        W 5558   8.942   1.283  10.346
 1437W        W 5559   1.818   3.728  10.339
 1438W        W 5560   0.464   5.046   9.532
 1439W        W 5561   3.289   7.614  11.431
 1440W        W 5562   6.646   2.675   1.804
 1441W        W 5563   4.230  11.287   9.368
 1442W        W 5564   1.207   4.293   3.274
 1443W        W 5565   4.174   8.137   2.184
 1444W        W 5566   5.745   1.199  10.879
 1445W        W 5567   1.851   7.170   9.932
 1446W        W 5568   1.883   3.651  11.870
 1447W        W 5569   3.190   8.518   1.227
 1448W        W 5570   8.099   7.643   0.726
 1449W        W 5571   4.554   1.864   9.483
 1450W        W 5572   7.556   1.426   2.343
 1451W        W 5573   7.529   1.367   9.373
 1452W        W 5574   9.391   0.375   8.562
 1453W        W 5575   3.293   2.689   3.315
 1454W        W 5576   2.859   9.838   1.690
 1455W        W 5577   1.303   0.304  10.055
 1456W        W 5578   4.076   4.172  10.436
 1457W        W 5579   2.258   5.131   1.202
 1458W        W 5580   5.081   3.739   4.282
 1459W        W 5581   3.801   9.027  10.974
 1460W        W 5582   6.994   8.933   9.577
 1461W        W 5583   8.920  10.470   9.390
 1462W        W 5584   6.563   1.427   3.141
 1463W        W 5585   2.231   9.974   2.827
 1464W        W 5586   4.211   6.127  10.824
 1465W        W 5587   4.298   9.421   0.737
 1466W        W 5588   4.619  11.310   2.397
 1467W        W 5589   1.255   1.277  10.900
 1468W        W 5590   2.827  11.379  11.850
 1469W        W 5591   8.456   0.766   1.242
 1470W        W 5592   5.075   3.322  10.978
 1471W        W 5593   9.573   0.797   3.258
 1472W        W 5594   3.162   2.837   2.668
 1473W        W 5595  11.421   2.318   3.354
 1474W        W 5596   8.611   9.457   3.336
 1475W        W 5597   6.008   7.558   8.522
 1476W        W 5598   3.124   2.181   0.413
 1477W        W 5599   3.600  10.519  11.821
 1478W        W 5600   2.380   4.260   0.948
 1479W        W 5601   8.612   0.891  10.860
 1480W        W 5602  10.484  10.391   9.891
 1481W        W 5603   2.709   8.033   0.280
 1482W        W 5604   8.468   8.593   8.431
 1483W        W 5605   8.105   6.007   8.035
 1484W        W 5606   5.667  10.369   1.833
 1485W        W 5607   6.680   8.067   0.828
 1486W        W 5608   5.709   2.182   9.048
 1487W        W 5609   3.239   1.777   2.392
 1488W        W 5610   3.206   5.567  10.441
 1489W        W 5611  11.375   2.647   3.297
 1490W        W 5612   6.047   2.868   3.727
 1491W        W 5613   6.125  10.479   1.309
 1492W        W 5614  10.029   1.324  11.343
 1493W        W 5615  10.388   0.790   0.424
 1494W        W 5616   2.665   5.644   2.742
 1495W        W 5617   6.084   9.017   2.671
 1496W        W 5618   5.637   8.402   9.983
 1497W        W 5619  10.881  10.016   0.276
 1498W        W 5620   6.492   4.304   8.954
 1499W        W 5621   8.407   8.113  11.940
 1500W        W 5622   7.533   4.229  10.445
 1501W        W 5623   4.733   5.615  10.399
 1502W        W 5624   8.888   4.681   0.847
 1503W        W 5625   4.786   9.900   3.702
 1504W        W 5626   2.333   7.124   1.309
 1505W        W 5627   9.984   2.698  10.959
 1506W        W 5628   1.402   1.741   9.414
 1507W        W 5629   9.505   9.444   0.473
 1508W        W 5630  10.369   1.738   0.367
 1509W        W 5631   4.190   4.556   9.467
 1510W        W 5632   2.321   6.550   9.597
 1511W        W 5633   9.471   6.621   9.049
 1512W        W 5634   7.603   9.465  10.343
 1513W        W 5635   2.248   8.033   1.851
 1514W        W 5636   7.918   8.522   8.889
 1515W        W 5637   9.950   2.232   0.768
 1516W        W 5638   8.879   7.564  11.309
 1517W        W 5639   8.457   4.556   2.812
 1518W        W 5640   8.603   6.568   9.433
 1519W        W 5641   1.770  10.917   1.765
 1520W        W 5642   8.019   6.701   9.387
 1521W        W 5643  11.314   6.015   3.185
 1522W        W 5644   8.045   0.426  11.323
 1523W        W 5645   7.666   7.136   0.306
 1524W        W 5646   0.274   5.529   2.194
 1525W        W 5647   5.257  10.893  10.439
 1526W        W 5648   7.453   7.912   2.374
 1527W        W 5649   6.169   1.909   8.908
 1528W        W 5650   6.483   6.217   9.969
 1529W        W 5651   8.950   4.219   3.143
 1530W        W 5652   5.670   9.379  11.323
 1531W        W 5653   7.514   9.827  11.797
 1532W        W 5654   8.539   3.718   0.433
 1533W        W 5655   8.865  11.349  11.810
 1534W        W 5656   5.073  11.367   0.795
 1535W        W 5657   4.727   3.230   9.019
 1536W        W 5658   1.824   4.701   9.071
 1537W        W 5659   5.613   6.512  10.542
 1538W        W 5660   1.338   1.239  11.966
 1539W        W 5661   6.132   7.933   0.272
 1540W        W 5662   9.922   8.560   0.731
 1541W        W 5663  10.999   2.742   1.436
 1542W        W 5664   0.428  10.480  11.520
 1543W        W 5665   6.043   0.812  11.960
 1544W        W 5666   1.437   8.949  11.795
 1545W        W 5667   2.218   1.282  10.326
 1546W        W 5668   2.220   9.384   9.488
 1547W        W 5669   5.240   9.366   3.235
 1548W        W 5670   6.499   9.425   2.251
 1549W        W 5671   6.103   5.701  10.374
 1550W        W 5672   8.505   3.172   3.216
 1551W        W 5673   3.759   0.326  10.877
 1552W        W 5674   7.439   5.196   9.973
 1553W        W 5675   7.660   5.742  11.324
 1554W        W 5676   2.788   1.205   0.317
 1555W        W 5677   8.487   9.916   1.278
 1556W        W 5678  10.782   5.078  11.947
 1557W        W 5679   3.246   4.749   3.295
 1558W        W 5680   0.432   0.753  11.823
 1559W        W 5681   8.516   7.163  10.376
 1560W        W 5682   0.900   8.073  10.061
 1561W        W 5683   0.362   0.813  11.352
 1562W        W 5684   6.160   9.001   0.792
 1563W        W 5685   4.688   0.361   1.858
 1564W        W 5686   2.711   0.463   9.051
 1565W        W 5687   7.657   3.248   2.837
 1566W        W 5688   8.962   3.300   9.597
 1567W        W 5689   2.764   4.217   3.320
 1568W        W 5690   1.677   2.723  10.531
 1569W        W 5691  10.863  10.014   9.372
 1570W        W 5692   0.380   7.604  10.918
 1571W        W 5693   9.016   6.137   2.190
 1572W        W 5694   7.475   5.639  11.853
 1573W        W 5695   6.148   5.191  11.307
 1574W        W 5696   1.426   5.999   1.680
 1575W        W 5697   1.883   6.029   1.283
 1576W        W 5698  10.902   4.168   0.280
 1577W        W 5699   9.551   6.159   9.922
 1578W        W 5700   2.757   5.267  11.771
 1579W        W 5701   7.915   1.341   3.325
 1580W        W 5702   2.296   0.745  11.938
 1581W        W 5703   6.166   1.293  10.888
 1582W        W 5704   5.057   1.772  10.377
 1583W        W 5705  11.295   0.308   9.576
 1584W        W 5706   0.354   8.390   0.881
 1585W        W 5707   2.198   4.094  11.312
 1586W        W 5708   2.775   0.331   9.918
 1587W        W 5709   0.405   5.728   2.847
 1588W        W 5710   6.633   1.751  11.953
 1589W        W 5711   4.280   2.775  11.960
 1590W        W 5712   3.678   2.181   9.864
 1591W        W 5713   0.952   2.224  11.935
 1592W        W 5714   6.667   8.097   9.416
 1593W        W 5715   0.321  10.457   2.253
 1594W        W 5716   1.209   4.184   1.837
 1595W        W 5717   4.278  10.834   9.061
 1596W        W 5718  10.828   6.605   9.956
 1597W        W 5719   1.423  10.540   3.305
 1598W        W 5720   2.336   6.018   9.970
 1599W        W 5721   4.703   2.233   3.353
 1600W        W 5722   3.199   5.136  10.063
 1601W        W 5723   2.260   4.647  11.294
 1602W        W 5724  11.325   3.218  10.417
 1603W        W 5725   1.736   7.429   1.750
 1604W        W 5726   6.493   0.894   8.902
 1605W        W 5727   8.121   9.846  11.334
 1606W        W 5728  10.830   4.181  11.944
 1607W        W 5729   7.025   0.940  11.420
 1608W        W 5730   3.223   9.936   0.241
 1609W        W 5731   3.746   2.771   1.232
 1610W        W 5732   7.443   5.743  10.938
 1611W        W 5733   7.088   4.596  11.449
 1612W        W 5734   8.415   8.423   4.159
 1613W        W 5735   7.910   5.678   9.881
 1614W        W 5736  10.350   6.042   2.729
 1615W        W 5737   6.502   4.748  10.328
 1616W        W 5738   2.312   0.269   8.933
 1617W        W 5739   3.177   2.800  10.535
 1618W        W 5740   5.707   1.791   8.576
 1619W        W 5741   5.691   6.100   1.295
 1620W        W 5742   1.740   7.643   8.979
 1621W        W 5743   9.840   9.889  11.837
 1622W        W 5744   1.394   3.226   2.856
 1623W        W 5745   7.537  11.429   0.259
 1624W        W 5746   8.583  11.292   2.260
 1625W        W 5747   5.168   3.682   3.611
 1626W        W 5748   3.815   8.581   0.895
 1627W        W 5749   8.031   1.257   2.669
 1628W        W 5750   3.732   0.838   0.787
 1629W        W 5751   7.973   8.543   2.387
 1630W        W 5752  10.304   2.263   2.865
 1631W        W 5753   2.391   7.950  10.058
 1632W        W 5754  10.810   7.058  10.823
 1633W        W 5755   4.558   3.340   8.448
 1634W        W 5756   5.087   3.715   8.432
 1635W        W 5757   3.763   1.275   1.859
 1636W        W 5758  10.920   0.314   2.781
 1637W        W 5759  10.417   5.234   2.310
 1638W        W 5760   7.075   5.261  10.409
 1639W        W 5761   4.662   3.741   2.355
 1640W        W 5762   8.867   1.823   9.084
 1641W        W 5763   8.492   3.350   0.787
 1642W        W 5764   5.560   2.759  11.964
 1643W        W 5765   4.568  10.811   9.561
 1644W        W 5766   0.737   4.779  10.525
 1645W        W 5767   2.687   1.349   2.647
 1646W        W 5768   5.247   5.040   1.848
 1647W        W 5769   3.268   7.483   9.100
 1648W        W 5770   5.539   2.728   1.361
 1649W        W 5771   4.249   0.957   9.012
 1650W        W 5772   5.722   5.066  10.826
 1651W        W 5773  10.487   4.747  10.910
 1652W        W 5774  11.018   9.891   2.172
 1653W        W 5775   8.024   6.527   2.207
 1654W        W 5776   0.420   5.739   0.903
 1655W        W 5777   8.585   0.810   9.872
 1656W        W 5778  10.428   2.373  10.801
 1657W        W 5779   8.097   8.097   1.854
 1658W        W 5780   5.582   3.683   0.727
 1659W        W 5781   9.001   8.562  11.818
 1660W        W 5782   9.419   5.268   9.969
 1661W        W 5783   9.878   8.879   9.518
 1662W        W 5784  11.318   7.131   0.959
 1663W        W 5785   4.786  10.799  10.955
 1664W        W 5786   9.413  10.059   0.263
 1665W        W 5787   0.844   0.463   0.409
 1666W        W 5788   2.834   6.694   1.744
 1667W        W 5789   3.138   0.464  10.410
 1668W        W 5790   4.728   5.187   0.276
 1669W        W 5791   0.781   4.644   9.929
 1670W        W 5792   1.394   1.726   1.398
 1671W        W 5793   4.130   2.822   9.105
 1672W        W 5794   4.256   6.652   8.980
 1673W        W 5795   9.528  11.415   9.999
 1674W        W 5796  10.491   8.479   0.807
 1675W        W 5797  10.846   2.636   0.792
 1676W        W 5798   0.797  10.829   3.209
 1677W        W 5799   9.094  11.291   2.257
 1678W        W 5800  10.439   3.828  10.872
 1679W        W 5801   1.693   7.480  10.884
 1680W        W 5802   0.957  11.399   2.385
 1681W        W 5803   4.110   1.239   1.396
 1682W        W 5804   0.310   4.751   9.488
 1683W        W 5805  11.296  10.797   1.257
 1684W        W 5806   1.203   8.579  11.438
 1685W        W 5807   1.686   3.218   9.064
 1686W        W 5808   4.268   2.332  10.475
 1687W        W 5809   0.357   3.205   3.348
 1688W        W 5810   2.745   9.408   2.732
 1689W        W 5811   7.580   7.001  11.958
 1690W        W 5812   1.781  11.452  10.822
 1691W        W 5813   7.500   9.972  11.478
 1692W        W 5814  11.484   4.756  11.280
 1693W        W 5815  10.818   2.281   9.073
 1694W        W 5816   8.464   6.693  10.011
 1695W        W 5817   0.472  10.784  11.912
 1696W        W 5818   2.735   6.691   4.293
 1697W        W 5819   4.731   7.082  11.510
 1698W        W 5820   9.990   1.313   1.845
 1699W        W 5821   5.222   1.204   2.741
 1700W        W 5822   1.833   4.760   1.870
 1701W        W 5823   3.806   9.961   2.717
 1702W        W 5824   8.896   2.780   2.231
 1703W        W 5825   4.711   8.409   8.953
 1704W        W 5826   6.657   3.712   9.492
 1705W        W 5827   9.929   7.146   8.952
 1706W        W 5828   4.687   2.748   9.497
 1707W        W 5829   8.551   8.918   2.274
 1708W        W 5830   2.198   0.825  10.331
 1709W        W 5831   2.652   4.552   0.336
 1710W        W 5832   6.188   7.943   9.386
 1711W        W 5833   1.683   1.384   2.194
 1712W        W 5834   4.108   1.276   1.706
 1713W        W 5835   1.284   8.387   1.331
 1714W        W 5836   2.839   2.183  11.497
 1715W        W 5837   8.403   1.245   3.330
 1716W        W 5838   5.044   7.079   9.518
 1717W        W 5839   2.803   3.717   2.297
 1718W        W 5840  10.456   8.095   0.318
 1719W        W 5841   3.763   6.037   0.349
 1720W        W 5842   3.748   0.745  10.839
 1721W        W 5843   5.705   3.302   1.783
 1722W        W 5844   7.153   3.707  11.354
 1723W        W 5845   3.728   0.911   3.300
 1724W        W 5846   2.353   1.883  11.005
 1725W        W 5847   2.369   5.234   0.310
 1726W        W 5848  11.428   4.257  10.329
 1727W        W 5849   2.859   5.078   2.688
 1728W        W 5850   8.133   5.036   9.553
 1729W        W 5851   2.795   9.863   0.748
 1730W        W 5852   4.171   9.887  11.921
 1731W        W 5853   8.909   3.740  11.353
 1732W        W 5854  10.922  10.882   8.977
 1733W        W 5855  11.273  11.274   3.358
 1734W        W 5856   0.324   7.576   0.265
 1735W        W 5857   4.669   2.195  11.019
 1736W        W 5858   7.930   3.214   1.204
 1737W        W 5859   9.093   6.102   2.875
 1738W        W 5860   1.424   8.526   9.006
 1739W        W 5861  10.937   5.712  10.017
 1740W        W 5862   5.611   0.296   0.312
 1741W        W 5863   2.170   8.119   2.775
 1742W        W 5864   0.344   0.282   3.697
 1743W        W 5865   0.883   2.261   2.232
 1744W        W 5866   8.052   7.524   2.171
 1745W        W 5867   9.059   1.856   2.737
 1746W        W 5868   2.264   5.689  11.318
 1747W        W 5869   6.123   7.957  10.515
 1748W        W 5870   7.950   8.104  11.470
 1749W        W 5871   0.386   4.300   3.292
 1750W        W 5872  11.361   5.066   2.717
 1751W        W 5873   2.804  10.322   0.328
 1752W        W 5874   6.123   3.169   2.302
 1753W        W 5875   2.182   4.680   2.809
 1754W        W 5876   9.018  11.424  11.506
 1755W        W 5877   4.657   9.926   2.873
 1756W        W 5878   8.536   7.623  10.865
 1757W        W 5879   4.591   9.465   9.841
 1758W        W 5880   8.134   0.740  11.838
 1759W        W 5881   1.730   9.558   9.568
 1760W        W 5882   7.560   1.779   3.305
 1761W        W 5883   8.884   1.346   9.044
 1762W        W 5884   1.916   7.510   9.949
 1763W        W 5885  11.473  10.853  10.425
 1764W        W 5886   0.347   0.286  11.006
 1765W        W 5887   4.075  10.425   9.043
 1766W        W 5888   6.498   4.610   8.057
 1767W        W 5889   8.466  11.412  11.412
 1768W        W 5890   4.677   2.231   8.574
 1769W        W 5891   9.474   4.152   3.132
 1770W        W 5892   8.932   9.048   9.451
 1771W        W 5893   2.313   7.186   1.729
 1772W        W 5894   9.465   2.694  11.032
 1773W        W 5895   3.335   2.848   1.237
 1774W        W 5896   6.988   1.776   9.534
 1775W        W 5897   3.725   3.799  11.864
 1776W        W 5898  10.882   5.213  10.479
 1777W        W 5899   8.883   8.881   3.121
 1778W        W 5900  11.422   9.470   2.225
 1779W        W 5901   4.214   2.158   2.806
 1780W        W 5902   0.328   7.581   0.744
 1781W        W 5903   3.163   6.186   9.496
 1782W        W 5904   1.217   0.402  11.802
 1783W        W 5905  10.379   9.373   1.281
 1784W        W 5906   8.897   3.706  10.937
 1785W        W 5907   6.199   2.313  10.021
 1786W        W 5908  11.372   3.338  10.060
 1787W        W 5909   8.983   7.074   2.393
 1788W        W 5910   8.465   9.987  11.315
 1789W        W 5911   2.754  11.321   0.722
 1790W        W 5912   7.459   2.775   2.646
 1791W        W 5913  10.418   9.430   9.058
 1792W        W 5914   4.557   8.967   3.261
 1793W        W 5915   0.344   1.724   3.138
 1794W        W 5916   2.249   2.697   1.271
 1795W        W 5917   6.048   9.404  10.894
 1796W        W 5918   7.519   7.928   1.433
 1797W        W 5919   6.139   0.322   8.928
 1798W        W 5920   6.530  10.928   9.043
 1799W        W 5921   7.985   0.241   8.979
 1800W        W 5922   7.010   7.499   9.401
 1801W        W 5923   6.129   7.492   0.269
 1802W        W 5924   1.783   7.604   2.822
 1803W        W 5925  10.468   3.160   2.161
 1804W        W 5926   1.761   9.941   3.816
 1805W        W 5927  10.906   7.097   1.405
 1806W        W 5928   8.534   6.987   9.471
 1807W        W 5929   7.179   9.869   9.029
 1808W        W 5930   4.661   8.386   3.234
 1809W        W 5931   4.770   7.049  10.401
 1810W        W 5932   2.694   9.436  10.818
 1811W        W 5933   3.161   9.967  10.907
 1812W        W 5934   7.966   6.584  10.379
 1813W        W 5935  11.404   1.427   1.756
 1814W        W 5936   4.207   7.506   3.354
 1815W        W 5937   2.207   7.100   0.921
 1816W        W 5938   0.394   1.408   9.461
 1817W        W 5939  10.905  11.310   1.318
 1818W        W 5940   4.561   5.267   0.934
 1819W        W 5941   5.224   7.976   1.770
 1820W        W 5942   9.824   5.525   9.590
 1821W        W 5943   8.958   4.576   8.610
 1822W        W 5944  11.311   5.673  10.324
 1823W        W 5945  10.844   0.730   2.791
 1824W        W 5946   8.133   1.364   2.165
 1825W        W 5947   9.548   7.054  11.871
 1826W        W 5948   1.705   0.737  11.293
 1827W        W 5949   8.471   0.410   2.279
 1828W        W 5950  11.002   7.174   3.323
 1829W        W 5951  10.785   9.094   2.805
 1830W        W 5952   1.730   2.847  10.980
 1831W        W 5953   2.748   7.147   2.795
 1832W        W 5954   6.569   0.345   0.819
 1833W        W 5955   8.462   0.854   1.693
 1834W        W 5956   7.112   9.018  10.816
 1835W        W 5957   9.014   7.443   8.968
 1836W        W 5958   5.088   3.320   3.712
 1837W        W 5959   0.466   8.507  11.932
 1838W        W 5960   5.601   2.680   2.396
 1839W        W 5961  11.360   6.121   0.450
 1840W        W 5962   1.382   2.796   2.327
 1841W        W 5963   1.738   7.104   8.631
 1842W        W 5964   7.144   3.149  11.004
 1843W        W 5965  10.856   7.517  11.795
 1844W        W 5966   6.506   0.824   0.785
 1845W        W 5967   4.205   2.347  11.880
 1846W        W 5968   9.973   6.958  10.443
 1847W        W 5969   1.799  11.499  11.881
 1848W        W 5970   2.275   5.574   0.433
 1849W        W 5971   3.240  11.440  10.080
 1850W        W 5972   3.122   6.469   1.201
 1851W        W 5973  10.792   3.648   3.234
 1852W        W 5974   3.814   9.965   0.312
 1853W        W 5975   3.307   3.810   2.175
 1854W        W 5976   3.128  11.315  11.472
 1855W        W 5977   3.287   4.296   1.847
 1856W        W 5978   3.614   4.758   0.298
 1857W        W 5979   2.870   4.259   0.459
 1858W        W 5980   2.274  11.344   1.885
 1859W        W 5981   8.389   3.124   2.292
 1860W        W 5982   6.058  10.874   1.741
 1861W        W 5983   3.137  10.955   1.771
 1862W        W 5984   0.858   3.272   9.932
 1863W        W 5985   8.107  10.524  10.027
 1864W        W 5986   7.470   8.974  10.320
 1865W        W 5987   8.141   5.063   2.703
 1866W        W 5988   5.599  10.343   9.428
 1867W        W 5989   6.535   7.468   9.076
 1868W        W 5990   2.188   5.724   2.339
 1869W        W 5991   5.713   5.135  11.356
 1870W        W 5992   6.180   0.799   1.367
 1871W        W 5993   7.939   4.584   0.874
 1872W        W 5994   4.143   5.250   9.862
 1873W        W 5995   6.002   3.325  11.345
 1874W        W 5996  10.536   0.437   2.208
 1875W        W 5997   4.168  10.454   0.340
 1876W        W 5998   2.764   5.043  10.034
 1877W        W 5999   7.544   7.467   2.857
 1878W        W 6000   0.442   1.408  10.838
 1879W        W 6001   2.340  10.054   9.367
 1880W        W 6002   9.033   0.402   9.981
 1881W        W 6003   8.904  10.362  10.380
 1882W        W 6004   9.455   1.328   9.490
 1883W        W 6005  11.390   0.946   8.985
 1884W        W 6006   8.513   3.119   9.445
 1885W        W 6007   0.281   5.713  11.517
 1886W        W 6008   4.193   8.421   9.843
 1887W        W 6009   1.414   7.485  11.390
 1888W        W 6010   6.950   3.223   0.393
 1889W        W 6011   8.049   0.849   0.727
 1890W        W 6012   9.929  10.841   9.536
 1891W        W 6013   2.659   3.757   1.883
 1892W        W 6014   5.528   5.106   0.806
 1893W        W 6015   9.476   7.066   4.174
 1894W        W 6016   8.076  10.463   9.049
 1895W        W 6017   5.607   5.709  11.950
 1896W        W 6018   9.864   9.997   0.290
 1897W        W 6019   3.808  11.371   2.216
 1898W        W 6020   3.759   1.361  11.942
 1899W        W 6021   6.149   4.244   1.778
 1900W        W 6022   1.684   2.695   2.313
 1901W        W 6023   3.644   0.259   0.773
 1902W        W 6024  11.316   2.307   0.472
 1903W        W 6025   0.839   9.395   0.424
 1904W        W 6026   9.502   5.707  10.463
 1905W        W 6027   4.180   9.404   1.427
 1906W        W 6028   7.964   5.090  11.977
 1907W        W 6029   7.935   8.460   1.383
 1908W        W 6030   0.385   5.161   2.244
 1909W        W 6031   5.245   0.891   9.384
 1910W        W 6032   2.285   7.513   1.217
 1911W        W 6033   5.106   8.405   3.333
 1912W        W 6034   0.262   8.420  10.452
 1913W        W 6035   6.033   4.149  10.048
 1914W        W 6036  10.001   4.650  10.801
 1915W        W 6037   6.144   3.138   0.872
 1916W        W 6038   7.500  10.458   0.725
 1917W        W 6039   5.208   7.166   0.403
 1918W        W 6040   6.138   2.338  11.798
 1919W        W 6041   4.763   4.683  11.467
 1920W        W 6042   1.251   0.829  11.904
 1921W        W 6043   3.754   5.196  11.281
 1922W        W 6044   5.706   5.520   9.023
 1923W        W 6045  10.455   0.471  10.972
 1924W        W 6046   6.112   6.524   3.332
 1925W        W 6047   6.534   5.531  10.893
 1926W        W 6048   7.911   0.351   2.397
 1927W        W 6049   8.520   2.395   9.555
 1928W        W 6050  11.401   6.950  10.449
 1929W        W 6051   9.582   3.276   1.427
 1930W        W 6052   9.001   6.546   4.246
 1931W        W 6053  11.268  10.503   1.356
 1932W        W 6054   6.983   7.091   0.387
 1933W        W 6055   1.872   5.723  10.853
 1934W        W 6056   8.613   3.336  10.853
 1935W        W 6057   9.014   3.751   2.308
 1936W        W 6058   4.124   0.407  11.459
 1937W        W 6059   3.297   2.366   1.209
 1938W        W 6060   0.312   4.161   1.914
 1939W        W 6061   5.230   6.494   1.334
 1940W        W 6062   6.496   7.002   1.875
 1941W        W 6063   9.958   8.095   0.753
 1942W        W 6064   3.217   1.198   8.972
 1943W        W 6065   4.757   9.579   8.536
 1944W        W 6066   6.171   2.209   0.388
 1945W        W 6067  10.949   0.471  10.842
 1946W        W 6068   8.486   9.889   8.999
 1947W        W 6069   1.263   5.155   9.106
 1948W        W 6070   3.759   9.414   8.921
 1949W        W 6071   5.186  11.370  11.872
 1950W        W 6072  10.400   3.151  11.966
 1951W        W 6073   6.647   2.353  11.486
 1952W        W 6074   2.281   1.249  10.930
 1953W        W 6075   7.049   2.781  11.780
 1954W        W 6076   4.216   3.243   0.347
 1955W        W 6077   4.741   3.683   1.425
 1956W        W 6078   5.244   2.339   3.176
 1957W        W 6079   3.634   2.797   9.482
 1958W        W 6080   9.385   6.175   1.891
 1959W        W 6081   3.301   8.541   8.568
 1960W        W 6082   2.716   9.554  11.378
 1961W        W 6083  10.319  10.035  10.322
 1962W        W 6084   0.246   6.527  10.966
 1963W        W 6085   2.190   9.962   0.866
 1964W        W 6086   9.880   9.553   0.334
 1965W        W 6087   0.276   2.283   0.844
 1966W        W 6088   1.842   0.251   0.308
 1967W        W 6089   9.578   9.350   2.856
 1968W        W 6090  11.355   6.698  10.036
 1969W        W 6091   3.155   8.465   2.243
 1970W        W 6092   3.218   8.448  11.817
 1971W        W 6093   5.648   1.726   0.279
 1972W        W 6094   3.252   5.049   4.210
 1973W        W 6095   4.733   6.072  10.474
 1974W        W 6096   1.708   6.628  10.349
 1975W        W 6097   2.243   6.108   1.769
 1976W        W 6098   1.219   3.758   2.677
 1977W        W 6099   4.297   3.284  11.389
 1978W        W 6100   7.154   6.024   8.579
 1979W        W 6101   9.918  10.787  10.390
 1980W        W 6102   5.554   6.972   3.355
 1981W        W 6103   2.228   8.596   1.903
 1982W        W 6104   1.898   6.178   2.168
 1983W        W 6105   1.336   0.903   1.362
 1984W        W 6106   6.980   4.279  11.354
 1985W        W 6107   6.118   1.430   2.696
 1986W        W 6108   8.565   5.059   1.359
 1987W        W 6109   5.547   3.797  10.454
 1988W        W 6110   3.329   0.843  11.493
 1989W        W 6111   4.708   3.617   3.304
 1990W        W 6112   6.218   4.635   3.766
 1991W        W 6113   0.288   1.259   1.322
 1992W        W 6114   9.512  10.022  11.881
 1993W        W 6115   2.699   8.109  10.999
 1994W        W 6116   2.222   3.657  11.472
 1995W        W 6117   3.757   5.134  11.877
 1996W        W 6118   2.686   4.679  10.055
 1997W        W 6119   8.125   9.414   3.309
 1998W        W 6120   1.276   2.211  10.048
 1999W        W 6121   1.771   9.386   8.941
 2000W        W 6122   7.104   4.249   3.307
 2001W        W 6123   2.202   1.274   9.544
 2002W        W 6124   7.156  11.428   3.198
 2003W        W 6125   3.294   5.042   9.540
 2004W        W 6126   2.313   7.665   9.907
 2005W        W 6127   1.405   8.450   2.753
 2006W        W 6128   2.161   5.604  10.015
 2007W        W 6129   2.192   2.382   1.431
 2008W        W 6130   2.260   6.625  10.075
 2009W        W 6131   0.744   9.857  10.411
 2010W        W 6132   4.658   7.972   2.257
 2011W        W 6133   1.900   6.007   9.981
 2012W        W 6134  10.857   6.027   9.420
 2013W        W 6135   0.400   8.434   3.290
 2014W        W 6136   1.399   2.383   1.255
 2015W        W 6137   3.162   5.248   3.252
 2016W        W 6138   0.924   8.533   2.879
 2017W        W 6139   1.437   4.780   1.362
 2018W        W 6140   8.911   8.386   9.101
 2019W        W 6141   3.288   4.110   3.145
 2020W        W 6142   5.622   8.120   4.087
 2021W        W 6143  10.032   4.635   9.092
 2022W        W 6144   8.058   9.872   9.483
 2023W        W 6145  10.806  11.382   9.593
 2024W        W 6146   0.443   6.591   1.422
 2025W        W 6147   7.456   2.277   9.987
 2026W        W 6148   9.544   9.379   8.626
 2027W        W 6149   8.059   5.046   9.995
 2028W        W 6150   3.832   9.417   2.693
 2029W        W 6151   0.367   6.599   0.832
 2030W        W 6152  11.016   9.012   3.241
 2031W        W 6153   0.316   2.791   8.889
 2032W        W 6154   3.272  11.417   0.272
 2033W        W 6155   0.871   5.593  11.294
 2034W        W 6156   6.491   8.506   0.358
 2035W        W 6157   6.608   1.724   2.259
 2036W        W 6158   6.686   2.735  10.947
 2037W        W 6159   2.719   8.398  10.503
 2038W        W 6160   6.225   5.620   2.303
 2039W        W 6161   0.763   2.162  10.434
 2040W        W 6162   4.576  10.445   2.832
 2041W        W 6163   4.713   9.349   0.934
 2042W        W 6164   9.071  10.464   9.968
 2043W        W 6165   1.888   2.201   2.195
 2044W        W 6166   8.438  10.933  10.805
 2045W        W 6167   1.300   0.343   1.332
 2046W        W 6168   5.642   0.942   3.331
 2047W        W 6169   8.498  10.395   2.239
 2048W        W 6170   4.195   1.398   0.276
 2049W        W 6171   0.387   1.305   2.847
 2050W        W 6172   1.424   5.714   8.432
 2051W        W 6173   4.176   3.601   0.747
 2052W        W 6174   7.538   5.261   9.045
 2053W        W 6175   4.627   4.216  11.858
 2054W        W 6176   2.801   3.609  10.893
 2055W        W 6177   3.297   9.498  11.335
 2056W        W 6178   5.591   8.417   1.211
 2057W        W 6179  10.465  11.371  11.848
 2058W        W 6180   9.090   4.572   3.178
 2059W        W 6181  10.986   4.649   9.082
 2060W        W 6182  10.872   0.418   0.873
 2061W        W 6183   1.400   0.771  11.006
 2062W        W 6184   2.732   5.539  10.401
 2063W        W 6185   3.138   5.071   1.241
 2064W        W 6186   8.131   5.106   1.912
 2065W        W 6187   9.837   0.851   3.213
 2066W        W 6188   1.751   7.938   9.089
 2067W        W 6189   2.334   4.293  11.938
 2068W        W 6190   2.808   2.221   0.841
 2069W        W 6191   4.146   9.477   9.957
 2070W        W 6192   8.410  10.008   2.251
 2071W        W 6193   0.245  10.322   0.868
 2072W        W 6194   5.095   7.510  10.993
 2073W        W 6195   1.802   1.227  10.803
 2074W        W 6196   4.115   3.279   1.275
 2075W        W 6197   7.075   9.525  11.899
 2076W        W 6198   6.674   1.345   9.524
 2077W        W 6199  10.308   1.695  11.844
 2078W        W 6200  10.433  10.876   9.515
 2079W        W 6201   1.701   1.371  10.389
 2080W        W 6202   4.681   6.653   0.428
 2081W        W 6203   0.348   7.187   0.879
 2082W        W 6204  11.425   4.617   2.171
 2083W        W 6205   9.888   8.005   2.175
 2084W        W 6206   3.326   5.202   2.345
 2085W        W 6207   9.883   8.997   1.289
 2086W        W 6208   5.599  10.909   2.805
 2087W        W 6209  10.875  11.458   2.764
 2088W        W 6210  10.965  10.452   1.338
 2089W        W 6211   5.074  10.971  11.297
 2090W        W 6212   7.980   9.035   1.292
 2091W        W 6213   8.534   8.139   9.058
 2092W        W 6214   6.058   8.044   1.395
 2093W        W 6215   9.022   3.793   0.837
 2094W        W 6216   2.288   3.749  10.886
 2095W        W 6217  10.027   2.776   1.891
 2096W        W 6218   1.225   4.648   3.144
 2097W        W 6219   4.133   4.601   0.729
 2098W        W 6220   7.157  10.932   0.337
 2099W        W 6221   8.921  11.334  10.019
 2100W        W 6222  11.350   2.300  10.046
 2101W        W 6223   7.169   4.102   1.403
 2102W        W 6224   1.292   7.007   9.925
 2103W        W 6225   3.133   8.988   2.711
 2104W        W 6226   2.307   0.246   0.875
 2105W        W 6227   3.722   5.661   1.799
 2106W        W 6228   9.921   3.618   9.100
 2107W        W 6229   6.008   0.891   1.900
 2108W        W 6230  10.015   3.669  10.055
 2109W        W 6231   8.538  10.050   0.851
 2110W        W 6232   4.618   2.313   0.280
 2111W        W 6233   6.647   8.544   9.588
 2112W        W 6234   1.755   8.908   0.291
 2113W        W 6235   4.241   6.035   2.309
 2114W        W 6236  10.926   1.276   9.003
 2115W        W 6237  10.944   7.570   0.367
 2116W        W 6238  11.347   5.676   9.420
 2117W        W 6239   9.091   7.985  11.341
 2118W        W 6240   5.567   4.705   9.524
 2119W        W 6241   5.708   3.754   9.591
 2120W        W 6242   0.423   5.606   0.393
 2121W        W 6243   9.443   8.883   9.891
 2122W        W 6244   1.762   6.091   0.279
 2123W        W 6245   3.691   7.430  10.061
 2124W        W 6246   7.046   1.894   9.989
 2125W        W 6247   0.430   5.156  11.856
 2126W        W 6248   3.612   0.841   9.523
 2127W        W 6249   3.641   3.338   1.274
 2128W        W 6250  10.415  10.338   8.898
 2129W        W 6251   7.148   4.766  10.920
 2130W        W 6252   9.082   8.619   1.236
 2131W        W 6253   9.464   3.327   9.014
 2132W        W 6254   1.208   5.250  10.965
 2133W        W 6255   4.669   3.769   2.644
 2134W        W 6256   0.914   6.019  11.801
 2135W        W 6257   2.166   4.118  10.945
 2136W        W 6258   1.846   4.738   2.275
 2137W        W 6259   6.482   9.015   9.000
 2138W        W 6260   8.030   3.149  10.846
 2139W        W 6261   9.034   5.597  11.840
 2140W        W 6262   8.548   4.274   1.385
 2141W        W 6263   3.308   4.740  11.423
 2142W        W 6264   9.478   5.121  10.548
 2143W        W 6265   8.575   0.341   0.751
 2144W        W 6266   8.462   8.077   0.345
 2145W        W 6267   5.638   3.151   2.393
 2146W        W 6268   8.141  10.502   0.950
 2147W        W 6269   6.959   0.829  10.818
 2148W        W 6270   8.482   3.799   3.839
 2149W        W 6271   7.441  10.537   2.163
 2150W        W 6272   8.976   5.270   0.896
 2151W        W 6273   8.883   9.996   3.214
 2152W        W 6274  11.294   8.118   8.929
 2153W        W 6275   3.824   7.602   9.058
 2154W        W 6276   9.868   5.196   8.929
 2155W        W 6277   3.323  11.463   3.344
 2156W        W 6278   7.976   3.168  11.476
 2157W        W 6279   9.945   0.407   1.887
 2158W        W 6280   0.946   4.265   0.871
 2159W        W 6281   8.023  10.995  10.511
 2160W        W 6282   9.886   3.703  10.399
 2161W        W 6283   6.701   3.186   8.898
 2162W        W 6284   7.512   8.030   2.710
 2163W        W 6285   4.573   1.437  10.332
 2164W        W 6286   8.550   2.168   0.757
 2165W        W 6287   3.354  10.405   2.810
 2166W        W 6288   4.153   8.583  11.324
 2167W        W 6289  11.313   6.955   1.319
 2168W        W 6290  10.856   2.223   2.761
 2169W        W 6291   5.724   6.519   3.312
 2170W        W 6292   6.497   9.073   4.224
 2171W        W 6293   6.166  10.437   2.707
 2172W        W 6294   2.356   9.574   2.778
 2173W        W 6295   8.967   4.297   8.451
 2174W        W 6296   3.267   9.036  11.846
 2175W        W 6297   4.723   4.692  10.480
 2176W        W 6298   0.331   6.084   3.320
 2177W        W 6299   1.817   3.193   3.707
 2178W        W 6300   9.376   8.010  11.771
 2179W        W 6301   2.369   9.506   2.171
 2180W        W 6302   8.572   8.031  10.839
 2181W        W 6303   2.649   7.940   9.972
 2182W        W 6304   2.644   9.384   1.258
 2183W        W 6305   6.080   1.855   1.357
 2184W        W 6306   6.583   1.833   3.336
 2185W        W 6307  10.466   2.707   2.789
 2186W        W 6308   3.227   3.238   1.400
 2187W        W 6309   7.975   2.694  11.281
 2188W        W 6310   6.223   6.155  10.920
 2189W        W 6311   2.727   3.285   2.789
 2190W        W 6312   0.389  10.337   9.573
 2191W        W 6313  11.316   9.397   0.957
 2192W        W 6314   6.505   7.148  11.329
 2193W        W 6315   0.351   2.763   0.392
 2194W        W 6316   9.390   6.038   0.929
 2195W        W 6317   2.740   8.589  11.963
 2196W        W 6318   4.688   8.141   0.885
 2197W        W 6319   6.556   3.343  11.938
 2198W        W 6320   1.736   5.699   8.918
 2199W        W 6321  10.951   0.259  11.316
 2200W        W 6322   8.954   7.493  10.465
 2201W        W 6323   5.034   0.736   0.317
 2202W        W 6324   7.438  10.395   0.302
 2203W        W 6325  10.872   1.820  11.918
 2204W        W 6326   5.670   6.487   0.384
 2205W        W 6327   9.921   4.145   9.095
 2206W        W 6328   7.591   6.646   9.370
 2207W        W 6329   9.377   2.826   0.299
 2208W        W 6330   8.021   7.158   9.972
 2209W        W 6331   1.699   8.131   2.325
 2210W        W 6332   5.612   3.599  10.902
 2211W        W 6333   9.952   1.824   0.833
 2212W        W 6334   1.435   6.226   0.426
 2213W        W 6335   5.232   8.602   9.550
 2214W        W 6336   3.286   0.467   8.629
 2215W        W 6337   3.223   9.403   1.316
 2216W        W 6338   8.117   2.728   2.783
 2217W        W 6339   2.332   1.682   1.786
 2218W        W 6340  10.001   9.416  11.473
 2219W        W 6341   5.117   3.611   7.980
 2220W        W 6342   0.418   1.383   0.273
 2221W        W 6343   2.653   4.153   9.456
 2222W        W 6344   3.787   5.207  10.026
 2223W        W 6345   6.223   5.696  10.934
 2224W        W 6346   5.550   6.213   2.190
 2225W        W 6347   2.217   0.889   2.193
 2226W        W 6348   9.079   6.512   2.229
 2227W        W 6349   3.755   5.693  11.327
 2228W        W 6350   5.606   1.770  11.011
 2229W        W 6351   0.773   7.972   0.440
 2230W        W 6352  11.397   1.788   2.214
 2231W        W 6353   6.982   5.056   0.950
 2232W        W 6354  11.435   2.194  11.397
 2233W        W 6355   7.165   8.093   2.669
 2234W        W 6356   9.536   6.681   1.317
 2235W        W 6357   1.384   3.773   9.888
 2236W        W 6358   7.605   5.649   2.219
 2237W        W 6359   3.320   8.974   0.935
 2238W        W 6360   3.245   3.802   1.280
 2239W        W 6361   9.353   9.972   0.903
 2240W        W 6362   5.125   8.868   3.158
 2241W        W 6363   8.980   8.000   0.267
 2242W        W 6364   7.170   9.399   1.885
 2243W        W 6365   5.590   1.330   0.840
 2244W        W 6366   7.484   7.977   9.569
 2245W        W 6367   1.891  10.868   3.675
 2246W        W 6368   8.418   1.346   2.798
 2247W        W 6369   9.517   5.628   9.517
 2248W        W 6370  10.314   9.513   0.722
 2249W        W 6371   8.471   6.094   3.767
 2250W        W 6372   2.280   6.185  11.027
 2251W        W 6373   8.133   4.718   2.780
 2252W        W 6374   5.238   2.287   0.293
 2253W        W 6375   9.536   6.567   3.201
 2254W        W 6376  11.490   3.648   0.405
 2255W        W 6377  10.908   3.668   1.330
 2256W        W 6378   6.505   7.444  10.459
 2257W        W 6379   9.505  10.883  11.001
 2258W        W 6380   5.724   0.475   9.061
 2259W        W 6381   1.833   5.526  10.347
 2260W        W 6382   7.010   9.847   9.864
 2261W        W 6383   3.757   1.832   1.431
 2262W        W 6384   6.503   4.192  11.398
 2263W        W 6385   2.232  10.912   2.298
 2264W        W 6386   1.891   8.965   9.079
 2265W        W 6387   5.723   4.281   1.434
 2266W        W 6388   6.123   5.606   3.357
 2267W        W 6389  11.000   9.995  10.429
 2268W        W 6390   4.643   0.859   9.529
 2269W        W 6391   5.635   2.297   3.357
 2270W        W 6392   1.705   6.482  10.044
 2271W        W 6393   4.783   5.671  10.047
 2272W        W 6394   3.143   8.106   2.740
 2273W        W 6395   1.345  10.530   1.845
 2274W        W 6396   0.786   3.237   1.819
 2275W        W 6397   7.973   8.602   2.797
 2276W        W 6398   8.895   3.261  11.797
 2277W        W 6399  10.412   4.154   0.441
 2278W        W 6400   9.021   7.932  11.800
 2279W        W 6401   9.917   1.712   2.790
 2280W        W 6402   0.911   8.872   9.524
 2281W        W 6403   9.540  10.041   1.411
 2282W        W 6404   6.075   2.353   8.971
 2283W        W 6405   9.068   5.663   0.810
 2284W        W 6406  10.437   1.299   8.948
 2285W        W 6407   3.647  10.461   3.278
 2286W        W 6408   3.682   8.420   1.773
 2287W        W 6409   8.497   0.913  10.334
 2288W        W 6410   5.117   7.609   2.282
 2289W        W 6411   7.079   9.889  10.478
 2290W        W 6412  10.319   6.210   9.404
 2291W        W 6413   2.752   1.734   9.884
 2292W        W 6414  10.505   6.200   1.858
 2293W        W 6415   9.879   2.375   3.274
 2294W        W 6416   5.650   2.179  10.446
 2295W        W 6417   0.928   2.683  10.416
 2296W        W 6418   5.623   8.976   1.401
 2297W        W 6419   8.997   6.167   0.424
 2298W        W 6420  10.837   8.492  11.862
 2299W        W 6421  10.952   1.895   9.899
 2300W        W 6422  10.976   8.127   9.030
 2301W        W 6423   3.735   1.797  11.877
 2302W        W 6424   9.999  10.524  10.984
 2303W        W 6425  10.919   4.739   1.247
 2304W        W 6426   9.976   0.804   1.877
 2305W        W 6427   7.575   4.615   3.199
 2306W        W 6428   1.773   7.583   1.435
 2307W        W 6429   7.101   2.834   9.480
 2308W        W 6430  10.474  11.283   1.361
 2309W        W 6431   1.205   8.998   0.281
 2310W        W 6432   1.361   2.873  10.887
 2311W        W 6433   5.632   9.550  11.933
 2312W        W 6434   2.256   9.973   1.769
 2313W        W 6435   5.563  10.915  11.980
 2314W        W 6436   8.948   1.786  10.841
 2315W        W 6437   3.750   6.214   9.892
 2316W        W 6438   7.584   1.299   3.351
 2317W        W 6439   7.127   1.412   1.854
 2318W        W 6440   9.967   3.209   8.922
 2319W        W 6441   3.330   8.002  11.334
 2320W        W 6442   6.675   0.795   1.850
 2321W        W 6443   7.555   1.214   0.398
 2322W        W 6444   6.543   3.137   0.450
 2323W        W 6445   6.112   5.655   1.222
 2324W        W 6446   3.322   0.828  11.026
 2325W        W 6447   4.255   2.197   1.850
 2326W        W 6448   9.915   3.128   0.927
 2327W        W 6449   4.219   9.939   3.168
 2328W        W 6450   3.172   6.079  11.412
 2329W        W 6451   5.099   4.142   4.097
 2330W        W 6452   0.791   6.634   0.345
 2331W        W 6453  10.005   7.926   8.615
 2332W        W 6454   4.757   9.049   2.399
 2333W        W 6455   7.952   9.029  10.887
 2334W        W 6456   3.785   2.283   9.477
 2335W        W 6457   3.717   3.613   9.443
 2336W        W 6458   5.155   2.320   2.335
 2337W        W 6459   9.982   4.686   9.463
 2338W        W 6460   9.430  11.349   8.942
 2339W        W 6461   4.638  10.802   9.012
 2340W        W 6462   3.729   1.277  10.463
 2341W        W 6463   6.191   3.630   9.888
 2342W        W 6464   9.445   4.168   3.636
 2343W        W 6465   0.323   8.049  10.811
 2344W        W 6466  11.418   4.125  10.951
 2345W        W 6467  11.445   8.943   1.210
 2346W        W 6468   3.787   7.927   1.223
 2347W        W 6469   8.079  11.404   0.310
 2348W        W 6470   5.674  11.443   9.384
 2349W        W 6471   2.810   9.989   3.282
 2350W        W 6472  10.429   5.723  11.377
 2351W        W 6473   6.200   0.796   3.824
 2352W        W 6474   1.410   0.288  10.450
 2353W        W 6475   8.387  10.051   8.540
 2354W        W 6476   1.714   6.161   3.274
 2355W        W 6477   5.717   7.955   0.463
 2356W        W 6478   0.788   7.128  11.479
 2357W        W 6479   5.666   5.142   2.837
 2358W        W 6480   6.651   4.206  10.921
 2359W        W 6481   2.377   2.738  10.888
 2360W        W 6482   9.356  10.782   0.770
 2361W        W 6483   9.070   6.954   1.895
 2362W        W 6484   6.606   0.738  11.325
 2363W        W 6485   5.057   0.752  10.804
 2364W        W 6486   3.140   0.882   2.160
 2365W        W 6487   7.953   6.092  11.032
 2366W        W 6488   3.620   2.771   9.940
 2367W        W 6489   5.644   0.328   2.386
 2368W        W 6490   6.005   1.859  11.498
 2369W        W 6491   0.951   1.696   0.896
 2370W        W 6492  10.802   6.195  11.453
 2371W        W 6493   0.804   7.581   9.499
 2372W        W 6494   0.389   8.576   2.738
 2373W        W 6495   3.784   9.534   1.305
 2374W        W 6496   2.275   2.384   9.978
 2375W        W 6497   4.695   4.257   1.754
 2376W        W 6498   6.167   4.754   0.351
 2377W        W 6499  10.390   7.120   0.264
 2378W        W 6500   3.182   4.195   9.473
 2379W        W 6501   0.791   7.657   0.803
 2380W        W 6502   0.814   7.641   0.352
 2381W        W 6503   0.457   4.766   2.382
 2382W        W 6504   6.973   6.473  10.474
 2383W        W 6505   8.560   1.911   0.801
 2384W        W 6506   2.302   0.340   2.844
 2385W        W 6507   9.919   5.620   0.273
 2386W        W 6508   9.852  11.305   0.783
 2387W        W 6509   5.132   0.449  11.890
 2388W        W 6510   1.240   2.861  10.491
 2389W        W 6511   7.491  11.379   3.270
 2390W        W 6512   3.348  10.002   1.228
 2391W        W 6513  10.416  10.987   2.849
 2392W        W 6514   4.293   5.153   0.912
 2393W        W 6515   9.537  11.014   2.191
 2394W        W 6516   2.749   6.705  11.292
 2395W        W 6517   4.102   0.818   1.414
 2396W        W 6518   9.998   5.714  10.846
 2397W        W 6519   0.752   6.649   2.226
 2398W        W 6520   5.727   8.616   2.160
 2399W        W 6521   4.077   9.438  11.829
 2400W        W 6522   2.845   1.844  10.974
 2401W        W 6523   1.794   2.753   1.361
 2402W        W 6524   2.712   2.687   1.301
 2403W        W 6525   2.793   2.768  10.333
 2404W        W 6526  11.369   5.588   8.880
 2405W        W 6527  10.356  11.000   0.919
 2406W        W 6528   1.818   4.740   9.493
 2407W        W 6529  11.008   1.368   0.319
 2408W        W 6530   4.291   7.090   3.219
 2409W        W 6531   4.103   0.348   9.384
 2410W        W 6532   8.928   5.032   3.193
 2411W        W 6533  10.534   8.995   2.277
 2412W        W 6534   8.416   0.808   2.684
 2413W        W 6535   8.409   5.701   2.161
 2414W        W 6536  10.872   0.867   3.146
 2415W        W 6537  10.492   6.131   1.283
 2416W        W 6538   0.923   7.952  10.335
 2417W        W 6539   8.599   6.629  11.471
 2418W        W 6540   0.240   0.859  10.995
 2419W        W 6541   6.000   2.350   9.507
 2420W        W 6542   6.598   8.596  11.344
 2421W        W 6543   3.252  10.950   2.312
 2422W        W 6544  10.793   6.471  10.397
 2423W        W 6545   6.177   7.906   2.710
 2424W        W 6546   0.901   4.263   9.917
 2425W        W 6547   9.469   5.168   8.495
 2426W        W 6548   7.586  11.397   1.252
 2427W        W 6549   6.224  10.937   0.327
 2428W        W 6550   7.972   5.245   3.735
 2429W        W 6551   2.788   7.069  11.289
 2430W        W 6552   9.075   1.706   9.923
 2431W        W 6553   3.682  10.490  10.872
 2432W        W 6554   0.459  10.329   2.711
 2433W        W 6555  11.306   3.609  10.550
 2434W        W 6556   4.607  10.902  10.493
 2435W        W 6557   1.768   1.743  10.356
 2436W        W 6558   1.691   1.898   0.939
 2437W        W 6559   9.460   6.949   0.261
 2438W        W 6560   3.291   9.036  10.069
 2439W        W 6561   5.126   9.099   1.738
 2440W        W 6562   3.316  10.328   9.509
 2441W        W 6563   1.297   6.136   1.221
 2442W        W 6564  10.920   3.261   3.359
 2443W        W 6565   3.328   3.806   0.264
 2444W        W 6566  11.445   2.332   9.014
 2445W        W 6567   0.296   9.834  10.555
 2446W        W 6568   2.283   1.369   8.984
 2447W        W 6569   7.619  10.312   8.889
 2448W        W 6570   8.134   4.267   0.354
 2449W        W 6571  11.404   6.041   9.959
 2450W        W 6572   5.246   1.204   2.326
 2451W        W 6573   9.990   7.594  11.935
 2452W        W 6574   2.843   5.580   0.268
 2453W        W 6575   7.122   3.227   2.679
 2454W        W 6576   5.071   8.916   2.181
 2455W        W 6577   2.636   5.254   4.086
 2456W        W 6578   7.062   8.516   3.756
 2457W        W 6579   3.766   4.303   1.749
 2458W        W 6580  10.398   8.436   2.189
 2459W        W 6581   0.436   9.521   0.271
 2460W        W 6582  11.358   2.317   1.342
 2461W        W 6583   7.467   4.216   0.360
 2462W        W 6584   2.208   1.413   1.326
 2463W        W 6585   3.688   6.527   1.206
 2464W        W 6586   0.937  10.985   8.411
 2465W        W 6587   9.555   2.844   9.528
 2466W        W 6588   1.350  10.517  11.913
 2467W        W 6589   4.215   3.661   2.182
 2468W        W 6590   0.333   5.106  10.542
 2469W        W 6591   3.162   7.522  10.355
 2470W        W 6592   4.271   5.540   9.887
 2471W        W 6593  10.476   6.010   9.909
 2472W        W 6594   2.650   5.083   1.247
 2473W        W 6595   0.825   6.681   9.065
 2474W        W 6596   4.250   3.818  11.329
 2475W        W 6597   2.359   6.558   2.810
 2476W        W 6598   1.895   7.550   0.350
 2477W        W 6599   2.252   9.576   0.253
 2478W        W 6600   0.914   3.642   2.238
 2479W        W 6601   8.130   6.041   2.267
 2480W        W 6602   7.648   9.825   2.759
 2481W        W 6603   6.472   5.192   2.384
 2482W        W 6604   7.046   5.130   1.839
 2483W        W 6605   1.830   7.145   2.715
 2484W        W 6606   4.214   1.760   2.643
 2485W        W 6607   3.683  10.830  11.369
 2486W        W 6608   1.354   2.254   2.164
 2487W        W 6609   6.583   0.763  10.321
 2488W        W 6610   4.723   9.967   1.374
 2489W        W 6611   5.522   9.078   8.495
 2490W        W 6612   0.800   6.572   9.580
 2491W        W 6613   9.540   9.851   3.224
 2492W        W 6614   1.437   4.216  11.816
 2493W        W 6615   1.234   6.093  11.898
 2494W        W 6616   0.286   1.246   2.299
 2495W        W 6617   8.616   9.484   9.112
 2496W        W 6618   7.127   4.579   2.353
 2497W        W 6619   0.946   1.217   9.950
 2498W        W 6620   5.100   2.783   1.206
 2499W        W 6621   0.371   7.985   1.207
 2500W        W 6622   9.439   9.538  10.543
 2501W        W 6623   9.092  11.418   2.776
 2502W        W 6624  10.513   7.972   1.903
 2503W        W 6625   9.378   7.594   2.370
 2504W        W 6626   9.573   8.386   9.021
 2505W        W 6627  10.921   9.842   2.776
 2506W        W 6628   3.350   0.363   0.907
 2507W        W 6629   7.109   8.091  11.488
 2508W        W 6630   7.500   2.854   3.260
 2509W        W 6631   8.394  10.910  10.321
 2510W        W 6632   9.478   2.158   1.279
 2511W        W 6633   5.688  10.323   3.125
 2512W        W 6634  11.342   2.760   9.840
 2513W        W 6635   5.145   2.649   1.800
 2514W        W 6636   7.140   9.094   3.236
 2515W        W 6637  11.298   3.315  10.961
 2516W        W 6638   4.574   2.658   2.387
 2517W        W 6639   6.663   0.853   9.535
 2518W        W 6640   0.822  10.307   1.359
 2519W        W 6641   8.625   5.042   8.465
 2520W        W 6642   2.182   1.284   3.347
 2521W        W 6643  10.428   3.295   0.917
 2522W        W 6644   2.837   9.046   0.365
 2523W        W 6645   5.720   8.988  10.476
 2524W        W 6646   6.501   4.220   1.362
 2525W        W 6647  10.858   6.221   2.823
 2526W        W 6648   8.585   3.819  11.802
 2527W        W 6649   8.953   0.366   0.408
 2528W        W 6650   4.763   3.223   1.341
 2529W        W 6651   9.442   2.267   0.846
 2530W        W 6652   1.855   9.460   1.795
 2531W        W 6653   1.212   9.035   9.510
 2532W        W 6654   4.729   8.063  10.328
 2533W        W 6655   2.170   5.141  11.384
 2534W        W 6656   0.901   2.764   1.718
 2535W        W 6657   4.293   6.145   9.851
 2536W        W 6658   0.439   2.773   1.762
 2537W        W 6659   9.486   4.087   2.750
 2538W        W 6660   3.787   3.761  11.300
 2539W        W 6661   2.314   8.061   2.228
 2540W        W 6662   0.418   5.049  11.013
 2541W        W 6663   8.573   7.081  11.487
 2542W        W 6664   3.155   3.706   9.475
 2543W        W 6665   0.900   3.721  11.891
 2544W        W 6666   8.136   7.937  10.806
 2545W        W 6667   6.611   9.827  11.472
 2546W        W 6668   0.811   1.810   2.805
 2547W        W 6669   9.996  10.937   9.949
 2548W        W 6670   2.717   4.183   8.890
 2549W        W 6671   0.735   8.110   8.568
 2550W        W 6672   5.148   3.312   1.287
 2551W        W 6673   9.507   3.603   8.473
 2552W        W 6674   6.142   8.556  11.380
 2553W        W 6675   5.089   9.388  10.553
 2554W        W 6676  10.918   6.130  10.484
 2555W        W 6677  10.993  10.340  11.465
 2556W        W 6678   4.247   4.105   1.838
 2557W        W 6679   1.349   1.327   1.395
 2558W        W 6680   6.589   3.710   2.779
 2559W        W 6681   7.513   9.858   1.681
 2560W        W 6682   9.866   7.473   8.988
 2561W        W 6683   4.309   3.281   1.780
 2562W        W 6684   7.121   1.772   0.240
 2563W        W 6685   6.130   2.743   0.474
 2564W        W 6686  11.349   6.097  10.996
 2565W        W 6687   2.644   3.790  11.500
 2566W        W 6688   1.682   1.281   9.371
 2567W        W 6689   9.024   2.749   1.343
 2568W        W 6690   6.650   1.760   1.329
 2569W        W 6691   2.863   6.531   2.764
 2570W        W 6692   8.537   4.749  11.457
 2571W        W 6693   0.353   4.626   0.384
 2572W        W 6694   1.833  11.438   8.960
 2573W        W 6695   0.329   4.142  11.840
 2574W        W 6696  10.798   2.343  11.456
 2575W        W 6697   8.394   7.020  11.882
 2576W        W 6698   2.698   1.717   9.587
 2577W        W 6699   6.092   3.165  10.522
 2578W        W 6700   9.972   8.049   3.226
 2579W        W 6701   2.853   2.366  10.810
 2580W        W 6702   9.354  11.391   9.495
 2581W        W 6703   2.850   3.686   3.144
 2582W        W 6704   6.667   8.436   2.236
 2583W        W 6705   1.870   1.860   1.273
 2584W        W 6706   6.973  11.483  10.894
 2585W        W 6707   4.270   3.306  11.874
 2586W        W 6708   1.710  10.813   1.385
 2587W        W 6709   4.789   9.098  10.909
 2588W        W 6710   3.170   5.035  11.478
 2589W        W 6711   5.718  10.501   0.766
 2590W        W 6712   6.498   3.809  11.772
 2591W        W 6713   3.617   5.138   3.661
 2592W        W 6714   2.321  10.884   2.826
 2593W        W 6715   4.709   2.328  11.895
 2594W        W 6716   3.273   8.542   0.252
 2595W        W 6717   0.783   6.505   1.354
 2596W        W 6718   9.908  11.498   1.314
 2597W        W 6719   7.455   2.740  10.470
 2598W        W 6720   7.969  10.485   1.869
 2599W        W 6721   5.624   1.285   1.304
 2600W        W 6722   1.235   6.959   2.731
 2601W        W 6723   3.288   2.809  11.021
 2602W        W 6724   3.118   4.301  10.559
 2603W        W 6725   5.633   1.722   3.724
 2604W        W 6726  10.050   6.678   2.848
 2605W        W 6727   6.629   9.932   1.404
 2606W        W 6728   7.971   7.472  10.485
 2607W        W 6729   4.205   9.985  11.311
 2608W        W 6730   3.829   0.804   1.216
 2609W        W 6731  10.846   1.231   1.885
 2610W        W 6732   3.305   5.662   9.480
 2611W        W 6733   0.728   3.767   0.321
 2612W        W 6734   2.716   1.732   0.798
 2613W        W 6735   9.925   2.736  10.360
 2614W        W 6736   7.185   9.064   2.781
 2615W        W 6737   8.423   6.127  11.975
 2616W        W 6738   2.221   0.385   0.297
 2617W        W 6739  11.337   3.651   1.755
 2618W        W 6740  10.359   9.478   9.881
 2619W        W 6741   7.469   6.650  11.861
 2620W        W 6742   5.522   7.015   8.495
 2621W        W 6743   3.622   4.697  10.955
 2622W        W 6744   0.866   3.300   1.293
 2623W        W 6745   6.674   3.305   3.802
 2624W        W 6746   1.378   1.313   9.860
 2625W        W 6747  10.344   6.963  11.444
 2626W        W 6748   6.545   9.092   9.405
 2627W        W 6749   3.288  10.459  11.013
 2628W        W 6750   2.726   1.871   3.218
 2629W        W 6751   3.617   2.729  10.842
 2630W        W 6752   9.577   4.613   9.858
 2631W        W 6753   8.081   0.792   1.306
 2632W        W 6754   2.270   6.684  10.347
 2633W        W 6755   6.055   6.109   8.880
 2634W        W 6756   0.929   6.031   1.402
 2635W        W 6757   7.079   5.257  11.516
 2636W        W 6758   9.926   2.183  10.073
 2637W        W 6759   3.312   7.144   2.369
 2638W        W 6760   4.593   0.329   1.414
 2639W        W 6761  10.932   0.356   1.694
 2640W        W 6762  10.383   9.845   1.765
 2641W        W 6763   6.610   5.091  11.466
 2642W        W 6764   5.995  11.412  11.992
 2643W        W 6765   9.514   0.330  10.968
 2644W        W 6766   1.415   8.431   1.714
 2645W        W 6767   6.534   4.786   9.899
 2646W        W 6768   5.118   8.924   0.364
 2647W        W 6769  10.973   4.086   1.280
 2648W        W 6770   9.968   6.151   2.751
 2649W        W 6771   1.337   6.950  11.485
 2650W        W 6772   8.512  10.008   0.286
 2651W        W 6773   7.535   2.817   1.315
 2652W        W 6774   2.871   4.657   9.456
 2653W        W 6775   8.388  10.784   9.584
 2654W        W 6776  11.465   7.020   8.636
 2655W        W 6777   7.520   1.350  10.899
 2656W        W 6778   5.263  10.473  11.513
 2657W        W 6779  10.999   0.930   1.753
 2658W        W 6780  10.481   3.645  11.308
 2659W        W 6781   6.989   3.644   0.723
 2660W        W 6782   7.967   2.640   8.907
 2661W        W 6783   1.720   8.924   1.240
 2662W        W 6784   1.765   0.852   1.284
 2663W        W 6785   2.652   9.487   2.297
 2664W        W 6786  10.964   2.741   8.962
 2665W        W 6787   1.213   5.602  11.475
 2666W        W 6788   5.099   5.116   0.883
 2667W        W 6789  10.887   5.997   9.846
 2668W        W 6790  10.467   5.239  10.906
 2669W        W 6791   0.762   9.466  11.332
 2670W        W 6792   7.527   6.032   2.330
 2671W        W 6793   1.266   7.027   1.807
 2672W        W 6794   5.562   2.207  11.512
 2673W        W 6795   5.578  10.914   9.933
 2674W        W 6796   0.270   0.867   2.174
 2675W        W 6797   6.180   5.585  11.329
 2676W        W 6798   0.882   1.385   3.306
 2677W        W 6799   6.662   1.823   2.828
 2678W        W 6800   8.477   6.154   2.750
 2679W        W 6801   4.112   5.180   9.510
 2680W        W 6802  11.276   2.390  10.875
 2681W        W 6803  11.402   4.589  10.865
 2682W        W 6804   1.357   3.329   1.232
 2683W        W 6805   9.447  10.540   9.560
 2684W        W 6806   1.814   4.121   0.953
 2685W        W 6807   8.551   0.361   3.319
 2686W        W 6808   5.202   7.571   9.550
 2687W        W 6809   5.073   2.743   9.989
 2688W        W 6810   8.520   2.191  11.817
 2689W        W 6811   5.656   8.454   8.532
 2690W        W 6812   7.179   2.813   2.370
 2691W        W 6813   4.634   9.391   2.836
 2692W        W 6814   8.946   6.493   3.663
 2693W        W 6815   2.838   8.965  11.970
 2694W        W 6816  10.526   7.561   0.411
 2695W        W 6817   3.144   6.654   9.873
 2696W        W 6818  10.960   4.640   3.350
 2697W        W 6819   0.401   9.943  11.819
 2698W        W 6820   7.507   4.178   8.979
 2699W        W 6821   1.259   3.750   1.424
 2700W        W 6822  10.955   4.577   0.251
 2701W        W 6823   1.229  10.374   1.281
 2702W        W 6824   6.475   6.097   9.404
 2703W        W 6825   3.714   1.206   8.939
 2704W        W 6826   3.224   0.921  11.779
 2705W        W 6827  10.447   6.579   0.822
 2706W        W 6828   2.175   3.259   0.372
 2707W        W 6829   8.896   4.612   2.794
 2708W        W 6830   2.376   9.357  10.043
 2709W        W 6831   1.826   8.536  11.999
 2710W        W 6832   1.237   7.626   9.563
 2711W        W 6833   0.343   5.648   3.228
 2712W        W 6834  10.828   4.573   2.272
 2713W        W 6835   3.829  10.992   0.752
 2714W        W 6836   6.539   6.156   8.624
 2715W        W 6837   1.365   2.176  11.909
 2716W        W 6838   3.736   2.277   1.321
 2717W        W 6839   8.433   5.588  11.359
 2718W        W 6840   7.914   3.698  11.805
 2719W        W 6841   8.059  11.277  10.407
 2720W        W 6842   0.431   0.906   3.234
 2721W        W 6843   6.480   3.220   0.787
 2722W        W 6844   9.921  10.358   2.796
 2723W        W 6845  10.821   0.409   9.542
 2724W        W 6846   2.180   6.949   3.730
 2725W        W 6847   6.602   8.997   0.797
 2726W        W 6848   5.611   5.658  11.448
 2727W        W 6849   7.966   1.795   1.410
 2728W        W 6850   4.603   4.591   9.370
 2729W        W 6851   7.611   9.526  11.775
 2730W        W 6852   8.867   6.965   3.685
 2731W        W 6853   5.619   0.478   0.794
 2732W        W 6854  10.423   5.132   2.746
 2733W        W 6855   0.318   2.183   0.419
 2734W        W 6856   1.278   6.060  10.549
 2735W        W 6857   0.321   0.838   1.830
 2736W        W 6858   5.528   2.837   0.424
 2737W        W 6859   6.155   1.410   0.267
 2738W        W 6860   7.009   3.598  10.391
 2739W        W 6861   6.201   6.126   3.313
 2740W        W 6862   5.258   2.692   0.361
 2741W        W 6863  10.871   0.359  11.918
 2742W        W 6864  10.397   5.063   0.335
 2743W        W 6865   6.646   6.008   0.421
 2744W        W 6866  10.967   4.133  10.505
 2745W        W 6867   5.695   7.987   2.660
 2746W        W 6868   6.122   8.083   2.394
 2747W        W 6869   4.253   6.099  11.891
 2748W        W 6870   1.738   6.989  11.991
 2749W        W 6871  11.302   6.636   0.457
 2750W        W 6872   7.127   2.209   1.849
 2751W        W 6873   0.901   0.766  11.919
 2752W        W 6874   7.950   7.160  10.555
 2753W        W 6875   1.912   2.160  11.013
 2754W        W 6876   6.089   9.968   2.370
 2755W        W 6877   8.922   0.876   9.992
 2756W        W 6878   6.989   8.948  10.480
 2757W        W 6879   6.674   0.826   2.239
 2758W        W 6880   9.873   4.308  11.395
 2759W        W 6881   9.951   6.504   1.797
 2760W        W 6882   8.620  10.792  11.409
 2761W        W 6883   6.988   4.728   4.307
 2762W        W 6884  10.891   2.316  10.020
 2763W        W 6885   9.482   4.278  10.059
 2764W        W 6886   3.622   6.698   1.848
 2765W        W 6887   5.543   1.698  11.796
 2766W        W 6888   4.219   6.974   9.857
 2767W        W 6889   3.240  11.460   1.731
 2768W        W 6890   8.532   8.987  10.443
 2769W        W 6891   3.798  10.930  11.791
 2770W        W 6892   6.559   7.579  11.790
 2771W        W 6893   4.298   2.197  11.495
 2772W        W 6894   7.980   3.735  10.846
 2773W        W 6895   5.673   2.837   1.868
 2774W        W 6896   6.538   7.940   1.213
 2775W        W 6897   8.623   5.105  11.001
 2776W        W 6898   0.875   5.673   2.308
 2777W        W 6899   3.616   0.363  11.423
 2778W        W 6900   5.115  10.923  10.900
 2779W        W 6901   2.870   8.946   0.889
 2780W        W 6902   8.062   2.786  10.507
 2781W        W 6903   7.158   0.943   0.945
 2782W        W 6904   4.726   7.182   2.800
 2783W        W 6905   6.693   3.597   2.331
 2784W        W 6906   9.834   1.315  10.982
 2785W        W 6907   4.715   9.982   3.295
 2786W        W 6908   8.903   5.730   2.724
 2787W        W 6909   8.441   4.300   3.163
 2788W        W 6910   1.712   6.472  11.003
 2789W        W 6911   0.866   1.772   2.323
 2790W        W 6912   1.364   7.504  10.530
 2791W        W 6913   8.976   7.039  11.833
 2792W        W 6914  11.346   3.611   2.280
 2793W        W 6915   4.618   6.671   1.381
 2794W        W 6916   7.434   4.174   2.846
 2795W        W 6917   7.619  10.933  10.923
 2796W        W 6918   8.118   7.511   1.316
 2797W        W 6919   0.873   6.513  10.492
 2798W        W 6920   7.550   4.586   9.849
 2799W        W 6921   6.485   0.902   3.168
 2800W        W 6922   6.152   5.629   0.310
 2801W        W 6923   9.013   6.669   3.172
 2802W        W 6924   5.603   8.985   0.933
 2803W        W 6925   5.511  10.862  11.306
 2804W        W 6926   6.641  10.949   1.407
 2805W        W 6927   8.927   9.936   9.510
 2806W        W 6928   2.807   6.102   3.260
 2807W        W 6929   3.321   5.614   9.990
 2808W        W 6930   8.474   6.000   9.596
 2809W        W 6931   2.188   5.720   3.250
 2810W        W 6932   5.118   3.766   1.395
 2811W        W 6933   5.515   9.358   9.362
 2812W        W 6934   7.550  10.013   0.425
 2813W        W 6935  10.533   4.592   8.971
 2814W        W 6936   2.753   8.967   1.749
 2815W        W 6937   2.786   7.492  11.875
 2816W        W 6938  11.321  11.434  10.387
 2817W        W 6939   7.493  10.481   1.785
 2818W        W 6940   0.467   8.963   2.201
 2819W        W 6941   4.740  10.455  11.035
 2820W        W 6942   1.895   0.292  11.484
 2821W        W 6943   8.912   6.702  10.826
 2822W        W 6944   3.767   2.802   0.270
 2823W        W 6945   7.936   9.904   1.768
 2824W        W 6946  10.505   5.256  11.967
 2825W        W 6947  10.929   2.834   3.200
 2826W        W 6948   7.156   9.081  10.020
 2827W        W 6949  10.420   7.629   2.395
 2828W        W 6950   7.075   1.402   9.975
 2829W        W 6951   8.929   0.478   2.206
 2830W        W 6952   4.669  11.461   3.174
 2831W        W 6953   8.913   3.752  10.420
 2832W        W 6954  11.471   8.059   1.259
 2833W        W 6955   7.491   7.042   3.277
 2834W        W 6956   5.245  11.007   0.835
 2835W        W 6957  10.852   6.954  11.519
 2836W        W 6958   1.819   9.905   0.279
 2837W        W 6959   2.232   1.911  10.444
 2838W        W 6960   8.479   7.661   1.848
 2839W        W 6961   8.417   4.126  10.942
 2840W        W 6962   2.273  10.051   1.379
 2841W        W 6963   5.192   7.599   0.385
 2842W        W 6964   3.277  11.479  10.469
 2843W        W 6965   5.255   7.180  10.062
 2844W        W 6966   8.529   5.654   1.280
 2845W        W 6967   1.902   8.446  11.519
 2846W        W 6968   1.680   9.392   1.428
 2847W        W 6969   7.649   9.023   9.565
 2848W        W 6970   2.261   6.996   3.139
 2849W        W 6971   1.807   9.021   3.314
 2850W        W 6972   0.872   9.061   2.303
 2851W        W 6973   2.703  11.273  10.845
 2852W        W 6974   6.218  10.362  11.300
 2853W        W 6975   1.319  11.454   1.437
 2854W        W 6976   7.999   7.636   8.943
 2855W        W 6977   6.666   6.557  11.819
 2856W        W 6978   4.149   3.686   8.919
 2857W        W 6979   2.664   9.930  11.972
 2858W        W 6980   6.661   6.507   2.267
 2859W        W 6981   0.797   7.085   1.810
 2860W        W 6982   0.783   8.428   9.388
 2861W        W 6983   7.655   2.823   0.768
 2862W        W 6984   3.291   9.866   9.496
 2863W        W 6985   9.947   1.232   3.334
 2864W        W 6986   8.900   6.060   1.385
 2865W        W 6987   7.575   4.308   2.365
 2866W        W 6988   5.647   5.693   0.279
 2867W        W 6989   2.811   5.071   8.926
 2868W        W 6990   9.842  11.282   2.755
 2869W        W 6991   4.573   0.840  10.062
 2870W        W 6992   1.338   4.133  10.504
 2871W        W 6993   1.383   1.748   9.958
 2872W        W 6994   3.675   8.014   3.173
 2873W        W 6995   3.726   6.555   2.715
 2874W        W 6996  11.308   8.503   9.418
 2875W        W 6997   2.346   7.461   1.848
 2876W        W 6998   5.725   4.195  10.329
 2877W        W 6999   5.170  10.805   9.018
 2878W        W 7000  11.302   2.835  11.371
 2879W        W 7001  10.814   8.466   9.090
 2880W        W 7002   2.860   5.704   8.942
 2881W        W 7003   0.441   9.065  10.868
 2882W        W 7004   8.975   5.625   8.933
 2883W        W 7005   2.764   9.453   3.288
 2884W        W 7006   5.579   8.892  10.879
 2885W        W 7007   0.347   8.967   0.911
 2886W        W 7008   8.441   9.964  10.474
 2887W        W 7009   4.658   3.758  11.999
 2888W        W 7010   6.996   2.361  11.024
 2889W        W 7011   0.289   4.077   9.886
 2890W        W 7012   4.282   0.419  11.996
 2891W        W 7013   4.685   2.865  11.423
 2892W        W 7014   1.879   0.860  10.506
 2893W        W 7015   6.076   5.067   9.855
 2894W        W 7016   9.481   9.994   2.212
 2895W        W 7017  11.473   0.372   1.896
 2896W        W 7018   8.955   1.772   2.213
 2897W        W 7019  10.980  11.451   1.781
 2898W        W 7020   2.782   8.467  10.989
 2899W        W 7021   6.688   3.832  10.925
 2900W        W 7022  10.400   9.013  11.348
 2901W        W 7023   4.270   1.368   3.189
 2902W        W 7024   5.241   4.203  11.986
 2903W        W 7025   1.757   1.829   3.217
 2904W        W 7026   3.219   8.582  11.377
 2905W        W 7027   6.653   6.650   3.723
 2906W        W 7028   2.652  11.451   2.367
 2907W        W 7029   1.334   5.571   0.761
 2908W        W 7030  10.043   1.277  10.462
 2909W        W 7031   2.667   6.148  10.488
 2910W        W 7032   4.683   9.437   0.382
 2911W        W 7033   6.096   5.734   9.465
 2912W        W 7034   5.670   1.830   9.462
 2913W        W 7035   0.474   0.907   1.315
 2914W        W 7036   8.881   5.190   4.309
 2915W        W 7037   6.536   2.721   4.227
 2916W        W 7038   3.122   0.390   2.770
 2917W        W 7039   0.333   2.246   2.704
 2918W        W 7040   6.579  11.299   0.871
 2919W        W 7041   4.634   8.457   0.377
 2920W        W 7042   8.140  10.020   8.926
 2921W        W 7043   0.752  10.982   3.611
 2922W        W 7044   9.985  10.336  11.816
 2923W        W 7045   2.667   8.075   2.804
 2924W        W 7046  10.044   6.195   1.279
 2925W        W 7047   3.184   9.456   2.167
 2926W        W 7048   8.433   0.749   9.031
 2927W        W 7049  11.405   0.756   1.251
 2928W        W 7050   5.267   9.973  10.909
 2929W        W 7051   8.612   9.429   0.471
 2930W        W 7052   9.362   2.207   9.985
 2931W        W 7053   5.591   7.013   9.014
 2932W        W 7054   6.644   9.401   2.789
 2933W        W 7055   8.566   9.026   1.761
 2934W        W 7056   4.615   9.859  11.000
 2935W        W 7057   4.148   9.576  11.361
 2936W        W 7058   4.096  10.003   0.395
 2937W        W 7059   8.000   9.928   0.908
 2938W        W 7060   4.238   1.251  10.991
 2939W        W 7061   9.035   0.843   9.396
 2940W        W 7062   7.624  10.461   1.334
 2941W        W 7063   0.387  10.002   9.452
 2942W        W 7064  10.877   0.278   1.424
 2943W        W 7065   2.767   7.650  10.468
 2944W        W 7066  10.020   6.582   0.255
 2945W        W 7067  10.462   1.285   9.576
 2946W        W 7068   8.395   5.066  11.352
 2947W        W 7069   7.454   0.945   9.087
 2948W        W 7070   8.977   7.666  11.009
 2949W        W 7071   0.860   2.190   9.526
 2950W        W 7072   2.389   8.940   2.805
 2951W        W 7073   8.462   3.139   8.478
 2952W        W 7074   0.249   1.686  10.046
 2953W        W 7075   8.570   4.303   0.261
 2954W        W 7076   6.187   5.589   0.894
 2955W        W 7077   6.146   0.789   9.049
 2956W        W 7078   6.001   7.429   9.882
 2957W        W 7079   2.315   0.282  11.442
 2958W        W 7080   4.178   6.590   2.798
 2959W        W 7081   2.206   7.947   0.880
 2960W        W 7082   8.104   9.404   9.446
 2961W        W 7083   7.649   6.699  11.381
 2962W        W 7084  10.985  11.375   0.455
 2963W        W 7085   2.367   7.538   3.123
 2964W        W 7086   2.275   5.196   2.242
 2965W        W 7087   3.262   4.625   9.107
 2966W        W 7088   2.171   2.637   9.442
 2967W        W 7089  10.501   9.947   3.169
 2968W        W 7090   9.086   0.920   9.100
 2969W        W 7091   3.226  10.990   3.820
 2970W        W 7092  11.406   1.374   2.279
 2971W        W 7093   6.596   8.129  11.445
 2972W        W 7094   2.848  10.887  10.558
 2973W        W 7095   4.638   4.131   2.703
 2974W        W 7096   8.083   3.649   0.289
 2975W        W 7097   2.292   7.493   0.770
 2976W        W 7098   6.568   9.374  10.473
 2977W        W 7099   4.139   6.608  11.283
 2978W        W 7100  10.873   5.071  11.284
 2979W        W 7101   0.807   6.534  11.442
 2980W        W 7102   0.249   0.464   9.850
 2981W        W 7103   7.156  11.469   3.656
 2982W        W 7104   5.604   7.913  11.364
 2983W        W 7105   7.476   9.559   1.693
 2984W        W 7106   5.663  11.487   1.345
 2985W        W 7107   7.937   3.622  10.437
 2986W        W 7108   2.345   1.282   2.695
 2987W        W 7109  11.441   4.093   2.345
 2988W        W 7110   4.229   3.296   8.426
 2989W        W 7111   9.549   6.677   3.699
 2990W        W 7112   5.265  11.384   1.716
 2991W        W 7113   8.936   2.330   1.274
 2992W        W 7114   8.975   9.035   1.417
 2993W        W 7115   9.986   0.423   2.231
 2994W        W 7116   0.446   9.472   1.367
 2995W        W 7117   0.886   9.510   1.910
 2996W        W 7118   5.038   9.424   8.426
 2997W        W 7119   0.402   7.999   3.225
 2998W        W 7120   8.104   9.414   2.372
 2999W        W 7121  11.304  11.310   2.256
 3000W        W 7122   6.952   2.647   4.280
 3001W        W 7123   4.716  10.999   9.860
 3002W        W 7124   6.492   2.353  10.957
 3003W        W 7125   5.065   6.628   3.815
 3004W        W 7126   4.173  10.909  11.405
 3005W        W 7127   2.767  11.315   1.720
 3006W        W 7128  10.489   0.302   0.822
 3007W        W 7129   5.227   2.849   0.785
 3008W        W 7130   0.474   7.130   1.333
 3009W        W 7131   0.390   1.839   2.756
 3010W        W 7132   0.830   7.627  10.025
 3011W        W 7133   1.388   1.836  10.323
 3012W        W 7134   0.299   9.563   2.238
 3013W        W 7135   2.782   2.196  11.958
 3014W        W 7136   8.592   6.486  11.840
 3015W        W 7137  10.455   8.386  10.350
 3016W        W 7138   1.888   9.403  11.892
 3017W        W 7139   6.130  10.417  11.863
 3018W        W 7140   0.266   3.230   2.381
 3019W        W 7141   7.186   2.305  11.493
 3020W        W 7142   3.280   5.706   2.812
 3021W        W 7143   3.598   4.276   3.257
 3022W        W 7144  10.993   0.921  10.802
 3023W        W 7145   3.217   5.215   2.869
 3024W        W 7146   0.844   9.513  10.553
 3025W        W 7147  10.321   0.366  11.863
 3026W        W 7148   5.153   9.868   2.662
 3027W        W 7149   9.582   5.128   2.771
 3028W        W 7150   9.494   7.093   8.589
 3029W        W 7151   2.643   1.809   1.904
 3030W        W 7152   3.697   1.428   9.586
 3031W        W 7153  10.782   5.637   0.954
 3032W        W 7154   4.185  11.332  10.062
 3033W        W 7155   2.791  10.381  10.982
 3034W        W 7156   0.479   5.254   3.127
 3035W        W 7157   7.520   3.241  10.424
 3036W        W 7158   9.964   9.350   9.543
 3037W        W 7159   5.164   9.566   8.992
 3038W        W 7160   5.647   6.078  11.876
 3039W        W 7161   1.314   3.252   0.324
 3040W        W 7162   6.068   1.785   2.286
 3041W        W 7163   0.777  10.483   1.767
 3042W        W 7164   3.694   1.282   2.328
 3043W        W 7165   9.502   2.764   0.883
 3044W        W 7166   7.489   5.071   4.090
 3045W        W 7167   5.226   6.024   0.455
 3046W        W 7168   4.567   9.979   1.759
 3047W        W 7169   9.425   8.137   1.212
 3048W        W 7170   8.084   8.994   9.011
 3049W        W 7171   3.785   5.621   0.389
 3050W        W 7172   1.737   3.181  11.039
 3051W        W 7173   9.059   8.601   0.411
 3052W        W 7174   2.857  10.323   9.053
 3053W        W 7175   9.005   1.388   2.390
 3054W        W 7176   5.173   7.483   8.979
 3055W        W 7177  10.879   3.230   0.945
 3056W        W 7178   2.701   1.896   2.736
 3057W        W 7179   6.097   3.142   9.410
 3058W        W 7180   9.963   9.386   0.896
 3059W        W 7181   8.989   2.826   0.820
 3060W        W 7182   0.305   4.087  11.513
 3061W        W 7183   5.143   1.408  11.030
 3062W        W 7184   2.190   4.197   9.386
 3063W        W 7185   6.644   2.324   2.335
 3064W        W 7186   0.378   0.294  10.398
 3065W        W 7187  10.041   7.177   9.535
 3066W        W 7188   3.675   6.513  10.056
 3067W        W 7189   6.062   6.538   9.997
 3068W        W 7190   3.142   6.630   8.070
 3069W        W 7191   0.410  11.486   1.371
 3070W        W 7192   2.242   4.262   8.912
 3071W        W 7193  11.342   3.775   0.812
 3072W        W 7194   3.631   0.931   9.024
 3073W        W 7195   6.688   4.761  10.991
 3074W        W 7196   8.580  10.514   9.110
 3075W        W 7197  11.345   0.470   3.208
 3076W        W 7198   8.868   4.770  11.363
 3077W        W 7199   9.855  11.368  11.876
 3078W        W 7200   0.439   3.290   9.120
 3079W        W 7201   2.289  11.493  11.966
 3080W        W 7202  10.959   0.282   0.283
 3081W        W 7203   4.754   1.371   9.503
 3082W        W 7204   0.738   1.238   2.854
 3083W        W 7205   4.224   2.167   2.399
 3084W        W 7206   7.107   2.705   3.139
 3085W        W 7207   3.231   9.360   2.676
 3086W        W 7208   4.131   3.683  10.515
 3087W        W 7209  10.871   0.917  10.515
 3088W        W 7210   9.982   7.577   2.816
 3089W        W 7211   1.345   5.705   1.911
 3090W        W 7212   0.743   8.408  11.437
 3091W        W 7213   2.862   6.188   9.936
 3092W        W 7214   1.203   3.181   1.903
 3093W        W 7215   7.475   2.180   0.949
 3094W        W 7216   1.403   8.508   0.770
 3095W        W 7217   4.096   9.016  10.336
 3096W        W 7218   0.733   8.540   3.704
 3097W        W 7219   3.643   5.150  10.324
 3098W        W 7220   9.414   5.153  11.770
 3099W        W 7221   9.859   8.047   2.764
 3100W        W 7222   2.287   1.885   9.542
 3101W        W 7223   5.580   9.038   2.397
 3102W        W 7224   5.229   3.636  10.889
 3103W        W 7225   6.542   2.776   8.408
 3104W        W 7226   4.309   1.223  11.882
 3105W        W 7227   6.479   1.744   8.889
 3106W        W 7228   3.259   5.124  10.832
 3107W        W 7229   2.655   0.816   1.439
 3108W        W 7230   3.751   5.653   1.371
 3109W        W 7231   3.730   4.239   1.225
 3110W        W 7232   5.060   5.724  10.480
 3111W        W 7233   0.770   8.002  11.395
 3112W        W 7234   8.515   7.509  10.378
 3113W        W 7235   4.635   7.965  11.015
 3114W        W 7236  11.277  10.919   1.858
 3115W        W 7237   9.894   5.035   2.361
 3116W        W 7238   6.216   3.292   8.957
 3117W        W 7239   1.395   5.585  10.369
 3118W        W 7240   2.756   1.731  10.422
 3119W        W 7241  10.318   9.386   1.884
 3120W        W 7242   2.657   0.469  11.881
 3121W        W 7243   0.292   2.728   0.849
 3122W        W 7244   3.210   7.579   1.683
 3123W        W 7245   3.758   9.823   3.167
 3124W        W 7246   0.827  10.965  11.965
 3125W        W 7247   6.156   7.593   0.781
 3126W        W 7248   5.744   1.259   8.479
 3127W        W 7249   9.910   5.178  11.424
 3128W        W 7250   9.008   7.951   8.962
 3129W        W 7251   8.142   4.669   2.362
 3130W        W 7252   6.525   8.932  11.365
 3131W        W 7253   7.665   3.595   2.822
 3132W        W 7254   3.211  10.954  11.873
 3133W        W 7255   7.588   7.541  10.326
 3134W        W 7256  10.945  11.407   3.128
 3135W        W 7257   7.052   0.722   8.994
 3136W        W 7258   0.470  10.905  11.519
 3137W        W 7259  10.018   7.520   9.516
 3138W        W 7260   0.769   0.420   0.889
 3139W        W 7261   2.379   7.155   9.910
 3140W        W 7262   1.363   1.386   9.071
 3141W        W 7263   4.173   2.825  11.369
 3142W        W 7264   3.621  11.449   9.078
 3143W        W 7265  10.504   8.054  11.483
 3144W        W 7266  10.839   2.720   0.382
 3145W        W 7267   9.899   4.781   3.143
 3146W        W 7268   8.867   7.148   0.436
 3147W        W 7269   2.654   1.909  11.453
 3148W        W 7270   7.545  10.510   9.859
 3149W        W 7271   9.461   9.021   8.969
 3150W        W 7272   7.606   6.684   3.148
 3151W        W 7273   5.627  10.894   1.710
 3152W        W 7274   1.315   5.262  11.298
 3153W        W 7275  11.356   9.981   1.781
 3154W        W 7276   5.716   0.461  10.026
 3155W        W 7277   5.521   7.525   0.872
 3156W        W 7278   5.226   3.737   2.192
 3157W        W 7279  10.353   1.421   2.800
 3158W        W 7280   8.077   5.069  10.443
 3159W        W 7281   6.622  10.520   1.312
 3160W        W 7282   6.624   3.780  11.473
 3161W        W 7283   6.055  10.926   1.271
 3162W        W 7284   9.840   4.628  11.476
 3163W        W 7285  11.485   9.445   3.355
 3164W        W 7286   0.467   6.150  10.819
 3165W        W 7287   7.570   8.427  11.303
 3166W        W 7288   5.068   5.682   9.849
 3167W        W 7289   7.990  11.427   3.187
 3168W        W 7290   2.763  10.537  10.330
 3169W        W 7291   8.425   0.732  11.416
 3170W        W 7292   9.551   7.436   0.865
 3171W        W 7293   9.012   1.710   9.377
 3172W        W 7294   5.527   4.227   0.955
 3173W        W 7295   2.836   4.752   8.531
 3174W        W 7296   5.154  10.874   9.929
 3175W        W 7297   1.795   6.702   2.828
 3176W        W 7298   4.127  11.417   8.941
 3177W        W 7299   6.489   9.876   8.955
 3178W        W 7300   6.085   6.182  11.422
 3179W        W 7301   0.836   2.687  10.909
 3180W        W 7302   4.741   5.516   1.391
 3181W        W 7303   4.292   7.970  10.000
 3182W        W 7304   2.828   7.598   2.389
 3183W        W 7305   1.427   8.117  10.511
 3184W        W 7306   7.513   2.668   1.715
 3185W        W 7307  11.360   1.316  11.884
 3186W        W 7308   8.075   0.899   1.869
 3187W        W 7309   6.116   0.460  11.866
 3188W        W 7310   5.225  10.349   0.866
 3189W        W 7311   8.046   2.273  11.853
 3190W        W 7312   7.045   4.209   0.872
 3191W        W 7313   3.154   8.447   9.569
 3192W        W 7314   3.710   5.577  11.762
 3193W        W 7315   5.668  10.804   0.307
 3194W        W 7316   4.087   0.806  10.521
 3195W        W 7317  11.410   5.066   9.954
 3196W        W 7318   6.643   4.709  11.933
 3197W        W 7319   1.294   8.501   9.534
 3198W        W 7320   3.204   7.942   0.324
 3199W        W 7321   3.337   8.044   1.358
 3200W        W 7322   1.852  11.499  10.511
 3201W        W 7323   4.627  11.290   0.908
 3202W        W 7324   8.624  11.262   2.663
 3203W        W 7325   6.044   1.350   0.887
 3204W        W 7326   0.923   6.992   4.262
 3205W        W 7327   0.444   3.747   0.830
 3206W        W 7328   3.741   3.131  11.994
 3207W        W 7329   1.688  10.378   9.007
 3208W        W 7330   3.597  11.488   3.162
 3209W        W 7331  10.968   8.535   0.802
 3210W        W 7332   5.730   2.242   9.397
 3211W        W 7333   2.709   5.073   3.838
 3212W        W 7334   6.681  10.392   8.947
 3213W        W 7335   5.521   2.822   9.974
 3214W        W 7336   4.231   4.609   9.919
 3215W        W 7337   4.570   8.972   0.420
 3216W        W 7338   7.621   8.442   8.981
 3217W        W 7339   0.297   0.746  10.557
 3218W        W 7340  11.445   1.277   1.367
 3219W        W 7341  11.472  10.933   3.334
 3220W        W 7342   1.210  11.495  10.458
 3221W        W 7343   7.013   7.923   2.221
 3222W        W 7344   6.580   4.579   2.689
 3223W        W 7345   0.777   4.753   1.319
 3224W        W 7346   4.228  10.308   1.894
 3225W        W 7347   0.747   9.896   0.374
 3226W        W 7348   1.303   9.487  10.967
 3227W        W 7349   8.940   1.260   9.488
 3228W        W 7350   2.821   0.368   0.322
 3229W        W 7351  11.277   8.968   3.309
 3230W        W 7352  11.320   4.769   3.166
 3231W        W 7353  11.305   4.291   9.860
 3232W        W 7354   1.859   1.733  11.808
 3233W        W 7355   6.985   9.992   0.818
 3234W        W 7356   5.183   8.970  10.923
 3235W        W 7357   1.801   3.785   0.938
 3236W        W 7358  10.435   8.477  11.944
 3237W        W 7359   4.247   9.913   9.384
 3238W        W 7360   2.716   1.206   2.233
 3239W        W 7361   8.525   5.557   8.936
 3240W        W 7362   1.716  10.342   0.896
 3241W        W 7363   3.681   1.756  10.410
 3242W        W 7364   5.542   1.841   1.710
 3243W        W 7365   7.995   0.932   2.374
 3244W        W 7366  10.459   9.392   0.270
 3245W        W 7367   6.209   5.105  10.385
 3246W        W 7368   3.693  10.820   9.460
 3247W        W 7369   8.455   2.723  10.068
 3248W        W 7370   2.347   8.557   9.114
 3249W        W 7371  10.929   9.574   3.667
 3250W        W 7372   9.498   4.080   9.594
 3251W        W 7373   5.674   8.108   9.053
 3252W        W 7374   3.138   6.969   0.813
 3253W        W 7375   9.935   4.724  10.055
 3254W        W 7376   2.667   2.669   0.333
 3255W        W 7377   5.590   2.655   3.326
 3256W        W 7378   6.957   0.847  10.444
 3257W        W 7379  11.485  10.942   2.269
 3258W        W 7380   2.324   6.092  11.938
 3259W        W 7381  11.485   7.528   1.690
 3260W        W 7382   1.689   0.854   8.995
 3261W        W 7383  10.478   8.923   1.388
 3262W        W 7384   3.249   8.871   1.881
 3263W        W 7385   5.990   8.467   1.854
 3264W        W 7386   0.304  10.841   1.285
 3265W        W 7387   6.011  10.985  11.502
 3266W        W 7388   9.824   2.160  11.856
 3267W        W 7389   8.996   0.901  10.824
 3268W        W 7390   8.612   3.803   2.648
 3269W        W 7391   1.403   6.519   3.205
 3270W        W 7392   8.942   1.213   9.880
 3271W        W 7393   3.682   7.930  11.304
 3272W        W 7394   8.474   9.371   1.842
 3273W        W 7395   9.377   7.517   1.717
 3274W        W 7396   0.934   9.878   9.527
 3275W        W 7397   8.881   4.740   1.283
 3276W        W 7398   0.902  11.389  11.970
 3277W        W 7399   1.332   1.259   2.367
 3278W        W 7400   5.725   3.155   8.412
 3279W        W 7401   9.939   6.098   9.973
 3280W        W 7402   5.651   0.870   2.170
 3281W        W 7403   2.776   6.954  11.927
 3282W        W 7404   5.570  11.375   0.377
 3283W        W 7405   2.645   2.716   9.540
 3284W        W 7406   3.766   2.852   3.138
 3285W        W 7407  10.999   9.068   9.481
 3286W        W 7408   2.214  11.367   2.692
 3287W        W 7409   9.073   4.634   9.404
 3288W        W 7410   7.925   9.558   1.414
 3289W        W 7411   7.527   9.006   2.842
 3290W        W 7412   2.175   7.642   2.657
 3291W        W 7413   8.494  11.374   0.261
 3292W        W 7414   0.733   1.346  11.414
 3293W        W 7415   8.440   0.372   1.781
 3294W        W 7416   7.644   8.052   0.810
 3295W        W 7417   4.256   2.678   9.551
 3296W        W 7418   0.904   8.924  11.904
 3297W        W 7419  10.821   4.764  11.327
 3298W        W 7420  11.418   7.929   0.378
 3299W        W 7421   2.838   1.419  11.296
 3300W        W 7422   6.664   0.796   2.696
 3301W        W 7423   4.126   0.811   3.315
 3302W        W 7424  11.017  10.815  10.854
 3303W        W 7425   7.164   1.325   9.412
 3304W        W 7426  10.934   2.661   9.873
 3305W        W 7427   9.458   6.529   0.315
 3306W        W 7428   1.912   2.674   2.740
 3307W        W 7429   3.214   4.127   0.397
 3308W        W 7430   9.529   6.677   0.811
 3309W        W 7431  10.429   1.327   3.299
 3310W        W 7432   7.503   9.497  11.356
 3311W        W 7433   9.893   9.365  10.558
 3312W        W 7434   3.663   9.997   9.541
 3313W        W 7435   3.350   8.119   1.863
 3314W        W 7436  10.444   1.911   9.110
 3315W        W 7437  10.516   0.794   3.768
 3316W        W 7438   3.675   8.951   0.443
 3317W        W 7439   6.991   4.174   2.696
 3318W        W 7440   3.264   3.136   0.321
 3319W        W 7441   6.661   9.099   8.542
 3320W        W 7442   6.024   5.125  11.840
 3321W        W 7443   4.121   8.494   2.715
 3322W        W 7444   6.122  11.374   0.397
 3323W        W 7445   3.753   6.519   2.275
 3324W        W 7446   2.750   4.232   0.785
 3325W        W 7447   1.302   9.985   1.416
 3326W        W 7448  11.268  10.501   9.990
 3327W        W 7449   7.988  10.362  11.300
 3328W        W 7450   0.839   5.584   9.884
 3329W        W 7451   8.419   6.987  10.018
 3330W        W 7452   0.902   7.665  10.932
 3331W        W 7453   4.103   3.249   0.869
 3332W        W 7454   6.665   5.633  10.465
 3333W        W 7455  10.326   9.835   0.829
 3334W        W 7456   0.942   9.961   0.853
 3335W        W 7457   0.263  11.005   9.901
 3336W        W 7458   4.665   4.181   9.999
 3337W        W 7459   0.727   1.402  11.984
 3338W        W 7460  11.488   0.375   0.731
 3339W        W 7461  10.796   1.396   3.278
 3340W        W 7462   1.782  10.383   3.155
 3341W        W 7463   6.204   6.023   1.436
 3342W        W 7464   0.353  11.430  10.457
 3343W        W 7465  10.510   0.378   2.822
 3344W        W 7466   5.659  10.054   0.928
 3345W        W 7467   6.099  11.470   2.650
 3346W        W 7468   2.738   9.418   9.421
 3347W        W 7469   8.454   9.081   3.198
 3348W        W 7470   9.828   2.855   0.377
 3349W        W 7471   9.356  11.409   1.309
 3350W        W 7472   5.122  11.390   2.731
 3351W        W 7473   9.399  11.441   0.413
 3352W        W 7474   8.485   8.584   1.848
 3353W        W 7475   3.253   8.477   2.860
 3354W        W 7476   0.438   6.107   0.949
 3355W        W 7477   4.096   6.589   8.566
 3356W        W 7478   5.170   2.313   9.915
 3357W        W 7479   1.402   9.013   2.841
 3358W        W 7480   2.731   8.487   3.183
 3359W        W 7481   0.387  11.005   8.505
 3360W        W 7482   7.558   1.333   1.344
 3361W        W 7483   1.325   2.362   3.224
 3362W        W 7484   9.870   7.175   9.906
 3363W        W 7485   1.260   0.739   2.367
 3364W        W 7486   2.681   3.302   0.937
 3365W        W 7487  11.355   6.952   0.462
 3366W        W 7488   7.436   8.009   0.350
 3367W        W 7489   7.074  10.010  11.902
 3368W        W 7490   0.358   0.415   1.410
 3369W        W 7491   5.512   3.218   0.255
 3370W        W 7492   8.620   6.000   9.950
 3371W        W 7493   2.391   4.179   1.764
 3372W        W 7494   0.366   2.781  11.785
 3373W        W 7495   7.638  11.474   1.684
 3374W        W 7496   1.820   5.252   2.349
 3375W        W 7497   7.532   2.656   2.395
 3376W        W 7498   1.211   6.958   9.586
 3377W        W 7499   8.443   0.287   2.861
 3378W        W 7500   1.789   9.344   0.726
 3379W        W 7501  11.326   1.765   0.446
 3380W        W 7502   6.520   6.986   9.857
 3381W        W 7503   8.988   8.953  11.360
 3382W        W 7504   3.761   4.612   0.777
 3383W        W 7505   1.904   0.407   9.886
 3384W        W 7506   8.433   8.878   9.414
 3385W        W 7507   0.884   8.105  11.933
 3386W        W 7508   0.304   5.740  10.408
 3387W        W 7509   2.844   9.524   9.974
 3388W        W 7510  11.018   0.942   8.886
 3389W        W 7511   3.304   7.918   9.863
 3390W        W 7512   7.592   0.449   0.386
 3391W        W 7513  11.325   6.613  10.437
 3392W        W 7514   3.254   1.314   1.388
 3393W        W 7515   3.151   7.655  10.833
 3394W        W 7516   6.680   8.952   2.248
 3395W        W 7517   7.962   0.261   0.350
 3396W        W 7518   1.865   3.184   1.302
 3397W        W 7519   5.061  10.398   0.272
 3398W        W 7520  10.363   3.614   9.084
 3399W        W 7521   3.653   2.310   0.785
 3400W        W 7522   7.486   5.748   1.743
 3401W        W 7523   1.274   9.014   1.847
 3402W        W 7524   6.104   9.999   1.340
 3403W        W 7525  10.511   5.996   0.853
 3404W        W 7526   4.101   2.305   3.207
 3405W        W 7527   9.945   3.152   1.828
 3406W        W 7528   0.471   4.742   2.694
 3407W        W 7529   0.393   4.250  10.325
 3408W        W 7530   5.736  10.354   1.321
 3409W        W 7531  10.421  11.376   0.276
 3410W        W 7532  10.465  10.417   9.435
 3411W        W 7533   4.285   6.004  11.336
 3412W        W 7534   9.570   0.814   9.535
 3413W        W 7535   3.248   1.311  10.535
 3414W        W 7536   4.759   7.126   9.429
 3415W        W 7537   4.669   1.268   2.749
 3416W        W 7538  10.830   3.773   2.746
 3417W        W 7539   0.768   9.054  10.524
 3418W        W 7540   8.590   1.335   8.491
 3419W        W 7541   0.900   0.479   3.218
 3420W        W 7542   0.446   2.277   8.984
 3421W        W 7543   6.014  11.431   9.984
 3422W        W 7544   4.110   1.723   1.411
 3423W        W 7545   9.951   6.472  11.358
 3424W        W 7546   4.112   5.211  11.980
 3425W        W 7547   8.040  10.386   1.434
 3426W        W 7548   7.184   5.515   0.842
 3427W        W 7549  11.415   6.031   2.184
 3428W        W 7550   9.550   8.497   2.806
 3429W        W 7551   0.400   7.504  11.445
 3430W        W 7552   7.535   6.031   1.886
 3431W        W 7553   3.120   9.574   3.774
 3432W        W 7554   6.589   4.225   2.237
 3433W        W 7555   3.279   6.561   2.852
 3434W        W 7556   5.156   7.433   1.423
 3435W        W 7557   0.742   8.399  11.790
 3436W        W 7558   7.448   9.958  10.071
 3437W        W 7559   0.853   5.634  10.457
 3438W        W 7560   8.117   8.990   3.173
 3439W        W 7561   5.705   3.163  11.407
 3440W        W 7562  11.417   2.810   2.842
 3441W        W 7563   5.069  10.440  11.038
 3442W        W 7564   2.384   8.555   0.793
 3443W        W 7565   0.392   1.810  11.420
 3444W        W 7566   2.723   7.105  10.853
 3445W        W 7567   8.421   5.730   2.783
 3446W        W 7568   0.738   8.130   1.396
 3447W        W 7569   6.956   9.054   4.283
 3448W        W 7570   1.375  11.379   0.245
 3449W        W 7571   6.575   2.830  11.866
 3450W        W 7572   8.948   6.530   1.824
 3451W        W 7573   2.837   2.802   1.890
 3452W        W 7574   6.489   4.117   9.848
 3453W        W 7575   3.218   3.741   3.192
 3454W        W 7576   4.666   0.791  11.307
 3455W        W 7577   9.412   4.091  10.516
 3456W        W 7578   8.117   3.254   8.556
 3457W        W 7579   3.831   6.555   9.384
 3458W        W 7580  10.354   9.569  11.949
 3459W        W 7581   3.661   4.171   2.751
 3460W        W 7582   4.751   7.449   9.365
 3461W        W 7583   6.980   0.462   9.599
 3462W        W 7584   0.949   6.134   8.922
 3463W        W 7585   1.343   2.254  10.817
 3464W        W 7586   4.601   6.496  10.473
 3465W        W 7587   9.376   2.339  11.425
 3466W        W 7588  10.866   6.555   2.685
 3467W        W 7589   4.294   5.165   1.786
 3468W        W 7590   5.080   2.380   1.766
 3469W        W 7591   5.707   4.776   2.770
 3470W        W 7592   9.933   9.858  11.434
 3471W        W 7593   4.155   7.102   0.366
 3472W        W 7594   8.055   6.992   3.338
 3473W        W 7595  10.852  10.949  11.962
 3474W        W 7596  10.369   6.216   3.127
 3475W        W 7597   5.257   2.371   9.009
 3476W        W 7598   7.026   0.772   8.622
 3477W        W 7599   7.107   2.713  11.358
 3478W        W 7600   6.521   7.084  10.392
 3479W        W 7601   5.222   5.625   0.736
 3480W        W 7602  10.008   7.105  10.821
 3481W        W 7603   8.869   6.031   9.883
 3482W        W 7604   4.261   1.819   1.840
 3483W        W 7605   2.833   8.532  10.077
 3484W        W 7606   0.342   9.387   8.530
 3485W        W 7607   9.933   8.588   8.886
 3486W        W 7608   6.591   9.503   9.464
 3487W        W 7609   3.289   1.830   1.714
 3488W        W 7610   8.400   2.369   8.448
 3489W        W 7611   5.144   1.337   9.426
 3490W        W 7612   4.130   3.154   9.851
 3491W        W 7613   9.554  10.483  10.826
 3492W        W 7614   3.171   3.143  10.395
 3493W        W 7615   3.733   8.501   0.269
 3494W        W 7616   1.275   2.667   9.961
 3495W        W 7617   1.916   7.611  10.432
 3496W        W 7618   4.149   6.693  10.980
 3497W        W 7619   7.555   7.091   1.406
 3498W        W 7620   1.821   2.795   1.694
 3499W        W 7621   8.501   6.109   0.951
 3500W        W 7622   6.552  11.265   2.337
 3501W        W 7623   2.695   2.799   9.045
 3502W        W 7624   2.358   7.028   9.510
 3503W        W 7625   4.199   0.297  10.412
 3504W        W 7626   3.173  10.983   9.509
 3505W        W 7627   7.111   5.114  11.942
 3506W        W 7628  10.809   8.909   0.849
 3507W        W 7629   9.383   1.235   2.693
 3508W        W 7630   4.242   9.895   2.722
 3509W        W 7631   0.921   0.888   2.641
 3510W        W 7632   6.498  10.540   3.208
 3511W        W 7633  11.001  10.793   0.288
 3512W        W 7634  10.888   8.038   2.821
 3513W        W 7635   5.718   6.630  10.977
 3514W        W 7636   9.003   4.277  11.454
 3515W        W 7637   2.367   8.447   9.458
 3516W        W 7638   4.108   3.241   3.257
 3517W        W 7639   2.283   2.371   2.191
 3518W        W 7640   4.192   3.756  10.051
 3519W        W 7641   6.571  10.408  10.066
 3520W        W 7642   3.252   8.876   2.241
 3521W        W 7643   6.557   5.128  11.949
 3522W        W 7644   9.864   2.698   9.404
 3523W        W 7645  10.971   8.906  11.392
 3524W        W 7646   1.334   5.229   0.389
 3525W        W 7647   7.050   6.986   0.748
 3526W        W 7648   2.376   1.298   1.760
 3527W        W 7649   8.506   7.652   0.952
 3528W        W 7650   7.083   3.734  11.775
 3529W        W 7651   7.077   8.546   3.218
 3530W        W 7652   9.863   4.783   0.922
 3531W        W 7653   8.531  11.392   1.291
 3532W        W 7654   1.761   0.779   9.535
 3533W        W 7655   7.971   0.934   3.325
 3534W        W 7656   8.132  10.510  10.833
 3535W        W 7657  11.020   5.567   3.300
 3536W        W 7658   2.373   4.768   3.621
 3537W        W 7659   5.100   7.994  10.505
 3538W        W 7660   1.805   2.694   9.452
 3539W        W 7661  11.355   1.895  10.332
 3540W        W 7662   9.420   2.861   2.786
 3541W        W 7663   3.329   1.422   9.453
 3542W        W 7664   7.093   4.164   1.896
 3543W        W 7665   8.888   5.158   8.983
 3544W        W 7666   0.414   8.400   0.242
 3545W        W 7667   7.641   7.921  11.417
 3546W        W 7668   5.223   6.965   2.386
 3547W        W 7669   2.211   9.464  10.440
 3548W        W 7670   6.597   7.161  11.021
 3549W        W 7671   5.227   4.249   2.293
 3550W        W 7672  11.467   9.494  10.951
 3551W        W 7673   6.192   7.521   3.143
 3552W        W 7674  11.405   8.976   8.911
 3553W        W 7675   7.535   8.569  11.941
 3554W        W 7676   5.046   9.362   1.735
 3555W        W 7677   1.790   9.564   3.185
 3556W        W 7678   3.184   5.057   0.793
 3557W        W 7679   6.156   6.153  11.964
 3558W        W 7680  10.918   4.718   9.586
 3559W        W 7681   8.919   6.611   1.258
 3560W        W 7682   0.779  10.967   1.322
 3561W        W 7683   6.160   0.818  10.396
 3562W        W 7684  11.431   1.384  11.019
 3563W        W 7685   9.550   5.546  10.853
 3564W        W 7686   4.254   9.379   9.445
 3565W        W 7687  10.406   2.675   8.936
 3566W        W 7688   4.151   5.718   2.212
 3567W        W 7689  10.972   8.137   9.884
 3568W        W 7690   4.602   0.833   3.234
 3569W        W 7691   1.262   6.016  11.038
 3570W        W 7692   6.011   6.632  11.933
 3571W        W 7693   9.926   4.105  10.386
 3572W        W 7694   8.563   1.396   0.815
 3573W        W 7695   5.747   5.711   0.916
 3574W        W 7696   3.633   8.392   2.208
 3575W        W 7697   8.597   4.782   3.181
 3576W        W 7698   1.200   8.623   0.398
 3577W        W 7699   9.030  10.333   0.439
 3578W        W 7700   0.729   4.633   2.278
 3579W        W 7701   0.352  10.482  10.974
 3580W        W 7702   9.874   1.842   9.434
 3581W        W 7703   4.194   3.747   9.390
 3582W        W 7704   2.240   3.215   3.204
 3583W        W 7705   3.117   9.458   8.988
 3584W        W 7706   2.267   5.133  11.028
 3585W        W 7707   9.350   7.171   0.851
 3586W        W 7708   7.529   4.779   2.829
 3587W        W 7709  11.005  11.383   8.400
 3588W        W 7710   1.681   8.468   3.148
 3589W        W 7711  10.867   8.464   1.340
 3590W        W 7712   6.606   5.165   1.732
 3591W        W 7713  11.262   5.516   1.695
 3592W        W 7714   8.390  11.425  10.504
 3593W        W 7715   2.740   5.066  10.881
 3594W        W 7716   2.215   6.484  11.347
 3595W        W 7717   1.743   8.605   2.359
 3596W        W 7718   3.190  10.535   0.733
 3597W        W 7719   3.218   5.638   9.087
 3598W        W 7720   0.795  10.447  10.995
 3599W        W 7721   1.847   6.618  11.456
 3600W        W 7722   8.135   8.389   3.246
 3601W        W 7723   4.719   9.014   9.530
 3602W        W 7724  11.271   3.147   9.371
 3603W        W 7725   3.187   4.156  11.840
 3604W        W 7726   9.073   2.327   2.198
 3605W        W 7727   1.230   0.861  11.382
 3606W        W 7728   3.182   4.745   9.482
 3607W        W 7729   5.102   1.425   0.477
 3608W        W 7730   9.458   4.680   2.209
 3609W        W 7731   0.447   0.471   2.724
 3610W        W 7732   0.833   6.027  11.422
 3611W        W 7733   3.752   2.756   2.677
 3612W        W 7734   1.328  10.477   0.907
 3613W        W 7735   6.127   7.504   9.030
 3614W        W 7736   0.899   3.227  11.855
 3615W        W 7737   1.737   9.879   8.899
 3616W        W 7738   4.249   1.756   0.285
 3617W        W 7739   3.297   4.598  10.368
 3618W        W 7740  10.348  10.878  11.879
 3619W        W 7741   6.634   9.570  11.456
 3620W        W 7742   7.998   2.274  11.443
 3621W        W 7743   0.850   3.722  11.389
 3622W        W 7744   4.644   1.325  11.901
 3623W        W 7745   5.175  10.465   9.487
 3624W        W 7746   9.024  10.315   2.299
 3625W        W 7747  11.262   5.158   0.297
 3626W        W 7748   7.986  10.481   2.781
 3627W        W 7749   9.552   5.557   2.369
 3628W        W 7750   1.905   1.773  11.503
 3629W        W 7751   6.556   9.453   9.112
 3630W        W 7752   6.078  10.452  10.473
 3631W        W 7753   7.942   8.927   1.897
 3632W        W 7754  10.957   7.443   1.365
 3633W        W 7755   1.860   8.917   2.398
 3634W        W 7756   5.141   8.548  11.767
 3635W        W 7757  10.014  11.465   0.279
 3636W        W 7758   6.637  11.414   1.692
 3637W        W 7759   4.677   9.917   9.449
 3638W        W 7760   8.436  10.517  10.988
 3639W        W 7761   5.206   7.108   3.275
 3640W        W 7762   6.063   3.626   1.313
 3641W        W 7763   2.744   3.185  10.936
 3642W        W 7764  11.406   5.637   0.872
 3643W        W 7765   8.135   3.247   9.557
 3644W        W 7766   5.096  10.990   3.196
 3645W        W 7767   1.247   0.284   2.234
 3646W        W 7768   1.325   9.017   3.128
 3647W        W 7769   7.023   7.431   2.304
 3648W        W 7770   4.248   6.474  11.867
 3649W        W 7771  10.831   1.852   1.918
 3650W        W 7772   9.535  11.402   3.806
 3651W        W 7773   6.148   2.659   8.593
 3652W        W 7774   6.620   9.853   2.290
 3653W        W 7775   3.798   3.693   8.914
 3654W        W 7776   3.159  10.005  10.013
 3655W        W 7777   8.095   0.305   0.819
 3656W        W 7778  10.024  10.365   8.926
 3657W        W 7779   8.477   2.282   2.652
 3658W        W 7780   0.425   2.346   1.329
 3659W        W 7781   3.601   0.363   9.026
 3660W        W 7782  11.331  10.901   8.436
 3661W        W 7783  10.954   2.244   2.231
 3662W        W 7784   1.737   6.114  10.883
 3663W        W 7785   3.283   8.558   9.982
 3664W        W 7786   2.697   7.184   1.709
 3665W        W 7787   9.995   4.680   0.348
 3666W        W 7788   7.536   9.040   2.165
 3667W        W 7789  11.500  10.425   1.876
 3668W        W 7790   0.728   5.105   1.774
 3669W        W 7791   6.965   1.867   0.798
 3670W        W 7792   1.720   2.293  11.810
 3671W        W 7793   6.511   5.554   1.355
 3672W        W 7794   8.983   3.320  11.303
 3673W        W 7795   3.601   7.549   2.784
 3674W        W 7796   3.628   7.105  10.399
 3675W        W 7797   7.167   6.091  10.970
 3676W        W 7798   3.790   9.432   8.555
 3677W        W 7799   6.090   2.834   0.939
 3678W        W 7800   9.412   9.031  11.787
 3679W        W 7801   2.166   8.932   8.940
 3680W        W 7802   9.418   5.676   2.854
 3681W        W 7803   5.197   6.983  11.327
 3682W        W 7804   4.109   4.716  11.337
 3683W        W 7805   5.239   8.991  11.925
 3684W        W 7806   3.171   7.984   2.185
 3685W        W 7807   8.409   1.716   0.469
 3686W        W 7808  11.362   7.962   2.847
 3687W        W 7809   0.901   8.066  10.825
 3688W        W 7810   1.230   4.268  11.337
 3689W        W 7811   6.204   5.162   9.438
 3690W        W 7812   6.658  10.479   0.877
 3691W        W 7813   6.658   0.340   9.887
 3692W        W 7814   5.566   4.150   9.851
 3693W        W 7815   4.563   1.782   2.820
 3694W        W 7816   7.915   8.141   0.904
 3695W        W 7817   1.776  10.492   0.414
 3696W        W 7818   1.220   2.746   9.490
 3697W        W 7819   6.561   2.709   2.185
 3698W        W 7820   4.167   7.442   9.528
 3699W        W 7821   2.320   5.526  10.488
 3700W        W 7822   9.392   8.404  10.874
 3701W        W 7823   1.897   7.023   9.567
 3702W        W 7824   9.914   0.843   0.370
 3703W        W 7825   5.995   8.501   2.186
 3704W        W 7826  11.292   1.232   0.271
 3705W        W 7827   7.469   7.594   0.431
 3706W        W 7828  10.991   6.085   0.783
 3707W        W 7829   2.356   8.998   0.441
 3708W        W 7830   8.418   6.972   2.394
 3709W        W 7831   3.133   4.715   1.764
 3710W        W 7832  10.975   1.423   1.432
 3711W        W 7833   4.559   1.690   0.757
 3712W        W 7834   5.612   0.736   1.799
 3713W        W 7835   3.285   7.537   3.176
 3714W        W 7836   0.906   7.577  11.324
 3715W        W 7837   9.961   9.999   3.211
 3716W        W 7838   5.644   2.269   2.299
 3717W        W 7839   8.964  10.824   1.217
 3718W        W 7840   6.605   8.055   2.740
 3719W        W 7841   1.847  10.508  10.857
 3720W        W 7842   9.932   9.039  11.942
 3721W        W 7843   1.888   4.139   9.957
 3722W        W 7844   4.239   8.532   0.937
 3723W        W 7845  10.009   5.558  11.351
 3724W        W 7846   0.345   1.827  11.978
 3725W        W 7847   3.614  10.407   9.576
 3726W        W 7848   8.477  10.876   0.381
 3727W        W 7849   5.209   3.753   9.007
 3728W        W 7850   7.915  11.353   2.198
 3729W        W 7851   5.643   7.599   0.344
 3730W        W 7852  10.415   0.904  10.920
 3731W        W 7853   7.943   1.905  11.978
 3732W        W 7854   0.844  11.291  10.997
 3733W        W 7855   8.017  10.456   3.319
 3734W        W 7856   8.530   6.505   3.316
 3735W        W 7857  10.843   8.598  11.003
 3736W        W 7858   1.252   0.367   2.753
 3737W        W 7859   5.183   5.119  10.509
 3738W        W 7860   8.571   4.717  10.974
 3739W        W 7861   2.231   5.105   2.799
 3740W        W 7862   9.407   2.248   9.101
 3741W        W 7863   4.104   1.262   9.062
 3742W        W 7864   2.732   6.473   2.316
 3743W        W 7865   7.000   7.907  11.015
 3744W        W 7866   5.197   3.791   2.868
 3745W        W 7867   4.273   9.884   1.829
 3746W        W 7868   8.581  11.429   9.397
 3747W        W 7869   8.621   0.467   9.051
 3748W        W 7870   0.776   2.384   1.422
 3749W        W 7871   2.744  10.530  10.046
 3750W        W 7872   5.179   3.318   0.358
 3751W        W 7873   9.483   3.256   9.391
 3752W        W 7874  10.055   7.060   2.880
 3753W        W 7875  10.489   2.744  11.858
 3754W        W 7876   5.069   3.142   3.130
 3755W        W 7877   6.199   6.510  10.914
 3756W        W 7878   0.383  10.980   0.959
 3757W        W 7879  11.275   3.116  11.941
 3758W        W 7880   1.367   0.282   8.966
 3759W        W 7881  11.264   2.268   1.703
 3760W        W 7882   3.668   5.213   2.171
 3761W        W 7883   2.249   3.115   1.773
 3762W        W 7884   4.211   8.944  10.945
 3763W        W 7885   6.037   5.033  10.941
 3764W        W 7886   5.596   1.422   3.248
 3765W        W 7887   3.256   8.572  10.826
 3766W        W 7888   8.623   5.046   1.805
 3767W        W 7889   6.093   4.167  10.557
 3768W        W 7890   2.386  10.316   1.322
 3769W        W 7891   5.123   4.074   3.319
 3770W        W 7892   8.060  10.817  11.973
 3771W        W 7893   7.511   2.174  10.803
 3772W        W 7894   2.662  10.987   9.846
 3773W        W 7895   6.701   5.707   1.845
 3774W        W 7896   7.121   7.666  11.410
 3775W        W 7897   4.651   6.056   1.701
 3776W        W 7898   9.570   0.328   3.269
 3777W        W 7899   4.302   8.989   1.827
 3778W        W 7900   9.482   4.736   2.873
 3779W        W 7901   3.178   2.214  10.921
 3780W        W 7902   6.013   5.696   9.938
 3781W        W 7903   2.200   7.975  11.385
 3782W        W 7904   2.392   5.708  11.953
 3783W        W 7905   0.356   6.513   8.980
 3784W        W 7906   9.955   0.858  10.975
 3785W        W 7907   0.450  11.467   1.744
 3786W        W 7908  11.376   2.677  10.359
 3787W        W 7909   7.953   6.484   3.829
 3788W        W 7910   2.705   6.645  10.920
 3789W        W 7911   3.269   5.683   1.898
 3790W        W 7912   5.671   6.514   1.718
 3791W        W 7913  11.457   8.881   2.847
 3792W        W 7914   0.920   2.860  11.934
 3793W        W 7915  10.930   8.090   9.463
 3794W        W 7916   5.607   9.400   1.712
 3795W        W 7917   3.618   2.357  11.351
 3796W        W 7918   9.415   5.171   0.720
 3797W        W 7919   8.521   7.527   1.409
 3798W        W 7920   9.549   3.280  11.430
 3799W        W 7921   2.279   3.698  10.454
 3800W        W 7922   9.896   9.482   3.287
 3801W        W 7923   8.583  11.455  11.022
 3802W        W 7924   7.101   2.842  10.385
 3803W        W 7925   3.251   6.037   2.820
 3804W        W 7926   1.356   0.916   0.264
 3805W        W 7927   8.542   5.605   1.696
 3806W        W 7928  10.049   6.193   2.302
 3807W        W 7929   4.300   7.637  11.038
 3808W        W 7930  10.342  11.291   0.855
 3809W        W 7931  11.385   2.804   8.597
 3810W        W 7932   6.025   2.853  11.293
 3811W        W 7933   4.180  11.457   0.313
 3812W        W 7934   6.072   7.021   1.389
 3813W        W 7935   6.028   4.585   1.795
 3814W        W 7936   7.635   5.586   1.228
 3815W        W 7937   7.000   9.364   0.829
 3816W        W 7938   5.037   9.054   0.955
 3817W        W 7939   1.692   9.997   1.756
 3818W        W 7940   5.103   4.619  10.336
 3819W        W 7941   4.184   3.787   0.362
 3820W        W 7942   3.263   2.809   9.445
 3821W        W 7943   7.083   4.585  10.001
 3822W        W 7944   5.054   9.500   0.729
 3823W        W 7945   5.108   0.766   2.764
 3824W        W 7946   9.474   3.637   2.752
 3825W        W 7947   0.277   6.485  10.516
 3826W        W 7948   0.834  11.343   1.362
 3827W        W 7949   3.127   4.228  10.856
 3828W        W 7950   3.703   0.421  10.028
 3829W        W 7951   0.436   5.543   1.382
 3830W        W 7952  10.925   3.215  11.907
 3831W        W 7953   8.098   8.137   2.840
 3832W        W 7954   6.005   8.499  11.916
 3833W        W 7955   9.011   6.508   9.469
 3834W        W 7956   2.358   3.778   2.650
 3835W        W 7957   3.672  11.002   1.324
 3836W        W 7958   9.437   1.710   9.898
 3837W        W 7959   8.050   4.237   2.189
 3838W        W 7960   9.393  10.941   1.803
 3839W        W 7961   9.383   8.526  11.910
 3840W        W 7962   3.300   1.727   0.389
 3841W        W 7963   3.796   9.021   2.303
 3842W        W 7964   9.518   1.275   3.218
 3843W        W 7965   6.184   0.322  10.446
 3844W        W 7966   7.459   4.617  10.803
 3845W        W 7967  10.841  10.876   0.802
 3846W        W 7968   6.173   8.011   0.732
 3847W        W 7969   6.689   4.782  11.453
 3848W        W 7970   2.280   4.144  10.011
 3849W        W 7971   8.463   3.751  10.072
 3850W        W 7972   0.782   9.969   1.215
 3851W        W 7973   3.174   0.446   2.223
 3852W        W 7974   8.444   3.779  10.548
 3853W        W 7975   2.697   5.108   2.258
 3854W        W 7976   6.027   4.111   9.073
 3855W        W 7977   9.370   5.718   3.243
 3856W        W 7978   2.674   5.703   3.160
 3857W        W 7979   7.050  10.512   8.502
 3858W        W 7980   4.078   5.635  10.424
 3859W        W 7981   6.687   3.136   2.203
 3860W        W 7982   0.747  11.462   9.548
 3861W        W 7983   0.301   7.541   8.926
 3862W        W 7984   7.911   1.844   2.278
 3863W        W 7985   9.853   7.926   0.272
 3864W        W 7986   9.988   6.226   9.498
 3865W        W 7987   3.269   3.212  11.282
 3866W        W 7988   5.663   0.926   2.656
 3867W        W 7989  10.808  10.003   3.204
 3868W        W 7990   1.877   8.448   8.921
 3869W        W 7991   8.623  10.006   9.574
 3870W        W 7992   1.731   6.142   9.097
 3871W        W 7993  11.420   7.647   2.328
 3872W        W 7994  10.051   5.225   1.418
 3873W        W 7995   7.985   7.967   9.865
 3874W        W 7996   8.046   1.868   9.029
 3875W        W 7997   9.879   0.758   2.232
 3876W        W 7998   5.583   9.842   0.460
 3877W        W 7999  10.863   2.652  11.506
 3878W        W 8000   9.858   1.248  11.784
 3879W        W 8001   9.032   2.870  10.966
 3880W        W 8002   3.271   5.514   0.466
 3881W        W 8003   0.778   1.341   9.119
 3882W        W 8004   2.265   2.326  10.388
 3883W        W 8005   1.748   3.684   1.364
 3884W        W 8006   3.601   8.052   9.555
 3885W        W 8007   7.994   7.568  10.917
 3886W        W 8008   5.196   3.219  10.383
 3887W        W 8009   4.687   9.949  10.485
 3888W        W 8010   8.118   3.826   9.054
 3889W        W 8011   3.660   8.592   1.333
 3890W        W 8012   6.494   7.637   2.309
 3891W        W 8013   7.619   7.609  11.420
 3892W        W 8014   3.184  10.332  10.412
 3893W        W 8015   0.904   2.665   1.409
 3894W        W 8016   9.844   2.224  10.336
 3895W        W 8017   8.388   9.428  10.951
 3896W        W 8018   8.547  10.426   9.417
 3897W        W 8019   4.618  11.349   9.850
 3898W        W 8020  11.295   9.063  11.503
 3899W        W 8021   1.728   9.498   3.772
 3900W        W 8022   8.100   5.186   8.097
 3901W        W 8023   2.232   8.982   9.442
 3902W        W 8024   8.578   5.080   3.260
 3903W        W 8025   8.428   8.048   1.808
 3904W        W 8026  10.957   1.429   9.597
 3905W        W 8027   9.096   8.004   2.324
 3906W        W 8028   3.719  10.052   1.731
 3907W        W 8029   8.604   5.527   9.370
 3908W        W 8030  10.820   2.215   1.884
 3909W        W 8031   7.657   4.629   1.306
 3910W        W 8032   9.458   7.099  10.822
 3911W        W 8033   0.302   6.634   2.372
 3912W        W 8034  10.541   6.621   0.362
 3913W        W 8035   1.837   4.251  11.913
 3914W        W 8036   4.572   4.109  10.982
 3915W        W 8037   0.729   5.155   3.643
 3916W        W 8038   1.874  10.357   1.248
 3917W        W 8039   7.184  11.399   0.466
 3918W        W 8040   6.204   7.108   9.900
 3919W        W 8041  10.054   9.908   8.941
 3920W        W 8042   2.353  10.535   1.896
 3921W        W 8043   9.095   3.257   0.435
 3922W        W 8044   9.525   0.377   9.508
 3923W        W 8045  10.430   1.264   1.889
 3924W        W 8046   0.775   3.791  10.834
 3925W        W 8047   6.958   1.318   2.761
 3926W        W 8048   8.485  10.414  11.440
 3927W        W 8049  10.962  10.432  10.956
 3928W        W 8050   9.461   1.852  11.780
 3929W        W 8051   3.595   3.307   2.399
 3930W        W 8052   9.855   0.401   0.253
 3931W        W 8053   3.667   8.930  11.954
 3932W        W 8054   8.998  10.392   1.431
 3933W        W 8055   3.803   0.314   0.303
 3934W        W 8056   2.291   1.330   9.983
 3935W        W 8057   9.378   3.673  10.425
 3936W        W 8058   7.023   9.388   9.446
 3937W        W 8059   8.512   5.057   4.283
 3938W        W 8060  10.028   0.784   1.379
 3939W        W 8061   1.387   1.719   2.735
 3940W        W 8062   0.839   9.424   1.438
 3941W        W 8063   7.522  10.998   0.871
 3942W        W 8064   6.500   2.333   2.655
 3943W        W 8065   9.448   1.843   2.688
 3944W        W 8066   5.055   3.228   1.762
 3945W        W 8067   2.300   1.212  11.503
 3946W        W 8068   7.081   3.608   2.347
 3947W        W 8069   8.589  10.802   9.095
 3948W        W 8070  10.370  10.886  10.507
 3949W        W 8071   9.825   3.639   1.808
 3950W        W 8072  11.293   6.552   9.114
 3951W        W 8073   0.324   9.484   3.604
 3952W        W 8074   3.605   5.103   1.364
 3953W        W 8075   6.108   1.894   9.382
 3954W        W 8076   4.701   4.213   0.902
 3955W        W 8077   6.046   1.892   0.444
 3956W        W 8078   3.211   3.345   8.933
 3957W        W 8079   6.216   7.532  10.983
 3958W        W 8080   4.633   9.031  10.498
 3959W        W 8081  10.932   9.507   0.281
 3960W        W 8082   5.164   4.641   0.754
 3961W        W 8083   4.704   9.044   8.888
 3962W        W 8084   5.583   1.785   3.347
 3963W        W 8085  10.382  10.011  11.302
 3964W        W 8086   5.652   4.304   9.398
 3965W        W 8087   9.552   7.509   9.085
 3966W        W 8088   4.759   0.858  10.856
 3967W        W 8089   4.206   4.264   9.515
 3968W        W 8090   7.104   1.717   2.642
 3969W        W 8091   1.264  10.317  11.414
 3970W        W 8092   4.706   1.358   1.344
 3971W        W 8093   4.787   3.635   9.473
 3972W        W 8094   3.335   6.986   3.263
 3973W        W 8095   8.914  10.858  11.995
 3974W        W 8096  11.319   5.653  11.368
 3975W        W 8097   4.724  10.477   0.933
 3976W        W 8098  11.358   0.312   0.275
 3977W        W 8099   4.093   9.947   9.857
 3978W        W 8100   3.680   8.057   2.813
 3979W        W 8101   3.267   9.961  11.781
 3980W        W 8102   2.692   9.085   9.990
 3981W        W 8103   9.428   9.362  10.897
 3982W        W 8104   5.585   4.654   0.337
 3983W        W 8105   8.567   0.336  11.834
 3984W        W 8106  10.979  11.383  11.462
 3985W        W 8107   8.993   5.662  11.476
 3986W        W 8108   9.465   3.662  11.037
 3987W        W 8109   6.212   5.246   2.843
 3988W        W 8110   5.045   9.940   9.570
 3989W        W 8111   0.465   3.160   0.915
 3990W        W 8112  11.266   1.383   3.181
 3991W        W 8113   8.540   1.309  10.394
 3992W        W 8114   5.092  10.798  11.881
 3993W        W 8115   1.839   0.357   9.070
 3994W        W 8116   4.594   8.465  10.827
 3995W        W 8117   5.517  11.330  10.974
 3996W        W 8118   8.418   1.749   2.394
 3997W        W 8119   6.018   7.133   0.810
 3998W        W 8120   0.341   9.068   8.970
 3999W        W 8121  10.512   2.239   2.228
 4000W        W 8122   4.143   9.528   1.894
 4001W        W 8123  10.317   8.537   2.751
 4002W        W 8124  11.394   3.689  10.059
 4003W        W 8125   7.031   0.424  11.812
 4004W        W 8126   2.175   5.646   1.870
 4005W        W 8127   0.335   3.605   1.737
 4006W        W 8128   8.102   2.327   1.418
 4007W        W 8129   7.044   8.040  10.067
 4008W        W 8130   2.735   8.002   2.230
 4009W        W 8131   7.499   5.150   2.377
 4010W        W 8132   8.479   6.483   3.682
 4011W        W 8133   7.458   5.161   2.721
 4012W        W 8134   9.490  10.308   1.842
 4013W        W 8135   5.723   8.056   1.767
 4014W        W 8136  10.382  11.337  10.849
 4015W        W 8137   5.709   1.912  11.354
 4016W        W 8138   7.145   5.112   1.382
 4017W        W 8139   8.465   1.916  11.933
 4018W        W 8140   3.190   2.728   1.736
 4019W        W 8141   0.395   4.754  10.338
 4020W        W 8142   1.282  10.915   1.309
 4021W        W 8143   3.800   4.096   0.309
 4022W        W 8144   9.378   4.675   8.425
 4023W        W 8145   8.985   4.637  11.029
 4024W        W 8146   7.643   0.901   2.225
 4025W        W 8147   4.593  10.957   8.479
 4026W        W 8148   7.032   8.524   0.960
 4027W        W 8149   7.516   8.423   3.135
 4028W        W 8150   5.519   7.540   3.139
 4029W        W 8151   5.994  11.324  11.471
 4030W        W 8152   3.809   2.691   1.687
 4031W        W 8153   7.500   3.295  11.885
 4032W        W 8154   3.342   1.830   1.230
 4033W        W 8155   8.128   3.305   1.790
 4034W        W 8156   1.867   9.350  10.515
 4035W        W 8157   0.875   5.675  10.886
 4036W        W 8158   9.575   2.825   1.869
 4037W        W 8159   2.872   7.441   3.213
 4038W        W 8160   8.544   4.127  11.941
 4039W        W 8161   7.009   7.502   1.772
 4040W        W 8162   7.058   4.707   3.736
 4041W        W 8163   6.657   3.239   1.889
 4042W        W 8164   4.096   3.734   2.783
 4043W        W 8165   4.163   8.884   9.948
 4044W        W 8166   7.959   4.571  11.850
 4045W        W 8167   2.231   7.512  11.039
 4046W        W 8168   9.457   4.640  11.830
 4047W        W 8169   2.259   6.096   2.693
 4048W        W 8170   1.363   8.459  10.534
 4049W        W 8171   8.533   5.099   8.978
 4050W        W 8172   4.770  10.416   1.255
 4051W        W 8173   6.059   3.157   9.998
 4052W        W 8174   8.967   5.544   1.705
 4053W        W 8175   8.457   7.128   1.771
 4054W        W 8176   9.036   4.581   0.315
 4055W        W 8177   5.731   2.656  10.546
 4056W        W 8178   2.197   5.567   2.819
 4057W        W 8179   1.716   9.096  11.765
 4058W        W 8180  11.359   9.069   0.434
 4059W        W 8181   0.800   7.482   2.833
 4060W        W 8182   5.123   9.917   9.950
 4061W        W 8183   8.477   9.376   9.997
 4062W        W 8184   4.750   0.907   9.017
 4063W        W 8185   7.589   2.165   9.509
 4064W        W 8186   4.789   0.925   0.897
 4065W        W 8187   7.652  11.371  11.024
 4066W        W 8188   2.269   3.687   2.244
 4067W        W 8189   8.027   7.005   1.242
 4068W        W 8190   6.696   5.096   0.319
 4069W        W 8191   6.645  10.984   2.759
 4070W        W 8192   1.359   3.671   2.185
 4071W        W 8193   0.737   5.665   0.932
 4072W        W 8194   4.662   1.780   8.911
 4073W        W 8195   8.947   9.551   2.389
 4074W        W 8196   1.679   0.286  10.515
 4075W        W 8197   6.574   1.304   9.033
 4076W        W 8198   6.087   6.954  11.944
 4077W        W 8199   9.009   7.433   0.430
 4078W        W 8200   5.219   8.127   0.332
 4079W        W 8201   2.179   0.757   1.322
 4080W        W 8202   9.456   4.725   3.289
 4081W        W 8203  10.374   0.452   9.981
 4082W        W 8204   7.541   9.399   2.379
 4083W        W 8205  11.317   1.824   1.352
 4084W        W 8206   7.615   8.428  10.824
 4085W        W 8207   1.819  10.917   2.212
 4086W        W 8208   4.144   9.493   2.838
 4087W        W 8209   4.240   2.851   2.699
 4088W        W 8210   9.513   6.076   2.306
 4089W        W 8211   8.018   3.650   9.982
 4090W        W 8212   3.316   5.199   1.874
 4091W        W 8213   4.632   4.151   2.263
 4092W        W 8214   6.095   4.141   3.310
 4093W        W 8215   7.102  10.865   2.734
 4094W        W 8216   9.508   4.672   1.242
 4095W        W 8217   2.854   7.575  10.864
 4096W        W 8218  10.975   2.245  10.474
 4097W        W 8219   1.402   2.204   0.395
 4098W        W 8220   6.183   6.162   0.915
 4099W        W 8221   3.353   1.296   3.282
 4100W        W 8222   6.184   6.551   4.227
 4101W        W 8223   5.731   8.131  10.517
 4102W        W 8224   1.254   5.165   3.233
 4103W        W 8225   2.769   9.484   8.919
 4104W        W 8226   7.996   5.639   3.681
 4105W        W 8227   0.408   2.827   3.251
 4106W        W 8228   2.796   0.760   1.752
 4107W        W 8229   5.725  10.913   8.622
 4108W        W 8230   5.999   1.335  11.331
 4109W        W 8231   6.664   6.039   1.404
 4110W        W 8232   1.397   0.880   9.050
 4111W        W 8233   9.542   4.114   0.739
 4112W        W 8234   3.827   7.004   2.319
 4113W        W 8235   4.253   8.606   9.515
 4114W        W 8236   4.568   8.000   0.371
 4115W        W 8237   3.126   5.110  11.840
 4116W        W 8238   9.386   1.372   9.016
 4117W        W 8239   7.045  10.528   0.435
 4118W        W 8240   5.657   1.336   1.704
 4119W        W 8241  11.272   6.614   1.709
 4120W        W 8242   4.079  10.390   3.231
 4121W        W 8243   3.831   0.244  11.966
 4122W        W 8244   4.255   8.568  11.778
 4123W        W 8245   2.394   0.424   9.845
 4124W        W 8246   2.818  11.267   9.026
 4125W        W 8247   1.899   3.683  11.334
 4126W        W 8248   3.637   6.523   8.426
 4127W        W 8249   1.368   1.794   1.766
 4128W        W 8250  11.413   7.430  10.053
 4129W        W 8251   6.596   7.428   8.134
 4130W        W 8252   0.343  11.262  10.805
 4131W        W 8253   8.972   7.551  11.844
 4132W        W 8254   5.520   3.247  10.810
 4133W        W 8255   6.493   1.805  10.936
 4134W        W 8256  11.336   5.140   9.365
 4135W        W 8257   7.973   9.393  11.939
 4136W        W 8258   7.504   0.428   9.416
 4137W        W 8259   3.292   4.654   0.858
 4138W        W 8260   7.587   9.876   9.389
 4139W        W 8261   4.270   8.456   9.067
 4140W        W 8262   1.806  11.322   0.431
 4141W        W 8263   9.354  10.809   9.069
 4142W        W 8264   0.365   6.119   1.826
 4143W        W 8265   5.031   3.745   1.737
 4144W        W 8266   5.646   5.047  11.924
 4145W        W 8267   2.297   8.618  11.789
 4146W        W 8268   2.312   3.267   8.546
 4147W        W 8269  10.842   5.570  10.357
 4148W        W 8270   4.182   0.905   9.581
 4149W        W 8271   7.540   3.802   1.768
 4150W        W 8272   4.778   9.060   9.883
 4151W        W 8273  10.965   3.823  11.982
 4152W        W 8274   7.915  11.296  11.945
 4153W        W 8275   5.613   0.417  10.550
 4154W        W 8276   3.214   5.159   8.974
 4155W        W 8277   6.607  10.539  11.855
 4156W        W 8278   2.380   9.856  11.793
 4157W        W 8279   4.211   3.254   2.358
 4158W        W 8280   3.307   6.699   4.280
 4159W        W 8281   7.463  11.378   2.767
 4160W        W 8282   3.214   9.996  10.373
 4161W        W 8283   2.857  10.868   1.878
 4162W        W 8284   7.052   1.877   8.510
 4163W        W 8285   8.607   7.613  11.300
 4164W        W 8286   9.572   4.670   9.015
 4165W        W 8287   6.204   7.925  11.332
 4166W        W 8288   0.952   6.129   1.858
 4167W        W 8289  10.874   1.769  11.475
 4168W        W 8290   2.636   7.473   9.455
 4169W        W 8291   8.453   7.549  11.915
 4170W        W 8292   9.354   4.718   0.477
 4171W        W 8293  11.491   2.753  10.862
 4172W        W 8294   6.619  10.406  10.503
 4173W        W 8295   3.691   3.771   8.444
 4174W        W 8296   5.556   9.003   9.465
 4175W        W 8297   3.611   5.180   3.256
 4176W        W 8298   6.511   6.577  11.333
 4177W        W 8299   0.729   9.518   0.736
 4178W        W 8300   3.647   1.704   3.171
 4179W        W 8301   0.343   3.825  11.864
 4180W        W 8302   9.889   1.827  10.844
 4181W        W 8303   5.532   2.313  11.893
 4182W        W 8304   6.221   6.681   2.647
 4183W        W 8305   2.340   4.662  11.897
 4184W        W 8306   0.786   8.573   1.714
 4185W        W 8307  10.887  10.478  11.941
 4186W        W 8308   5.042   4.789   9.980
 4187W        W 8309   2.787   0.760   8.885
 4188W        W 8310   4.721   4.756  10.057
 4189W        W 8311   0.732   7.483   3.690
 4190W        W 8312  10.864   9.480   0.895
 4191W        W 8313  10.007   9.437  10.841
 4192W        W 8314   4.204  11.460   3.169
 4193W        W 8315   9.560   6.225  10.540
 4194W        W 8316   1.731   0.833   1.688
 4195W        W 8317  11.343   2.839   2.253
 4196W        W 8318   3.219   6.610   3.263
 4197W        W 8319   9.870   7.615  10.056
 4198W        W 8320   6.965  11.297   8.890
 4199W        W 8321   2.314   1.337   0.912
 4200W        W 8322   5.181   0.873   1.225
 4201W        W 8323   0.370  10.477   1.389
 4202W        W 8324   8.448   6.228   8.599
 4203W        W 8325  10.905  10.470   8.899
 4204W        W 8326   1.883   8.605   9.563
 4205W        W 8327  10.810   7.943   0.375
 4206W        W 8328  11.489   6.133   1.759
 4207W        W 8329  11.295   7.606   9.384
 4208W        W 8330  10.054   8.592  11.370
 4209W        W 8331  11.343   4.113  11.291
 4210W        W 8332  11.482  10.009   2.743
 4211W        W 8333   6.207   3.816  10.891
 4212W        W 8334   9.505   4.089  10.949
 4213W        W 8335  10.972   6.961  10.524
 4214W        W 8336   2.231  10.426   9.368
 4215W        W 8337   4.296   4.274   0.242
 4216W        W 8338   2.722   0.950  10.927
 4217W        W 8339   6.516   1.311   2.878
 4218W        W 8340   9.483   4.144   8.597
 4219W        W 8341   6.669   2.791   3.170
 4220W        W 8342   6.502  10.923   9.999
 4221W        W 8343   8.929  10.915   0.903
 4222W        W 8344   0.273   2.780  11.414
 4223W        W 8345   6.566   0.812   0.331
 4224W        W 8346   0.297   4.773  11.396
 4225W        W 8347   0.793   4.624   1.849
 4226W        W 8348   6.671  10.365  11.405
 4227W        W 8349   4.136   4.592   0.341
 4228W        W 8350   0.884   3.344   8.894
 4229W        W 8351   0.875  10.931   0.726
 4230W        W 8352   7.954   6.682   1.712
 4231W        W 8353   1.687  10.009   0.910
 4232W        W 8354   7.478   9.447   0.847
 4233W        W 8355  10.051   1.734   0.442
 4234W        W 8356   7.479   4.144   1.293
 4235W        W 8357   9.372   6.045  11.910
 4236W        W 8358   2.875  10.902   9.084
 4237W        W 8359   1.886   4.207  11.444
 4238W        W 8360   7.064   3.222   3.276
 4239W        W 8361   3.674   6.107   2.729
 4240W        W 8362   9.410  11.380   3.147
 4241W        W 8363  10.437   7.079   9.389
 4242W        W 8364   8.134  11.012  10.895
 4243W        W 8365   5.655   7.637   3.720
 4244W        W 8366   3.148   6.506   3.646
 4245W        W 8367  10.505   6.105   0.346
 4246W        W 8368   2.707   3.176   1.684
 4247W        W 8369   6.607   1.740  11.322
 4248W        W 8370  11.443   8.966  10.554
 4249W        W 8371   9.034   6.969   8.882
 4250W        W 8372  10.956  10.361   2.304
 4251W        W 8373  10.042   9.082   3.329
 4252W        W 8374   2.738   6.180  10.872
 4253W        W 8375   9.873   0.860  11.342
 4254W        W 8376   9.827  10.357   8.500
 4255W        W 8377   8.931  10.352   0.809
 4256W        W 8378  10.521   2.202   1.348
 4257W        W 8379   3.612   1.411  11.405
 4258W        W 8380   5.546   1.248   2.372
 4259W        W 8381   4.163   0.748   2.197
 4260W        W 8382  10.843   4.120   8.634
 4261W        W 8383   7.500  10.869  11.916
 4262W        W 8384   7.589   8.982  11.932
 4263W        W 8385  10.916  10.026   8.478
 4264W        W 8386   6.068   4.312  10.881
 4265W        W 8387   8.924   2.764   3.265
 4266W        W 8388   9.873   8.391   2.389
 4267W        W 8389   3.172   3.617  10.847
 4268W        W 8390   2.360   4.678   8.440
 4269W        W 8391   1.865   6.971  10.880
 4270W        W 8392   2.197   1.256   2.328
 4271W        W 8393   2.668   0.402  11.364
 4272W        W 8394   9.966  10.946   1.831
 4273W        W 8395   1.865  10.352  10.461
 4274W        W 8396   9.460   8.475   1.360
 4275W        W 8397  10.847  10.318  10.071
 4276W        W 8398   9.514   7.161   3.351
 4277W        W 8399   5.531   5.229  10.451
 4278W        W 8400   5.715   7.538   7.991
 4279W        W 8401  11.395   6.705  11.324
 4280W        W 8402   9.986   8.577   0.267
 4281W        W 8403   3.618  11.395  11.338
 4282W        W 8404  10.392   8.101  10.529
 4283W        W 8405  10.882   0.948   0.802
 4284W        W 8406   0.786   7.535  10.334
 4285W        W 8407   7.989   6.622   8.446
 4286W        W 8408  10.975   5.036   0.902
 4287W        W 8409   7.546   2.787  10.990
 4288W        W 8410   4.710   7.626  10.955
 4289W        W 8411  10.449   6.670  10.543
 4290W        W 8412   6.047   0.373  10.995
 4291W        W 8413   4.098  11.355   2.727
 4292W        W 8414   2.850   4.628   2.198
 4293W        W 8415   5.110  11.282   8.903
 4294W        W 8416   1.704  11.298   1.340
 4295W        W 8417   2.833   6.103   2.265
 4296W        W 8418  10.012   1.807   1.826
 4297W        W 8419   4.716   1.375   8.994
 4298W        W 8420   4.308   2.831   0.938
 4299W        W 8421   6.572   0.276   2.218
 4300W        W 8422   7.591   0.860   8.437
 4301W        W 8423   8.045   8.427   3.661
 4302W        W 8424   9.395  11.466   2.318
 4303W        W 8425   6.546   5.589   0.828
 4304W        W 8426   9.557   3.131   0.340
 4305W        W 8427  10.871   2.689   2.853
 4306W        W 8428   2.786  10.014   2.381
 4307W        W 8429   7.909   9.456  11.345
 4308W        W 8430   8.550  10.018   3.296
 4309W        W 8431  10.044   3.267   9.415
 4310W        W 8432   5.153  11.404   2.177
 4311W        W 8433  11.342   7.992   0.813
 4312W        W 8434   9.022   7.163   0.941
 4313W        W 8435   3.659   4.695   3.704
 4314W        W 8436  10.429   2.240   9.011
 4315W        W 8437   2.812   7.433  11.306
 4316W        W 8438   3.737   8.407  10.455
 4317W        W 8439   9.086   4.308   1.396
 4318W        W 8440   1.828   5.627   1.771
 4319W        W 8441   8.089   8.541   9.523
 4320W        W 8442  10.928   1.762   0.328
 4321W        W 8443   9.464   8.117   9.922
 4322W        W 8444   8.005   6.166   1.326
 4323W        W 8445   9.858   7.019   1.276
 4324W        W 8446   1.231   5.144   0.724
 4325W        W 8447  10.940   5.059   8.957
 4326W        W 8448   5.111   7.099   1.838
 4327W        W 8449   4.293  11.011   1.278
 4328W        W 8450   4.136   9.520  10.520
 4329W        W 8451  10.958   4.238  11.005
 4330W        W 8452   9.011   0.946   0.364
 4331W        W 8453   0.773   3.252  10.400
 4332W        W 8454   7.012   6.201  11.338
 4333W        W 8455   3.762   1.240   2.687
 4334W        W 8456   8.132   1.355  11.827
 4335W        W 8457   8.467   6.101  11.302
 4336W        W 8458   0.920  10.487   0.309
 4337W        W 8459   0.247   4.702   8.410
 4338W        W 8460   3.808   8.526   8.622
 4339W        W 8461   5.230   9.892   1.824
 4340W        W 8462   0.816   8.088   0.876
 4341W        W 8463   3.353   1.234   1.783
 4342W        W 8464   8.988   1.226   0.392
 4343W        W 8465   8.401   4.237   1.762
 4344W        W 8466  10.435   9.574   9.441
 4345W        W 8467   0.931   8.439   9.919
 4346W        W 8468   7.145   2.327   2.849
 4347W        W 8469   9.354   4.156   0.451
 4348W        W 8470  10.432   6.572  11.416
 4349W        W 8471   2.718   9.026   3.194
 4350W        W 8472   6.015   4.699   2.814
 4351W        W 8473   5.648   3.174   9.469
 4352W        W 8474   0.777   0.255   9.001
 4353W        W 8475   7.046   1.708  10.451
 4354W        W 8476   1.337   7.021   9.067
 4355W        W 8477   4.255   7.508  11.362
 4356W        W 8478  11.005   5.600   2.190
 4357W        W 8479   9.047   9.955  11.947
 4358W        W 8480   7.906   4.242  11.792
 4359W        W 8481  10.869   8.108   1.694
 4360W        W 8482  10.916   5.059   2.873
 4361W        W 8483   1.244   6.550  11.864
 4362W        W 8484   8.144   4.247   9.015
 4363W        W 8485   0.320   8.464   2.203
 4364W        W 8486   0.315   1.697  10.929
 4365W        W 8487   9.032   0.864   0.892
 4366W        W 8488   6.014   2.159   2.245
 4367W        W 8489  10.446   0.756   2.703
 4368W        W 8490  11.479   3.827   9.432
 4369W        W 8491   8.050   7.935   3.639
 4370W        W 8492   9.518   9.027   2.266
 4371W        W 8493  11.406   7.053   2.302
 4372W        W 8494   7.036  10.407   1.782
 4373W        W 8495   7.174  10.040   0.314
 4374W        W 8496   0.736   7.912   1.683
 4375W        W 8497   4.240   8.407   8.491
 4376W        W 8498  10.309   8.977   2.684
 4377W        W 8499   2.396   8.877   3.248
 4378W        W 8500   0.400   0.345   3.300
 4379W        W 8501   8.098   3.219   3.692
 4380W        W 8502   4.250   7.005   0.845
 4381W        W 8503   4.677   6.040   3.637
 4382W        W 8504  10.830   8.589   2.756
 4383W        W 8505   8.118   9.494  10.015
 4384W        W 8506   3.350   6.532   2.295
 4385W        W 8507   0.298   6.552  11.829
 4386W        W 8508   1.690   1.303   0.872
 4387W        W 8509   2.808   8.537   0.896
 4388W        W 8510   7.592   5.143  10.430
 4389W        W 8511   7.957   7.515   2.816
 4390W        W 8512   4.594   0.330  11.365
 4391W        W 8513   6.489   6.064  11.878
 4392W        W 8514   7.146   1.283  10.459
 4393W        W 8515  10.939   1.303   2.780
 4394W        W 8516   0.886   4.733   9.410
 4395W        W 8517   9.348  10.964  11.467
 4396W        W 8518   9.384   9.910   1.854
 4397W        W 8519   8.884   3.685   9.996
 4398W        W 8520   9.833   4.730   2.800
 4399W        W 8521   4.074   6.020   9.524
 4400W        W 8522   8.881   9.047   9.058
 4401W        W 8523   6.480   2.269   3.274
 4402W        W 8524   7.641   6.094   0.443
 4403W        W 8525   4.780   3.343  11.987
 4404W        W 8526   6.497   3.349   3.149
 4405W        W 8527   4.722   1.840   3.257
 4406W        W 8528   7.475   1.837   1.386
 4407W        W 8529  10.018   3.825   2.875
 4408W        W 8530  11.291   9.510   1.826
 4409W        W 8531   8.869   8.453   9.901
 4410W        W 8532   4.720  10.506   0.339
 4411W        W 8533   2.784   4.117   8.052
 4412W        W 8534   2.701  10.833  11.799
 4413W        W 8535  10.381   6.029  10.911
 4414W        W 8536   6.203   3.667   3.720
 4415W        W 8537   6.174   3.800   9.600
 4416W        W 8538   1.208   7.115  10.412
 4417W        W 8539   6.196   0.871  11.374
 4418W        W 8540   7.140  10.430  11.829
 4419W        W 8541   4.740   2.304   1.251
 4420W        W 8542   3.179  11.291  11.008
 4421W        W 8543  10.511   4.074   8.481
 4422W        W 8544   8.457   9.996  11.826
 4423W        W 8545   9.095   3.142  10.465
 4424W        W 8546   6.556   9.924   3.355
 4425W        W 8547   6.126  10.390   3.335
 4426W        W 8548   1.314   5.101   2.794
 4427W        W 8549   9.485   4.712  11.430
 4428W        W 8550   1.807   2.654   0.389
 4429W        W 8551   8.890   4.117  11.034
 4430W        W 8552   2.655   0.277   1.843
 4431W        W 8553   0.791   8.487   2.184
 4432W        W 8554   4.580   0.724   0.379
 4433W        W 8555  10.338   8.002   9.982
 4434W        W 8556   6.659  11.419  10.064
 4435W        W 8557   6.479   0.331  11.484
 4436W        W 8558   9.938   8.401  11.794
 4437W        W 8559   4.174   8.903   0.401
 4438W        W 8560  10.921   6.621   1.439
 4439W        W 8561   8.925   0.470   8.466
 4440W        W 8562   5.082   3.231   9.470
 4441W        W 8563   1.209  10.479   9.061
 4442W        W 8564   3.789  10.512   0.850
 4443W        W 8565   2.805   3.331  11.972
 4444W        W 8566   5.518   6.610   8.607
 4445W        W 8567   8.948   6.980   8.151
 4446W        W 8568   9.840   1.308   9.413
 4447W        W 8569  11.436  10.368   3.232
 4448W        W 8570   2.282   1.819  11.986
 4449W        W 8571   6.203  10.028   9.528
 4450W        W 8572  10.516   2.783   1.344
 4451W        W 8573   5.071   2.677   3.205
 4452W        W 8574   7.571   3.279  11.330
 4453W        W 8575   4.176   6.960  10.544
 4454W        W 8576   4.761   6.572  11.978
 4455W        W 8577   3.824   2.171   2.227
 4456W        W 8578   3.216   0.749   3.261
 4457W        W 8579   6.086   8.916  11.390
 4458W        W 8580   0.784   0.842   3.247
 4459W        W 8581   8.566   6.172   9.000
 4460W        W 8582   2.685  10.463   2.818
 4461W        W 8583   8.063   3.191   9.088
 4462W        W 8584  11.373   9.460   2.837
 4463W        W 8585  11.364   8.573   1.391
 4464W        W 8586   4.592  11.389   1.686
 4465W        W 8587   8.138   7.659   3.210
 4466W        W 8588  11.293   3.306   2.731
 4467W        W 8589   4.632   2.810  10.871
 4468W        W 8590  10.447   7.649   3.161
 4469W        W 8591   9.345   2.773  10.544
 4470W        W 8592  10.978   7.141   1.818
 4471W        W 8593   9.409   9.027   1.852
 4472W        W 8594   0.839   4.106   3.120
 4473W        W 8595   6.121   2.332  10.983
 4474W        W 8596   7.907  10.892   0.854
 4475W        W 8597   7.006  11.398  11.368
 4476W        W 8598   3.128   4.179  10.003
 4477W        W 8599   7.621   6.976  10.943
 4478W        W 8600   9.954  11.265   1.725
 4479W        W 8601  11.353   5.198  11.846
 4480W        W 8602   9.464   6.167   3.709
 4481W        W 8603   3.682   6.703  11.873
 4482W        W 8604  10.819  10.806   2.217
 4483W        W 8605   9.892   6.480   9.867
 4484W        W 8606   4.725   9.549   1.735
 4485W        W 8607   0.377   6.019  10.543
 4486W        W 8608   4.654   2.739   0.251
 4487W        W 8609   5.261   0.416   3.269
 4488W        W 8610   7.645   4.557   9.515
 4489W        W 8611   3.157   1.232   0.762
 4490W        W 8612   8.387   2.316   8.956
 4491W        W 8613   0.751   2.870   0.334
 4492W        W 8614   4.253   9.004   2.867
 4493W        W 8615   8.034   2.669   3.170
 4494W        W 8616   0.439   3.288   1.723
 4495W        W 8617   3.813   6.707   3.787
 4496W        W 8618   0.268   2.666   9.569
 4497W        W 8619   8.940   2.278   8.951
 4498W        W 8620   9.412   8.406   1.734
 4499W        W 8621  10.006   9.849  10.809
 4500W        W 8622  10.513   8.935  10.333
 4501W        W 8623   6.579   8.131   3.696
 4502W        W 8624   5.686   3.210   0.794
 4503W        W 8625   9.938   4.311   3.153
 4504W        W 8626  10.882   3.658   2.186
 4505W        W 8627  10.955   1.904   9.556
 4506W        W 8628   3.751   7.554   1.339
 4507W        W 8629   3.293   1.784  11.821
 4508W        W 8630   9.090   6.204  11.871
 4509W        W 8631   0.893   1.241   1.830
 4510W        W 8632   3.750   9.555   1.910
 4511W        W 8633   5.644   1.432   2.862
 4512W        W 8634  10.937   2.674   2.174
 4513W        W 8635   8.879   9.089   2.803
 4514W        W 8636   0.943   1.752   8.436
 4515W        W 8637  10.375  10.922   8.935
 4516W        W 8638   6.682  11.333   3.296
 4517W        W 8639   1.395   4.655   8.976
 4518W        W 8640   4.617  11.353   8.443
 4519W        W 8641   9.968   3.613   0.766
 4520W        W 8642   2.657   2.379   1.889
 4521W        W 8643   6.988   6.043   8.981
 4522W        W 8644   2.203   8.610  11.292
 4523W        W 8645   3.172  11.476   0.827
 4524W        W 8646   3.168   3.640  11.821
 4525W        W 8647   7.588   0.252   2.253
 4526W        W 8648   0.290   2.691   2.350
 4527W        W 8649   5.233   8.107   2.394
 4528W        W 8650  11.414   0.391   9.001
 4529W        W 8651   1.215   1.748   2.177
 4530W        W 8652   1.248   3.232   9.460
 4531W        W 8653   9.853   4.187   0.303
 4532W        W 8654   9.562   1.685   1.884
 4533W        W 8655   2.639   8.492   0.466
 4534W        W 8656   9.832  10.477   9.923
 4535W        W 8657   1.235   3.216   0.722
 4536W        W 8658   1.388   1.230   3.341
 4537W        W 8659   1.865   9.830   9.388
 4538W        W 8660   2.322   5.710  10.812
 4539W        W 8661   1.244   5.074   9.409
 4540W        W 8662   7.524   3.259   9.029
 4541W        W 8663  11.382   6.221  10.518
 4542W        W 8664   9.400   4.636  10.486
 4543W        W 8665   3.132   0.379   3.275
 4544W        W 8666   9.511   1.322  10.985
 4545W        W 8667  10.410   6.648   2.309
 4546W        W 8668   9.056   1.200   1.288
 4547W        W 8669   4.612   1.837  11.495
 4548W        W 8670   9.416   6.501  10.019
 4549W        W 8671   1.769   3.618   3.125
 4550W        W 8672   9.471   5.081   9.571
 4551W        W 8673  10.939   4.092  11.460
 4552W        W 8674   6.081   9.103   1.400
 4553W        W 8675   4.695   7.984   9.427
 4554W        W 8676   6.956   8.946   9.017
 4555W        W 8677   8.113   0.768  10.358
 4556W        W 8678   8.521   6.625   8.591
 4557W        W 8679   2.827   9.483   1.799
 4558W        W 8680   6.103   7.075   2.809
 4559W        W 8681   3.345   6.222   9.850
 4560W        W 8682   6.637   9.424   0.390
 4561W        W 8683   7.106   3.296  11.434
 4562W        W 8684   1.687   5.990  11.971
 4563W        W 8685   1.382   8.466   3.206
 4564W        W 8686   9.020   6.474  11.964
 4565W        W 8687   3.177   6.039   8.903
 4566W        W 8688   8.117   2.725  10.923
 4567W        W 8689  11.300  10.829   8.960
 4568W        W 8690   1.243   2.352   9.451
 4569W        W 8691   2.873   6.659   3.815
 4570W        W 8692   2.317   3.194   9.011
 4571W        W 8693   0.764   1.728   1.816
 4572W        W 8694   4.171   5.113  11.477
 4573W        W 8695   3.781   0.807   9.959
 4574W        W 8696  10.930   4.080   9.508
 4575W        W 8697   5.596  11.302   9.966
 4576W        W 8698   8.604   1.852  10.070
 4577W        W 8699   7.544   1.914   1.781
 4578W        W 8700  10.904   4.269   3.133
 4579W        W 8701   0.871   2.845   9.001
 4580W        W 8702   4.579   8.079   1.306
 4581W        W 8703   8.962   1.389   1.836
 4582W        W 8704   9.903   5.070  10.910
 4583W        W 8705   6.022   4.290   1.428
 4584W        W 8706   2.182   8.439   0.293
 4585W        W 8707   9.047   3.184   9.919
 4586W        W 8708  10.961   1.846   2.320
 4587W        W 8709   4.302   4.690  10.461
 4588W        W 8710   5.609   5.633  11.029
 4589W        W 8711   1.792   4.187   3.227
 4590W        W 8712   0.401   2.761  10.936
 4591W        W 8713   4.115   0.862   0.891
 4592W        W 8714   4.668  10.433  11.858
 4593W        W 8715  10.306  11.270  11.518
 4594W        W 8716   4.697   6.172   1.407
 4595W        W 8717   9.014   0.720   1.386
 4596W        W 8718  10.919   0.917  11.497
 4597W        W 8719   8.111   2.300   2.365
 4598W        W 8720   7.477  10.894   3.232
 4599W        W 8721   5.639   7.652  10.914
 4600W        W 8722   8.567   2.816   2.282
 4601W        W 8723   4.138   0.783   2.786
 4602W        W 8724   8.442   9.440   9.472
 4603W        W 8725   3.130   1.811  10.451
 4604W        W 8726   9.027   2.808   9.057
 4605W        W 8727   3.303   6.013   0.355
 4606W        W 8728   1.782   9.376   8.496
 4607W        W 8729   3.639   9.027  11.390
 4608W        W 8730   6.103   4.678   8.045
 4609W        W 8731   9.472   5.586   1.821
 4610W        W 8732   4.596  11.475   0.308
 4611W        W 8733   6.119   1.706  10.358
 4612W        W 8734   3.821   0.834  11.407
 4613W        W 8735  11.370   3.157  11.512
 4614W        W 8736   3.652   4.208   8.409
 4615W        W 8737   6.486   2.313   9.954
 4616W        W 8738   5.178   9.046   2.641
 4617W        W 8739   1.790   0.899  10.909
 4618W        W 8740   4.135   0.399   3.334
 4619W        W 8741   6.979   3.802  10.032
 4620W        W 8742   2.158   2.383   1.789
 4621W        W 8743   3.734   4.703   9.849
 4622W        W 8744   6.530   7.434  10.944
 4623W        W 8745   7.067   6.188   9.472
 4624W        W 8746   2.228   3.194  11.029
 4625W        W 8747   7.118   4.695   8.040
 4626W        W 8748   8.488   4.283  11.414
 4627W        W 8749  11.011   9.509  10.333
 4628W        W 8750   4.094   7.120  11.920
 4629W        W 8751   6.957   2.365  10.483
 4630W        W 8752  10.378   1.784  11.329
 4631W        W 8753   3.814   9.574   0.343
 4632W        W 8754   6.531   7.607  10.068
 4633W        W 8755   7.158   0.298   0.747
 4634W        W 8756   4.566   4.237   9.098
 4635W        W 8757   7.166   3.694   1.727
 4636W        W 8758   9.582   3.711   9.527
 4637W        W 8759   9.075  11.006   3.316
 4638W        W 8760   3.792   3.635   3.317
 4639W        W 8761   8.042   3.616   0.901
 4640W        W 8762   4.257   9.917   2.390
 4641W        W 8763   7.147   0.263  10.492
 4642W        W 8764   9.519   6.691   1.748
 4643W        W 8765   2.838   6.516   9.021
 4644W        W 8766  11.444   0.907   0.764
 4645W        W 8767   2.796  10.384   2.223
 4646W        W 8768   3.217   8.614   3.256
 4647W        W 8769   8.611   8.594   8.886
 4648W        W 8770  11.276   7.599  10.964
 4649W        W 8771   4.239   3.261  10.990
 4650W        W 8772   7.049   2.316   1.230
 4651W        W 8773   5.055   3.219   4.128
 4652W        W 8774   6.546   8.944   3.278
 4653W        W 8775   8.967   1.810   0.841
 4654W        W 8776   9.972   8.135  11.835
 4655W        W 8777  11.321   6.594   3.149
 4656W        W 8778   3.337   9.520   9.415
 4657W        W 8779  11.265   7.101   9.394
 4658W        W 8780   4.581  11.342  11.017
 4659W        W 8781   9.952   9.890   2.299
 4660W        W 8782  10.816   3.205  10.379
 4661W        W 8783  10.314  10.528   2.677
 4662W        W 8784   2.387   9.538   1.432
 4663W        W 8785   2.720   7.035   3.732
 4664W        W 8786  10.883   6.643   3.286
 4665W        W 8787  11.340   7.632   3.272
 4666W        W 8788   6.675   4.189  10.402
 4667W        W 8789   9.456   9.403   0.882
 4668W        W 8790   2.230   7.469   9.594
 4669W        W 8791   9.357   1.837   8.550
 4670W        W 8792   0.329   3.235   0.399
 4671W        W 8793   8.898  10.046   2.267
 4672W        W 8794   0.475   3.299   3.743
 4673W        W 8795   8.602   2.844   8.556
 4674W        W 8796  11.397   7.498  10.457
 4675W        W 8797  10.352   2.746   0.943
 4676W        W 8798   5.116   4.711  11.506
 4677W        W 8799   2.645   5.689  10.029
 4678W        W 8800   1.392   2.833   1.728
 4679W        W 8801   6.707   3.615   1.705
 4680W        W 8802   5.270   1.686   9.111
 4681W        W 8803   3.275   3.769   2.837
 4682W        W 8804   9.581  10.314   0.733
 4683W        W 8805   5.694   6.217  10.836
 4684W        W 8806   8.469   8.454  10.344
 4685W        W 8807   1.823   2.199   9.545
 4686W        W 8808  10.454   3.658   9.846
 4687W        W 8809   3.810   4.778   9.049
 4688W        W 8810   5.676   7.462   9.049
 4689W        W 8811   5.535   2.358   1.837
 4690W        W 8812   5.595   0.850  11.314
 4691W        W 8813   6.532   8.436  11.925
 4692W        W 8814   1.715   6.603   0.809
 4693W        W 8815   2.873   9.353  10.533
 4694W        W 8816  10.388   1.394   0.398
 4695W        W 8817   7.090   7.981   9.420
 4696W        W 8818   1.268  10.318  10.933
 4697W        W 8819   3.256   0.908   2.660
 4698W        W 8820  10.877   5.545   0.424
 4699W        W 8821   8.074   3.160   0.762
 4700W        W 8822   3.303   1.209  11.507
 4701W        W 8823   8.443   3.176   9.985
 4702W        W 8824   1.908  10.401  11.765
 4703W        W 8825  10.860   7.632   0.838
 4704W        W 8826  11.473  10.492  10.874
 4705W        W 8827  11.015   2.280  10.946
 4706W        W 8828  11.270   4.078  11.984
 4707W        W 8829   1.377   2.247  11.375
 4708W        W 8830   8.899   0.302  11.946
 4709W        W 8831  11.004   5.704   1.719
 4710W        W 8832   9.350  11.443  10.549
 4711W        W 8833   5.124   7.524   2.694
 4712W        W 8834   9.025   6.502  10.467
 4713W        W 8835   3.626   9.040   9.511
 4714W        W 8836   4.088   6.006  10.441
 4715W        W 8837   2.229   2.761   2.662
 4716W        W 8838   6.553   9.507   3.198
 4717W        W 8839   6.079   8.886  10.024
 4718W        W 8840   8.035   4.100  11.436
 4719W        W 8841   1.207  11.012   0.924
 4720W        W 8842   3.174   2.827   8.974
 4721W        W 8843   7.128   0.251  10.855
 4722W        W 8844   3.694   1.825   0.265
 4723W        W 8845   5.598   2.767  10.813
 4724W        W 8846   3.672   5.193   8.534
 4725W        W 8847  10.339   3.263   9.426
 4726W        W 8848  10.491   7.475   1.343
 4727W        W 8849   2.806   9.568  11.897
 4728W        W 8850  10.371   3.270  10.029
 4729W        W 8851   9.858   2.771   0.857
 4730W        W 8852   6.547   6.601  10.381
 4731W        W 8853  10.931  10.387  10.481
 4732W        W 8854   3.621   9.920  11.942
 4733W        W 8855   4.720   4.137   0.417
 4734W        W 8856  11.418   7.627   2.741
 4735W        W 8857   7.180   9.574   0.313
 4736W        W 8858  10.427   3.227   3.240
 4737W        W 8859  10.334   9.426  10.824
 4738W        W 8860   1.822   6.186   1.889
 4739W        W 8861   9.064   3.741   1.866
 4740W        W 8862  10.379  10.921   1.439
 4741W        W 8863   0.252   6.072   2.198
 4742W        W 8864   5.132   0.878  11.801
 4743W        W 8865   5.643   5.171   1.729
 4744W        W 8866   3.164   1.306   0.441
 4745W        W 8867   9.522   7.975  10.945
 4746W        W 8868   9.917   6.648   9.505
 4747W        W 8869   9.930   0.437  11.391
 4748W        W 8870   2.378   9.077  11.907
 4749W        W 8871   9.986   5.251   0.880
 4750W        W 8872   9.919   6.212   0.468
 4751W        W 8873   9.429  10.058   9.117
 4752W        W 8874   7.618   0.300   9.888
 4753W        W 8875   7.996   0.891   2.820
 4754W        W 8876   4.291   5.245   2.804
 4755W        W 8877   1.424   4.565  10.467
 4756W        W 8878   2.681   4.309   2.829
 4757W        W 8879   1.281   4.714   9.973
 4758W        W 8880   4.789   1.327   1.743
 4759W        W 8881  10.816   8.887   0.257
 4760W        W 8882   9.872   6.993  11.376
 4761W        W 8883   2.804   6.625   8.412
 4762W        W 8884   6.182   7.604   8.149
 4763W        W 8885  10.448   6.549   9.379
 4764W        W 8886   4.733   9.037  11.997
 4765W        W 8887   5.186   2.642   4.207
 4766W        W 8888   5.721   2.868   9.559
 4767W        W 8889   6.092  10.049   2.759
 4768W        W 8890   9.581   7.024   2.697
 4769W        W 8891   5.035   3.244  11.972
 4770W        W 8892   8.905   0.312  10.851
 4771W        W 8893  11.340   8.582   9.999
 4772W        W 8894   1.421   8.920  10.870
 4773W        W 8895   2.654   7.430   0.267
 4774W        W 8896   4.183   3.157   9.367
 4775W        W 8897   5.638   7.557   8.451
 4776W        W 8898   2.323   3.170  11.374
 4777W        W 8899   6.622  10.869  11.972
 4778W        W 8900   7.938   9.574  10.458
 4779W        W 8901  10.041   8.059   1.794
 4780W        W 8902   0.846   0.754   9.419
 4781W        W 8903   7.637   4.703   0.345
 4782W        W 8904   6.526   0.911  11.967
 4783W        W 8905   4.730   3.185  10.805
 4784W        W 8906  10.370   4.157   9.591
 4785W        W 8907   1.409  10.966  11.309
 4786W        W 8908   5.256   0.742   3.322
 4787W        W 8909   9.052  10.371  11.975
 4788W        W 8910   9.995   3.760   2.317
 4789W        W 8911   0.368   6.535   2.873
 4790W        W 8912   3.617   3.294   9.458
 4791W        W 8913   3.640   3.153   3.179
 4792W        W 8914   8.468   4.782   8.910
 4793W        W 8915   3.689   4.119  10.809
 4794W        W 8916   6.665   3.191   2.814
 4795W        W 8917   0.854   1.685   8.942
 4796W        W 8918   8.479   6.481   2.249
 4797W        W 8919   5.111   4.284   9.362
 4798W        W 8920   3.283  10.323   8.537
 4799W        W 8921   5.620   6.599   0.760
 4800W        W 8922   0.265   8.467   1.829
 4801W        W 8923   8.078   8.091   8.522
 4802W        W 8924   1.297   4.276  11.027
 4803W        W 8925   3.637   1.409   9.940
 4804W        W 8926   5.181   8.940   3.613
 4805W        W 8927  10.883   4.305   1.787
 4806W        W 8928  10.413   5.039   9.921
 4807W        W 8929  11.360   7.566  11.323
 4808W        W 8930   0.880   0.936   2.345
 4809W        W 8931   5.515   4.635  10.884
 4810W        W 8932   8.081  11.371   1.384
 4811W        W 8933  11.298   0.898  10.520
 4812W        W 8934   7.009   1.219  10.984
 4813W        W 8935   0.787   0.371  10.032
 4814W        W 8936   1.774  11.494   3.122
 4815W        W 8937   9.039   1.874   1.414
 4816W        W 8938   4.657   2.370   9.552
 4817W        W 8939   9.987   2.863   3.351
 4818W        W 8940   3.637   3.707   0.275
 4819W        W 8941   7.510   0.396   1.248
 4820W        W 8942   7.996   8.875  10.078
 4821W        W 8943   9.969   9.525   8.520
 4822W        W 8944   7.555  10.804   9.547
 4823W        W 8945  11.425   1.300   2.648
 4824W        W 8946  11.018   6.212   0.439
 4825W        W 8947   5.538   2.356   1.370
 4826W        W 8948   4.736   3.294   3.130
 4827W        W 8949   8.570   5.102   0.934
 4828W        W 8950   8.503   6.971   8.890
 4829W        W 8951   3.118  10.381   0.245
 4830W        W 8952  10.453   6.594   1.321
 4831W        W 8953   7.928   2.846   2.338
 4832W        W 8954   3.273   3.777   9.107
 4833W        W 8955   5.567   5.643  10.553
 4834W        W 8956   3.318   7.954   8.601
 4835W        W 8957   9.080   0.284  11.400
 4836W        W 8958   4.161   6.692   1.251
 4837W        W 8959   0.773  11.293  10.505
 4838W        W 8960  10.867   4.603   2.725
 4839W        W 8961  10.981   7.012   9.362
 4840W        W 8962  11.402   3.828   9.101
 4841W        W 8963  11.009   5.222   1.275
 4842W        W 8964  11.383   6.506   9.417
 4843W        W 8965   9.974   1.281   0.285
 4844W        W 8966   4.280   7.091   9.405
 4845W        W 8967   1.858   3.331   1.748
 4846W        W 8968   9.958  10.462   0.724
 4847W        W 8969   8.461   2.214   9.840
 4848W        W 8970   6.551   4.570   9.427
 4849W        W 8971  10.518   2.857   1.715
 4850W        W 8972   4.771   7.071   3.187
 4851W        W 8973   0.337   2.279   9.879
 4852W        W 8974   8.006   8.042   2.333
 4853W        W 8975   3.696   6.145  11.362
 4854W        W 8976  11.387   4.588   1.756
 4855W        W 8977   4.673   7.629   0.255
 4856W        W 8978   5.672   4.729   2.194
 4857W        W 8979  10.529   7.447   9.423
 4858W        W 8980   7.639   4.175  11.498
 4859W        W 8981   8.582   8.934   2.696
 4860W        W 8982   3.616   3.162   1.715
 4861W        W 8983   2.232   7.101  10.481
 4862W        W 8984  10.455   1.723   1.313
 4863W        W 8985  11.387   8.497   8.575
 4864W        W 8986  10.531   2.289   1.761
 4865W        W 8987   7.029   9.998   2.858
 4866W        W 8988   0.290   6.211  11.436
 4867W        W 8989   1.301   0.859   1.879
 4868W        W 8990  10.433   9.877   2.666
 4869W        W 8991   8.883  11.459  10.320
 4870W        W 8992   9.345   2.241  11.005
 4871W        W 8993   8.546   3.352   1.366
 4872W        W 8994   8.923   5.123  10.940
 4873W        W 8995   4.777   8.101  11.872
 4874W        W 8996  11.409  11.404  10.956
 4875W        W 8997   0.940   9.416   3.304
 4876W        W 8998   0.470  11.344   9.979
 4877W        W 8999   1.842   8.048  11.960
 4878W        W 9000  10.380   8.420   8.990
 4879W        W 9001   3.830   2.818  10.390
 4880W        W 9002   4.701   5.141   1.210
 4881W        W 9003   1.339   2.660   0.373
 4882W        W 9004   7.582   3.831   0.812
 4883W        W 9005   8.623   6.637  10.826
 4884W        W 9006   2.371   4.759   0.268
 4885W        W 9007   4.584   1.776  10.918
 4886W        W 9008   1.678   2.750   0.721
 4887W        W 9009   8.909  10.954   0.368
 4888W        W 9010   0.726   7.062   2.171
 4889W        W 9011   1.392   2.852  11.352
 4890W        W 9012  10.973  10.055   1.796
 4891W        W 9013   4.710   1.236   2.375
 4892W        W 9014   9.394   9.880   2.869
 4893W        W 9015  10.856   4.621   0.724
 4894W        W 9016   6.005   6.210   9.850
 4895W        W 9017   9.833   5.202   0.349
 4896W        W 9018   9.047   4.571   8.992
 4897W        W 9019   8.904   7.482   9.992
 4898W        W 9020   0.428   2.349   1.898
 4899W        W 9021   9.863  10.966  11.382
 4900W        W 9022   9.351  10.019   9.392
 4901W        W 9023   9.531   6.651  11.398
 4902W        W 9024   1.282   9.380   3.168
 4903W        W 9025  10.016   8.385   1.909
 4904W        W 9026   7.973   4.575   0.318
 4905W        W 9027   9.880   1.907  11.962
 4906W        W 9028   6.567   7.486   8.578
 4907W        W 9029   7.097   4.578   8.613
 4908W        W 9030   0.476   8.066   9.573
 4909W        W 9031   3.333   6.033   1.227
 4910W        W 9032   1.437   6.131  10.047
 4911W        W 9033   1.815   0.929   2.203
 4912W        W 9034   5.994   1.246   2.195
 4913W        W 9035   1.263   8.437   2.193
 4914W        W 9036   1.731   4.101  10.998
 4915W        W 9037   7.042   2.238   3.810
 4916W        W 9038   6.668   8.415   1.685
 4917W        W 9039   0.854   3.602   0.733
 4918W        W 9040   6.537  10.991   3.133
 4919W        W 9041   1.397   5.621   9.532
 4920W        W 9042   6.671   1.409   1.688
 4921W        W 9043  10.369   9.941  11.800
 4922W        W 9044   6.538   4.594   0.269
 4923W        W 9045   1.730   8.093   0.905
 4924W        W 9046   0.294   3.620  10.874
 4925W        W 9047   9.989   7.551  10.942
 4926W        W 9048   7.091  10.449  11.457
 4927W        W 9049   8.001   5.080   0.420
 4928W        W 9050   5.692   1.260   8.894
 4929W        W 9051   8.872   6.209   9.087
 4930W        W 9052   2.229   4.296   8.634
 4931W        W 9053   5.266   5.729  11.407
 4932W        W 9054   4.744   8.429  10.525
 4933W        W 9055   7.582   1.817   2.820
 4934W        W 9056   0.420   9.489   9.553
 4935W        W 9057   7.480   1.432  11.312
 4936W        W 9058   6.072   4.150   2.165
 4937W        W 9059   0.946   2.190   9.864
 4938W        W 9060   7.618   6.121  11.779
 4939W        W 9061   0.768   5.258  10.505
 4940W        W 9062   7.957   2.359   9.055
 4941W        W 9063   7.483   4.306   0.725
 4942W        W 9064   8.033   3.226  11.897
 4943W        W 9065   8.477   4.596   9.918
 4944W        W 9066   0.244   0.286  11.489
 4945W        W 9067   3.178   3.337   2.208
 4946W        W 9068   8.892   0.297   0.794
 4947W        W 9069   0.308   8.415  11.445
 4948W        W 9070   3.300   5.641   3.208
 4949W        W 9071   1.852   0.877  11.988
 4950W        W 9072  10.473   8.595  10.981
 4951W        W 9073   5.686   9.864   9.041
 4952W        W 9074   2.854   6.021   9.486
 4953W        W 9075   4.299   0.403   0.429
 4954W        W 9076   4.108   8.012   2.798
 4955W        W 9077   8.607   6.971   3.215
 4956W        W 9078   7.987   1.848  10.973
 4957W        W 9079   4.138   8.452   2.319
 4958W        W 9080   2.715  10.982   2.824
 4959W        W 9081   9.580   4.215   2.175
 4960W        W 9082   5.627   1.821   9.031
 4961W        W 9083   3.651   4.570  11.377
 4962W        W 9084   0.382   5.048  11.486
 4963W        W 9085   5.605   4.632   0.865
 4964W        W 9086   8.137   8.984   9.531
 4965W        W 9087   0.924   3.148   8.423
 4966W        W 9088   2.812   7.151   1.286
 4967W        W 9089   5.679  10.875  10.472
 4968W        W 9090   1.335  11.336   9.480
 4969W        W 9091   2.338   2.735   3.148
 4970W        W 9092   0.845   2.687   9.463
 4971W        W 9093   9.870   9.027   1.736
 4972W        W 9094   1.302   6.044   2.284
 4973W        W 9095   9.497   2.728  11.971
 4974W        W 9096   6.042  11.016   9.530
 4975W        W 9097   1.733   3.827  10.883
 4976W        W 9098   1.913   9.966  10.517
 4977W        W 9099   4.263  10.465  10.078
 4978W        W 9100   7.585   0.751  11.777
 4979W        W 9101   5.140   8.613   1.242
 4980W        W 9102   3.330   2.393   1.914
 4981W        W 9103   0.836   8.875  11.037
 4982W        W 9104   9.479   2.354   9.423
 4983W        W 9105   9.843   2.382   1.366
 4984W        W 9106   9.471  11.447  11.802
 4985W        W 9107   7.941   5.536  10.505
 4986W        W 9108  10.392   3.142   0.325
 4987W        W 9109   5.627   8.564   0.772
 4988W        W 9110   5.110   6.216   2.357
 4989W        W 9111   7.609   1.257   8.975
 4990W        W 9112   6.557   1.374  10.384
 4991W        W 9113   7.443   6.525   1.357
 4992W        W 9114   0.879  10.307   0.893
 4993W        W 9115   4.107   7.665   1.342
 4994W        W 9116   5.700   9.913  10.385
 4995W        W 9117   8.622   2.727  10.326
 4996W        W 9118   9.419   8.022   0.296
 4997W        W 9119   3.308   9.086   1.371
 4998W        W 9120   1.902   4.619   3.344
 4999W        W 9121   1.794   0.451   1.207
 5000W        W 9122   7.532   0.765  10.443
 5001W        W 9123   7.517   7.649  10.033
 5002W        W 9124   1.832   1.259   3.155
 5003W        W 9125   9.469   7.452  11.518
 5004W        W 9126   6.530   4.141   2.740
 5005W        W 9127   1.262   5.043  11.933
 5006W        W 9128  11.353   7.153   8.966
 5007W        W 9129   2.245   6.030   9.484
 5008W        W 9130   9.380  10.055  10.978
 5009W        W 9131   1.884   4.630   0.721
 5010W        W 9132   2.765  11.020   2.322
 5011W        W 9133   0.407   1.764   9.411
 5012W        W 9134  10.368   2.235  11.998
 5013W        W 9135   6.991   9.463  11.027
 5014W        W 9136  11.412   6.684   0.908
 5015W        W 9137   7.126   6.087   9.957
 5016W        W 9138   4.650   4.731   3.322
 5017W        W 9139   3.344   3.225   3.749
 5018W        W 9140   5.160   8.926   9.889
 5019W        W 9141   3.668  10.788  10.819
 5020W        W 9142   4.238   0.863  10.894
 5021W        W 9143   4.599   2.778   0.831
 5022W        W 9144   9.981   7.533   1.828
 5023W        W 9145   2.779  11.330  11.463
 5024W        W 9146   7.043  11.362   1.817
 5025W        W 9147  10.801   2.741  10.325
 5026W        W 9148   9.860   6.482  10.537
 5027W        W 9149   2.842   3.128   2.315
 5028W        W 9150   6.513   8.878   8.145
 5029W        W 9151  10.936   9.556  11.775
 5030W        W 9152   0.899   2.217   0.367
 5031W        W 9153   5.551   4.223   9.065
 5032W        W 9154   2.700  10.968  10.876
 5033W        W 9155   8.477   6.534   1.266
 5034W        W 9156   5.128   9.535   2.360
 5035W        W 9157   5.736   6.551   2.219
 5036W        W 9158   9.988   1.917   3.150
 5037W        W 9159   0.919   6.144   0.933
 5038W        W 9160   0.731  10.842   1.819
 5039W        W 9161   5.701   8.870  11.890
 5040W        W 9162   2.837   2.232   9.501
 5041W        W 9163   0.436   1.204   3.249
 5042W        W 9164   9.833   4.290   2.876
 5043W        W 9165   3.833   8.039  11.945
 5044W        W 9166   3.235   5.592   8.468
 5045W        W 9167   9.895   6.008  10.901
 5046W        W 9168   5.629   0.839   8.892
 5047W        W 9169  11.441   2.671   0.392
 5048W        W 9170   9.874  10.931   0.888
 5049W        W 9171   9.886  10.853   2.727
 5050W        W 9172   2.706   8.068   9.392
 5051W        W 9173  10.974   7.456   2.214
 5052W        W 9174   4.656   7.454   1.859
 5053W        W 9175  10.836   4.592   3.737
 5054W        W 9176  10.319   1.891  10.963
 5055W        W 9177   1.795   6.005   0.893
 5056W        W 9178  10.329   6.954   8.996
 5057W        W 9179   7.928   9.947   0.256
 5058W        W 9180   7.100   4.576   1.804
 5059W        W 9181   4.639   4.631   3.638
 5060W        W 9182   6.481   5.667   0.458
 5061W        W 9183   7.976   9.880  10.009
 5062W        W 9184   4.789   4.710   4.220
 5063W        W 9185   2.231   3.117   2.341
 5064W        W 9186   5.631   9.029   2.798
 5065W        W 9187   5.747   4.220   2.818
 5066W        W 9188   2.703   2.742   0.732
 5067W        W 9189  10.318   6.993   2.282
 5068W        W 9190   5.653   3.296   9.027
 5069W        W 9191   8.435  10.960  11.948
 5070W        W 9192   0.765   4.165   0.305
 5071W        W 9193   3.293   6.576  10.380
 5072W        W 9194  10.466   6.590  11.918
 5073W        W 9195   4.180   8.998   8.883
 5074W        W 9196   9.852   5.629   9.885
 5075W        W 9197   3.596   8.473   8.881
 5076W        W 9198   4.305  10.815  10.808
 5077W        W 9199   9.934   1.802   9.955
 5078W        W 9200  10.038   1.241   9.053
 5079W        W 9201  10.002   0.786  11.977
 5080W        W 9202   6.078   5.643   1.891
 5081W        W 9203   1.205   9.499  10.010
 5082W        W 9204   2.699   7.521   2.843
 5083W        W 9205  10.056   0.795   9.042
 5084W        W 9206   4.180   1.271  11.412
 5085W        W 9207   2.372   1.901   3.337
 5086W        W 9208   8.432   3.133  10.497
 5087W        W 9209  10.440  10.814   3.320
 5088W        W 9210   2.260   9.452  11.311
 5089W        W 9211   8.564   2.851   1.815
 5090W        W 9212   7.648  11.261   8.888
 5091W        W 9213   8.016   0.754   8.496
 5092W        W 9214   0.276   6.027   2.771
 5093W        W 9215   8.502   9.970   2.690
 5094W        W 9216   4.692   5.158   9.878
 5095W        W 9217   6.066   6.051   2.790
 5096W        W 9218   3.761  10.819   2.686
 5097W        W 9219   1.905   5.522   3.243
 5098W        W 9220   4.574   4.568   2.762
 5099W        W 9221   8.053   4.716   3.304
 5100W        W 9222   6.641   9.398   0.764
 5101W        W 9223  11.431   5.688  10.809
 5102W        W 9224   0.791   1.415   0.752
 5103W        W 9225   2.315   0.953   0.946
 5104W        W 9226   8.526   2.160   3.834
 5105W        W 9227   5.242   6.001   0.905
 5106W        W 9228  10.417  11.370   9.453
 5107W        W 9229   7.177   2.650   9.885
 5108W        W 9230  10.914   7.492   9.511
 5109W        W 9231   5.563   6.688  11.401
 5110W        W 9232   0.719   2.257   9.014
 5111W        W 9233   5.516  11.383  11.984
 5112W        W 9234   1.384   3.322  10.482
 5113W        W 9235   4.687   2.669   1.816
 5114W        W 9236   4.752   8.123   1.880
 5115W        W 9237   8.568   5.614  10.017
 5116W        W 9238   0.751   4.105  11.000
 5117W        W 9239  11.292   2.341   9.405
 5118W        W 9240   9.548   8.402   9.860
 5119W        W 9241   5.748   9.982   1.898
 5120W        W 9242   7.102   4.681   0.879
 5121W        W 9243   4.640   1.781   0.316
 5122W        W 9244   2.379  11.445  11.392
 5123W        W 9245   1.303   0.444   1.898
 5124W        W 9246   4.096   2.237   0.366
 5125W        W 9247   7.182   4.281   9.512
 5126W        W 9248   9.960  10.454   9.563
 5127W        W 9249   1.865   6.142  10.507
 5128W        W 9250   7.010   8.392   9.482
 5129W        W 9251   0.762   8.588   0.275
 5130W        W 9252   9.352   3.820   1.832
 5131W        W 9253  10.050   2.766   2.850
 5132W        W 9254   6.606  10.807   1.800
 5133W        W 9255   5.617   7.995   2.177
 5134W        W 9256   9.406   0.748  11.781
 5135W        W 9257   5.709  10.893   8.930
 5136W        W 9258   6.103   2.769   9.905
 5137W        W 9259   2.177   7.074  11.766
 5138W        W 9260  11.261  11.387   9.532
 5139W        W 9261   5.517   0.835  10.801
 5140W        W 9262  10.978   8.421   9.478
 5141W        W 9263  10.329   6.123  11.410
 5142W        W 9264   6.993   3.246   1.337
 5143W        W 9265   2.823   8.534   9.518
 5144W        W 9266  10.837   7.521   1.868
 5145W        W 9267   9.485   4.652  10.993
 5146W        W 9268   7.641  11.463   9.551
 5147W        W 9269  10.856   3.709   1.846
 5148W        W 9270   2.815   6.500   9.856
 5149W        W 9271  10.501   8.026  11.799
 5150W        W 9272   0.360  11.337   0.932
 5151W        W 9273  11.456   5.076   2.243
 5152W        W 9274   4.708  11.323   9.100
 5153W        W 9275   8.989   5.127   8.628
 5154W        W 9276   9.064   2.853   2.789
 5155W        W 9277   0.244   3.682  11.458
 5156W        W 9278   8.478   2.736   1.384
 5157W        W 9279   7.908   3.683   1.752
 5158W        W 9280   0.406   5.629  11.000
 5159W        W 9281   2.216   2.365  11.940
 5160W        W 9282   2.650   3.204   1.329
 5161W        W 9283   6.068  10.361   9.520
 5162W        W 9284   4.671  11.012   1.283
 5163W        W 9285   1.386   9.566   0.907
 5164W        W 9286   4.568   7.095   2.189
 5165W        W 9287   5.257   9.899   9.117
 5166W        W 9288   0.306   9.953   0.723
 5167W        W 9289   5.638   7.164   0.311
 5168W        W 9290   8.110   7.102   2.849
 5169W        W 9291   3.757  10.898   9.991
 5170W        W 9292   2.658   6.161  11.825
 5171W        W 9293   1.414   2.190   9.046
 5172W        W 9294   0.850   1.688  10.982
 5173W        W 9295   4.095   0.827  11.380
 5174W        W 9296   1.903  10.943  10.079
 5175W        W 9297   1.271   7.972   8.953
 5176W        W 9298   2.334   4.634   1.403
 5177W        W 9299   2.715   9.923  10.445
 5178W        W 9300  10.439  11.270   2.252
 5179W        W 9301   6.184   0.878   3.171
 5180W        W 9302   3.766   7.566   2.315
 5181W        W 9303   3.818   8.455   2.731
 5182W        W 9304   9.957   3.233   1.396
 5183W        W 9305   3.354   2.257  10.451
 5184W        W 9306   0.384   9.499   1.692
 5185W        W 9307   9.013   4.311   9.897
 5186W        W 9308   0.248   3.639   2.734
 5187W        W 9309   0.443   3.174  10.909
 5188W        W 9310   4.181  10.835   1.683
 5189W        W 9311   4.184  10.856  10.394
 5190W        W 9312   5.229   9.354   0.412
 5191W        W 9313   0.318  10.485   3.149
 5192W        W 9314  10.501   0.838  11.983
 5193W        W 9315   2.743   8.499   2.700
 5194W        W 9316   9.369   2.718   3.201
 5195W        W 9317   5.703   7.495  10.055
 5196W        W 9318   8.535   1.386   1.320
 5197W        W 9319   8.107   9.376   0.768
 5198W        W 9320   9.415   2.723  11.288
 5199W        W 9321   6.505   8.102   9.910
 5200W        W 9322   5.735   4.775  10.456
 5201W        W 9323   7.540  10.333  10.821
 5202W        W 9324   5.264   5.708  10.876
 5203W        W 9325   8.955   3.597   0.411
 5204W        W 9326   2.178   0.952   9.002
 5205W        W 9327   0.428   7.645   3.243
 5206W        W 9328   6.966   8.598   2.836
 5207W        W 9329   0.840  10.463   2.220
 5208W        W 9330   2.744   0.303  10.913
 5209W        W 9331   3.174   4.625  10.073
 5210W        W 9332   6.536   4.162   0.765
 5211W        W 9333   4.155   4.713   7.992
 5212W        W 9334   4.580   2.825   1.413
 5213W        W 9335   7.986   1.840  10.040
 5214W        W 9336   3.202   2.245  11.794
 5215W        W 9337   8.547   1.832  11.297
 5216W        W 9338   3.685  10.334   9.003
 5217W        W 9339   9.478   0.734   0.381
 5218W        W 9340   8.536   5.049   9.912
 5219W        W 9341   6.706  10.437  10.946
 5220W        W 9342   9.414   2.239   2.224
 5221W        W 9343  10.836   1.403  11.440
 5222W        W 9344   1.362   3.829  11.371
 5223W        W 9345   8.049   2.806   0.276
 5224W        W 9346   0.298   5.654   9.946
 5225W        W 9347   4.155   7.454   9.073
 5226W        W 9348  10.396   4.623  11.365
 5227W        W 9349   4.728   3.722   0.264
 5228W        W 9350   6.993   3.126   9.477
 5229W        W 9351   7.958   5.677   7.956
 5230W        W 9352   4.593   6.525   2.210
 5231W        W 9353   5.593   8.904   0.453
 5232W        W 9354   2.647   3.236  10.384
 5233W        W 9355   2.728   2.184   2.649
 5234W        W 9356   5.534   2.342   2.759
 5235W        W 9357   6.636   2.750   0.382
 5236W        W 9358   3.252   0.796   8.884
 5237W        W 9359   8.963   9.861  10.036
 5238W        W 9360  11.391   5.732   0.417
 5239W        W 9361   4.714   3.294   9.551
 5240W        W 9362   8.112   1.821   3.256
 5241W        W 9363   8.603   7.057   0.451
 5242W        W 9364  10.389   8.008   2.821
 5243W        W 9365   7.664   0.722   3.259
 5244W        W 9366   4.077  11.279  10.387
 5245W        W 9367   1.760   5.057  11.510
 5246W        W 9368   4.588   5.253   2.236
 5247W        W 9369   5.670   3.800   3.819
 5248W        W 9370   7.535   4.754  10.556
 5249W        W 9371  11.448   6.086   2.838
 5250W        W 9372   1.831   2.308   0.898
 5251W        W 9373   5.162   9.914   2.200
 5252W        W 9374  11.483  11.324   1.884
 5253W        W 9375   9.347   9.383   2.246
 5254W        W 9376   0.734   6.986   9.979
 5255W        W 9377   7.038   1.322  11.838
 5256W        W 9378   0.897   7.523   1.724
 5257W        W 9379   0.888   9.029   0.956
 5258W        W 9380   5.068   5.706  11.805
 5259W        W 9381  10.056   5.096  10.443
 5260W        W 9382   9.997   1.905  10.533
 5261W        W 9383   5.049   1.410   9.942
 5262W        W 9384   8.983   7.048   9.463
 5263W        W 9385   0.747   1.793  11.485
 5264W        W 9386   0.833   5.526   2.743
 5265W        W 9387   6.160   5.133   0.382
 5266W        W 9388   1.371   5.239  10.429
 5267W        W 9389   5.193   6.496  10.830
 5268W        W 9390   1.870   5.123  11.822
 5269W        W 9391   0.254  11.429   0.290
 5270W        W 9392   0.287   4.634  10.851
 5271W        W 9393  11.273   8.883   1.731
 5272W        W 9394   8.877  11.401   9.422
 5273W        W 9395  10.524   7.459  11.038
 5274W        W 9396   9.021   9.039   2.394
 5275W        W 9397  11.500   4.756   0.783
 5276W        W 9398   3.177   2.781   0.744
 5277W        W 9399   8.400   0.920   9.486
 5278W        W 9400   7.144   8.453   1.760
 5279W        W 9401   5.096  11.291   3.144
 5280W        W 9402   3.162   3.806   4.110
 5281W        W 9403   1.347   8.110   0.810
 5282W        W 9404   1.425   9.385   0.325
 5283W        W 9405   0.767   0.842  10.452
 5284W        W 9406  10.466   2.723   9.446
 5285W        W 9407  10.444   1.862   9.546
 5286W        W 9408  10.311   8.563   0.470
 5287W        W 9409   2.356  10.360   2.716
 5288W        W 9410  10.006   8.078  11.017
 5289W        W 9411   2.173  11.320   0.364
 5290W        W 9412   7.518   2.271   3.178
 5291W        W 9413   9.957   0.368  10.001
 5292W        W 9414   8.557  11.493   3.153
 5293W        W 9415   9.501   6.600   2.189
 5294W        W 9416   4.096   8.045   9.412
 5295W        W 9417   9.923   0.885   9.399
 5296W        W 9418   7.072  10.486   3.309
 5297W        W 9419   0.765   7.004  10.465
 5298W        W 9420  11.458   1.896  11.016
 5299W        W 9421   2.391   2.814   8.901
 5300W        W 9422   7.590   7.916   9.876
 5301W        W 9423   8.586   6.184  10.903
 5302W        W 9424   7.569   6.968   1.879
 5303W        W 9425   1.847  10.949   2.761
 5304W        W 9426   1.690  10.414  11.408
 5305W        W 9427   2.769   7.928  10.504
 5306W        W 9428   1.706   3.696   2.266
 5307W        W 9429   9.566   8.893   0.420
 5308W        W 9430   0.248   6.194   0.314
 5309W        W 9431   0.403   3.723   2.336
 5310W        W 9432   4.783   2.801   2.689
 5311W        W 9433   0.830   0.765  10.023
 5312W        W 9434  10.424   7.598   9.849
 5313W        W 9435   3.181   0.241   9.089
 5314W        W 9436   3.762   0.815   2.801
 5315W        W 9437   1.406   5.620   2.281
 5316W        W 9438   7.505   0.883   1.891
 5317W        W 9439   7.443   8.538   2.380
 5318W        W 9440   8.418   6.644   0.284
 5319W        W 9441  10.469   2.322   0.916
 5320W        W 9442   6.538   9.843   1.817
 5321W        W 9443   3.705  11.357   9.422
 5322W        W 9444   4.563   4.726  10.877
 5323W        W 9445   4.780   9.061   2.781
 5324W        W 9446   2.711   1.207   1.272
 5325W        W 9447   4.601   7.089   9.928
 5326W        W 9448   1.364   9.394  11.888
 5327W        W 9449   2.346   3.800   9.556
 5328W        W 9450   4.654   4.732   1.835
 5329W        W 9451   2.793   9.999  11.486
 5330W        W 9452   9.382   7.432  10.847
 5331W        W 9453   8.563   8.496   0.731
 5332W        W 9454   8.010   1.309   8.914
 5333W        W 9455   9.528   9.567   1.414
 5334W        W 9456   0.944   4.672  11.435
 5335W        W 9457   7.964   8.903  11.924
 5336W        W 9458   1.804   7.534  11.805
 5337W        W 9459   4.642   8.486   0.723
 5338W        W 9460   6.700   7.566   1.359
 5339W        W 9461   3.645   9.023  10.514
 5340W        W 9462  10.361   5.184  11.326
 5341W        W 9463   1.317   5.197   2.263
 5342W        W 9464   1.810   0.358   0.824
 5343W        W 9465   2.785   7.000   2.316
 5344W        W 9466   8.082   5.194  11.311
 5345W        W 9467   1.802   5.256   2.760
 5346W        W 9468   6.179   1.262   1.705
 5347W        W 9469   1.893   3.123   0.360
 5348W        W 9470  10.896   0.814   1.393
 5349W        W 9471   1.281  11.484  11.972
 5350W        W 9472   4.250   3.597  11.810
 5351W        W 9473   5.195   0.938   1.899
 5352W        W 9474   9.952   8.958   9.066
 5353W        W 9475   1.885  10.346   9.370
 5354W        W 9476   2.776   4.633   1.294
 5355W        W 9477   4.661   5.219  11.393
 5356W        W 9478   8.896   5.660   9.985
 5357W        W 9479   4.736   4.108   1.361
 5358W        W 9480   8.070   9.503  10.963
 5359W        W 9481   4.262   1.388   2.818
 5360W        W 9482   9.358   8.579   2.269
 5361W        W 9483   1.259   5.543  11.893
 5362W        W 9484   3.786   1.334   3.124
 5363W        W 9485   9.942   2.801  10.017
 5364W        W 9486   1.343   7.540   2.752
 5365W        W 9487   6.000   5.575   9.087
 5366W        W 9488   6.538   2.868   3.682
 5367W        W 9489  10.031   1.254   2.713
 5368W        W 9490   4.280  11.360   0.752
 5369W        W 9491   0.873  11.007  10.452
 5370W        W 9492   8.406   6.550   0.737
 5371W        W 9493   7.187   7.036  11.965
 5372W        W 9494   9.897  10.828  11.844
 5373W        W 9495   3.733   7.101  11.292
 5374W        W 9496   2.286   7.921   0.409
 5375W        W 9497   9.407   4.084   1.319
 5376W        W 9498  10.364   0.894   1.382
 5377W        W 9499   7.531   7.507   2.254
 5378W        W 9500   1.854   5.166   1.693
 5379W        W 9501  10.504  10.481  11.961
 5380W        W 9502   1.808   7.154   1.702
 5381W        W 9503   8.429   4.156  10.369
 5382W        W 9504   5.677   3.353   2.661
 5383W        W 9505   6.119   0.253   2.309
 5384W        W 9506   9.565   7.493   1.354
 5385W        W 9507  10.027   3.246   9.915
 5386W        W 9508   9.567   4.735   1.741
 5387W        W 9509   8.077   3.615   9.535
 5388W        W 9510   6.530   4.197   1.706
 5389W        W 9511   9.983   8.468  10.940
 5390W        W 9512   8.459  10.348   9.922
 5391W        W 9513   0.425  11.427   9.426
 5392W        W 9514   3.822   3.656  10.921
 5393W        W 9515  11.321  10.906   9.525
 5394W        W 9516   0.262   6.995  11.391
 5395W        W 9517   9.024   9.399  11.373
 5396W        W 9518   2.654   0.871   9.594
 5397W        W 9519   0.279   3.605  10.481
 5398W        W 9520  10.433   2.789   2.197
 5399W        W 9521   5.725   8.447   1.880
 5400W        W 9522   3.714   7.963   1.833
 5401W        W 9523   8.508   3.781   4.098
 5402W        W 9524   1.206   4.224   9.476
 5403W        W 9525   2.238   1.824   9.915
 5404W        W 9526   9.926  10.859   2.248
 5405W        W 9527   5.163   9.918   3.303
 5406W        W 9528   1.792   2.249  11.287
 5407W        W 9529   7.960  10.396   2.227
 5408W        W 9530   1.892   3.215   8.533
 5409W        W 9531   0.461   9.958  10.824
 5410W        W 9532   8.504   3.628   3.243
 5411W        W 9533   9.915   7.488   2.363
 5412W        W 9534   6.510  10.988   9.484
 5413W        W 9535   2.853   5.239  11.360
 5414W        W 9536   5.128   2.675   8.442
 5415W        W 9537   6.634   8.418   0.851
 5416W        W 9538   1.804   7.137   8.973
 5417W        W 9539   3.820   0.299   2.656
 5418W        W 9540   5.189   8.474   8.950
 5419W        W 9541   7.128   9.466   8.565
 5420W        W 9542   1.234   7.548   1.817
 5421W        W 9543   7.989   6.060   0.768
 5422W        W 9544   5.539  10.845   0.881
 5423W        W 9545   0.800   8.901   9.937
 5424W        W 9546   4.173   6.156   1.692
 5425W        W 9547  10.811   7.452   3.202
 5426W        W 9548   1.723   6.631   8.420
 5427W        W 9549   0.387  11.018   9.582
 5428W        W 9550   5.173   4.623   1.689
 5429W        W 9551   2.647   4.672  11.383
 5430W        W 9552   3.212   3.154   1.697
 5431W        W 9553   0.273   7.981   9.913
 5432W        W 9554   6.109   6.669   2.343
 5433W        W 9555   2.228  10.809   1.706
 5434W        W 9556   0.366   0.325   2.204
 5435W        W 9557  10.054   7.060   0.368
 5436W        W 9558   0.811   7.147   1.417
 5437W        W 9559   5.069   1.351   1.741
 5438W        W 9560   1.740   4.732  10.409
 5439W        W 9561   5.561   5.229   0.357
 5440W        W 9562   1.741   7.922   9.387
 5441W        W 9563   1.280   1.741  11.433
 5442W        W 9564  10.979   9.846  10.005
 5443W        W 9565   3.808   9.565   3.288
 5444W        W 9566   6.960   2.718   2.811
 5445W        W 9567   6.112   2.679  10.524
 5446W        W 9568   2.381   1.369  11.938
 5447W        W 9569   0.840   1.431   3.759
 5448W        W 9570   7.629   0.470   3.730
 5449W        W 9571   2.274   5.550   8.965
 5450W        W 9572   9.005   7.620   2.208
 5451W        W 9573  11.366   5.119   1.403
 5452W        W 9574   1.388  10.316   2.694
 5453W        W 9575   2.679   3.263   3.281
 5454W        W 9576  10.327   9.035   3.274
 5455W        W 9577   8.620   7.552   9.595
 5456W        W 9578   1.889   4.636  10.927
 5457W        W 9579  10.001   1.219   1.284
 5458W        W 9580   7.547   1.821   9.513
 5459W        W 9581   3.289   5.521  11.913
 5460W        W 9582   4.132   5.249  11.004
 5461W        W 9583   2.801   3.205   9.013
 5462W        W 9584   0.281   1.790   1.364
 5463W        W 9585   9.863   1.373   0.727
 5464W        W 9586   9.044   0.945   1.847
 5465W        W 9587   7.589   5.043   1.307
 5466W        W 9588   6.687  10.529   2.704
 5467W        W 9589   0.865  10.362   9.928
 5468W        W 9590   0.270   9.377   0.817
 5469W        W 9591   7.512   0.878   9.367
 5470W        W 9592   7.575   6.594   1.753
 5471W        W 9593   7.999   6.681  10.034
 5472W        W 9594   3.647   9.090   1.874
 5473W        W 9595   1.808   8.878  10.999
 5474W        W 9596   7.130   6.093  11.980
 5475W        W 9597   6.187   0.941   2.247
 5476W        W 9598   7.998  10.825   2.715
 5477W        W 9599   0.455   5.664   1.818
 5478W        W 9600   8.083   3.770   1.389
 5479W        W 9601  10.947   1.391  11.943
 5480W        W 9602   8.936   8.602   2.653
 5481W        W 9603   8.616   1.365   9.513
 5482W        W 9604   0.267   7.447  11.870
 5483W        W 9605   7.145   6.499  11.458
 5484W        W 9606   2.195   8.109  10.876
 5485W        W 9607   0.275   1.391  11.820
 5486W        W 9608   3.735   6.205   1.312
 5487W        W 9609   6.647   7.556   3.728
 5488W        W 9610  11.403   8.459   2.167
 5489W        W 9611   8.883  11.414   0.775
 5490W        W 9612   0.420   5.263   0.819
 5491W        W 9613   9.941   0.433  11.869
 5492W        W 9614   5.064   0.318   0.327
 5493W        W 9615   6.053   3.804   2.251
 5494W        W 9616  10.987  10.343   3.322
 5495W        W 9617  11.304   5.033   9.075
 5496W        W 9618   5.629   8.588   3.125
 5497W        W 9619   8.901   3.629   3.186
 5498W        W 9620  11.398   1.400   8.890
 5499W        W 9621   2.755  11.371   0.460
 5500W        W 9622   5.593   2.341   0.888
 5501W        W 9623   5.112   7.581  11.372
 5502W        W 9624   1.381   8.129   0.357
 5503W        W 9625  10.447   7.920   1.416
 5504W        W 9626   7.504   3.237   0.778
 5505W        W 9627  11.270   3.735   3.141
 5506W        W 9628   4.237   5.154   1.340
 5507W        W 9629   0.305   9.413  10.439
 5508W        W 9630   9.015   8.103  10.484
 5509W        W 9631   1.704  10.976   9.423
 5510W        W 9632   9.431   6.657  11.910
 5511W        W 9633   8.876   7.489   9.556
 5512W        W 9634  11.365  11.363   9.916
 5513W        W 9635  10.946   0.311   9.891
 5514W        W 9636   1.816  10.803   9.061
 5515W        W 9637   7.497   6.180   8.008
 5516W        W 9638   0.344   5.714   9.496
 5517W        W 9639  10.956   7.064   8.945
 5518W        W 9640   6.541   2.694   8.909
 5519W        W 9641  10.017   0.901  10.420
 5520W        W 9642   7.037   6.160   1.318
 5521W        W 9643   9.350   3.206   2.195
 5522W        W 9644   5.256   5.745   2.174
 5523W        W 9645   6.986   0.342   9.922
 5524W        W 9646   8.973   0.808   2.279
 5525W        W 9647   3.703   3.683   0.831
 5526W        W 9648   0.269   3.122  10.511
 5527W        W 9649   0.466   8.404  10.897
 5528W        W 9650   7.569   6.567   3.728
 5529W        W 9651   1.379   7.989  10.917
 5530W        W 9652   4.155   0.914   0.335
 5531W        W 9653   9.547   2.681   9.990
 5532W        W 9654   7.109   0.912   0.467
 5533W        W 9655   6.580   0.823   8.493
 5534W        W 9656   5.743   3.746   1.706
 5535W        W 9657   9.568   1.402   1.269
 5536W        W 9658   0.459   7.038   8.979
 5537W        W 9659   0.327   8.992  10.443
 5538W        W 9660   0.294   4.111  10.996
 5539W        W 9661   1.323  10.848  11.852
 5540W        W 9662  11.005   9.362   2.268
 5541W        W 9663   2.251   8.568   3.352
 5542W        W 9664   1.827  10.346   2.185
 5543W        W 9665   4.622   8.010  10.018
 5544W        W 9666   9.490   7.043   9.877
 5545W        W 9667   3.788   5.537  10.492
 5546W        W 9668  11.283   6.057  11.761
 5547W        W 9669   3.193   7.035  10.863
 5548W        W 9670  10.869   8.614   8.443
 5549W        W 9671  10.866   7.047   0.297
 5550W        W 9672   3.226   9.011  10.958
 5551W        W 9673   1.769   9.574  11.519
 5552W        W 9674   6.088   1.346   9.862
 5553W        W 9675   4.759  10.473  10.013
 5554W        W 9676   1.277   5.675   0.390
 5555W        W 9677   2.336   1.773  11.368
 5556W        W 9678   9.877   0.872   2.785
 5557W        W 9679   7.602   8.897  10.005
 5558W        W 9680   7.092   7.130  10.496
 5559W        W 9681  11.477   9.885   9.003
 5560W        W 9682   1.338  10.367  10.037
 5561W        W 9683   5.554  10.848   2.305
 5562W        W 9684   5.079   8.140   3.357
 5563W        W 9685   3.240   0.308  11.478
 5564W        W 9686   2.308   7.584  10.558
 5565W        W 9687   1.384   4.244   2.262
 5566W        W 9688  10.431   2.380   9.981
 5567W        W 9689   5.232   6.602  11.513
 5568W        W 9690   7.185   1.678   1.243
 5569W        W 9691   0.336   0.424   0.302
 5570W        W 9692   8.563   7.153  10.854
 5571W        W 9693   2.265   3.119   2.652
 5572W        W 9694  10.435   6.204   2.391
 5573W        W 9695   4.272  11.447  11.519
 5574W        W 9696   2.314  10.309  11.332
 5575W        W 9697   0.925  11.427   8.493
 5576W        W 9698   9.504   0.940   2.175
 5577W        W 9699   7.547   6.648   8.472
 5578W        W 9700   6.529   8.398   3.807
 5579W        W 9701   2.330   0.392   9.460
 5580W        W 9702   8.573   5.143   9.468
 5581W        W 9703   3.648   0.928   2.163
 5582W        W 9704   1.693   0.430   1.824
 5583W        W 9705   4.158   2.278   9.434
 5584W        W 9706   0.423   7.951   9.007
 5585W        W 9707   9.921  10.032   0.938
 5586W        W 9708   0.400   3.258   1.409
 5587W        W 9709   4.109  11.477  10.858
 5588W        W 9710  10.997   1.336   2.224
 5589W        W 9711   5.032   7.034   0.773
 5590W        W 9712  11.298   5.652   1.213
 5591W        W 9713   1.330   7.034   0.336
 5592W        W 9714   1.241   3.625   0.946
 5593W        W 9715   3.237   7.515   0.915
 5594W        W 9716   6.031   1.878   3.320
 5595W        W 9717   8.502   8.545   3.758
 5596W        W 9718   9.860  10.447   3.305
 5597W        W 9719   9.560   7.547  10.415
 5598W        W 9720   8.120  10.826   9.915
 5599W        W 9721  10.866   8.502   9.898
 5600W        W 9722   2.358   4.243   2.319
 5601W        W 9723   8.535   8.613  11.855
 5602W        W 9724   2.384   6.102  10.411
 5603W        W 9725   2.748   8.910  10.952
 5604W        W 9726   7.147   5.654  11.442
 5605W        W 9727   2.873   9.369   0.480
 5606W        W 9728   5.217   9.022  11.308
 5607W        W 9729   3.283   0.445  10.928
 5608W        W 9730   4.675   4.716   0.438
 5609W        W 9731   0.733   0.474  10.993
 5610W        W 9732   8.623   7.922   3.204
 5611W        W 9733  10.434   5.708   0.946
 5612W        W 9734   1.770   5.647  11.884
 5613W        W 9735   2.245   4.777   9.846
 5614W        W 9736  10.801   5.092   1.701
 5615W        W 9737   4.681  10.490  11.440
 5616W        W 9738   4.643   4.081   3.217
 5617W        W 9739   7.520   2.207   9.045
 5618W        W 9740   3.698   1.816   1.708
 5619W        W 9741   8.401   4.121   9.576
 5620W        W 9742   7.951   3.218   0.295
 5621W        W 9743   4.268   3.121   3.626
 5622W        W 9744   9.005   5.193   1.236
 5623W        W 9745   4.245   6.978   8.908
 5624W        W 9746   7.635   0.809   0.429
 5625W        W 9747   6.149   4.616   1.317
 5626W        W 9748  10.338   6.614  10.052
 5627W        W 9749   5.553   9.384   0.333
 5628W        W 9750   4.127   1.425   0.765
 5629W        W 9751  11.397   9.917  10.476
 5630W        W 9752   7.142   9.451  10.538
 5631W        W 9753   6.141   4.267   2.707
 5632W        W 9754   5.081   2.322   2.687
 5633W        W 9755  10.510   9.501  10.403
 5634W        W 9756   2.723   9.845  10.981
 5635W        W 9757   1.410   1.804   3.142
 5636W        W 9758   5.516   5.223   2.227
 5637W        W 9759   4.640   6.957   1.433
 5638W        W 9760   0.304   1.259  11.365
 5639W        W 9761   5.573   4.776   8.881
 5640W        W 9762   6.208   6.113   9.486
 5641W        W 9763   0.430   6.554   1.894
 5642W        W 9764  10.008  10.872   1.344
 5643W        W 9765   2.290   3.122   1.218
 5644W        W 9766   5.166   8.971   8.621
 5645W        W 9767   8.422   3.712   1.735
 5646W        W 9768   1.692   4.600   2.651
 5647W        W 9769   6.206  11.431   1.298
 5648W        W 9770   1.868   7.059   3.130
 5649W        W 9771   3.242   3.695   0.766
 5650W        W 9772   7.620   9.478   1.377
 5651W        W 9773   8.005   8.122  10.473
 5652W        W 9774   9.558  11.407   0.838
 5653W        W 9775   6.620   6.543   9.866
 5654W        W 9776   3.183   5.681   2.278
 5655W        W 9777   7.569   8.586   2.697
 5656W        W 9778   3.351  11.015  10.912
 5657W        W 9779   7.962   1.357   1.307
 5658W        W 9780   6.173   3.263   0.265
 5659W        W 9781  10.920   1.210   3.653
 5660W        W 9782  10.482   3.752   1.724
 5661W        W 9783   4.764   3.261  10.055
 5662W        W 9784   8.523   7.572   9.006
 5663W        W 9785   7.639   5.251   8.152
 5664W        W 9786   1.709   3.154   2.178
 5665W        W 9787   3.290   7.058   9.914
 5666W        W 9788   2.292   2.708   1.767
 5667W        W 9789   9.483   7.462   9.939
 5668W        W 9790   7.553   0.437  10.853
 5669W        W 9791   6.647   2.310   1.310
 5670W        W 9792   8.580   7.598   9.937
 5671W        W 9793  10.987   3.683   0.409
 5672W        W 9794   3.603   2.314   0.402
 5673W        W 9795   7.940   6.643  11.313
 5674W        W 9796   7.152   0.318   1.218
 5675W        W 9797   0.919   5.652   8.939
 5676W        W 9798  10.453   5.728   2.280
 5677W        W 9799   4.257   7.093  11.452
 5678W        W 9800  11.493   0.799  11.034
 5679W        W 9801   1.203  11.432   0.899
 5680W        W 9802   9.827   0.301   9.111
 5681W        W 9803   2.200   1.906   8.947
 5682W        W 9804   1.421   1.198   1.915
 5683W        W 9805   9.014   9.986   2.862
 5684W        W 9806   8.582   1.214  10.945
 5685W        W 9807   9.575   2.691   2.367
 5686W        W 9808   9.088  11.441   0.459
 5687W        W 9809   7.500   9.023   8.943
 5688W        W 9810   2.805   1.712   1.358
 5689W        W 9811  10.851  10.481   2.841
 5690W        W 9812  10.451   8.008   3.170
 5691W        W 9813   8.569   7.984   1.374
 5692W        W 9814   2.297   0.800   2.778
 5693W        W 9815   6.504   1.232  11.401
 5694W        W 9816   7.036   6.668   1.704
 5695W        W 9817   5.511   5.055   9.414
 5696W        W 9818  11.432   1.678   2.807
 5697W        W 9819   3.247   2.804   9.935
 5698W        W 9820   3.206   4.779   2.850
 5699W        W 9821   2.166   5.129   0.806
 5700W        W 9822   6.062   9.411   9.457
 5701W        W 9823   9.083   5.046   2.339
 5702W        W 9824   8.553   0.408   1.246
 5703W        W 9825  10.314   6.505  10.974
 5704W        W 9826   7.121   8.599  10.918
 5705W        W 9827   4.202   4.674  10.910
 5706W        W 9828   2.189   7.642   8.949
 5707W        W 9829   6.637   3.314   4.150
 5708W        W 9830  11.393  11.016  10.924
 5709W        W 9831  11.387   3.270   9.023
 5710W        W 9832   3.210   8.523   9.023
 5711W        W 9833   6.135   9.562  11.960
 5712W        W 9834   2.256   2.752   9.983
 5713W        W 9835  10.008   6.204  11.365
 5714W        W 9836   8.516   6.707   1.789
 5715W        W 9837  10.369  10.492  10.885
 5716W        W 9838   9.982   4.211   0.750
 5717W        W 9839   7.036   0.833   3.204
 5718W        W 9840  10.400   4.583   2.716
 5719W        W 9841   8.990   2.329   1.807
 5720W        W 9842   8.888   3.728   9.512
 5721W        W 9843   5.559   5.112   9.959
 5722W        W 9844   6.950  10.850   2.295
 5723W        W 9845   3.683   7.573  11.808
 5724W        W 9846   0.319   2.712   1.333
 5725W        W 9847   1.899   7.960   1.895
 5726W        W 9848   8.993   9.060   9.854
 5727W        W 9849   1.310   4.644  11.347
 5728W        W 9850  11.275   9.934   9.453
 5729W        W 9851   8.494   9.454  10.476
 5730W        W 9852   8.028   2.310  10.964
 5731W        W 9853   0.428   8.087  11.984
 5732W        W 9854   4.270   2.743  10.362
 5733W        W 9855   8.909   1.831  11.394
 5734W        W 9856   3.608   3.813   1.213
 5735W        W 9857   6.479   3.764   0.892
 5736W        W 9858   6.558   2.703   1.319
 5737W        W 9859  10.339   3.221  10.483
 5738W        W 9860   3.774   8.428  11.291
 5739W        W 9861   3.693   6.546   0.913
 5740W        W 9862   4.751   0.312  10.431
 5741W        W 9863  10.041  11.410  11.331
 5742W        W 9864  10.813  11.270   9.905
 5743W        W 9865   0.927   5.074   3.340
 5744W        W 9866   9.966   1.223   2.202
 5745W        W 9867   8.866   4.220   0.269
 5746W        W 9868   0.821  10.014   3.236
 5747W        W 9869  10.787   9.539   2.764
 5748W        W 9870   3.672   3.183   0.779
 5749W        W 9871  10.992   7.079   3.614
 5750W        W 9872   1.332   2.370   2.815
 5751W        W 9873   2.170  10.834   1.292
 5752W        W 9874   7.138  10.345   2.304
 5753W        W 9875   3.225  10.829  10.038
 5754W        W 9876   2.298   3.263   9.561
 5755W        W 9877   3.644   4.147  10.541
 5756W        W 9878   1.899   5.650   9.493
 5757W        W 9879   8.557   5.137   2.810
 5758W        W 9880   5.657   7.525   9.523
 5759W        W 9881   4.107   7.641   0.758
 5760W        W 9882   0.848   2.760   2.786
 5761W        W 9883   0.294   6.985  10.553
 5762W        W 9884   5.514   4.193   4.104
 5763W        W 9885   8.123   7.940   9.021
 5764W        W 9886   8.965   5.514  10.429
 5765W        W 9887   7.508   2.355  10.387
 5766W        W 9888   7.659  11.430   9.888
 5767W        W 9889   0.377   5.099   9.116
 5768W        W 9890   1.805   7.010   1.434
 5769W        W 9891   0.871   5.256   2.216
 5770W        W 9892   7.555   0.418   1.698
 5771W        W 9893  11.456   5.555  10.075
 5772W        W 9894   2.863  11.374   9.405
 5773W        W 9895  11.003   7.075  10.071
 5774W        W 9896   3.797   4.662   2.187
 5775W        W 9897   4.758   9.971   0.302
 5776W        W 9898   7.576   1.774  11.961
 5777W        W 9899   0.800   0.392   8.450
 5778W        W 9900  11.404  11.481  11.366
 5779W        W 9901   0.330   8.070   0.800
 5780W        W 9902  10.376  11.353  10.361
 5781W        W 9903   1.229   4.309   0.272
 5782W        W 9904   4.571   1.316   3.261
 5783W        W 9905   7.575   9.069  10.809
 5784W        W 9906   7.025   8.886   8.481
 5785W        W 9907   3.722   5.677  10.805
 5786W        W 9908   5.092   4.287  10.383
 5787W        W 9909   0.294   8.870   0.348
 5788W        W 9910   7.011   4.698  10.335
 5789W        W 9911   7.990   9.434   8.577
 5790W        W 9912   5.153   2.705  10.846
 5791W        W 9913   9.870   4.786  10.402
 5792W        W 9914  10.994   8.451  10.532
 5793W        W 9915   4.306   7.963   1.737
 5794W        W 9916   6.608   1.396   1.333
 5795W        W 9917   1.211   8.915   1.244
 5796W        W 9918   9.845   6.629   3.329
 5797W        W 9919   1.342   7.050   2.208
 5798W        W 9920   8.052   4.262   0.818
 5799W        W 9921   4.721   5.266   1.911
 5800W        W 9922   0.282   3.595   9.496
 5801W        W 9923   6.952   1.718   2.330
 5802W        W 9924   4.167  10.327   0.861
 5803W        W 9925   9.936   7.977   9.926
 5804W        W 9926  10.530   4.167  11.894
 5805W        W 9927   8.520   6.187   1.703
 5806W        W 9928  11.318   3.231   0.746
 5807W        W 9929   4.279   6.020   1.298
 5808W        W 9930  11.328   8.567   0.874
 5809W        W 9931   8.882   0.946   3.192
 5810W        W 9932   3.615   7.134   1.303
 5811W        W 9933   9.102   4.182   0.790
 5812W        W 9934   7.647   1.398   1.714
 5813W        W 9935  11.322  10.056  11.786
 5814W        W 9936   4.237   5.183   2.170
 5815W        W 9937   8.904   7.481   1.905
 5816W        W 9938   3.173   7.623   9.551
 5817W        W 9939   2.293   4.652   0.888
 5818W        W 9940   1.271  11.355   8.972
 5819W        W 9941   1.292  11.372  11.398
 5820W        W 9942   7.178   2.758   9.060
 5821W        W 9943  11.338   9.042  10.818
 5822W        W 9944   0.244   3.698   3.252
 5823W        W 9945   0.918   8.510  10.525
 5824W        W 9946   8.623   6.175   8.119
 5825W        W 9947   6.593   0.800  11.012
 5826W        W 9948   5.603   3.693   7.928
 5827W        W 9949   9.447   8.410   3.202
 5828W        W 9950   6.152   3.231   1.913
 5829W        W 9951   2.286   8.387  10.493
 5830W        W 9952   5.739   8.870   3.329
 5831W        W 9953   3.793   1.899   9.499
 5832W        W 9954   1.390   4.604   2.346
 5833W        W 9955   6.226   8.443   2.852
 5834W        W 9956  10.503   6.535   3.224
 5835W        W 9957   0.392  10.444   9.052
 5836W        W 9958   9.528   5.620   1.275
 5837W        W 9959   8.406   0.762   2.364
 5838W        W 9960   2.864   7.918   1.430
 5839W        W 9961  11.384  10.409  11.837
 5840W        W 9962   5.087   0.740  11.483
 5841W        W 9963   9.078   7.612   2.684
 5842W        W 9964   2.168   0.783  10.851
 5843W        W 9965   6.184  10.373  10.830
 5844W        W 9966   3.655   3.677   3.642
 5845W        W 9967  10.416   9.895  10.869
 5846W        W 9968   6.129   1.874  11.030
 5847W        W 9969   7.963   7.629  11.379
 5848W        W 9970   2.191   8.988  10.938
 5849W        W 9971   8.935   6.057   0.866
 5850W        W 9972  10.034   4.240  10.836
 5851W        W 9973   3.310   8.976   9.060
 5852W        W 9974  10.540   9.042   9.047
 5853W        W 9975   9.858   9.103   2.348
 5854W        W 9976  10.489   5.555  10.542
 5855W        W 9977   1.819   3.696   2.866
 5856W        W 9978  11.284  10.318   0.852
 5857W        W 9979   1.788  11.347   1.899
 5858W        W 9980   4.734  10.882  11.469
 5859W        W 9981   2.762   2.307   8.978
 5860W        W 9982   6.195   8.928   2.320
 5861W        W 9983   8.931   0.321   2.850
 5862W        W 9984   9.526   6.705   9.429
 5863W        W 9985   1.354   3.649  11.034
 5864W        W 9986   7.438   7.550  11.807
 5865W        W 9987   0.949   3.814  10.357
 5866W        W 9988   4.774   7.076   0.412
 5867W        W 9989  10.460  10.929   2.307
 5868W        W 9990   3.183   3.705   9.865
 5869W        W 9991   1.723  11.302   3.747
 5870W        W 9992   7.148   7.543   0.877
 5871W        W 9993   3.127  10.876  11.403
 5872W        W 9994   0.320  10.042   1.361
 5873W        W 9995   8.582   1.820   1.287
 5874W        W 9996   5.221   1.758  11.003
 5875W        W 9997   4.753   6.102  10.895
 5876W        W 9998  10.052   7.488   1.275
 5877W        W 9999   2.168   9.882   2.394
 5878W        W10000  10.409   5.049   8.886
 5879W        W10001   4.723  10.533   1.746
 5880W        W10002   7.046   0.258   0.407
 5881W        W10003   0.435  11.315  11.771
 5882W        W10004   9.359   5.055  11.306
 5883W        W10005   7.998   5.627   8.553
 5884W        W10006   8.555  11.001   1.761
 5885W        W10007   2.708   4.700   2.765
 5886W        W10008   3.685   3.149   8.882
 5887W        W10009   3.272   9.094   3.818
 5888W        W10010   2.681   9.502   0.932
 5889W        W10011   2.825   4.122  10.367
 5890W        W10012   3.776   4.191   2.195
 5891W        W10013   8.449   9.388  11.875
 5892W        W10014   7.575   6.648   8.900
 5893W        W10015   1.689   0.780   0.759
 5894W        W10016   9.024  10.921   2.373
 5895W        W10017   2.832   5.516  10.943
 5896W        W10018  10.852  10.525   0.780
 5897W        W10019   5.655  10.009   9.910
 5898W        W10020   5.735   9.415   3.212
 5899W        W10021   6.519   1.288   2.259
 5900W        W10022   6.080   1.236   9.098
 5901W        W10023   0.876   4.758   8.409
 5902W        W10024   8.579   4.758   9.560
 5903W        W10025   6.099   1.892   2.650
 5904W        W10026   6.665   0.333  11.881
 5905W        W10027   4.743   1.328   0.877
 5906W        W10028   9.457   8.956  10.994
 5907W        W10029   2.758   9.043  11.401
 5908W        W10030   3.645   2.372   1.836
 5909W        W10031  11.497   8.947   2.375
 5910W        W10032   1.847   8.481   1.865
 5911W        W10033   9.019   8.569  10.966
 5912W        W10034   8.101   4.751   1.795
 5913W        W10035   7.015   6.473   1.242
 5914W        W10036   6.060   8.561   0.392
 5915W        W10037   9.826   1.858   2.198
 5916W        W10038   8.616   6.598   9.010
 5917W        W10039   6.193   3.643   3.256
 5918W        W10040   2.769   9.045   1.407
 5919W        W10041   3.800   9.918   1.334
 5920W        W10042   0.759   4.664  11.962
 5921W        W10043  11.340   3.647  11.330
 5922W        W10044  10.435   5.646  11.884
 5923W        W10045   7.597   4.099   9.901
 5924W        W10046   8.090   7.983   3.300
 5925W        W10047   1.243   9.968   9.374
 5926W        W10048  10.538  11.394   2.736
 5927W        W10049   2.375  10.905   0.786
 5928W        W10050   2.823   3.222  11.349
 5929W        W10051  11.449   0.892  11.280
 5930W        W10052   8.451   3.673   0.823
 5931W        W10053   5.064   9.348   1.252
 5932W        W10054   0.387   7.594   9.593
 5933W        W10055  10.483   4.301   1.712
 5934W        W10056   8.927   0.269   8.911
 5935W        W10057   0.337   8.483   1.390
 5936W        W10058  10.948   1.772   1.224
 5937W        W10059   1.234  10.327   2.258
 5938W        W10060  10.050   3.229  11.499
 5939W        W10061   6.492   7.925  10.827
 5940W        W10062   6.071   4.224   0.930
 5941W        W10063   6.676   1.415   0.459
 5942W        W10064   7.933   4.169  10.982
 5943W        W10065   8.607   6.099  10.518
 5944W        W10066   7.607   8.414  10.057
 5945W        W10067   8.984   8.124   9.901
 5946W        W10068   6.611  11.490   1.409
 5947W        W10069   1.795   6.220   9.511
 5948W        W10070   1.847   0.719  10.042
 5949W        W10071   1.734   2.725   3.752
 5950W        W10072   6.962   1.329   1.280
 5951W        W10073   5.160   2.285  11.918
 5952W        W10074  11.394   0.453  11.805
 5953W        W10075   2.243   9.067   1.872
 5954W        W10076   9.023   8.495   2.232
 5955W        W10077   3.827   7.085   3.355
 5956W        W10078  10.874   6.078   3.247
 5957W        W10079   2.639   7.000  10.367
 5958W        W10080  10.394   5.713   1.293
 5959W        W10081   3.322   5.546  11.418
 5960W        W10082   7.937   7.024   9.504
 5961W        W10083   6.703   0.267   2.691
 5962W        W10084   9.516   3.199   8.439
 5963W        W10085   4.753   7.009   9.014
 5964W        W10086   5.190   7.157  10.871
 5965W        W10087   8.599   4.669   2.172
 5966W        W10088  11.338   4.627   0.425
 5967W        W10089   2.339   8.421   2.700
 5968W        W10090   6.654   7.940   8.469
 5969W        W10091  10.870   2.685   1.823
 5970W        W10092   6.519   8.556   9.925
 5971W        W10093   5.586   3.352  10.008
 5972W        W10094  10.385   5.564  10.993
 5973W        W10095  10.378   0.335   1.255
 5974W        W10096   3.301  10.026   0.783
 5975W        W10097   5.113   1.211  10.525
 5976W        W10098   2.736  10.968  11.405
 5977W        W10099   7.587  10.338  11.928
 5978W        W10100   2.228   6.613   0.442
 5979W        W10101  10.379   0.843   9.848
 5980W        W10102   7.444   8.537   1.229
 5981W        W10103   2.794   9.077  10.431
 5982W        W10104   2.702   5.726   1.735
 5983W        W10105   7.621   9.576   2.689
 5984W        W10106   8.441   3.324   2.728
 5985W        W10107   6.595  11.263   2.802
 5986W        W10108   5.052   4.593   9.487
 5987W        W10109   1.709   9.519   9.970
 5988W        W10110   0.288   7.458   2.698
 5989W        W10111   2.833  10.373   1.379
 5990W        W10112  10.494   3.655   1.254
 5991W        W10113   6.120   8.099   8.980
 5992W        W10114   9.474   0.324   0.438
 5993W        W10115   5.999   6.977   1.708
 5994W        W10116   4.586  10.416  10.393
 5995W        W10117   0.294  10.783   8.991
 5996W        W10118  10.915   1.732   0.876
 5997W        W10119   3.597   9.839   0.794
 5998W        W10120   5.662   0.842  10.392
 5999W        W10121   6.633   9.519   1.831
 6000W        W10122   6.120   1.791   8.536
 6001W        W10123   0.452   8.554   8.947
 6002W        W10124   1.728   3.178  11.903
 6003W        W10125   9.022   8.422   3.181
 6004W        W10126   4.651   8.421  10.011
 6005W        W10127   9.412   2.732   8.961
 6006W        W10128   7.170  11.466   1.414
 6007W        W10129   6.115   8.936  11.993
 6008W        W10130   9.435   6.125   9.031
 6009W        W10131   9.939   4.663   1.771
 6010W        W10132   1.758   2.356   3.300
 6011W        W10133   0.857   2.181   3.785
 6012W        W10134  11.306   9.464  10.516
 6013W        W10135   2.726   1.223   8.975
 6014W        W10136  10.842   4.592   9.897
 6015W        W10137   2.190   6.669  10.804
 6016W        W10138   7.041   8.126  11.956
 6017W        W10139   1.232  10.888  10.879
 6018W        W10140   9.386   7.632  11.887
 6019W        W10141   4.126   8.542   1.801
 6020W        W10142   9.876   5.696   1.327
 6021W        W10143   4.181  10.794   2.296
 6022W        W10144   9.936   2.765  11.905
 6023W        W10145   2.824   8.550   1.883
 6024W        W10146  10.473   4.722  10.326
 6025W        W10147   7.531   9.918  10.891
 6026W        W10148   4.277  11.431   2.272
 6027W        W10149   7.912   8.431   0.810
 6028W        W10150   9.039   6.626   0.409
 6029W        W10151   6.633   1.845   9.890
 6030W        W10152   1.911   0.808   0.325
 6031W        W10153   8.991   6.612   2.748
 6032W        W10154   8.939   7.429   0.893
 6033W        W10155   7.092   5.614  10.012
 6034W        W10156   2.642   9.895   1.425
 6035W        W10157  11.408   0.739   0.298
 6036W        W10158   7.111   2.687   0.465
 6037W        W10159   5.117   5.248   1.239
 6038W        W10160   5.158   0.333  10.322
 6039W        W10161  10.979   8.934   2.376
 6040W        W10162   0.784   9.484   9.034
 6041W        W10163   7.428   1.799   2.388
 6042W        W10164  10.886   6.154   8.917
 6043W        W10165   2.652  11.446   2.829
 6044W        W10166   0.774   4.305  11.470
 6045W        W10167   8.991   5.611  10.848
 6046W        W10168  11.308   7.145  11.425
 6047W        W10169   5.721   7.167   9.876
 6048W        W10170   8.943   2.161   3.244
 6049W        W10171   1.901  11.316   2.352
 6050W        W10172   7.004   2.321  10.068
 6051W        W10173  10.380   7.590   8.966
 6052W        W10174   0.935   0.250   1.791
 6053W        W10175   8.459   9.040  11.410
 6054W        W10176   1.370   9.853   1.698
 6055W        W10177   4.130   4.274   2.697
 6056W        W10178   9.897   5.083   1.865
 6057W        W10179  10.452  10.981  11.507
 6058W        W10180  10.510   3.336   2.807
 6059W        W10181  10.892   7.665  10.828
 6060W        W10182   7.031   7.120  10.942
 6061W        W10183   9.362   9.566  11.371
 6062W        W10184  10.349   8.036   0.821
 6063W        W10185   5.208   5.198  10.914
 6064W        W10186   1.682   1.862   2.701
 6065W        W10187   1.200   4.787   0.939
 6066W        W10188   9.581   6.974  11.491
 6067W        W10189   0.437   9.400   2.860
 6068W        W10190   1.212   6.499   0.326
 6069W        W10191  11.339   1.381  11.513
 6070W        W10192   6.158   8.900   9.447
 6071W        W10193   3.715  11.010   2.370
 6072W        W10194   6.049   5.555  11.946
 6073W        W10195   5.698   1.739   2.697
 6074W        W10196   2.666   8.990   9.536
 6075W        W10197   9.868  10.922   0.322
 6076W        W10198   9.912   8.624   3.315
 6077W        W10199   6.971   7.007   3.240
 6078W        W10200   4.223   9.962  10.494
 6079W        W10201   3.269  10.484  11.399
 6080W        W10202   3.236   6.082   1.749
 6081W        W10203   2.832   0.240   2.858
 6082W        W10204   6.054  10.848  11.771
 6083W        W10205   8.037   6.159   1.884
 6084W        W10206   4.576   4.267  11.342
 6085W        W10207   5.125   0.352   0.758
 6086W        W10208   4.188   9.541  11.023
 6087W        W10209   9.912   8.446   2.823
 6088W        W10210   5.254   3.829   3.331
 6089W        W10211  10.382   1.784  10.026
 6090W        W10212   2.811   5.674   3.685
 6091W        W10213   7.574   9.916  10.414
 6092W        W10214   8.142   5.748   1.220
 6093W        W10215   3.614   0.859  11.779
 6094W        W10216   0.882   6.966   3.693
 6095W        W10217   2.298   8.083   3.280
 6096W        W10218   0.790   7.924   3.262
 6097W        W10219   7.924   1.356   9.901
 6098W        W10220   1.219   2.647   8.956
 6099W        W10221   8.542   8.004  10.524
 6100W        W10222  10.844   0.922   2.164
 6101W        W10223   0.432   1.782   0.865
 6102W        W10224   9.504   9.486   9.362
 6103W        W10225   8.113   5.071   2.330
 6104W        W10226   8.874   4.690   2.241
 6105W        W10227   5.154   3.651   0.328
 6106W        W10228   9.493   7.170   2.247
 6107W        W10229   8.571   0.454   9.487
 6108W        W10230   7.923  11.340   0.940
 6109W        W10231   0.813   7.140  10.891
 6110W        W10232   9.100   5.084   9.864
 6111W        W10233   6.469  10.303   0.375
 6112W        W10234   7.129   3.756   2.738
 6113W        W10235   6.218  11.378   1.885
 6114W        W10236   6.172   9.377   3.290
 6115W        W10237   1.766   9.063   3.806
 6116W        W10238   5.516   9.374   0.748
 6117W        W10239  10.886   3.227   8.991
 6118W        W10240   0.729   6.492   3.286
 6119W        W10241  11.485   5.233  11.382
 6120W        W10242   2.734   4.174   2.186
 6121W        W10243   9.912   3.182  11.858
 6122W        W10244   7.123   4.281  10.801
 6123W        W10245   3.781   6.995   0.305
 6124W        W10246   7.532   6.494   2.399
 6125W        W10247  10.933  10.823   9.503
 6126W        W10248   7.032   8.453  11.476
 6127W        W10249   4.564   6.955   0.798
 6128W        W10250   1.717   0.393   2.287
 6129W        W10251   5.665   4.655   9.896
 6130W        W10252  10.479   3.122  11.024
 6131W        W10253  10.448   7.099   1.354
 6132W        W10254   2.385   8.441   9.907
 6133W        W10255   8.479   0.335  11.000
 6134W        W10256  10.874   5.056   3.304
 6135W        W10257  10.498   1.279   2.380
 6136W        W10258   9.542   8.016   0.897
 6137W        W10259   3.679   9.485  11.385
 6138W        W10260   6.564   0.360  10.508
 6139W        W10261   3.628   5.695   9.967
 6140W        W10262   7.178   1.792  11.800
 6141W        W10263   9.949   8.088  10.379
 6142W        W10264  10.468   4.172   2.736
 6143W        W10265   8.136   2.334   2.756
 6144W        W10266  10.367   2.217  11.456
 6145W        W10267   2.315  10.334   3.127
 6146W        W10268   3.699   9.843   9.885
 6147W        W10269   8.578   0.826   8.419
 6148W        W10270   2.863   4.581   1.850
 6149W        W10271   5.991   3.149   2.720
 6150W        W10272   2.754   3.339   9.518
 6151W        W10273   9.917   7.521  10.467
 6152W        W10274   7.109   5.746  10.914
 6153W        W10275   5.995  10.975   2.231
 6154W        W10276   4.614   7.559   1.253
 6155W        W10277   9.521  10.813   1.389
 6156W        W10278   6.012   5.035   2.385
 6157W        W10279  10.019   2.159   9.423
 6158W        W10280   4.278   4.735   4.108
 6159W        W10281   8.886   8.530   0.892
 6160W        W10282   6.073   8.515  11.034
 6161W        W10283  10.481  10.394   2.170
 6162W        W10284   6.004   8.393   8.620
 6163W        W10285   7.574   3.811   1.423
 6164W        W10286   1.894   1.717   2.264
 6165W        W10287   3.168  11.427   9.562
 6166W        W10288   8.885   0.792  11.812
 6167W        W10289   0.862   9.381   9.916
 6168W        W10290   9.510   4.636   0.873
 6169W        W10291   2.157   5.726   1.366
 6170W        W10292   0.757   4.080   8.981
 6171W        W10293   8.986   3.811   9.088
 6172W        W10294   0.338   9.917   0.358
 6173W        W10295   1.739   8.064   8.506
 6174W        W10296   4.643   8.867   0.728
 6175W        W10297  10.940   5.107   9.432
 6176W        W10298   7.502   9.576   9.440
 6177W        W10299   4.287   9.372   2.275
 6178W        W10300  11.020   4.104   0.892
 6179W        W10301   0.952   4.136   2.236
 6180W        W10302   5.646   6.182  10.552
 6181W        W10303   3.329   9.482   9.956
 6182W        W10304   9.878   1.764   1.302
 6183W        W10305   9.462   5.248   0.407
 6184W        W10306   2.725   5.599   0.904
 6185W        W10307   7.099   4.736  11.813
 6186W        W10308   9.029   8.555   1.847
 6187W        W10309   4.305   9.968   0.879
 6188W        W10310   9.483   3.640  11.499
 6189W        W10311   3.737   0.387  10.478
 6190W        W10312   4.709   7.010  10.819
 6191W        W10313   7.915   0.936  11.357
 6192W        W10314   8.584  11.392  10.033
 6193W        W10315   2.873  10.361  11.887
 6194W        W10316   8.922   2.718  10.529
 6195W        W10317   4.302  10.860   3.612
 6196W        W10318  10.349  10.492  11.441
 6197W        W10319   3.683   8.023   0.310
 6198W        W10320   2.718   7.997  11.461
 6199W        W10321   4.609   3.212  10.538
 6200W        W10322   1.289   8.940  10.064
 6201W        W10323  10.395   1.257  11.488
 6202W        W10324   6.006   1.204   9.410
 6203W        W10325   0.369   7.914  10.443
 6204W        W10326   3.134   8.869   0.323
 6205W        W10327   3.350   0.412   0.448
 6206W        W10328   5.090   7.982   9.457
 6207W        W10329  11.385   2.784   9.500
 6208W        W10330   9.367  10.333   2.199
 6209W        W10331   9.041  10.524   3.215
 6210W        W10332   0.246   8.867  11.496
 6211W        W10333   2.257   2.393   9.563
 6212W        W10334   8.032   0.324   1.260
 6213W        W10335   9.871  11.381   9.380
 6214W        W10336   1.723   4.791  11.394
 6215W        W10337   1.898  10.504   1.916
 6216W        W10338   7.993   8.914   0.268
 6217W        W10339   6.091   6.635   1.799
 6218W        W10340   4.101   4.567  11.780
 6219W        W10341   7.046   8.915   0.765
 6220W        W10342   4.203   2.871   3.287
 6221W        W10343   3.169   3.669   3.637
 6222W        W10344   3.643   9.038   9.073
 6223W        W10345   6.509   0.361   0.328
 6224W        W10346   6.031  11.351   2.322
 6225W        W10347   5.247   6.673   0.475
 6226W        W10348   5.166  10.906   2.713
 6227W        W10349   2.730   0.264  10.399
 6228W        W10350   7.617  10.784   2.309
 6229W        W10351   7.912  10.829   1.385
 6230W        W10352   5.630   7.954  10.923
 6231W        W10353  10.321   1.304   0.794
 6232W        W10354   5.662   8.604   3.652
 6233W        W10355   9.390   2.372   0.390
 6234W        W10356   5.055   4.136   2.862
 6235W        W10357   0.793   3.305   3.232
 6236W        W10358   2.356  11.264   0.951
 6237W        W10359   3.743   6.969  10.816
 6238W        W10360   6.690   5.552  10.079
 6239W        W10361   6.153   2.324  11.493
 6240W        W10362   1.893   8.465  10.968
 6241W        W10363   1.335   9.433   9.519
 6242W        W10364   6.221   7.105   0.345
 6243W        W10365   8.910   1.879   0.240
 6244W        W10366   9.833   2.783   2.322
 6245W        W10367   4.156   4.652   1.378
 6246W        W10368   5.670   9.867   2.840
 6247W        W10369   6.209  10.436   9.114
 6248W        W10370   7.067  10.975   9.062
 6249W        W10371   5.744   2.760   2.870
 6250W        W10372   1.265   1.774  11.825
 6251W        W10373  11.371   8.908  11.762
 6252W        W10374   8.039   5.674  11.964
 6253W        W10375   5.564   7.095  10.993
 6254W        W10376   4.276   2.370   9.109
 6255W        W10377   6.213   6.500   1.209
 6256W        W10378   3.259   9.900   2.734
 6257W        W10379   0.849   0.844   0.431
 6258W        W10380   0.356  10.035   9.103
 6259W        W10381   7.035   9.872   9.598
 6260W        W10382  10.954   6.181   2.386
 6261W        W10383   6.706  10.529   2.371
 6262W        W10384  10.903   3.117   9.498
 6263W        W10385   8.029   1.363  10.412
 6264W        W10386   9.886   4.086  10.076
 6265W        W10387   7.164   0.758   2.391
 6266W        W10388   0.788   8.051   2.225
 6267W        W10389  10.425   9.913   9.943
 6268W        W10390   3.813   6.559   0.430
 6269W        W10391   5.558   5.642   2.674
 6270W        W10392   1.755   4.202   1.262
 6271W        W10393   9.054  10.794   9.022
 6272W        W10394  10.056   1.805   9.089
 6273W        W10395  10.366   0.840   3.230
 6274W        W10396   1.336   6.585  11.384
 6275W        W10397   6.677   1.698   9.516
 6276W        W10398   9.537   0.412   8.975
 6277W        W10399   6.505  10.452   9.444
 6278W        W10400   1.853   8.618  10.407
 6279W        W10401   6.525   4.235   0.479
 6280W        W10402   0.839   4.637   3.241
 6281W        W10403   9.583   4.211  11.792
 6282W        W10404   6.683   9.470   1.264
 6283W        W10405   9.837  10.516   1.740
 6284W        W10406   2.186   7.646   0.376
 6285W        W10407   8.984   0.918   2.771
 6286W        W10408   8.391  10.421   3.210
 6287W        W10409   6.957  11.409  11.881
 6288W        W10410   3.319   9.843   1.757
 6289W        W10411   6.161   8.514   0.828
 6290W        W10412  11.301   8.120  10.331
 6291W        W10413  11.296   0.891   3.263
 6292W        W10414   7.621   0.747   9.923
 6293W        W10415   7.967   5.635   0.787
 6294W        W10416   9.027   5.617   1.302
 6295W        W10417   6.023   7.632   3.769
 6296W        W10418   8.982   1.305   0.851
 6297W        W10419   6.132  11.292  10.368
 6298W        W10420   6.029   7.932   8.512
 6299W        W10421   8.547   7.661   2.344
 6300W        W10422   4.783  11.416  11.841
 6301W        W10423   9.997   3.278   2.268
 6302W        W10424   8.539   8.483   9.584
 6303W        W10425  11.419   3.150   2.195
 6304W        W10426   0.933   1.818  11.926
 6305W        W10427   4.683   2.298   0.797
 6306W        W10428   9.513   8.516   3.602
 6307W        W10429  10.347   2.754  11.338
 6308W        W10430  10.506   8.082   9.074
 6309W        W10431   8.421   8.522   3.257
 6310W        W10432   0.889  10.311  11.935
 6311W        W10433   8.016   6.041  10.530
 6312W        W10434   2.319   9.868   3.315
 6313W        W10435   3.779   7.027  11.908
 6314W        W10436   4.733   9.941  11.320
 6315W        W10437   0.287  10.457  10.438
 6316W        W10438   9.358   0.732  10.949
 6317W        W10439   5.269   1.900   2.802
 6318W        W10440   2.254  10.360   0.756
 6319W        W10441   0.793   6.037  10.820
 6320W        W10442   5.107   7.570   3.183
 6321W        W10443   5.548   0.381   3.184
 6322W        W10444   7.965   0.392  10.981
 6323W        W10445   4.594   3.214   1.860
 6324W        W10446   2.367   6.590   1.775
 6325W        W10447   9.392   1.435  11.913
 6326W        W10448   3.825   0.255   1.737
 6327W        W10449   7.451   3.727   9.981
 6328W        W10450   4.649   7.521  11.845
 6329W        W10451   4.611   3.825  10.052
 6330W        W10452   5.719   5.669   9.389
 6331W        W10453   9.031  10.453  11.296
 6332W        W10454   5.742   1.265  11.303
 6333W        W10455   5.161   0.320  10.043
 6334W        W10456  11.415   6.609   2.765
 6335W        W10457   1.775   8.048  11.477
 6336W        W10458   6.199   5.137   0.903
 6337W        W10459  10.972   7.461  10.333
 6338W        W10460   5.617   8.122   1.301
 6339W        W10461   0.863  10.923   2.826
 6340W        W10462   0.750   6.544  11.903
 6341W        W10463   1.285  11.390   2.663
 6342W        W10464   7.136   7.134   1.392
 6343W        W10465   4.684   9.583  11.302
 6344W        W10466   9.100   9.039   1.796
 6345W        W10467   8.570   4.559   0.359
 6346W        W10468   8.974   4.249   1.734
 6347W        W10469   8.073   3.777   3.822
 6348W        W10470   5.667   8.085   0.945
 6349W        W10471   0.849   9.556  10.846
 6350W        W10472   9.899  11.351   2.333
 6351W        W10473   1.873   0.400   3.206
 6352W        W10474   9.100   6.134  11.436
 6353W        W10475   9.928  10.528  10.390
 6354W        W10476   7.972   5.730   2.375
 6355W        W10477  11.498   6.595   2.192
 6356W        W10478   0.316   2.312  10.405
 6357W        W10479   3.712   4.098  11.473
 6358W        W10480  10.478   0.416  10.520
 6359W        W10481   9.561   0.736   1.772
 6360W        W10482   4.190   3.777   1.325
 6361W        W10483   2.641   6.125   0.902
 6362W        W10484  10.938   4.683  11.998
 6363W        W10485   1.869   4.766   0.427
 6364W        W10486   4.097  10.476  10.992
 6365W        W10487   1.691   1.792   8.418
 6366W        W10488   3.704   8.425   9.460
 6367W        W10489   1.231  10.899   2.367
 6368W        W10490   4.096  10.483   9.591
 6369W        W10491   7.144   3.738   3.138
 6370W        W10492   1.285   4.740   0.338
 6371W        W10493   7.666  10.511  11.311
 6372W        W10494   9.091   9.870   8.959
 6373W        W10495   3.204   2.257   0.828
 6374W        W10496   4.114   1.852   2.322
 6375W        W10497   3.265   1.722  10.821
 6376W        W10498   1.332   8.036   2.259
 6377W        W10499   3.292   4.117   9.113
 6378W        W10500   6.986   3.243   1.866
 6379W        W10501   2.802   8.972   2.658
 6380W        W10502   7.601   3.700   9.368
 6381W        W10503  10.866  10.865   3.353
 6382W        W10504   7.630   0.456  10.497
 6383W        W10505   2.164   4.287   2.788
 6384W        W10506   8.507   2.793   9.435
 6385W        W10507   3.166   4.698   8.403
 6386W        W10508   8.980   7.129   4.166
 6387W        W10509   6.536   2.874  10.005
 6388W        W10510   8.065   0.751   8.897
 6389W        W10511   3.695   6.589  10.444
 6390W        W10512   5.745   1.828   1.309
 6391W        W10513   9.489   1.813   9.597
 6392W        W10514   9.044  11.302   9.061
 6393W        W10515   1.383   0.743   2.846
 6394W        W10516   2.822   8.514  11.359
 6395W        W10517   7.009   9.913   3.147
 6396W        W10518   6.988   1.916   9.011
 6397W        W10519   3.756   9.398  10.508
 6398W        W10520   9.536   0.721   3.725
 6399W        W10521   5.115   4.767   7.996
 6400W        W10522   9.915   2.222   0.294
 6401W        W10523   2.197   4.785   1.859
 6402W        W10524   6.630   8.444   8.448
 6403W        W10525  10.356   6.140  10.331
 6404W        W10526   7.474   1.214   9.965
 6405W        W10527   4.171   1.781   9.411
 6406W        W10528   6.217   9.097   8.960
 6407W        W10529   1.232   3.783   9.112
 6408W        W10530   9.478   6.038  10.801
 6409W        W10531   1.389   4.675   2.670
 6410W        W10532   1.712   3.613   9.096
 6411W        W10533   1.871   2.218   1.304
 6412W        W10534   3.807   3.279  10.955
 6413W        W10535   5.715   0.868   0.883
 6414W        W10536   9.510   0.858  11.300
 6415W        W10537   5.189   7.090   1.406
 6416W        W10538   3.663   9.487  11.923
 6417W        W10539  10.538   7.117   3.163
 6418W        W10540   0.266   2.278   3.169
 6419W        W10541  10.324   4.112   3.302
 6420W        W10542   9.363   3.326   3.237
 6421W        W10543   0.727   4.116   2.679
 6422W        W10544   8.010   3.741   2.829
 6423W        W10545   8.093   7.989  11.908
 6424W        W10546   0.859   4.552   0.810
 6425W        W10547   8.076   2.195   9.370
 6426W        W10548   5.720   4.644   1.917
 6427W        W10549   3.800   8.905   0.929
 6428W        W10550   8.904   6.063   1.720
 6429W        W10551   6.541   0.731   9.900
 6430W        W10552   8.596   3.199  11.882
 6431W        W10553   6.486   2.676   0.820
 6432W        W10554   6.998   6.209   1.855
 6433W        W10555   9.367   8.604   9.549
 6434W        W10556   1.221  10.862   0.367
 6435W        W10557   3.806   8.543  10.832
 6436W        W10558   0.738   1.757   9.845
 6437W        W10559   1.913   9.464   0.345
 6438W        W10560   2.283   5.149  10.065
 6439W        W10561   9.344   1.734   0.860
 6440W        W10562   9.827   0.318   2.830
 6441W        W10563   9.539  10.845   9.364
 6442W        W10564   1.863   2.734   3.293
 6443W        W10565   9.565   1.338   1.711
 6444W        W10566  10.523   6.109   9.113
 6445W        W10567   3.221   1.390   9.956
 6446W        W10568   8.460   7.463   0.386
 6447W        W10569   5.561  10.027   3.175
 6448W        W10570   9.023   1.887   3.225
 6449W        W10571   9.514   3.185   9.945
 6450W        W10572   9.420   5.536  11.352
 6451W        W10573   0.420   7.162   3.178
 6452W        W10574  10.030   3.228   3.775
 6453W        W10575   3.830   3.220   9.977
 6454W        W10576   1.370   7.967   9.455
 6455W        W10577   0.356   9.978   2.687
 6456W        W10578   1.230   0.346   3.351
 6457W        W10579   6.492   7.111   2.712
 6458W        W10580   7.564   3.792  11.853
 6459W        W10581   7.532  10.977   0.274
 6460W        W10582   4.681   8.884   1.788
 6461W        W10583   4.281   4.652   3.783
 6462W        W10584   5.549   8.585   0.416
 6463W        W10585   1.743   2.233   9.926
 6464W        W10586   8.393   5.998   2.162
 6465W        W10587   1.364   9.921  10.430
 6466W        W10588   3.146   7.556   1.255
 6467W        W10589   9.938   2.834   1.360
 6468W        W10590   6.063   0.298   1.302
 6469W        W10591   4.175  11.331   1.357
 6470W        W10592   6.203   6.140   1.791
 6471W        W10593   0.937  10.471  11.519
 6472W        W10594   6.958   2.683   1.203
 6473W        W10595   5.195   4.270   8.095
 6474W        W10596   1.266  10.960   9.057
 6475W        W10597   4.629   9.405   8.946
 6476W        W10598   1.223   9.894   0.306
 6477W        W10599   5.108   3.155   0.727
 6478W        W10600  11.010   1.867   3.686
 6479W        W10601   5.058   2.643   9.422
 6480W        W10602  10.048   7.999   9.384
 6481W        W10603   5.230   9.979  11.321
 6482W        W10604   2.830   3.818  10.452
 6483W        W10605   6.978   3.246   2.205
 6484W        W10606   2.686   6.179   0.355
 6485W        W10607   9.453   5.568   8.928
 6486W        W10608   8.473   4.117   8.980
 6487W        W10609  10.871   2.217   0.375
 6488W        W10610   5.246   2.266   9.502
 6489W        W10611   2.299   9.046  10.061
 6490W        W10612   4.104  10.321   2.289
 6491W        W10613   0.445   7.107   0.282
 6492W        W10614   9.563   5.167   1.292
 6493W        W10615   3.145  10.459   1.790
 6494W        W10616   3.216   6.688   0.861
 6495W        W10617   3.306   1.781   0.840
 6496W        W10618   4.555   8.609  11.304
 6497W        W10619   7.916   2.825   9.370
 6498W        W10620  10.536   1.685   3.195
 6499W        W10621   3.676   1.223   0.885
 6500W        W10622   1.807   8.992   9.877
 6501W        W10623   4.654   5.096  10.488
 6502W        W10624   5.222   0.419  11.293
 6503W        W10625   7.925  10.930   1.871
 6504W        W10626   2.334   9.366  10.829
 6505W        W10627  10.484   4.087  11.403
 6506W        W10628   6.189   2.695   9.408
 6507W        W10629   1.290   7.453   0.452
 6508W        W10630   3.739   2.851   8.601
 6509W        W10631   9.918   3.751   0.395
 6510W        W10632  11.433   1.266  10.415
 6511W        W10633   8.128   6.983   0.281
 6512W        W10634   1.308   9.385  11.424
 6513W        W10635  11.336   9.896   2.381
 6514W        W10636   9.503  11.318  10.878
 6515W        W10637   4.277   8.021  11.460
 6516W        W10638   9.375   7.032   1.347
 6517W        W10639   4.708   5.579   1.788
 6518W        W10640   3.224  10.952  10.434
 6519W        W10641   6.990   2.721   0.786
 6520W        W10642   6.549  11.437   9.581
 6521W        W10643   7.140  10.455   0.897
 6522W        W10644   9.483   1.296   2.238
 6523W        W10645   3.702  11.440   0.330
 6524W        W10646   6.648   7.466   4.213
 6525W        W10647   1.283   9.575   1.819
 6526W        W10648   4.186   6.623   3.262
 6527W        W10649   9.509   8.413  11.512
 6528W        W10650   1.282   6.220   0.730
 6529W        W10651  11.403   0.276   2.205
 6530W        W10652   2.713   7.932   1.879
 6531W        W10653   4.601   4.744   8.515
 6532W        W10654  10.309   3.800  10.383
 6533W        W10655   5.996   4.690   9.057
 6534W        W10656   3.300  11.343   8.929
 6535W        W10657   0.908   5.135  10.857
 6536W        W10658   0.320  10.513   9.908
 6537W        W10659   8.984  10.844  10.813
 6538W        W10660   7.625   6.000   0.790
 6539W        W10661   9.571   8.976   3.169
 6540W        W10662   7.594   2.186  11.286
 6541W        W10663   0.395   9.055  11.925
 6542W        W10664  10.461   5.531   9.849
 6543W        W10665   9.069   3.247   2.184
 6544W        W10666   0.306   9.025   2.680
 6545W        W10667   9.095   3.237  10.953
 6546W        W10668   4.711   8.625   9.418
 6547W        W10669  11.397   4.585   2.736
 6548W        W10670   7.133  11.386   2.181
 6549W        W10671   6.108   4.165   0.381
 6550W        W10672   1.737   3.781  10.034
 6551W        W10673  11.408   8.549   2.663
 6552W        W10674   1.221   8.087  11.912
 6553W        W10675   8.007  11.487   8.937
 6554W        W10676   0.725   5.064   8.904
 6555W        W10677   3.820   9.499  10.943
 6556W        W10678   2.689   7.007   9.376
 6557W        W10679   8.118   6.036  11.847
 6558W        W10680   3.654   2.387  10.342
 6559W        W10681   8.540   1.384  10.065
 6560W        W10682   0.378  10.926   2.181
 6561W        W10683   0.793   2.237  11.010
 6562W        W10684   9.506   6.194   3.141
 6563W        W10685   2.823   5.182   3.194
 6564W        W10686   1.812   8.939   0.749
 6565W        W10687   7.047  10.873  11.425
 6566W        W10688  10.932   7.118   2.814
 6567W        W10689   9.898   5.703  10.527
 6568W        W10690   1.425   3.270   3.230
 6569W        W10691   7.487   2.868   0.263
 6570W        W10692   4.179   0.290  11.034
 6571W        W10693   0.886  10.019   2.738
 6572W        W10694  10.348   0.894   0.886
 6573W        W10695   5.604   7.137   9.540
 6574W        W10696   0.241   6.651   3.193
 6575W        W10697   6.602   8.035   2.271
 6576W        W10698   5.604   3.831   2.849
 6577W        W10699   5.090   3.285  10.069
 6578W        W10700   1.386   5.639   1.311
 6579W        W10701   8.424   7.978   9.542
 6580W        W10702   5.677   0.905   8.608
 6581W        W10703   7.527  11.423  10.357
 6582W        W10704   8.980   2.282  11.819
 6583W        W10705   8.956   9.952   1.423
 6584W        W10706   4.183   8.082  10.851
 6585W        W10707  10.024   8.554  10.363
 6586W        W10708   6.489   0.390   9.544
 6587W        W10709   5.133  10.816   2.303
 6588W        W10710   2.812   7.116   0.378
 6589W        W10711   1.910   1.711   9.594
 6590W        W10712   7.921   0.315   9.366
 6591W        W10713   9.346   1.681  10.839
 6592W        W10714   4.109  11.318   1.764
 6593W        W10715   0.295   0.356   0.955
 6594W        W10716  11.269   9.486   0.265
 6595W        W10717   2.305  10.933  11.991
 6596W        W10718  10.354   0.870  10.321
 6597W        W10719   8.878   9.405   8.937
 6598W        W10720  11.482   7.988   9.438
 6599W        W10721   9.516   1.728   0.374
 6600W        W10722   5.259   4.076   0.390
 6601W        W10723   0.809   5.069  11.787
 6602W        W10724   3.173   7.920  10.411
 6603W        W10725   9.909   7.144  11.787
 6604W        W10726   4.116  11.331  11.990
 6605W        W10727   4.081   0.306   0.958
 6606W        W10728   1.886   8.092   9.992
 6607W        W10729   7.453   8.880   3.289
 6608W        W10730  10.355   9.938   2.340
 6609W        W10731   6.042   7.173   2.337
 6610W        W10732  10.441   4.747   0.842
 6611W        W10733  10.376   5.058   1.281
 6612W        W10734   8.028   9.859   3.124
 6613W        W10735  11.434   7.013   1.729
 6614W        W10736   6.210  10.332  10.028
 6615W        W10737   7.607   0.457   3.222
 6616W        W10738   2.707   6.607   0.773
 6617W        W10739   2.764  10.441  11.459
 6618W        W10740   4.266   3.654   3.269
 6619W        W10741  10.317   8.594   1.826
 6620W        W10742   0.267   0.938   9.458
 6621W        W10743   5.649   8.954  11.320
 6622W        W10744   6.008   8.513  10.074
 6623W        W10745   7.098   2.208   0.242
 6624W        W10746   3.173   1.731   3.235
 6625W        W10747   1.202   5.146   1.758
 6626W        W10748   6.057   8.561   8.966
 6627W        W10749   0.448   1.876   0.294
 6628W        W10750   0.397   4.572   1.886
 6629W        W10751   1.714   9.877   3.260
 6630W        W10752   1.435   6.627   2.240
 6631W        W10753   0.281   4.180   2.200
 6632W        W10754   5.684   0.775   1.226
 6633W        W10755   1.821   5.997   2.874
 6634W        W10756   0.319   7.984   2.745
 6635W        W10757   9.040   7.156   1.410
 6636W        W10758   1.725  10.953   3.137
 6637W        W10759   9.874   5.670   8.412
 6638W        W10760   0.855   7.496   2.234
 6639W        W10761   6.227   7.934   3.292
 6640W        W10762   4.169   5.615   0.291
 6641W        W10763   5.049   5.212  11.931
 6642W        W10764   6.524   0.321   8.988
 6643W        W10765   0.800   6.643  10.844
 6644W        W10766   6.600   8.933   1.803
 6645W        W10767   2.762   2.368  10.028
 6646W        W10768   5.224   8.431   9.906
 6647W        W10769   9.433   3.246  11.819
 6648W        W10770   8.550   8.002   3.803
 6649W        W10771   1.250   6.647   1.304
 6650W        W10772   9.025   2.339  11.326
 6651W        W10773   8.438   3.765   1.393
 6652W        W10774  10.052   6.098  10.369
 6653W        W10775   1.694   0.817   2.800
 6654W        W10776   4.282   4.277  10.995
 6655W        W10777   6.143  11.472   0.732
 6656W        W10778   1.213   6.136  11.369
 6657W        W10779   8.929   6.543  11.397
 6658W        W10780   5.649   6.044   0.915
 6659W        W10781   0.805   0.465  11.416
 6660W        W10782   2.637   0.370   1.419
 6661W        W10783   7.012   2.167   9.033
 6662W        W10784   8.108   9.374   1.706
 6663W        W10785   9.394   7.933   2.722
 6664W        W10786   5.516   5.606   1.333
 6665W        W10787   4.225   8.429   0.336
 6666W        W10788   7.579   6.955   0.953
 6667W        W10789   0.915   1.721   3.635
 6668W        W10790   6.075   5.990  10.497
 6669W        W10791   9.522   1.739   1.264
 6670W        W10792   2.361   3.250   0.828
 6671W        W10793   2.248   9.000   1.330
 6672W        W10794   6.958   3.765   0.342
 6673W        W10795   4.096   4.285   8.909
 6674W        W10796   2.774   0.762  11.902
 6675W        W10797   4.202  10.445   2.804
 6676W        W10798   9.480   5.132  11.017
 6677W        W10799   8.976   9.426  10.949
 6678W        W10800  11.383   1.916   8.609
 6679W        W10801   8.015  11.478  10.913
 6680W        W10802   8.618   1.794  10.482
 6681W        W10803   4.705   8.473   1.750
 6682W        W10804   8.526   0.284   9.969
 6683W        W10805   4.086   5.184   8.944
 6684W        W10806   3.335   7.145   9.401
 6685W        W10807   3.695   7.449  11.487
 6686W        W10808   5.566   7.087   0.790
 6687W        W10809   5.230   1.227   1.300
 6688W        W10810   9.466   6.963   3.663
 6689W        W10811   0.906  11.261   3.289
 6690W        W10812   3.733   9.544   9.370
 6691W        W10813  11.369   0.357   1.282
 6692W        W10814   0.840   8.495  10.836
 6693W        W10815   1.435  10.423   9.590
 6694W        W10816   6.005  10.456   2.304
 6695W        W10817   9.407  10.859  11.906
 6696W        W10818   0.436   2.193   9.454
 6697W        W10819   7.589   3.179   0.349
 6698W        W10820   2.301   4.788   9.034
 6699W        W10821   9.955   6.957   0.853
 6700W        W10822   0.349   3.804   9.033
 6701W        W10823   9.462   3.649  10.076
 6702W        W10824   8.519   1.280   0.294
 6703W        W10825   0.390   8.984   9.847
 6704W        W10826   8.039  10.316  11.871
 6705W        W10827   6.199   7.964   9.990
 6706W        W10828   2.798   0.812   0.898
 6707W        W10829   2.643   4.231   1.848
 6708W        W10830   6.223  10.022  10.832
 6709W        W10831  10.426   1.716   1.898
 6710W        W10832   0.334  11.424   2.798
 6711W        W10833   2.241   6.516   2.162
 6712W        W10834   5.639   4.197   3.346
 6713W        W10835   3.226   0.934   0.442
 6714W        W10836   7.985  10.954   3.808
 6715W        W10837   4.660   6.955  11.929
 6716W        W10838  10.857   6.657   1.861
 6717W        W10839   2.378  10.500   9.003
 6718W        W10840   7.071   7.008   1.830
 6719W        W10841   0.391   1.889   2.366
 6720W        W10842   2.836   7.054   0.903
 6721W        W10843   1.325   6.153   8.962
 6722W        W10844   6.006   9.371  10.026
 6723W        W10845   6.010   0.831   0.946
 6724W        W10846   6.114  10.460   0.848
 6725W        W10847   3.595   7.954  11.038
 6726W        W10848   7.429   4.705  11.938
 6727W        W10849  10.005   0.473  10.912
 6728W        W10850   7.027   7.994   0.394
 6729W        W10851   1.208   3.150   8.889
 6730W        W10852  10.923   8.955   1.894
 6731W        W10853   8.458   8.950  10.881
 6732W        W10854   9.018   9.042  11.798
 6733W        W10855   1.797   6.514   2.350
 6734W        W10856   7.586  10.887  11.487
 6735W        W10857   1.866   3.694   1.744
 6736W        W10858   1.260   5.649   8.938
 6737W        W10859   5.598   8.037   3.815
 6738W        W10860   9.054   9.545   0.413
 6739W        W10861   0.779   1.907   0.290
 6740W        W10862   4.741   3.682  11.388
 6741W        W10863   9.991   4.292   2.219
 6742W        W10864   8.599   0.759  11.844
 6743W        W10865   2.323   4.604  10.511
 6744W        W10866   1.213   9.014  10.415
 6745W        W10867   7.913   2.847   0.900
 6746W        W10868   2.321  11.421  10.420
 6747W        W10869   7.179   1.419   9.094
 6748W        W10870   0.909   8.500   1.258
 6749W        W10871   7.486   0.848  10.954
 6750W        W10872   6.509   8.578   2.866
 6751W        W10873  10.311   4.272   9.994
 6752W        W10874   1.233   1.678   8.956
 6753W        W10875   2.309  10.844  11.474
 6754W        W10876   0.872  11.358  11.338
 6755W        W10877   1.351   8.082   9.964
 6756W        W10878   2.192   4.115   3.656
 6757W        W10879   1.692   6.593   1.320
 6758W        W10880   1.321   6.707   8.956
 6759W        W10881   9.364   2.377   1.783
 6760W        W10882   8.479   4.155   9.923
 6761W        W10883   5.149   5.232   9.889
 6762W        W10884   0.436   4.229   0.398
 6763W        W10885   4.188   1.743   0.752
 6764W        W10886   6.994   4.236   9.062
 6765W        W10887   2.260   6.679   0.816
 6766W        W10888   7.003   4.182  10.337
 6767W        W10889   9.011   2.718  11.421
 6768W        W10890   8.929   2.722   9.951
 6769W        W10891  10.405   3.690   0.281
 6770W        W10892   4.209   4.099  11.914
 6771W        W10893   9.914   5.591   2.269
 6772W        W10894   8.117   7.135  11.324
 6773W        W10895   8.488   8.144   4.084
 6774W        W10896   9.081   5.706   9.455
 6775W        W10897   7.440   9.049   0.420
 6776W        W10898   7.937   6.528   3.336
 6777W        W10899   5.570   8.142   8.423
 6778W        W10900  11.359   4.245   0.786
 6779W        W10901   1.210   2.329   0.858
 6780W        W10902   9.850   9.362   1.341
 6781W        W10903   1.225   8.992   2.160
 6782W        W10904   3.814   1.838   0.851
 6783W        W10905   5.162   8.610  11.437
 6784W        W10906  10.822  10.488   0.363
 6785W        W10907   6.199   7.084   9.008
 6786W        W10908   0.787   6.008   0.283
 6787W        W10909   6.179   8.538   3.208
 6788W        W10910  11.387   0.762   9.491
 6789W        W10911   0.791   0.828   1.354
 6790W        W10912   7.597   8.029   1.842
 6791W        W10913   7.516  10.046   8.961
 6792W        W10914   5.152   9.056   4.189
 6793W        W10915  11.012   0.259   3.169
 6794W        W10916   6.137   3.629   0.331
 6795W        W10917   5.197  10.531   1.298
 6796W        W10918   8.490  11.418   8.996
 6797W        W10919   6.496   3.196  10.917
 6798W        W10920  10.883   3.792  11.505
 6799W        W10921   9.962   9.901  10.358
 6800W        W10922   0.351   5.715   8.974
 6801W        W10923   8.530   9.412   1.338
 6802W        W10924   7.509   2.645   9.421
 6803W        W10925   0.952   4.157   1.408
 6804W        W10926   8.498   3.696  11.475
 6805W        W10927   4.103   7.660   2.723
 6806W        W10928   5.591  11.421  11.334
 6807W        W10929   6.991   7.542   0.459
 6808W        W10930   7.653   1.903   8.937
 6809W        W10931   9.020   0.311   9.461
 6810W        W10932   7.468   9.356   9.044
 6811W        W10933   4.250  10.817   2.806
 6812W        W10934  11.360   2.313   0.899
 6813W        W10935   3.135   2.394   3.257
 6814W        W10936  10.887   9.354   1.339
 6815W        W10937   1.344   3.726  11.852
 6816W        W10938   1.697   1.247   8.544
 6817W        W10939   2.841   0.383   9.457
 6818W        W10940   8.475   2.686   9.098
 6819W        W10941   6.948  10.791   9.853
 6820W        W10942   2.310   2.827   2.350
 6821W        W10943   8.886   1.903   1.683
 6822W        W10944   1.852   5.659   9.988
 6823W        W10945   1.875   8.125  10.487
 6824W        W10946   0.945   6.153  10.343
 6825W        W10947  11.379   4.151   3.147
 6826W        W10948   7.529   5.643  10.342
 6827W        W10949   7.962   6.067   2.877
 6828W        W10950   7.641   4.668   8.538
 6829W        W10951   9.484   9.092   1.375
 6830W        W10952   4.275   4.601   3.165
 6831W        W10953   3.172   6.516   9.530
 6832W        W10954   8.048   1.808   0.355
 6833W        W10955   9.372   3.797   0.853
 6834W        W10956  10.386   1.717  10.459
 6835W        W10957   4.250   4.678   1.854
 6836W        W10958   8.107  10.989   2.310
 6837W        W10959   4.771   2.280   2.867
 6838W        W10960   1.762  10.982   0.371
 6839W        W10961   1.861   2.763  11.859
 6840W        W10962  10.888   9.468   1.839
 6841W        W10963  10.978   5.530   8.984
 6842W        W10964   9.962   5.624   2.647
 6843W        W10965   2.831   4.720   7.982
 6844W        W10966  10.015   5.173   9.959
 6845W        W10967   4.214   7.557   9.919
 6846W        W10968   4.102   3.724   1.856
 6847W        W10969   8.063   2.645   1.899
 6848W        W10970   6.048   4.682   2.310
 6849W        W10971   2.873   5.087  10.407
 6850W        W10972   0.779   6.113  10.017
 6851W        W10973   5.130   7.943   0.844
 6852W        W10974   5.123   9.349   9.561
 6853W        W10975   3.597   4.306   9.444
 6854W        W10976  10.907   9.851  10.963
 6855W        W10977   6.959   6.985   2.875
 6856W        W10978   3.193   7.444   2.395
 6857W        W10979   3.670   5.745   0.772
 6858W        W10980   8.459   5.992   0.280
 6859W        W10981   0.475  10.466   0.290
 6860W        W10982   0.437   6.209  11.910
 6861W        W10983   1.743   7.625   9.525
 6862W        W10984   5.068   8.485  10.949
 6863W        W10985   7.591   5.749   0.784
 6864W        W10986  10.859   8.107  10.490
 6865W        W10987   5.704   2.859   0.746
 6866W        W10988  10.466   4.280   2.173
 6867W        W10989  10.939   1.267  11.006
 6868W        W10990   3.799   7.525  10.536
 6869W        W10991   1.302   1.771  10.839
 6870W        W10992   6.705  11.460  11.286
 6871W        W10993   4.184   1.316   9.876
 6872W        W10994   5.697   2.370   0.389
 6873W        W10995  11.476   0.310   2.642
 6874W        W10996   4.210  10.434   1.407
 6875W        W10997   7.146   7.608  10.410
 6876W        W10998   5.627   5.685   3.273
 6877W        W10999   6.630   1.797  10.523
 6878W        W11000   9.053  10.916  10.473
 6879W        W11001   8.506   8.879   0.836
 6880W        W11002  10.936   3.119   2.391
 6881W        W11003   1.687   3.142  11.314
 6882W        W11004   6.175  11.293   9.413
 6883W        W11005   0.803   5.539   0.247
 6884W        W11006   9.966   8.101  11.344
 6885W        W11007   9.861   5.726   3.160
 6886W        W11008   5.600   7.598  11.837
 6887W        W11009   5.110   9.480   2.785
 6888W        W11010   5.148   0.772   9.106
 6889W        W11011   4.248   9.015   9.586
 6890W        W11012   5.032  10.029   0.259
 6891W        W11013  10.808   6.213   1.435
 6892W        W11014   9.481   3.833   0.262
 6893W        W11015   9.994   5.581   1.848
 6894W        W11016   9.024   4.784   1.708
 6895W        W11017   5.564   3.166   3.786
 6896W        W11018   4.297   5.553   1.210
 6897W        W11019   1.714   2.861   9.039
 6898W        W11020   8.008   1.360   0.789
 6899W        W11021  10.978   0.479   2.261
 6900W        W11022   0.252  10.429   1.819
 6901W        W11023   2.295   8.883  10.524
 6902W        W11024   9.890   8.940  10.007
 6903W        W11025   0.926   7.991   2.754
 6904W        W11026   2.254   4.653   2.330
 6905W        W11027   7.042   5.187  10.912
 6906W        W11028   5.711   8.020   3.214
 6907W        W11029   1.915   4.215   2.687
 6908W        W11030   9.990   8.973  10.432
 6909W        W11031  10.907   2.335   1.277
 6910W        W11032   8.874   0.842  11.298
 6911W        W11033   2.350   6.001   8.922
 6912W        W11034   0.811   0.792   0.885
 6913W        W11035   9.996   3.152  10.327
 6914W        W11036   8.119   2.638   1.439
 6915W        W11037   0.282   9.511  11.292
 6916W        W11038   5.271   8.931   8.126
 6917W        W11039   6.047   2.744  10.864
 6918W        W11040   8.431   2.167  10.558
 6919W        W11041   8.499  11.452  11.856
 6920W        W11042   6.681  10.476   1.763
 6921W        W11043   6.518   7.513   9.444
 6922W        W11044   8.507   2.841   0.820
 6923W        W11045   7.518   1.394   2.701
 6924W        W11046   9.546   5.698  11.811
 6925W        W11047   3.315   3.652   1.853
 6926W        W11048   4.762  10.018  11.995
 6927W        W11049   2.359   4.292   1.237
 6928W        W11050   9.070   6.987  10.817
 6929W        W11051   5.558   1.364   9.891
 6930W        W11052   4.259   0.793   9.860
 6931W        W11053   6.209   0.823   2.787
 6932W        W11054   1.887   8.442   2.789
 6933W        W11055   7.032   1.324   3.152
 6934W        W11056   8.407   2.337   2.363
 6935W        W11057   7.180   6.587  10.887
 6936W        W11058  11.496  10.475   9.094
 6937W        W11059   4.285   2.372   0.910
 6938W        W11060   8.994   6.119   9.470
 6939W        W11061   1.433   3.692   9.531
 6940W        W11062  11.413   5.572   8.455
 6941W        W11063   7.572   9.859   0.930
 6942W        W11064  11.361   1.904   9.489
 6943W        W11065   1.732   5.551   2.162
 6944W        W11066   0.916   8.997   3.136
 6945W        W11067  11.490   1.209   9.504
 6946W        W11068  10.945   7.452  11.503
 6947W        W11069   0.834   5.520   9.395
 6948W        W11070   4.709   6.109  11.965
 6949W        W11071   9.502   1.247   0.842
 6950W        W11072   1.349   8.395  10.869
 6951W        W11073   1.207   1.220   2.845
 6952W        W11074   9.851  10.903   8.604
 6953W        W11075   0.883   7.556   8.982
 6954W        W11076   9.045   3.786   2.850
 6955W        W11077  10.519   3.616  11.813
 6956W        W11078   7.170   4.619   0.477
 6957W        W11079  10.903   6.597   2.378
 6958W        W11080   1.232  10.849   3.259
 6959W        W11081   8.565   4.772   1.290
 6960W        W11082   8.525   3.823   9.488
 6961W        W11083   1.878   1.831   9.109
 6962W        W11084   8.007  10.854   8.931
 6963W        W11085   7.925   9.480   9.079
 6964W        W11086   6.039   6.199   0.395
 6965W        W11087   9.369   9.948  10.352
 6966W        W11088   0.827   7.438   3.297
 6967W        W11089   2.834   8.907   8.947
 6968W        W11090   9.389   8.063  11.301
 6969W        W11091   1.210   7.522   1.410
 6970W        W11092   1.431   3.258  11.288
 6971W        W11093   6.216   8.500   1.264
 6972W        W11094   1.377  11.331   3.338
 6973W        W11095   8.526   0.253  10.324
 6974W        W11096  10.426   2.188   0.320
 6975W        W11097   9.449   6.104   1.262
 6976W        W11098  10.912   6.580  11.896
 6977W        W11099   1.912   3.171   9.482
 6978W        W11100   6.073  10.966  10.892
 6979W        W11101   2.211  10.472   2.350
 6980W        W11102   2.329   2.735  10.336
 6981W        W11103   8.589   9.912  10.892
 6982W        W11104   6.514   1.419   9.926
 6983W        W11105  11.465   0.848   1.883
 6984W        W11106   0.413   2.302  11.381
 6985W        W11107   8.128   1.264  11.356
 6986W        W11108   9.581   6.002   2.740
 6987W        W11109   7.156   2.753   3.789
 6988W        W11110   9.406   1.695  10.410
 6989W        W11111   1.713   7.085   0.409
 6990W        W11112   5.242   2.781   3.715
 6991W        W11113   5.118   6.212  10.066
 6992W        W11114   8.000   3.730   2.311
 6993W        W11115   4.590   1.205  10.064
 6994W        W11116   8.456   2.707  11.459
 6995W        W11117   2.833   5.728  11.479
 6996W        W11118   8.485  11.497   1.756
 6997W        W11119   3.798  11.320   1.432
 6998W        W11120  11.430  10.786   0.430
 6999W        W11121   5.747   0.829   0.348
 7000W        W11122   1.779   4.273  10.420
 7001W        W11123   5.159   4.714  11.010
 7002W        W11124  10.381   1.745   0.724
 7003W        W11125   3.742  11.344   0.843
 7004W        W11126  11.418   4.754  10.401
 7005W        W11127   6.226   9.397   1.306
 7006W        W11128  11.419   7.621   9.110
 7007W        W11129   4.555   6.565  10.988
 7008W        W11130   5.212  10.351   1.858
 7009W        W11131   1.363   7.623   2.340
 7010W        W11132   6.004   7.500   1.298
 7011W        W11133   7.596   5.733   0.315
 7012W        W11134   0.348   7.078   2.275
 7013W        W11135   6.223   6.973  10.940
 7014W        W11136   9.515   0.789  10.071
 7015W        W11137   9.883   9.554   9.924
 7016W        W11138   0.904   3.738   8.934
 7017W        W11139   0.821  10.791   9.417
 7018W        W11140   8.391   7.950   2.742
 7019W        W11141  11.478   9.374  11.296
 7020W        W11142   3.222   3.809  11.314
 7021W        W11143  10.488   2.719   0.410
 7022W        W11144   5.515   6.987   2.860
 7023W        W11145   7.027   2.215   2.346
 7024W        W11146   2.662   5.113   8.126
 7025W        W11147   9.837   2.172   2.343
 7026W        W11148   9.408   5.165   2.278
 7027W        W11149   5.250  10.805   1.222
 7028W        W11150   4.591   2.714   8.916
 7029W        W11151  11.395   4.628  11.994
 7030W        W11152   8.897   3.163   0.906
 7031W        W11153   7.455  10.984   9.999
 7032W        W11154   8.925   4.130   9.445
 7033W        W11155  10.391   3.233   1.873
 7034W        W11156   7.485   6.538   0.831
 7035W        W11157  10.980   5.521   1.201
 7036W        W11158   3.305   5.222  10.514
 7037W        W11159  10.843   5.616   2.750
 7038W        W11160  11.405   9.477   8.515
 7039W        W11161   5.126   4.107   0.939
 7040W        W11162   9.039   6.977   8.600
 7041W        W11163   7.629   4.766   0.806
 7042W        W11164   3.270   1.735  11.340
 7043W        W11165  10.987   5.077   2.389
 7044W        W11166   3.734   4.739   1.894
 7045W        W11167   0.814   2.228   0.918
 7046W        W11168   2.718   6.560   1.315
 7047W        W11169   2.159   3.691   3.208
 7048W        W11170   5.626   0.951   9.937
 7049W        W11171   9.467   7.920   2.215
 7050W        W11172   8.037   1.899  11.333
 7051W        W11173  10.399   8.521   9.934
 7052W        W11174   0.306   7.430   9.920
 7053W        W11175   7.083   8.558  10.456
 7054W        W11176  11.367   9.369   1.378
 7055W        W11177  10.348  11.376   9.119
 7056W        W11178   5.034   1.765  11.909
 7057W        W11179  10.813   2.333   3.153
 7058W        W11180   7.943  10.860   9.536
 7059W        W11181   7.510   5.043  11.387
 7060W        W11182   1.679   9.929  11.036
 7061W        W11183  10.539   3.716   2.320
 7062W        W11184  11.356   6.068   9.394
 7063W        W11185   4.109   4.252   2.318
 7064W        W11186   8.137   5.137   8.432
 7065W        W11187   3.342   5.680  11.017
 7066W        W11188   6.124  11.010   9.087
 7067W        W11189   7.604   6.117  11.437
 7068W        W11190   3.271   5.695   0.942
 7069W        W11191   0.897   1.731   1.394
 7070W        W11192   7.635   4.661   9.103
 7071W        W11193   1.322   0.933   3.304
 7072W        W11194   7.073   8.597   2.322
 7073W        W11195   5.556   8.947   9.992
 7074W        W11196   3.181   2.791  11.326
 7075W        W11197   8.448   8.075   8.436
 7076W        W11198   6.165   3.197  10.821
 7077W        W11199  11.400   9.998   9.850
 7078W        W11200   8.471   3.783   9.081
 7079W        W11201   2.304   0.897  11.374
 7080W        W11202   0.297  11.383  11.475
 7081W        W11203   5.165   2.735  10.363
 7082W        W11204   7.942   8.507   0.278
 7083W        W11205   8.871   8.052   3.288
 7084W        W11206  11.362   5.152  10.868
 7085W        W11207   0.470   7.144   9.524
 7086W        W11208   0.820   6.086   9.443
 7087W        W11209   9.404   2.180  10.554
 7088W        W11210   8.624  10.413  11.943
 7089W        W11211   4.202   5.688  10.839
 7090W        W11212   4.773   1.386   0.308
 7091W        W11213  10.874   8.594   3.246
 7092W        W11214   1.766   9.044   9.406
 7093W        W11215   5.992   4.576  10.342
 7094W        W11216  10.420  10.056   8.938
 7095W        W11217  10.474   9.991   1.385
 7096W        W11218   0.345   3.174  11.446
 7097W        W11219   7.480   0.931   0.860
 7098W        W11220   3.347   2.243   2.680
 7099W        W11221   0.399   1.836  10.492
 7100W        W11222   4.755   4.277   3.834
 7101W        W11223   3.220  11.482  11.975
 7102W        W11224   1.301   6.080   2.678
 7103W        W11225   4.709   6.667   8.599
 7104W        W11226   2.758   8.504   2.275
 7105W        W11227   2.235   5.553   9.599
 7106W        W11228   1.324   4.239   1.367
 7107W        W11229  11.485   4.570   8.936
 7108W        W11230   2.365   3.605   0.422
 7109W        W11231   6.991   3.723  10.943
 7110W        W11232   2.711   7.490   1.733
 7111W        W11233   4.577   2.389   1.695
 7112W        W11234   3.596   9.035   1.317
 7113W        W11235   3.708   8.487   9.893
 7114W        W11236  11.364   6.524   1.232
 7115W        W11237   6.978   0.384   1.689
 7116W        W11238   7.064   3.609   1.337
 7117W        W11239  10.842   1.707  10.439
 7118W        W11240   9.553   0.426  10.329
 7119W        W11241   5.516   4.791   3.803
 7120W        W11242   5.515   0.348   2.764
 7121W        W11243   4.136   7.990   0.412
 7122W        W11244   8.083   0.309   2.740
 7123W        W11245   9.423   8.438   0.757
 7124W        W11246   6.046   9.412   2.364
 7125W        W11247   9.096   7.106  10.359
 7126W        W11248   4.638  10.535   3.301
 7127W        W11249   3.190   1.326   2.258
 7128W        W11250  10.911   9.919   1.426
 7129W        W11251   8.538   7.567   3.274
 7130W        W11252  10.970   2.364   0.868
 7131W        W11253   8.138   1.262   0.472
 7132W        W11254   8.414  10.935   2.174
 7133W        W11255   0.413   9.406   3.260
 7134W        W11256   9.013   3.119   1.799
 7135W        W11257   6.000   2.280   1.735
 7136W        W11258   4.212   1.768  10.865
 7137W        W11259   6.650   6.666   0.243
 7138W        W11260   1.346   0.849   3.836
 7139W        W11261   2.695   5.163   0.950
 7140W        W11262   4.231   4.113   3.306
 7141W        W11263   3.791   3.826  10.335
 7142W        W11264   5.082  10.517   9.905
 7143W        W11265   0.923   9.889  11.453
 7144W        W11266   8.953  10.887  11.290
 7145W        W11267   8.003   7.439  11.761
 7146W        W11268   8.139   8.587  11.933
 7147W        W11269  10.784   1.721   3.198
 7148W        W11270  11.487   7.037  10.898
 7149W        W11271   4.164   9.016  11.966
 7150W        W11272   5.070  11.391   9.993
 7151W        W11273   5.051   0.388  10.827
 7152W        W11274   3.681   5.542   9.448
 7153W        W11275   7.139   7.989   1.263
 7154W        W11276   2.822   7.974   3.331
 7155W        W11277   1.848   9.909   2.198
 7156W        W11278   2.638   6.173   1.226
 7157W        W11279   1.896   1.348   1.746
 7158W        W11280   6.153   8.936  10.515
 7159W        W11281   6.123   1.681  11.940
 7160W        W11282   7.641   3.671   2.205
 7161W        W11283   7.609   2.703   9.975
 7162W        W11284   1.736   4.121   2.270
 7163W        W11285  10.805   3.159  11.296
 7164W        W11286  10.977  11.459  10.412
 7165W        W11287   2.798   6.639   0.442
 7166W        W11288  10.345   7.548  10.497
 7167W        W11289   2.203   3.719   0.901
 7168W        W11290   6.111   3.739   8.495
 7169W        W11291   5.223   2.176   0.751
 7170W        W11292   7.080   9.528   8.967
 7171W        W11293  10.487   3.751   9.481
 7172W        W11294   3.267   6.206   2.343
 7173W        W11295   7.074   6.480   0.336
 7174W        W11296   2.711   6.673  10.434
 7175W        W11297   2.731   6.663   3.331
 7176W        W11298   6.607   3.630   3.146
 7177W        W11299   5.239   4.224  10.042
 7178W        W11300   9.560   0.773  10.490
 7179W        W11301   8.907  10.411  10.916
 7180W        W11302   0.869   4.100  11.775
 7181W        W11303   8.012   6.102   3.803
 7182W        W11304   9.373   7.082   9.033
 7183W        W11305   9.463   0.338   2.325
 7184W        W11306   5.143   8.909   8.958
 7185W        W11307   3.230   0.761   0.788
 7186W        W11308   6.513   6.056  10.539
 7187W        W11309   5.747   9.408   1.374
 7188W        W11310   3.736  10.437  11.446
 7189W        W11311   2.740   0.328   2.375
 7190W        W11312   9.581  11.487  11.285
 7191W        W11313   9.399   5.248   3.285
 7192W        W11314   7.485   7.536   1.345
 7193W        W11315   6.498   8.954   1.422
 7194W        W11316   1.401   9.941   2.389
 7195W        W11317  11.446   8.965   9.543
 7196W        W11318   6.708   1.423  11.810
 7197W        W11319   0.356   9.823   2.266
 7198W        W11320   3.212   8.074  11.774
 7199W        W11321   2.662   5.690   9.439
 7200W        W11322   9.897   3.143   0.392
 7201W        W11323   3.604   4.742   3.136
 7202W        W11324   7.930   2.283   0.900
 7203W        W11325   2.169  11.289   8.917
 7204W        W11326   1.349   4.608   9.387
 7205W        W11327   1.697   1.213  10.051
 7206W        W11328   7.968   6.050   9.876
 7207W        W11329   4.283   8.498   1.232
 7208W        W11330   1.678   4.661   9.924
 7209W        W11331   6.185   4.141   9.552
 7210W        W11332   7.041   5.238   0.404
 7211W        W11333   9.835   7.619   3.286
 7212W        W11334   3.311   8.039   0.764
 7213W        W11335   8.495   8.504  11.414
 7214W        W11336   3.668   6.067   0.906
 7215W        W11337   8.442   7.147   2.703
 7216W        W11338  10.944   8.573   2.238
 7217W        W11339   0.301   7.941   1.690
 7218W        W11340  10.481   1.265  11.787
 7219W        W11341   5.263   2.770  11.358
 7220W        W11342  11.376   3.249   1.900
 7221W        W11343   7.531   7.084   9.111
 7222W        W11344   7.440  10.957   9.074
 7223W        W11345   4.659   1.910   1.904
 7224W        W11346   2.325  10.834   9.912
 7225W        W11347   2.794   6.138  11.375
 7226W        W11348  11.284   3.626  10.878
 7227W        W11349   8.556   2.667   2.829
 7228W        W11350   8.596   8.908   1.315
 7229W        W11351   5.675   8.446   2.826
 7230W        W11352   1.745   0.470  11.932
 7231W        W11353   2.346   7.457   2.371
 7232W        W11354   2.268   9.019  11.486
 7233W        W11355   5.521   7.162  10.478
 7234W        W11356   0.835   1.208  10.927
 7235W        W11357   0.301   9.061   3.345
 7236W        W11358   1.371   9.904   9.988
 7237W        W11359   2.266  10.000   0.410
 7238W        W11360  10.342   7.994   9.498
 7239W        W11361   2.809   2.795  10.822
 7240W        W11362   6.158   6.168   8.480
 7241W        W11363  11.361   2.357   2.308
 7242W        W11364  11.419   4.785   1.432
 7243W        W11365   9.830  11.475   8.919
 7244W        W11366   6.163   9.995   0.454
 7245W        W11367   6.047   6.950   9.410
 7246W        W11368   4.624   4.764   2.208
 7247W        W11369   8.009  11.312   9.444
 7248W        W11370   8.953   1.707  11.769
 7249W        W11371   5.251  10.458   2.861
 7250W        W11372   3.739   5.073   0.383
 7251W        W11373   2.874  11.347   3.266
 7252W        W11374   7.116   9.038   1.808
 7253W        W11375  10.392   2.840  10.335
 7254W        W11376   4.214   8.021  10.466
 7255W        W11377  10.888  10.943   8.523
 7256W        W11378   9.455   3.727   2.306
 7257W        W11379  11.399   3.208   3.216
 7258W        W11380   0.279   6.157   1.351
 7259W        W11381   4.120  10.996  10.030
 7260W        W11382   2.856   1.261  11.772
 7261W        W11383   7.442   9.985   3.177
 7262W        W11384   5.245   8.004   9.041
 7263W        W11385   6.602   8.595  10.320
 7264W        W11386   8.989  10.862   2.675
 7265W        W11387   2.185   9.495   3.332
 7266W        W11388   9.838   4.669   1.393
 7267W        W11389  10.423   7.926   2.337
 7268W        W11390   6.048   4.663  11.397
 7269W        W11391   6.619   9.898   9.971
 7270W        W11392   4.780   6.691   0.753
 7271W        W11393   3.208   1.876   3.676
 7272W        W11394   1.727   1.742  11.028
 7273W        W11395   3.741  10.436   2.837
 7274W        W11396   1.413   7.051  11.974
 7275W        W11397   3.722   6.031   2.341
 7276W        W11398   8.446   2.852  11.933
 7277W        W11399   9.058   9.379  10.559
 7278W        W11400   8.563   8.591   0.347
 7279W        W11401   0.402   8.400   9.422
 7280W        W11402   0.735   3.131   0.409
 7281W        W11403   8.975   2.868   9.534
 7282W        W11404   9.460   0.282   2.848
 7283W        W11405   6.706   9.350  10.022
 7284W        W11406   9.389   1.323   3.614
 7285W        W11407   7.179   8.436   0.440
 7286W        W11408   5.671   9.374   2.769
 7287W        W11409  11.325   7.913   3.267
 7288W        W11410   1.296   5.530  10.867
 7289W        W11411   7.157  11.364   2.768
 7290W        W11412   0.452  10.919   2.778
 7291W        W11413   8.580   2.257   3.345
 7292W        W11414  11.440   7.948  10.820
 7293W        W11415   8.998  11.316   1.305
 7294W        W11416   5.092   3.286   8.102
 7295W        W11417  10.439   4.655  10.002
 7296W        W11418   4.736   6.498   3.660
 7297W        W11419   8.515   7.148   0.764
 7298W        W11420   5.573   4.638   1.326
 7299W        W11421   2.636   2.203   1.281
 7300W        W11422   9.453   9.510   9.887
 7301W        W11423   3.208   0.299  11.903
 7302W        W11424   9.344   3.165   0.765
 7303W        W11425   7.995   3.160  10.037
 7304W        W11426   6.973   8.011   0.775
 7305W        W11427   9.390   0.788   0.950
 7306W        W11428   5.554  10.442   8.980
 7307W        W11429  10.486   4.127   1.323
 7308W        W11430   9.969   6.007   0.903
 7309W        W11431   5.191   4.765   1.302
 7310W        W11432   1.385   1.380  11.478
 7311W        W11433   9.857  10.490   2.299
 7312W        W11434   3.701   6.481  11.399
 7313W        W11435   9.974   4.134   1.268
 7314W        W11436   3.181  11.456   2.725
 7315W        W11437   0.721   9.367   9.509
 7316W        W11438   2.301  11.366  10.965
 7317W        W11439  10.510   1.407   9.859
 7318W        W11440   5.255   8.492  10.369
 7319W        W11441   6.076  10.825   9.885
 7320W        W11442   7.591  10.522   9.402
 7321W        W11443   0.384   8.925   1.705
 7322W        W11444  10.314   1.869   2.689
 7323W        W11445   8.397   1.863   8.578
 7324W        W11446   4.595   0.328  11.777
 7325W        W11447  10.415   9.506   2.223
 7326W        W11448   4.693   0.819   1.329
 7327W        W11449   8.491   3.258   0.428
 7328W        W11450   8.410   8.101   2.299
 7329W        W11451   0.737   8.475   3.176
 7330W        W11452   3.627   8.090   4.310
 7331W        W11453   5.648   5.119   3.268
 7332W        W11454   2.364   2.228   2.794
 7333W        W11455   5.091  10.808   0.265
 7334W        W11456  10.312   7.047   9.990
 7335W        W11457   3.268   6.569  11.772
 7336W        W11458   3.726   7.112   1.864
 7337W        W11459   6.501   5.033   0.723
 7338W        W11460   4.614   7.665   9.976
 7339W        W11461   2.162   2.816   0.884
 7340W        W11462   1.711   9.063   1.854
 7341W        W11463   5.166   4.102  10.893
 7342W        W11464   6.229   6.988   3.645
 7343W        W11465   0.296   7.147  10.831
 7344W        W11466   5.657   1.831   0.737
 7345W        W11467   5.543   9.007   8.906
 7346W        W11468   8.588   0.898   0.312
 7347W        W11469   0.890   6.539   0.846
 7348W        W11470   1.435   7.001   0.871
 7349W        W11471   9.534   7.915   9.501
 7350W        W11472  11.429   3.147   1.213
 7351W        W11473   2.826   1.916   2.334
 7352W        W11474   8.572   5.531   8.422
 7353W        W11475   8.510   8.525  10.965
 7354W        W11476   0.842   7.171   0.909
 7355W        W11477   2.391   9.999   9.990
 7356W        W11478   7.546   6.528  10.865
 7357W        W11479   5.126  11.460   1.385
 7358W        W11480   2.202   6.126   2.378
 7359W        W11481   9.867   9.559   2.853
 7360W        W11482   5.569   7.119   1.893
 7361W        W11483   3.771   7.047   9.455
 7362W        W11484   7.026   0.316   3.360
 7363W        W11485   4.573   2.174   9.063
 7364W        W11486   2.167   3.816   1.435
 7365W        W11487  10.921   3.793   0.960
 7366W        W11488   0.347   5.080   0.270
 7367W        W11489   4.221  10.404  11.404
 7368W        W11490   0.926   0.868  11.423
 7369W        W11491   6.590   2.774   7.985
 7370W        W11492   3.640   7.451   1.731
 7371W        W11493   0.831   5.074  11.402
 7372W        W11494   3.228  10.917   0.398
 7373W        W11495   4.293   5.087   0.440
 7374W        W11496   1.387  10.897   9.896
 7375W        W11497   3.601   2.702  11.779
 7376W        W11498   5.228   3.818  10.383
 7377W        W11499   6.536   4.626   2.162
 7378W        W11500   6.657   7.594   2.724
 7379W        W11501   9.073   6.610   9.950
 7380W        W11502   7.920  11.276  11.314
 7381W        W11503   7.469   3.272   3.207
 7382W        W11504   9.358   1.866   8.942
 7383W        W11505   3.188   0.841  10.389
 7384W        W11506   1.902   5.063   1.294
 7385W        W11507   8.993   5.233  11.427
 7386W        W11508   6.166   1.901  10.060
 7387W        W11509   2.743   7.990   8.930
 7388W        W11510   9.525   2.300   2.772
 7389W        W11511   8.470   6.513   7.946
 7390W        W11512   7.923   4.767   8.892
 7391W        W11513   4.784   8.428   2.395
 7392W        W11514   9.440   3.772   3.279
 7393W        W11515   0.445   9.964  10.068
 7394W        W11516   4.651   0.794   3.826
 7395W        W11517   6.493   2.797   2.865
 7396W        W11518   1.837   3.168   2.734
 7397W        W11519   1.353   7.952   1.714
 7398W        W11520   3.277   6.670   0.314
 7399W        W11521   4.274   0.427   1.713
 7400W        W11522   7.135   2.359   0.858
 7401W        W11523   1.842   8.451   0.246
 7402W        W11524  11.479   1.740   0.781
 7403W        W11525   5.661   2.738   3.808
 7404W        W11526   6.487   3.300  11.464
 7405W        W11527   5.597   4.578   8.001
 7406W        W11528   7.470   9.026   0.901
 7407W        W11529   0.346   9.449  11.938
 7408W        W11530   5.614   1.281   9.389
 7409W        W11531   5.728   2.294  10.037
 7410W        W11532   0.944   5.707  11.855
 7411W        W11533   3.728  10.789   0.264
 7412W        W11534   5.092   9.895  10.548
 7413W        W11535   9.021   9.397  11.881
 7414W        W11536  10.856   3.773   8.925
 7415W        W11537   4.176   7.599   2.353
 7416W        W11538   9.431   6.552   2.674
 7417W        W11539   4.734   8.458  11.846
 7418W        W11540   4.270   5.525   0.801
 7419W        W11541  11.305   9.044   0.909
 7420W        W11542   3.121   9.575   8.544
 7421W        W11543   4.152   1.761   3.217
 7422W        W11544  11.485   1.865   3.270
 7423W        W11545   0.338   3.650   0.307
 7424W        W11546   8.990   3.664   1.439
 7425W        W11547   0.856  10.458  10.420
 7426W        W11548   7.615   1.745  10.543
 7427W        W11549   3.321  10.875   0.880
 7428W        W11550   0.748   4.257   3.792
 7429W        W11551   1.688  11.391   9.471
 7430W        W11552   1.269   1.304   0.761
 7431W        W11553   4.235   4.691   8.912
 7432W        W11554   3.644   3.262   0.351
 7433W        W11555   8.135   7.473   9.865
 7434W        W11556   2.381  10.509  11.016
 7435W        W11557   1.758   3.824   0.453
 7436W        W11558  10.981   3.698  10.520
 7437W        W11559   3.627  10.784   3.174
 7438W        W11560   9.550   1.888   2.239
 7439W        W11561   3.260   0.421  10.006
 7440W        W11562  11.346  11.482   1.404
 7441W        W11563   2.253   2.719   0.277
 7442W        W11564  11.339   8.966  10.028
 7443W        W11565   4.759   6.033   4.116
 7444W        W11566   6.507  10.788  10.948
 7445W        W11567   6.540   5.628  11.414
 7446W        W11568   7.992   2.373   9.861
 7447W        W11569  10.842   3.632   9.370
 7448W        W11570  10.880   5.072   0.332
 7449W        W11571   2.334   9.467  11.868
 7450W        W11572   1.704   5.561   8.460
 7451W        W11573   0.943   9.544   2.810
 7452W        W11574   1.767   8.087   1.337
 7453W        W11575   1.823   5.654   1.359
 7454W        W11576   1.779   7.523   0.773
 7455W        W11577   3.755   3.615   2.710
 7456W        W11578   6.018   9.403   1.691
 7457W        W11579   7.586   4.567   3.737
 7458W        W11580   1.239   6.627   1.718
 7459W        W11581   9.886  10.504   0.439
 7460W        W11582   1.838   4.679   1.425
 7461W        W11583   1.678   5.664  11.300
 7462W        W11584   9.355  10.532   9.862
 7463W        W11585   2.788   5.584   1.342
 7464W        W11586   5.607   7.636   2.826
 7465W        W11587   0.772   4.241  10.509
 7466W        W11588   9.401   4.179   1.785
 7467W        W11589   2.744  10.421   9.514
 7468W        W11590   5.215   4.263   1.813
 7469W        W11591   0.419   1.747   1.908
 7470W        W11592   3.785   1.703   2.655
 7471W        W11593   0.765   0.784   1.698
 7472W        W11594   2.640   6.967   8.454
 7473W        W11595   8.522   5.121  11.790
 7474W        W11596  10.525   2.337   9.492
 7475W        W11597   1.393   5.706   2.768
 7476W        W11598   6.153   2.806   2.193
 7477W        W11599   3.749   5.069   8.979
 7478W        W11600   8.057   5.679   4.212
 7479W        W11601   2.312   5.997   3.266
 7480W        W11602  11.008   8.117   0.723
 7481W        W11603   4.605   0.319   3.261
 7482W        W11604   9.393   0.338   1.422
 7483W        W11605   5.706   4.218  11.035
 7484W        W11606   9.486   7.637   2.687
 7485W        W11607  11.379  10.375   9.440
 7486W        W11608   5.990  10.349   0.311
 7487W        W11609   2.641  10.014   2.650
 7488W        W11610   1.880   7.113   2.320
 7489W        W11611   1.275   8.596   9.926
 7490W        W11612   8.952   5.163   9.515
 7491W        W11613   4.210  10.961   9.440
 7492W        W11614   6.208   8.033   1.701
 7493W        W11615  10.388   4.741   0.433
 7494W        W11616   7.071   5.577   2.186
 7495W        W11617   3.343   7.920  10.836
 7496W        W11618   2.820   0.827   3.151
 7497W        W11619  10.952   9.488   3.189
 7498W        W11620   6.657   3.739  10.438
 7499W        W11621   3.128   6.963   8.974
 7500W        W11622   8.618  11.466   8.424
 7501W        W11623   3.668   2.817   0.728
 7502W        W11624   2.379  11.481   3.168
 7503W        W11625  11.348   7.980   9.932
 7504W        W11626   5.268   3.320   2.366
 7505W        W11627   6.474   9.901  10.323
 7506W        W11628   3.697   4.572   9.374
 7507W        W11629  10.926   9.065   1.233
 7508W        W11630   3.320  10.816   1.384
 7509W        W11631   7.063  10.945   9.437
 7510W        W11632   6.101   9.363   0.454
 7511W        W11633   8.575   9.954   1.788
 7512W        W11634   5.167   3.699  11.962
 7513W        W11635   7.448   1.801   9.978
 7514W        W11636   3.667  11.011   1.880
 7515W        W11637   0.274   4.234   9.016
 7516W        W11638   4.631   5.620  11.946
 7517W        W11639  10.787   0.733   9.524
 7518W        W11640   1.218  11.497   9.927
 7519W        W11641   2.179   8.975   2.322
 7520W        W11642  10.526   4.116   0.733
 7521W        W11643  11.326   2.219  11.993
 7522W        W11644   2.763   2.698  11.881
 7523W        W11645  10.795   5.256   8.587
 7524W        W11646   7.630   8.024  11.847
 7525W        W11647   0.412   5.033   1.903
 7526W        W11648   2.244   3.829  11.791
 7527W        W11649  10.428   0.918  11.445
 7528W        W11650  11.361   9.899  11.287
 7529W        W11651  10.361  11.439   3.236
 7530W        W11652   7.140   1.780   3.332
 7531W        W11653   2.819   2.208   2.280
 7532W        W11654   8.048   9.870   2.658
 7533W        W11655   3.152   9.412  10.369
 7534W        W11656  10.425   0.387   3.304
 7535W        W11657   3.306   4.254   0.821
 7536W        W11658   4.088   7.040   1.792
 7537W        W11659  10.991  10.879   9.965
 7538W        W11660   5.514   7.183  11.467
 7539W        W11661   8.088  10.845   3.351
 7540W        W11662   2.220   5.256   8.539
 7541W        W11663  10.806   0.398   8.452
 7542W        W11664   5.628   6.996   3.800
 7543W        W11665  10.404   5.515   9.043
 7544W        W11666   2.746   2.664   3.226
 7545W        W11667  10.795   9.438  11.505
 7546W        W11668  10.486   5.701   2.732
 7547W        W11669   7.954  10.450   9.504
 7548W        W11670   1.824  10.036  10.068
 7549W        W11671   5.597   4.656   4.091
 7550W        W11672   4.602   9.412  11.765
 7551W        W11673   7.647   4.615   2.316
 7552W        W11674   7.004   8.492   9.017
 7553W        W11675   0.842   4.756   3.616
 7554W        W11676   1.756   8.012   3.195
 7555W        W11677   4.303   7.580  11.889
 7556W        W11678   8.879   3.619  11.760
 7557W        W11679   5.732   0.413   9.426
 7558W        W11680   8.556   7.925  11.400
 7559W        W11681  11.398   9.981   0.950
 7560W        W11682  11.342   8.413   9.074
 7561W        W11683   3.315  10.304   1.293
 7562W        W11684   1.833   8.496   0.859
 7563W        W11685   1.400   8.989  11.372
 7564W        W11686   2.790   9.897   0.347
 7565W        W11687   5.205   5.241   2.290
 7566W        W11688   7.482   2.349   0.278
 7567W        W11689  10.362   9.001   1.851
 7568W        W11690   8.871  10.324   2.714
 7569W        W11691   1.319   4.224   8.907
 7570W        W11692   2.726   8.967   2.194
 7571W        W11693   1.787   1.225  11.998
 7572W        W11694   3.821   2.646   9.092
 7573W        W11695   7.071   8.992   2.237
 7574W        W11696   6.970   7.536   1.225
 7575W        W11697   2.704   0.372   3.357
 7576W        W11698   1.366   9.541   1.311
 7577W        W11699   7.930   8.544   9.986
 7578W        W11700   6.202   7.448   2.796
 7579W        W11701   2.756   0.771   0.264
 7580W        W11702   3.212   1.706   8.989
 7581W        W11703   8.068   4.765  11.307
 7582W        W11704   4.749   8.478   1.326
 7583W        W11705   5.102   6.182   1.723
 7584W        W11706   4.743   4.664   0.909
 7585W        W11707   1.334   0.878   9.422
 7586W        W11708   7.464   2.688   9.060
 7587W        W11709   6.484   8.934  10.908
 7588W        W11710   1.732   6.546   9.517
 7589W        W11711  10.328   0.399   0.361
 7590W        W11712   8.138   8.446  10.526
 7591W        W11713   4.701   5.213  11.968
 7592W        W11714   0.821   3.201   0.902
 7593W        W11715  10.036   6.603   0.787
 7594W        W11716   2.248   8.095  11.976
 7595W        W11717   0.721   5.740   1.910
 7596W        W11718   8.418   1.902   2.715
 7597W        W11719   5.197   4.210  11.436
 7598W        W11720   9.432   8.498   0.428
 7599W        W11721   9.018   2.231  10.320
 7600W        W11722   3.798   2.342   8.428
 7601W        W11723  10.980   5.038  10.035
 7602W        W11724   6.703   5.128   9.875
 7603W        W11725   8.997   2.738   0.424
 7604W        W11726   8.886   4.275   9.017
 7605W        W11727   3.210   8.443   1.864
 7606W        W11728   3.687   4.773   1.264
 7607W        W11729  10.440   3.792   0.742
 7608W        W11730   6.587   3.250   9.943
 7609W        W11731   0.849   4.706   9.004
 7610W        W11732   5.520   8.542  11.408
 7611W        W11733   1.690   3.663   9.383
 7612W        W11734   3.691   2.287  10.824
 7613W        W11735  10.422   1.203  10.526
 7614W        W11736   3.644   5.253   4.095
 7615W        W11737   6.206   2.754   3.193
 7616W        W11738   4.084   9.103  11.478
 7617W        W11739   6.081   4.786  10.873
 7618W        W11740   8.497   8.624   1.361
 7619W        W11741   9.365   1.783  11.416
 7620W        W11742   1.760   6.577   3.199
 7621W        W11743   8.047   7.601   9.476
 7622W        W11744   8.110   1.780   2.800
 7623W        W11745   8.451  10.985   2.847
 7624W        W11746   2.329   4.192   3.209
 7625W        W11747  11.467   9.515  11.879
 7626W        W11748   0.374   2.753   2.828
 7627W        W11749   6.210   5.044   1.261
 7628W        W11750   6.487   8.902   2.835
 7629W        W11751   7.598  11.462  11.439
 7630W        W11752   6.181   0.763   0.345
 7631W        W11753   0.951   8.874  11.494
 7632W        W11754   2.337   9.835  11.398
 7633W        W11755   5.092   7.432  11.813
 7634W        W11756  10.786  10.837   1.393
 7635W        W11757   3.815   8.013   9.032
 7636W        W11758   5.082   4.190   8.510
 7637W        W11759   8.944   3.244   9.075
 7638W        W11760   4.235   9.536   0.348
 7639W        W11761   2.372   6.699   9.039
 7640W        W11762   6.108   6.195   2.166
 7641W        W11763   6.229   4.642   3.299
 7642W        W11764   0.851   5.517   1.211
 7643W        W11765   0.270   9.577   9.973
 7644W        W11766   8.496   5.129   8.155
 7645W        W11767   3.290   2.279   2.173
 7646W        W11768  10.316   0.404   8.918
 7647W        W11769   8.472   3.804  10.868
 7648W        W11770  11.307   8.145  11.350
 7649W        W11771   9.950   0.362   3.276
 7650W        W11772   6.074   6.692  11.411
 7651W        W11773  10.926   3.235   1.904
 7652W        W11774   5.202   7.571   9.882
 7653W        W11775   0.428  10.783  10.331
 7654W        W11776   5.165   8.506   2.748
 7655W        W11777   9.904  11.308  10.949
 7656W        W11778   7.029   9.473   1.328
 7657W        W11779   8.978   8.405   9.386
 7658W        W11780   5.122   1.904   0.363
 7659W        W11781   4.167   4.591   2.336
 7660W        W11782   8.874   9.019  10.365
 7661W        W11783   0.938   2.385   3.296
 7662W        W11784   7.428   6.093   4.268
 7663W        W11785   8.954   6.469   7.942
 7664W        W11786   7.912   7.003  10.813
 7665W        W11787   2.671  11.405   1.275
 7666W        W11788   9.526   4.585   9.418
 7667W        W11789   6.993   7.445  10.872
 7668W        W11790   5.518   9.883  10.814
 7669W        W11791   0.377   6.497   9.516
 7670W        W11792   2.171   0.470   1.246
 7671W        W11793   2.866   2.376  10.465
 7672W        W11794  10.873  10.880  11.400
 7673W        W11795   1.428   8.077   2.728
 7674W        W11796   0.456   7.178   2.792
 7675W        W11797   5.137   9.001  10.347
 7676W        W11798   7.539   1.763   0.753
 7677W        W11799   5.552   0.422  10.939
 7678W        W11800   8.054   7.938   9.406
 7679W        W11801   6.549   9.868  10.983
 7680W        W11802   5.062   2.846   2.720
 7681W        W11803   5.259   6.096  10.510
 7682W        W11804   5.223   1.805   8.496
 7683W        W11805   1.373   0.370  11.453
 7684W        W11806   2.862   1.736  11.902
 7685W        W11807   0.759   7.132   3.191
 7686W        W11808   8.046   3.815   8.484
 7687W        W11809   0.757   9.081   1.885
 7688W        W11810   6.160  11.365  10.927
 7689W        W11811   5.570   9.508  10.560
 7690W        W11812   3.653  11.291  10.038
 7691W        W11813  11.353  10.490   2.765
 7692W        W11814   6.617   9.003   0.351
 7693W        W11815   0.465   4.230   9.586
 7694W        W11816   1.218   7.458  11.029
 7695W        W11817   8.509   2.735  10.929
 7696W        W11818   2.733   9.984   9.028
 7697W        W11819   4.613   2.392  10.465
 7698W        W11820   3.769   1.296  10.816
 7699W        W11821   4.768   7.487   0.848
 7700W        W11822   1.787   5.052   9.588
 7701W        W11823   3.662   5.556   8.478
 7702W        W11824  10.350   5.533   1.838
 7703W        W11825   2.845   5.592  11.856
 7704W        W11826   8.878   5.184   1.803
 7705W        W11827   2.676   3.666   8.927
 7706W        W11828   5.697  10.521   8.410
 7707W        W11829   6.684   9.919   9.405
 7708W        W11830   2.375   2.373   8.999
 7709W        W11831   6.600   8.136   8.011
 7710W        W11832   7.024  11.469  10.441
 7711W        W11833   8.551  10.848  10.026
 7712W        W11834   6.035   4.612   9.859
 7713W        W11835   5.566   2.811  11.339
 7714W        W11836   4.144  10.499   8.410
 7715W        W11837   6.021   3.249   3.793
 7716W        W11838   5.109   0.780  10.367
 7717W        W11839   2.706   4.615  10.516
 7718W        W11840  10.807  11.499  11.869
 7719W        W11841   7.490   1.312  11.914
 7720W        W11842   5.639   6.051  11.374
 7721W        W11843   1.879   6.672  11.912
 7722W        W11844   5.556  11.379  10.458
 7723W        W11845   2.854   8.540   8.424
 7724W        W11846   4.091   5.522  11.422
 7725W        W11847   4.777   7.556   2.340
 7726W        W11848   6.119   2.292  10.417
 7727W        W11849   9.375   7.921  10.428
 7728W        W11850   2.753   1.411   1.792
 7729W        W11851   9.052   1.313  11.946
 7730W        W11852   4.583   9.346  10.954
 7731W        W11853   0.938  11.288   1.889
 7732W        W11854   1.419   2.720   0.922
 7733W        W11855   8.396   6.195   1.315
 7734W        W11856   9.902   0.433   9.497
 7735W        W11857   0.337   6.957   9.955
 7736W        W11858   2.760   8.520   8.950
 7737W        W11859   2.646   5.091   8.511
 7738W        W11860   2.778   4.299   8.524
 7739W        W11861  11.350   4.616  10.047
 7740W        W11862   4.303   2.777   9.974
 7741W        W11863   5.253   4.276   8.880
 7742W        W11864   5.592   9.959   9.426
 7743W        W11865   5.532   3.711   1.261
 7744W        W11866   9.495  10.400   9.079
 7745W        W11867   6.154   5.518   2.726
 7746W        W11868  10.405   5.118   9.407
 7747W        W11869   9.082   7.476   8.462
 7748W        W11870  11.318   8.466   3.263
 7749W        W11871  11.378   6.021   0.904
 7750W        W11872  11.272   4.643   9.464
 7751W        W11873  11.417   1.683   9.999
 7752W        W11874   3.312   7.034  10.332
 7753W        W11875   7.048   6.951  11.473
 7754W        W11876   6.200   6.607   9.501
 7755W        W11877   5.109   2.356  11.480
 7756W        W11878   7.614   5.209  10.883
 7757W        W11879   6.653   3.640   1.393
 7758W        W11880   2.678   1.234   0.944
 7759W        W11881   2.718   2.640   2.352
 7760W        W11882   7.159  10.541   2.777
 7761W        W11883  10.041   9.378   9.094
 7762W        W11884  10.489   4.754  11.775
 7763W        W11885   7.641  10.363   3.139
 7764W        W11886   0.925   1.353   9.406
 7765W        W11887   3.635   4.173  10.068
 7766W        W11888  10.439   5.209   1.818
 7767W        W11889   0.907   9.423   2.301
 7768W        W11890   1.704   5.101   9.873
 7769W        W11891   3.806   3.291  11.292
 7770W        W11892  10.020  10.011   9.849
 7771W        W11893  10.364  11.377   1.903
 7772W        W11894   7.003   2.709  10.858
 7773W        W11895   4.710   9.440   9.527
 7774W        W11896   5.116   9.553  11.520
 7775W        W11897   9.999   2.196   2.701
 7776W        W11898   8.032   5.578  11.468
 7777W        W11899   9.849   5.250  11.863
 7778W        W11900   1.389  10.894  10.337
 7779W        W11901   7.655   0.428   0.734
 7780W        W11902   6.687   7.073   1.212
 7781W        W11903  10.336   0.797   9.579
 7782W        W11904  11.354   6.999  11.990
 7783W        W11905   6.568   4.557   0.740
 7784W        W11906   8.130  11.465  10.034
 7785W        W11907   0.743   3.243   2.252
 7786W        W11908   5.223   8.080   1.247
 7787W        W11909  10.459   0.868   2.249
 7788W        W11910   0.251   9.843  11.443
 7789W        W11911   8.445   9.507  11.501
 7790W        W11912   2.210   0.753   3.215
 7791W        W11913   2.322  10.521  11.856
 7792W        W11914   0.439   1.304   0.866
 7793W        W11915   2.264   8.607   1.290
 7794W        W11916   3.643   3.122   2.863
 7795W        W11917   4.312   9.529   3.309
 7796W        W11918   2.229  11.264   2.207
 7797W        W11919   3.636   7.508   0.344
 7798W        W11920   2.859   5.147   0.389
 7799W        W11921   1.260   9.914  11.949
 7800W        W11922   7.914   1.346  10.824
 7801W        W11923  10.531   1.327   1.309
 7802W        W11924   0.733   3.314   9.503
 7803W        W11925   7.026   1.719  10.801
 7804W        W11926   6.117   7.436   2.369
 7805W        W11927   6.608   6.674   1.311
 7806W        W11928   1.739   2.195   0.409
 7807W        W11929   9.366   1.345  11.474
 7808W        W11930   3.806   3.690   1.680
 7809W        W11931   7.558   4.175   1.871
 7810W        W11932   1.726   1.747   0.273
 7811W        W11933   1.261   9.560   2.241
 7812W        W11934   9.973   6.558   8.885
 7813W        W11935   6.152  10.860   3.177
 7814W        W11936   0.429   9.490   9.059
 7815W        W11937   7.942   5.529  11.025
 7816W        W11938   8.099   9.098   2.162
 7817W        W11939   0.728   3.292   2.834
 7818W        W11940   3.144   4.202  11.319
 7819W        W11941   9.974   4.592  11.904
 7820W        W11942   7.545  10.316  10.512
 7821W        W11943   1.706   8.925   2.791
 7822W        W11944  10.794   6.484   0.790
 7823W        W11945   6.594  11.460   0.417
 7824W        W11946  11.488   6.044   1.368
 7825W        W11947   9.523   3.781  11.840
 7826W        W11948   1.891  11.374   0.827
 7827W        W11949   3.742   7.995   2.170
 7828W        W11950   1.680   5.705   0.752
 7829W        W11951   8.885   8.140   1.316
 7830W        W11952   4.756   6.502   9.027
 7831W        W11953  11.342   2.717   1.682
 7832W        W11954  10.304  10.881  10.903
 7833W        W11955   6.562   2.221   9.589
 7834W        W11956   4.203   1.388   2.376
 7835W        W11957   3.626   4.128   8.896
 7836W        W11958   4.697   0.349  11.013
 7837W        W11959   2.865   6.962   3.350
 7838W        W11960   5.731  10.486   9.888
 7839W        W11961  10.839   4.682   8.443
 7840W        W11962   9.432   9.101   0.845
 7841W        W11963  10.444   2.721  10.945
 7842W        W11964   6.013   1.882   0.914
 7843W        W11965   6.706  10.924   0.957
 7844W        W11966   3.267   4.096   2.237
 7845W        W11967   5.141   6.473   8.585
 7846W        W11968   0.361   5.549  11.974
 7847W        W11969  11.324   6.140   8.923
 7848W        W11970  10.877   6.063  10.943
 7849W        W11971   4.082  10.013  10.888
 7850W        W11972   8.945   8.881   0.915
 7851W        W11973   5.271  10.908   9.397
 7852W        W11974   8.476   5.075   2.262
 7853W        W11975   3.136   3.180   9.986
 7854W        W11976   8.006   0.821   0.313
 7855W        W11977   1.383  10.490  10.427
 7856W        W11978   1.886   4.160   0.478
 7857W        W11979   6.497   3.741   0.317
 7858W        W11980   6.593  10.792   2.201
 7859W        W11981   0.806   9.826   9.107
 7860W        W11982   6.159   4.096  11.836
 7861W        W11983   9.446  10.960   9.903
 7862W        W11984   2.297   5.135  10.428
 7863W        W11985   8.092   5.228  10.907
 7864W        W11986   9.420   3.609   1.289
 7865W        W11987   7.100   7.093   2.323
 7866W        W11988   1.749   7.621   2.273
 7867W        W11989  11.443   9.441  10.008
 7868W        W11990   2.292   3.125  10.385
 7869W        W11991   8.919   9.842  11.480
 7870W        W11992   5.040   1.849   1.836
 7871W        W11993   4.776  11.293   1.407
 7872W        W11994   2.652   3.701   0.403
 7873W        W11995   5.608   2.696   9.060
 7874W        W11996   8.011   0.262  11.785
 7875W        W11997   6.512   9.020   3.721
 7876W        W11998   8.456   3.307   1.894
 7877W        W11999   6.202   0.254   0.307
 7878W        W12000   6.669  10.867  11.441
 7879W        W12001  10.482   2.323   3.356
 7880W        W12002   0.739   6.621   1.832
 7881W        W12003   8.535   1.360  11.777
 7882W        W12004   1.907   1.784   9.894
 7883W        W12005   3.278   8.598  10.524
 7884W        W12006   6.572   6.056   0.782
 7885W        W12007   9.383   8.078   3.222
 7886W        W12008   1.433   3.734   1.809
 7887W        W12009   6.194   8.866  11.016
 7888W        W12010   9.063   6.116   3.272
 7889W        W12011   8.868   9.572   2.872
 7890W        W12012   5.578   5.045   9.082
 7891W        W12013   9.516   3.184   1.777
 7892W        W12014   7.502   5.533   9.991
 7893W        W12015   3.168   2.220   9.454
 7894W        W12016   0.834   1.891   3.326
 7895W        W12017   8.965   0.392   3.215
 7896W        W12018  10.376   6.472   1.712
 7897W        W12019   7.938   4.081  10.017
 7898W        W12020   6.678   2.326  11.951
 7899W        W12021   4.557   5.542   0.911
 7900W        W12022  10.788   7.013   0.814
 7901W        W12023   4.612   3.308   0.734
 7902W        W12024  10.898   9.407   9.578
 7903W        W12025  11.481   5.699   3.234
 7904W        W12026   6.653   2.836   9.461
 7905W        W12027   5.612  10.024  11.891
 7906W        W12028   2.775   4.752   0.794
 7907W        W12029   2.278   9.387   1.825
 7908W        W12030   5.107   6.581   0.898
 7909W        W12031   1.715   3.343   0.831
 7910W        W12032  10.470   8.958   9.457
 7911W        W12033   4.223   8.597   3.767
 7912W        W12034   0.805   0.383   1.274
 7913W        W12035   6.225   8.098   3.824
 7914W        W12036   7.552   6.691  10.539
 7915W        W12037   4.645   4.264  10.555
 7916W        W12038   8.923  10.973   9.444
 7917W        W12039   8.072   6.999   9.118
 7918W        W12040   8.543   7.082   1.382
 7919W        W12041   2.675  10.978   0.865
 7920W        W12042  10.009  11.298   3.204
 7921W        W12043   3.119   7.146   1.839
 7922W        W12044   3.671   6.047  10.824
 7923W        W12045   4.676   6.089  11.381
 7924W        W12046   9.346   8.395  10.457
 7925W        W12047   3.292   9.962   9.114
 7926W        W12048   2.206   8.037   9.466
 7927W        W12049   3.284   3.242  11.912
 7928W        W12050   1.387   7.596  11.918
 7929W        W12051   4.670   2.703   9.909
 7930W        W12052   8.540   8.953   0.426
 7931W        W12053   9.065  11.391  10.879
 7932W        W12054   7.101   2.367   3.294
 7933W        W12055   2.811   2.638  11.479
 7934W        W12056   0.478   4.668   1.366
 7935W        W12057   4.702   0.312   2.715
 7936W        W12058   5.739   4.220   1.847
 7937W        W12059   6.542   6.105   1.915
 7938W        W12060   6.023   2.735   8.904
 7939W        W12061   8.126   5.059   3.131
 7940W        W12062   6.961   5.105   2.162
 7941W        W12063   9.101   8.565  11.454
 7942W        W12064   2.391   5.199   8.925
 7943W        W12065   1.274   4.121   9.932
 7944W        W12066   0.754   0.356   2.188
 7945W        W12067   7.164  11.499  10.066
 7946W        W12068   0.815   2.198   1.848
 7947W        W12069   6.977   0.819  11.938
 7948W        W12070   8.519   4.566  10.443
 7949W        W12071  10.969   4.155   2.363
 7950W        W12072  10.044   3.621   1.413
 7951W        W12073   3.217   9.370   0.884
 7952W        W12074   3.718   1.821   9.983
 7953W        W12075  10.787   4.721  10.858
 7954W        W12076   8.055   6.557  10.990
 7955W        W12077  10.038   3.744   9.487
 7956W        W12078  10.364   4.228  10.396
 7957W        W12079   5.128   7.592  10.504
 7958W        W12080  11.370  10.854   2.705
 7959W        W12081   0.389   5.192   1.358
 7960W        W12082  10.385   3.804   3.226
 7961W        W12083   6.106   4.250   8.140
 7962W        W12084   3.286   5.252   3.806
 7963W        W12085   8.414   0.911   3.136
 7964W        W12086   1.847   6.482   9.113
 7965W        W12087   2.274   1.812   0.383
 7966W        W12088  10.902   3.821  10.885
 7967W        W12089   5.142   1.792  11.515
 7968W        W12090   5.576   8.102   9.941
 7969W        W12091   6.205   1.883   1.886
 7970W        W12092   2.257   7.601  11.921
 7971W        W12093   3.354   0.330   1.389
 7972W        W12094   7.599   3.288  11.036
 7973W        W12095   2.394  10.800  10.949
 7974W        W12096   4.169   3.132  10.408
 7975W        W12097   8.507   4.219   2.659
 7976W        W12098   1.323   0.305   0.723
 7977W        W12099   0.458   0.298  11.987
 7978W        W12100   6.956   0.393   2.215
 7979W        W12101   9.047   6.553   8.983
 7980W        W12102   4.260   7.462   1.852
 7981W        W12103   8.464   1.763   3.319
 7982W        W12104   1.396   0.463   9.550
 7983W        W12105   1.356   3.122   8.591
 7984W        W12106   7.507   6.477  10.028
 7985W        W12107  10.466   7.094   2.806
 7986W        W12108  11.264   9.844   3.174
 7987W        W12109   6.480   9.975   0.815
 7988W        W12110   1.785   7.663   3.136
 7989W        W12111   2.679   1.747   0.278
 7990W        W12112   7.057   4.712   8.896
 7991W        W12113   3.335   6.200  10.887
 7992W        W12114   9.450   3.208   2.654
 7993W        W12115   6.549   6.179  10.942
 7994W        W12116  10.524  10.373   0.275
 7995W        W12117   3.141   6.228  11.784
 7996W        W12118   5.524   1.755  10.007
 7997W        W12119   7.518   6.098  10.800
 7998W        W12120   7.490   5.202   0.361
 7999W        W12121   9.354  10.464   2.685
 8000W        W12122   0.915  10.034   1.728
 8001W        W12123   4.755   1.877   1.379
 8002W        W12124   6.167   2.252   0.825
 8003W        W12125   1.693   2.171   8.933
 8004W        W12126   2.366   7.041  11.494
 8005W        W12127   9.349   9.050   9.399
 8006W        W12128   4.663   1.868  10.374
 8007W        W12129   1.205   7.138   3.144
 8008W        W12130   9.838   3.352  10.964
 8009W        W12131   8.931   5.140   3.608
 8010W        W12132   6.696   9.870  11.773
 8011W        W12133   5.219   8.396   1.699
 8012W        W12134   6.477   2.308   0.375
 8013W        W12135  11.318  10.448  10.492
 8014W        W12136   4.616   0.878   1.759
 8015W        W12137   7.627   8.991  11.323
 8016W        W12138   5.588   7.499  11.379
 8017W        W12139   7.604   3.132   1.819
 8018W        W12140   8.029   7.084  11.876
 8019W        W12141   4.627   9.509   2.243
 8020W        W12142   2.325   6.132   0.260
 8021W        W12143   4.122   0.372   9.113
 8022W        W12144   6.105   0.887   9.547
 8023W        W12145   7.597   4.173   9.368
 8024W        W12146   9.563   1.762   3.198
 8025W        W12147   4.639  10.969   1.889
 8026W        W12148   5.615   1.319   0.241
 8027W        W12149   5.545  10.857  10.877
 8028W        W12150   7.148   4.122   9.875
 8029W        W12151   7.546   6.989  10.415
 8030W        W12152   3.700   6.618  10.820
 8031W        W12153   9.862   8.525   8.419
 8032W        W12154  10.866   0.317  10.495
 8033W        W12155  10.891   4.279   2.702
 8034W        W12156   1.267   6.519   2.848
 8035W        W12157   2.305   4.742   9.449
 8036W        W12158   2.376   1.770   2.789
 8037W        W12159   3.167   7.478   2.657
 8038W        W12160   5.588  11.339   0.956
 8039W        W12161   9.549   5.203   1.906
 8040W        W12162   0.765   7.067   8.909
 8041W        W12163   6.987   3.182  11.771
 8042W        W12164   1.807   5.153   0.387
 8043W        W12165   6.965   3.144   3.612
 8044W        W12166   6.545   5.094  10.531
 8045W        W12167   3.625   1.423   1.438
 8046W        W12168   4.081   7.992   0.745
 8047W        W12169   4.302   4.788   2.772
 8048W        W12170   2.193   0.472   1.847
 8049W        W12171   8.422  10.521   0.447
 8050W        W12172   5.262   9.564  11.893
 8051W        W12173   7.473   2.767  11.918
 8052W        W12174   2.662   2.790   2.725
 8053W        W12175   4.609   2.769  10.428
 8054W        W12176   0.741   7.491   1.288
 8055W        W12177   8.505  10.800   3.316
 8056W        W12178   0.941   4.216   9.527
 8057W        W12179   6.120   0.424   1.740
 8058W        W12180  10.407  10.805   0.370
 8059W        W12181   5.138  10.515   2.265
 8060W        W12182   5.575   9.548  10.049
 8061W        W12183   7.922   7.488   1.766
 8062W        W12184   3.226   8.984   9.409
 8063W        W12185  10.318   3.756   2.847
 8064W        W12186   5.266   1.870   0.820
 8065W        W12187   5.059   1.316   8.911
 8066W        W12188   9.985  10.805   3.249
 8067W        W12189   8.599   0.416  11.492
 8068W        W12190   8.543   7.514   2.644
 8069W        W12191   4.572   0.255   2.299
 8070W        W12192   7.538   3.219   9.520
 8071W        W12193   7.157  10.868   1.852
 8072W        W12194  11.442   5.544  11.906
 8073W        W12195   5.150  10.504   3.171
 8074W        W12196   8.597   9.369   2.233
 8075W        W12197   9.503   1.374   0.433
 8076W        W12198   6.519   9.473  12.000
 8077W        W12199   1.815   5.625   0.292
 8078W        W12200   5.512   3.781   3.211
 8079W        W12201   8.462   1.318   2.377
 8080W        W12202   9.045   4.576  11.887
 8081W        W12203  10.908   8.952   9.045
 8082W        W12204   2.299   7.067  10.940
 8083W        W12205   0.951   9.824   2.373
 8084W        W12206   9.574  10.948   3.293
 8085W        W12207   8.975   7.097  11.436
 8086W        W12208   6.498   2.197   8.956
 8087W        W12209   3.308   6.647  11.308
 8088W        W12210   0.949   3.731  10.050
 8089W        W12211   7.999   6.147   4.221
 8090W        W12212  10.517   8.565   9.413
 8091W        W12213  10.789   9.006  10.802
 8092W        W12214   6.479   4.673   1.817
 8093W        W12215   7.994   4.158   3.318
 8094W        W12216   7.540   2.687  11.291
 8095W        W12217   3.172   2.766   0.303
 8096W        W12218   2.744   6.566   9.477
 8097W        W12219   7.040   6.634   3.672
 8098W        W12220   1.274   2.710   2.854
 8099W        W12221   1.365   6.169   3.278
 8100W        W12222   0.816   5.261   0.929
 8101W        W12223   8.486   5.645  10.982
 8102W        W12224   8.471  10.445   1.710
 8103W        W12225   2.797   7.938   8.480
 8104W        W12226   6.973   9.931  11.481
 8105W        W12227   8.948   1.771  10.385
 8106W        W12228   2.777   6.008   9.001
 8107W        W12229   2.376   6.528  11.943
 8108W        W12230   5.249   6.028  11.451
 8109W        W12231   5.565   2.733   8.621
 8110W        W12232   0.471   7.453   1.384
 8111W        W12233  10.923   7.581  10.054
 8112W        W12234   3.275   5.243   0.426
 8113W        W12235   9.440   9.363   1.696
 8114W        W12236   6.956   9.933   1.906
 8115W        W12237   5.999   8.572  10.482
 8116W        W12238   6.050  11.327   9.105
 8117W        W12239  10.978   8.023   3.222
 8118W        W12240   3.349  10.499   2.204
 8119W        W12241   6.539  11.408  10.559
 8120W        W12242   5.544   9.827   3.633
 8121W        W12243   4.715   1.744  10.035
 8122W        W12244   2.205   2.378  11.286
 8123W        W12245   6.146   8.894   1.829
 8124W        W12246   0.382   9.923   3.284
 8125W        W12247   3.239  10.458  10.077
 8126W        W12248   8.903  10.363   8.902
 8127W        W12249   7.115  10.934  11.861
 8128W        W12250   8.542   5.617   3.303
 8129W        W12251  10.340   2.278  10.406
 8130W        W12252   5.072   6.541  10.382
 8131W        W12253   7.052   8.915   3.792
 8132W        W12254   9.857   4.234   1.765
 8133W        W12255   9.452   6.085   9.483
 8134W        W12256   0.307   1.404  10.456
 8135W        W12257  11.434   4.260   2.792
 8136W        W12258   6.955  10.899  10.406
 8137W        W12259  10.432   1.787   2.282
 8138W        W12260   8.535   5.159  10.540
 8139W        W12261   7.520   4.656  11.485
 8140W        W12262   3.162   4.790   0.413
 8141W        W12263   3.210   8.052   8.994
 8142W        W12264   8.125   3.830   3.153
 8143W        W12265   2.243   7.655  11.374
 8144W        W12266   4.133   3.787  11.039
 8145W        W12267   0.315   0.939   9.012
 8146W        W12268   8.080   0.794   9.519
 8147W        W12269   9.890   2.823  11.501
 8148W        W12270  11.352   8.487   0.293
 8149W        W12271   3.326   9.830  11.466
 8150W        W12272   1.733   4.599  11.983
 8151W        W12273   0.726  11.469   2.728
 8152W        W12274   5.089   5.598   1.856
 8153W        W12275   6.693   0.303   3.323
 8154W        W12276   2.209   7.085   0.460
 8155W        W12277   9.454  10.915   0.357
 8156W        W12278   2.681   7.103   8.990
 8157W        W12279  10.314   5.102   3.271
 8158W        W12280   1.431   3.698   0.331
 8159W        W12281  10.473   5.093   0.745
 8160W        W12282  11.271   8.440   1.705
 8161W        W12283   4.281   4.129   9.929
 8162W        W12284   4.776   0.796   2.698
 8163W        W12285   9.572   2.184   3.313
 8164W        W12286   7.602   7.453   1.775
 8165W        W12287   6.580   2.163   0.920
 8166W        W12288  10.004   8.870   0.380
 8167W        W12289   6.473   0.267   1.363
 8168W        W12290   3.207   6.666   1.752
 8169W        W12291   3.733   8.145   0.859
 8170W        W12292   3.341   3.186   2.743
 8171W        W12293   0.880   2.299   2.794
 8172W        W12294   6.138   3.741  11.837
 8173W        W12295   0.474   3.236   9.890
 8174W        W12296  10.520   9.964   9.551
 8175W        W12297   8.923   5.220  10.391
 8176W        W12298   5.536   9.411   2.337
 8177W        W12299   3.232   5.031   8.567
 8178W        W12300   3.742   9.913  11.000
 8179W        W12301   4.265   2.789   1.307
 8180W        W12302   8.407  10.339   2.795
 8181W        W12303   2.353   2.164   0.927
 8182W        W12304   5.036   0.397   8.411
 8183W        W12305   9.826   6.970   2.290
 8184W        W12306   0.346   5.047   9.978
 8185W        W12307   3.732   6.167  10.547
 8186W        W12308  11.010   2.811  11.820
 8187W        W12309   2.756   0.786   9.928
 8188W        W12310   0.446   9.470  10.908
 8189W        W12311   6.990  11.443   0.953
 8190W        W12312   7.050   6.007   0.427
 8191W        W12313   0.809  11.284   9.950
 8192W        W12314   7.050   9.014  11.887
 8193W        W12315  10.524   8.562   3.325
 8194W        W12316   3.723   2.183   9.066
 8195W        W12317   4.288   1.913  10.025
 8196W        W12318   6.638   6.168   9.118
 8197W        W12319   5.250   1.221   0.747
 8198W        W12320   0.756   5.224   9.532
 8199W        W12321   8.083   5.696   1.719
 8200W        W12322   9.031   8.484  10.440
 8201W        W12323  10.911   9.065  10.528
 8202W        W12324   6.185  10.059  10.424
 8203W        W12325   8.084   6.705   9.119
 8204W        W12326   2.180   7.086   2.735
 8205W        W12327   7.024  10.438   1.323
 8206W        W12328   6.061   9.965   9.883
 8207W        W12329  10.875   4.759   1.758
 8208W        W12330   0.412   2.658  10.558
 8209W        W12331   9.910   0.769  10.042
 8210W        W12332   1.711  10.975  11.479
 8211W        W12333   0.255   4.571   9.902
 8212W        W12334   2.232   6.070   1.369
 8213W        W12335   7.567   9.858   1.282
 8214W        W12336  10.844   7.918  11.981
 8215W        W12337   4.611   8.971   8.447
 8216W        W12338   8.138   3.254  10.434
 8217W        W12339   1.400   9.872  11.293
 8218W        W12340   4.111  10.949   0.876
 8219W        W12341   6.210  10.855  10.530
 8220W        W12342   5.114   9.567  10.834
 8221W        W12343   5.177   2.639   2.231
 8222W        W12344   3.784   4.247  11.911
 8223W        W12345   2.800  11.376  10.399
 8224W        W12346   7.472   4.118  11.921
 8225W        W12347   8.980   9.357   0.737
 8226W        W12348   7.981   8.528  11.410
 8227W        W12349   2.323  10.996  10.497
 8228W        W12350   2.814   3.747   9.871
 8229W        W12351   7.521  10.995  10.537
 8230W        W12352   1.249   0.918  10.390
 8231W        W12353   6.054   3.798   0.786
 8232W        W12354   5.711   4.308   8.544
 8233W        W12355   3.128   3.155   0.822
 8234W        W12356  10.462   8.073  10.833
 8235W        W12357   1.228  10.479   0.344
 8236W        W12358   6.153   9.090   0.451
 8237W        W12359   2.836   0.789   2.278
 8238W        W12360   0.947   1.375   2.233
 8239W        W12361   5.523   1.436  10.469
 8240W        W12362   2.683  11.477  10.077
 8241W        W12363   7.024  10.486   9.064
 8242W        W12364  10.500   8.894   9.878
 8243W        W12365   1.862   8.955  10.504
 8244W        W12366   9.479   6.207   0.394
 8245W        W12367   3.685   6.975   2.770
 8246W        W12368   8.045   5.201   9.023
 8247W        W12369   8.447   1.330   8.942
 8248W        W12370  11.285   6.538  10.910
 8249W        W12371   3.688   2.664   2.179
 8250W        W12372  11.297   2.732  11.976
 8251W        W12373   3.743  10.532  10.329
 8252W        W12374  10.818   7.558   2.832
 8253W        W12375  10.402   9.458  11.332
 8254W        W12376   3.705   7.638   9.388
 8255W        W12377  11.394  11.006  10.011
 8256W        W12378   3.183   7.047  11.978
 8257W        W12379   5.523   4.691  11.946
 8258W        W12380   4.787  10.879   2.862
 8259W        W12381   4.682   6.209   0.864
 8260W        W12382   5.658   7.050   1.271
 8261W        W12383   5.559   6.541   3.707
 8262W        W12384   2.229  11.480   9.875
 8263W        W12385   3.602   5.074   1.901
 8264W        W12386   6.640   8.449   3.129
 8265W        W12387   8.871   7.973   9.585
 8266W        W12388   3.354   1.241   2.691
 8267W        W12389  10.819   5.611   9.524
 8268W        W12390   1.352   6.539   0.832
 8269W        W12391   8.079   6.585   0.326
 8270W        W12392   6.994   9.916   3.652
 8271W        W12393   3.309   8.107   3.680
 8272W        W12394   6.219   7.163  10.463
 8273W        W12395   0.339  10.798  10.900
 8274W        W12396   7.431   0.405   8.924
 8275W        W12397  11.274   2.833   0.926
 8276W        W12398   7.908   0.310   1.845
 8277W        W12399   0.348   8.455  10.066
 8278W        W12400   1.294   1.371   0.336
 8279W        W12401   7.564   8.579   0.752
 8280W        W12402   8.417   2.334   1.883
 8281W        W12403  11.426   1.255   0.765
 8282W        W12404   7.118  10.809   0.813
 8283W        W12405  11.490   0.314   3.600
 8284W        W12406   1.743   9.361  10.824
 8285W        W12407   9.848   6.563   2.205
 8286W        W12408   8.035   2.816   9.944
 8287W        W12409   2.159   9.999  10.430
 8288W        W12410   6.662   1.413  10.818
 8289W        W12411   8.520   6.476   2.657
 8290W        W12412   2.322   5.221   3.251
 8291W        W12413   8.115   8.555  10.918
 8292W        W12414   7.599   8.505   1.831
 8293W        W12415   5.122   6.214  10.815
 8294W        W12416   6.134  10.786   2.749
 8295W        W12417   5.156   6.211   1.428
 8296W        W12418  10.024   5.585  11.995
 8297W        W12419   7.159  10.518  10.339
 8298W        W12420   3.168  10.997   2.854
 8299W        W12421   4.629   3.666   9.062
 8300W        W12422   2.229   9.984   9.039
 8301W        W12423   7.105   3.308   0.936
 8302W        W12424   7.637   9.052   1.819
 8303W        W12425   2.158  10.795   9.508
 8304W        W12426   7.628   0.460   2.705
 8305W        W12427   8.970   4.691  10.030
 8306W        W12428   3.317   9.414  10.999
 8307W        W12429   7.097   5.551   1.835
 8308W        W12430   0.390   4.160   2.780
 8309W        W12431  10.387   7.576   2.733
 8310W        W12432   0.935  10.894  10.951
 8311W        W12433   2.313   2.192  10.982
 8312W        W12434   7.117   1.381   0.408
 8313W        W12435   2.301  10.855   0.333
 8314W        W12436   3.204   9.942   2.342
 8315W        W12437  10.900   7.965   1.397
 8316W        W12438   6.482   8.048  10.352
 8317W        W12439   0.245   3.725   3.810
 8318W        W12440  10.991   3.136  11.023
 8319W        W12441  10.958   0.312   8.963
 8320W        W12442   5.570   3.598  11.874
 8321W        W12443   6.174   4.290   3.690
 8322W        W12444   2.222   4.209   0.440
 8323W        W12445   2.178   2.704  11.419
 8324W        W12446  10.461   4.259   9.052
 8325W        W12447   1.270   2.819  11.998
 8326W        W12448   8.440   0.895   0.892
 8327W        W12449   8.068   4.201   9.589
 8328W        W12450   5.706   7.562   4.228
 8329W        W12451   8.121   4.757  10.028
 8330W        W12452   4.128   5.238  10.437
 8331W        W12453   1.249   4.725   1.771
 8332W        W12454  11.416  10.010  10.829
 8333W        W12455  11.299   6.031  11.421
 8334W        W12456   6.982   6.026   4.224
 8335W        W12457   5.220   4.666   0.265
 8336W        W12458  10.016   9.532  11.877
 8337W        W12459   0.928   3.654   3.149
 8338W        W12460   5.563   4.594   8.525
 8339W        W12461  11.440   3.313   0.477
 8340W        W12462   1.214  11.403   1.911
 8341W        W12463   1.198  11.384   2.165
 8342W        W12464   9.546   6.637  10.462
 8343W        W12465   5.587   6.555   9.879
 8344W        W12466   3.116   7.132   1.363
 8345W        W12467   1.301   6.005   9.420
 8346W        W12468   1.210   9.884   0.726
 8347W        W12469   0.263  11.455   2.208
 8348W        W12470   6.564   2.220  10.373
 8349W        W12471  10.369  10.434  10.449
 8350W        W12472   8.079   0.943  10.828
 8351W        W12473   6.530   8.007   9.113
 8352W        W12474   1.887   7.048   3.692
 8353W        W12475   4.191  10.821  11.889
 8354W        W12476   8.465  10.907   1.359
 8355W        W12477   6.523   5.544  11.951
 8356W        W12478   6.653   7.149   0.836
 8357W        W12479   6.609   3.269  10.400
 8358W        W12480   7.947   6.603   0.828
 8359W        W12481  10.059   6.087   3.356
 8360W        W12482   4.784   9.885   9.872
 8361W        W12483   9.474  10.359   1.367
 8362W        W12484   9.050   4.197   2.648
 8363W        W12485   9.004   5.590   2.192
 8364W        W12486   9.934   6.957   3.143
 8365W        W12487  11.014   0.924  11.931
 8366W        W12488   3.703   4.594  10.340
 8367W        W12489   9.452   5.678   0.386
 8368W        W12490   5.555   6.207   1.696
 8369W        W12491  11.365   7.137   2.866
 8370W        W12492  10.509   9.545   2.671
 8371W        W12493   6.554   8.477   1.437
 8372W        W12494   9.529   7.088  10.401
 8373W        W12495   4.271   7.068   2.295
 8374W        W12496  10.985   6.493   8.495
 8375W        W12497   4.111   4.677   8.590
 8376W        W12498  10.973   3.184   0.441
 8377W        W12499   1.681   6.524   0.465
 8378W        W12500   8.139   9.479   0.253
 8379W        W12501   8.129  10.061   2.189
 8380W        W12502   4.762  10.902   0.452
 8381W        W12503   8.444   8.989   9.853
 8382W        W12504   3.771  10.458   0.332
 8383W        W12505   9.912   9.024   2.699
 8384W        W12506   6.106   3.809   2.752
 8385W        W12507   0.806  10.438   9.039
 8386W        W12508   1.731   6.567   1.707
 8387W        W12509  11.432   5.175   1.687
 8388W        W12510   3.776   9.493   9.964
 8389W        W12511   1.699  11.356  11.372
 8390W        W12512   3.806   5.648   2.343
 8391W        W12513   2.231   0.324   3.280
 8392W        W12514   9.476   9.029  11.313
 8393W        W12515   6.673   1.760   1.835
 8394W        W12516  10.353   5.738   3.305
 8395W        W12517   1.831   3.234  10.418
 8396W        W12518   1.914  11.410   2.708
 8397W        W12519   7.171   8.387  10.075
 8398W        W12520   8.939   8.977   0.382
 8399W        W12521   2.348   7.912  10.383
 8400W        W12522   2.268   1.913   1.376
 8401W        W12523   4.660   8.114   2.728
 8402W        W12524  11.316  10.350   0.299
 8403W        W12525   7.579   5.240   1.709
 8404W        W12526   2.635   0.870  10.357
 8405W        W12527   3.272   6.470   9.019
 8406W        W12528   5.658  10.895   3.351
 8407W        W12529   4.604   9.851   2.318
 8408W        W12530   2.382   3.282  11.982
 8409W        W12531   3.603   7.084   9.869
 8410W        W12532   3.728   7.525  10.861
 8411W        W12533   7.547   8.461  10.529
 8412W        W12534   0.352   8.082   0.402
 8413W        W12535   1.688   5.542   2.670
 8414W        W12536  10.317   4.621   9.406
 8415W        W12537   5.999   1.225   3.260
 8416W        W12538   1.911   9.034  11.337
 8417W        W12539   8.571   2.774   0.318
 8418W        W12540   3.760  10.490   9.906
 8419W        W12541   8.916   9.896   0.453
 8420W        W12542   2.234   3.131  10.048
 8421W        W12543   8.549  11.296   0.798
 8422W        W12544   7.513   8.071  10.918
 8423W        W12545   1.759  10.004   1.368
 8424W        W12546  10.320   4.576   3.220
 8425W        W12547   6.220   9.016   3.226
 8426W        W12548   7.940   9.974   1.376
 8427W        W12549   8.923   5.619   0.276
 8428W        W12550  10.900   6.120   1.844
 8429W        W12551  11.333   7.653   0.740
 8430W        W12552   5.531   3.616   9.981
 8431W        W12553   8.506   2.322  10.818
 8432W        W12554   3.122   4.668   1.404
 8433W        W12555   1.303   4.657  11.028
 8434W        W12556   3.253   7.172   2.678
 8435W        W12557  10.909   6.470  10.955
 8436W        W12558   3.300  10.495   3.346
 8437W        W12559   6.166   9.826   1.705
 8438W        W12560   1.697   1.379  11.407
 8439W        W12561  10.817   6.537   8.994
 8440W        W12562   6.993   4.555   3.276
 8441W        W12563  10.409   8.527   1.207
 8442W        W12564   2.321   1.287   0.357
 8443W        W12565   0.456   2.326   2.207
 8444W        W12566   6.533   2.853  11.487
 8445W        W12567  11.019   3.145   3.744
 8446W        W12568   2.851   9.825  10.016
 8447W        W12569   2.177   0.407  11.927
 8448W        W12570   8.032   8.134   1.240
 8449W        W12571   0.246   1.310   1.689
 8450W        W12572  10.977  10.447   9.535
 8451W        W12573   5.705   6.033   9.474
 8452W        W12574   3.660   2.249   3.253
 8453W        W12575   0.334   6.965   1.810
 8454W        W12576   3.805   1.293   0.269
 8455W        W12577   5.532   8.017   9.519
 8456W        W12578   8.953   7.563   1.356
 8457W        W12579   7.466   8.588   0.415
 8458W        W12580  10.469  10.396   1.704
 8459W        W12581   4.300   8.565   3.172
 8460W        W12582   4.243   9.004   3.291
 8461W        W12583   8.508   8.398   2.835
 8462W        W12584   5.700   0.379   1.257
 8463W        W12585  11.008   3.177   2.823
 8464W        W12586   5.629  10.361  11.789
 8465W        W12587   4.764   4.553  11.846
 8466W        W12588   1.705   5.046   3.142
 8467W        W12589   8.041   1.789   9.482
 8468W        W12590  10.037   3.343   3.156
 8469W        W12591   8.137   1.770   0.935
 8470W        W12592  11.427  10.840  11.416
 8471W        W12593   5.100   6.670  11.984
 8472W        W12594   2.163  11.410   9.454
 8473W        W12595   0.932  10.877   0.425
 8474W        W12596   5.186   1.874   1.228
 8475W        W12597   6.597   5.207  10.882
 8476W        W12598   3.220   4.107   1.413
 8477W        W12599   1.740   9.917   2.777
 8478W        W12600   4.616   8.446   3.820
 8479W        W12601   7.146   8.921   0.262
 8480W        W12602   5.174   1.905   9.365
 8481W        W12603   2.160  10.803   8.543
 8482W        W12604   7.662   3.124   1.378
 8483W        W12605   0.478   0.915   0.955
 8484W        W12606   0.871  11.008  11.497
 8485W        W12607   4.699  10.894  11.837
 8486W        W12608   1.213   9.909   9.110
 8487W        W12609   5.626   9.932  11.284
 8488W        W12610   5.194   0.444   2.766
 8489W        W12611   3.302   3.326  11.035
 8490W        W12612  10.008   6.223   1.872
 8491W        W12613   0.472  10.505  11.788
 8492W        W12614   2.157   4.573   3.127
 8493W        W12615   3.339   2.351  11.313
 8494W        W12616   4.172   2.233   1.330
 8495W        W12617   5.717   8.546  11.992
 8496W        W12618   6.198   0.405  11.323
 8497W        W12619   4.278   0.366   2.681
 8498W        W12620   0.930   4.661   0.261
 8499W        W12621   9.871   8.411   1.238
 8500W        W12622   6.001   0.792  10.995
 8501W        W12623   5.193   0.452   9.577
 8502W        W12624   9.016   2.658  11.921
 8503W        W12625   7.614   6.079  10.457
 8504W        W12626   2.183   5.078   9.500
 8505W        W12627   2.300   0.454  10.842
 8506W        W12628   9.888   5.179   3.302
 8507W        W12629   5.245   8.947   9.497
 8508W        W12630   4.240   7.085   1.416
 8509W        W12631   8.541   0.271   0.459
 8510W        W12632   0.861  10.011  10.939
 8511W        W12633   2.200   9.350   0.937
 8512W        W12634   4.728   3.766  10.437
 8513W        W12635   3.610   5.202   0.767
 8514W        W12636   1.334   3.158   2.196
 8515W        W12637   7.103   0.920   1.286
 8516W        W12638   0.457   3.762   1.383
 8517W        W12639   9.044   2.260  10.054
 8518W        W12640   0.297  10.844   0.361
 8519W        W12641   9.425   9.913   9.995
 8520W        W12642  10.371   6.065  11.951
 8521W        W12643   1.400   6.592   9.451
 8522W        W12644   8.890   4.126  10.516
 8523W        W12645   7.911   7.482   0.405
 8524W        W12646   0.780   2.787  11.297
 8525W        W12647   6.200   7.567   4.193
 8526W        W12648   0.313   4.742   9.085
 8527W        W12649   5.219   0.365   2.323
 8528W        W12650   6.979  10.404  10.051
 8529W        W12651   3.722   8.876   3.271
 8530W        W12652   4.627   8.941  11.448
 8531W        W12653   4.758   2.263   2.173
 8532W        W12654   0.298   4.095   1.304
 8533W        W12655   3.783   7.071   8.906
 8534W        W12656   0.282   6.536  10.077
 8535W        W12657   0.260   0.755   9.848
 8536W        W12658   5.713   7.974  11.982
 8537W        W12659   5.654   9.374  10.872
 8538W        W12660   1.771   1.212   0.268
 8539W        W12661   2.829   4.791   8.947
 8540W        W12662  10.800   7.152   2.193
 8541W        W12663  10.330   7.032   0.811
 8542W        W12664  10.838   1.242   0.783
 8543W        W12665   6.084   0.274   0.843
 8544W        W12666  11.415   8.070   2.293
 8545W        W12667   2.824   1.811   8.988
 8546W        W12668   4.201   6.486  10.501
 8547W        W12669   8.550  10.321  10.465
 8548W        W12670   3.316   0.298   9.489
 8549W        W12671   3.137   3.678  10.475
 8550W        W12672   7.077   6.110   0.828
 8551W        W12673   7.025   7.512   8.963
 8552W        W12674   8.115   1.898  10.503
 8553W        W12675  11.411   4.101   1.891
 8554W        W12676   4.788   1.892  11.945
 8555W        W12677   6.984   5.661  10.392
 8556W        W12678   6.064   9.403  10.469
 8557W        W12679   5.104   7.931   9.864
 8558W        W12680   3.778   3.644   9.962
 8559W        W12681   0.929   8.882   1.267
 8560W        W12682   5.062   8.551   0.794
 8561W        W12683   7.976   7.052   1.828
 8562W        W12684   9.060   5.148   0.416
 8563W        W12685   4.728  10.522   9.559
 8564W        W12686   8.560   5.521  10.466
 8565W        W12687   2.702  10.840   0.262
 8566W        W12688   9.552   0.781   1.397
 8567W        W12689  10.034   2.638   9.061
 8568W        W12690  10.802   3.124   9.846
 8569W        W12691  11.427   0.443  11.483
 8570W        W12692   2.865   0.919  11.414
 8571W        W12693   2.216   2.229   3.257
 8572W        W12694   9.526   1.417  10.055
 8573W        W12695   5.748   1.916  10.328
 8574W        W12696   4.586   7.486   2.702
 8575W        W12697   5.586   6.202   2.683
 8576W        W12698   4.669   8.423   2.659
 8577W        W12699   4.205   2.654   1.887
 8578W        W12700   6.130  10.938   0.936
 8579W        W12701   7.990   4.088  10.329
 8580W        W12702   4.076  10.920   0.341
 8581W        W12703   5.233  11.418  10.967
 8582W        W12704   7.164   9.362  10.004
 8583W        W12705   9.557   6.038  11.294
 8584W        W12706  10.870   3.595   3.770
 8585W        W12707   3.808   7.955  10.430
 8586W        W12708   7.078  10.848  11.025
 8587W        W12709   5.052   9.987   0.899
 8588W        W12710   1.710   0.828   3.130
 8589W        W12711   7.157  10.465   9.531
 8590W        W12712   9.888  10.826   8.943
 8591W        W12713   2.253   0.357   2.386
 8592W        W12714   2.328   6.188  11.306
 8593W        W12715   4.175   1.785   9.050
 8594W        W12716  10.429   4.078  10.849
 8595W        W12717   9.860   0.427   1.364
 8596W        W12718   0.917   5.045   0.378
 8597W        W12719   1.362   5.159   9.845
 8598W        W12720   8.437   5.691   0.945
 8599W        W12721   1.222   8.030  11.391
 8600W        W12722   0.445   3.150  11.867
 8601W        W12723   2.650   3.789   0.796
 8602W        W12724   2.707   5.263   9.530
 8603W        W12725   9.966   5.607   0.903
 8604W        W12726   8.489   8.133   0.830
 8605W        W12727   6.001   9.522   8.448
 8606W        W12728   9.570   3.182  10.445
 8607W        W12729   6.582   2.252   1.735
 8608W        W12730   5.593   9.930   1.214
 8609W        W12731   7.101   9.875   2.175
 8610W        W12732   4.563  11.486   9.597
 8611W        W12733   5.592   8.537   9.477
 8612W        W12734   5.601   5.734   1.845
 8613NA+    NA+12735   2.640   6.665  11.915
 8614NA+    NA+12736   4.143   0.806   1.734
 8615NA+    NA+12737   0.853  10.472   3.316
 8616NA+    NA+12738   6.658   0.941   1.255
 8617NA+    NA+12739   7.058   3.291   8.981
 8618NA+    NA+12740  10.303   9.390   3.320
 8619NA+    NA+12741  11.380   1.862  11.328
 8620NA+    NA+12742   5.581   4.213   0.278
 8621NA+    NA+12743  11.305   7.006   9.972
 8622NA+    NA+12744   8.053   4.573   9.374
 8623NA+    NA+12745   6.702   6.475  11.030
 8624NA+    NA+12746   8.096   2.262   1.842
 8625NA+    NA+12747   8.065   5.172   0.814
 8626NA+    NA+12748   8.107   2.352   3.154
 8627NA+    NA+12749   1.756  11.015   0.868
 8628NA+    NA+12750   0.720   9.502  11.914
 8629NA+    NA+12751   8.036   6.053  11.371
 8630NA+    NA+12752   5.071   1.343   3.233
 8631NA+    NA+12753   4.084  10.526  10.422
 8632NA+    NA+12754   1.815   3.208   9.956
 8633NA+    NA+12755   9.959   4.718   2.249
 8634NA+    NA+12756   0.887   8.603   0.730
 8635NA+    NA+12757   6.592   7.169  11.937
 8636NA+    NA+12758   7.982   3.267   3.222
 8637NA+    NA+12759   8.478   6.533  10.516
 8638NA+    NA+12760   9.979   7.599   0.773
 8639NA+    NA+12761   6.083  11.407   3.208
 8640NA+    NA+12762   7.996   2.369   0.266
 8641NA+    NA+12763   0.854   2.824  10.067
 8642NA+    NA+12764   2.159   0.738   0.338
 8643NA+    NA+12765   3.213   2.662  11.845
 8644NA+    NA+12766   6.136   7.459   1.771
 8645NA+    NA+12767   3.349   5.078   8.124
 8646NA+    NA+12768   4.688  10.926   2.396
 8647NA+    NA+12769   5.070  10.033   1.354
 8648NA+    NA+12770   3.172   4.767  10.973
 8649NA+    NA+12771  10.433   0.477  11.506
 8650NA+    NA+12772   6.993   7.507   3.335
 8651NA+    NA+12773   7.554   3.701   0.274
 8652NA+    NA+12774  10.447   7.503  11.993
 8653NA+    NA+12775   3.710  10.002   2.318
 8654NA+    NA+12776   3.280   0.821  10.046
 8655NA+    NA+12777   1.263   7.625   9.946
 8656NA+    NA+12778   1.304   8.880   9.089
 8657NA+    NA+12779   3.126   9.416  11.912
 8658NA+    NA+12780   9.073   0.278   1.205
 8659NA+    NA+12781   0.727   5.152   9.873
 8660NA+    NA+12782   5.629   7.103   2.395
 8661NA+    NA+12783   2.862   3.823   9.476
 8662NA+    NA+12784   6.973   5.682   0.464
 8663NA+    NA+12785   3.762  11.348   1.705
 8664NA+    NA+12786   0.903  10.887   2.174
 8665NA+    NA+12787   4.738   6.678   1.834
 8666NA+    NA+12788   0.941   6.225   3.187
 8667NA+    NA+12789  10.019   2.255   8.935
 8668NA+    NA+12790   6.621   7.160   3.131
 8669NA+    NA+12791   9.069  10.439   1.797
 8670NA+    NA+12792   1.273   4.145   0.735
 8671NA+    NA+12793   1.697   4.235   1.729
 8672NA+    NA+12794   3.341   6.143   3.190
 8673NA+    NA+12795   9.577   7.515   3.821
 8674NA+    NA+12796   5.201   8.014  11.843
 8675NA+    NA+12797   1.244   5.674   9.885
 8676NA+    NA+12798   8.596   3.778   2.223
 8677NA+    NA+12799  10.044   2.299   3.738
 8678NA+    NA+12800   7.448   1.867   0.261
 8679NA+    NA+12801   8.612   8.542   2.192
 8680NA+    NA+12802   0.242  10.994   3.177
 8681NA+    NA+12803   6.486   7.076   3.824
 8682NA+    NA+12804   5.110  11.321  11.439
 8683NA+    NA+12805   6.175   2.679   2.753
 8684NA+    NA+12806   8.530   8.547  10.006
 8685NA+    NA+12807   7.656   8.961   1.321
 8686NA+    NA+12808   4.670  10.394   2.235
 8687NA+    NA+12809   4.220   5.609   1.841
 8688NA+    NA+12810  11.445   8.069   1.856
 8689NA+    NA+12811   4.177  10.007   1.332
 8690NA+    NA+12812   8.137   0.888   9.840
 8691NA+    NA+12813   4.171   6.028   0.355
 8692NA+    NA+12814  10.007   0.280   0.850
 8693NA+    NA+12815   9.547   7.929   9.049
 8694NA+    NA+12816   6.043   3.797   1.787
 8695NA+    NA+12817   7.610   9.515  10.912
 8696NA+    NA+12818   6.158   3.325   3.353
 8697NA+    NA+12819   1.841   1.377   1.285
 8698NA+    NA+12820   7.495   2.642   8.627
 8699NA+    NA+12821   6.016   8.590   9.446
 8700NA+    NA+12822   0.832   4.153   1.818
 8701NA+    NA+12823   3.169   6.644   8.549
 8702NA+    NA+12824   4.276   6.609   0.429
 8703CL-    CL-12825   5.523   1.805   2.257
 8704CL-    CL-12826   0.413   7.992  11.483
 8705CL-    CL-12827  11.335   4.097   8.924
 8706CL-    CL-12828   2.234   8.527   2.188
 8707CL-    CL-12829   6.999   7.978   1.793
 8708CL-    CL-12830   4.755   9.033   1.346
 8709CL-    CL-12831   8.063   3.736  11.289
 8710CL-    CL-12832   0.326   7.592   2.332
 8711CL-    CL-12833   9.023   5.715   3.301
 8712CL-    CL-12834   0.253   0.731   0.361
 8713CL-    CL-12835   7.566  11.326   0.853
 8714CL-    CL-12836   3.343  11.452   1.226
 8715CL-    CL-12837   7.111   3.150   9.894
 8716CL-    CL-12838   5.168   0.378   1.319
 8717CL-    CL-12839  11.412  11.403   2.870
 8718CL-    CL-12840   4.621   1.283  10.823
 8719CL-    CL-12841   6.042   9.927   0.734
 8720CL-    CL-12842  10.869   7.605   8.898
 8721CL-    CL-12843  11.305   4.106   1.322
 8722CL-    CL-12844   6.131   7.940  11.959
 8723CL-    CL-12845  10.443  10.996   9.921
 8724CL-    CL-12846   3.599  11.469  11.854
 8725CL-    CL-12847   7.631   0.875   1.380
 8726CL-    CL-12848   8.984   1.215   3.330
 8727CL-    CL-12849   3.216  10.930   9.003
 8728CL-    CL-12850   0.952  10.468   9.547
 8729CL-    CL-12851   3.124   3.133   3.240
 8730CL-    CL-12852   7.538   7.018   2.847
 8731CL-    CL-12853   6.544   2.680  10.355
 8732CL-    CL-12854  11.306   3.703   1.343
 8733CL-    CL-12855   2.363   0.269  10.434
 8734CL-    CL-12856   9.349  10.428  10.389
 8735CL-    CL-12857   1.375   7.931   3.240
 8736CL-    CL-12858   6.520   7.104   4.241
 8737CL-    CL-12859   8.423   4.684   3.770
 8738CL-    CL-12860   5.261   3.343   8.907
 8739CL-    CL-12861   8.141   6.563   2.755
 8740CL-    CL-12862   7.061   9.365   2.277
 8741CL-    CL-12863   5.261   3.230   2.841
 8742CL-    CL-12864  11.288   3.822  11.889
 8743CL-    CL-12865  10.529   3.345   1.388
 8744CL-    CL-12866   7.656   7.442   9.579
 8745CL-    CL-12867   0.828   1.379   0.310
 8746CL-    CL-12868   3.140   1.829  10.030
 8747CL-    CL-12869  10.860   3.659  10.051
 8748CL-    CL-12870   1.295   1.217   9.575
 8749CL-    CL-12871  11.371   5.604   2.215
 8750CL-    CL-12872   2.706   7.041  10.046
 8751CL-    CL-12873   6.593   9.435  10.816
 8752CL-    CL-12874   8.499   4.104   0.881
 8753CL-    CL-12875   4.257   8.496  10.950
 8754CL-    CL-12876   5.181   3.609   0.756
 8755CL-    CL-12877  11.283   5.171  10.502
 8756CL-    CL-12878   5.606   4.217   2.180
 8757CL-    CL-12879   9.028   9.404   3.143
 8758CL-    CL-12880  10.999   5.692   8.540
 8759CL-    CL-12881   2.843   7.484   9.912
 8760CL-    CL-12882   5.186   1.284  11.944
 8761CL-    CL-12883   9.861   6.525   1.291
 8762CL-    CL-12884   9.042   7.088   2.772
 8763CL-    CL-12885   4.184   7.522   0.473
 8764CL-    CL-12886   9.379   6.496  10.854
 8765CL-    CL-12887   0.725   4.588   2.743
 8766CL-    CL-12888  10.488  10.428   1.203
 8767CL-    CL-12889   7.082   9.949   1.225
 8768CL-    CL-12890   5.077   3.641   9.363
 8769CL-    CL-12891   4.706   5.579   2.175
 8770CL-    CL-12892   4.288   6.618   0.746
 8771CL-    CL-12893  10.785   0.791   8.582
 8772CL-    CL-12894   5.580   8.550  10.914
 8773CL-    CL-12895   5.163   3.169  11.359
 8774CL-    CL-12896   4.254   3.157   8.977
 8775CL-    CL-12897  10.058   7.479  11.486
 8776CL-    CL-12898   0.835   5.731   3.349
 8777CL-    CL-12899   9.964   3.266   2.810
 8778CL-    CL-12900   9.035   7.994   0.800
 8779CL-    CL-12901   7.457   1.820  11.398
 8780CL-    CL-12902   2.826   5.748   2.250
 8781CL-    CL-12903   5.620  10.894   1.335
 8782CL-    CL-12904   1.283   2.261   1.744
 8783CL-    CL-12905   1.435  11.335  10.903
 8784CL-    CL-12906   5.032   1.725  10.008
 8785CL-    CL-12907   7.936  11.424   1.871
 8786CL-    CL-12908   1.415   9.392   2.799
 8787CL-    CL-12909   6.623   7.058   0.308
 8788CL-    CL-12910   1.684  11.000  10.389
 8789CL-    CL-12911   0.866   5.158   1.239
 8790CL-    CL-12912   6.101   9.434  11.515
 8791CL-    CL-12913   5.221  10.343   8.963
 8792CL-    CL-12914   9.998  10.343   1.282
  11.50000  11.50000  12.00000   0.00000   0.00000   0.00000   0.00000   0.00000   0.00000
