Protein in INSANE! Membrane UpperLeaflet>POPC=1.0 LowerLeaflet>POPC=1.0
10365
    1AU     AUC    1   5.079   4.963   5.916
    1AU     AUC    2   5.297   4.863   5.710
    1AU     AUC    3   5.312   5.088   5.829
    1AU     AUC    4   4.835   4.836   5.844
    1AU     AUC    5   4.892   5.094   6.106
    1AU     AUC    6   4.861   5.161   5.798
    1AU     AUC    7   5.183   5.129   5.692
    1AU     AUC    8   4.920   4.771   6.103
    1AU     AUC    9   5.285   4.766   6.075
    1AU     AUC   10   5.152   5.014   6.218
    1AU     AUC   11   5.044   5.240   5.979
    1AU     AUC   12   5.069   4.701   5.856
    1AU     AUC   13   4.997   4.867   5.617
    1AU     AUC   14   5.581   4.764   5.550
    1AU     AUC   15   5.686   5.008   5.695
    1AU     AUC   16   5.802   5.255   5.843
    1AU     AUC   17   4.448   4.727   5.889
    1AU     AUC   18   4.531   5.002   6.006
    1AU     AUC   19   4.604   5.305   6.321
    1AU     AUC   20   4.622   5.350   5.770
    1AU     AUC   21   4.889   5.340   5.547
    1AU     AUC   22   5.257   5.362   5.422
    1AU     AUC   23   4.718   4.639   6.227
    1AU     AUC   24   5.116   4.542   6.282
    1AU     AUC   25   5.488   4.591   6.252
    1AU     AUC   26   5.280   5.092   6.549
    1AU     AUC   27   5.242   5.361   6.305
    1AU     AUC   28   5.122   5.578   6.078
    1AU     AUC   29   5.069   4.371   5.749
    1AU     AUC   30   4.989   4.514   5.515
    1AU     AUC   31   4.877   4.752   5.363
    1AU     AUC   32   5.579   5.221   6.487
    1AU     AUC   33   5.384   5.443   5.959
    1AU     AUC   34   5.356   4.532   5.647
    1AU     AUC   35   5.262   4.745   5.404
    1AU     AUC   36   4.936   5.183   6.466
    1AU     AUC   37   4.860   5.437   6.268
    1AU     AUC   38   4.700   4.543   5.774
    1AU     AUC   39   4.695   4.721   5.653
    1AU     AUC   40   5.496   5.089   5.420
    1AU     AUC   41   5.511   5.332   5.647
    1AU     AUC   42   4.531   5.025   5.858
    1AU     AUC   43   4.585   5.344   6.093
    1AU     AUC   44   5.603   4.687   5.938
    1AU     AUC   45   5.824   4.805   6.224
    1AU     AUC   46   4.355   4.586   5.821
    1AU     AUC   47   4.668   4.949   6.311
    1AU     AUC   48   4.834   5.528   5.955
    1AU     AUC   49   5.146   5.500   5.732
    1AU     AUC   50   5.009   4.836   6.447
    1AU     AUC   51   5.393   4.824   6.442
    1AU     AUC   52   4.744   5.093   5.506
    1AU     AUC   53   5.069   5.074   5.374
    1AU     AUC   54   4.847   4.429   6.007
    1AU     AUC   55   5.250   4.460   6.008
    1AU    AUSL   56   5.654   5.168   6.111
    1AU    AUSL   57   5.651   5.060   6.775
    1AU     AUL   58   5.981   4.960   6.648
    1AU       S   59   5.874   5.357   6.881
    1AU     LIG   60   6.067   5.330   7.300
    1AU     LIG   61   5.812   5.351   7.738
    1AU     LIG   62   5.481   5.240   8.077
    1AU       S   63   6.124   4.661   5.691
    1AU     LIG   64   6.710   5.212   5.899
    1AU     LIG   65   6.879   5.583   5.801
    1AU     LIG   66   7.071   5.936   5.549
    1AU    AUSL   67   5.595   5.376   6.491
    1AU    AUSL   68   5.231   5.871   6.245
    1AU     AUL   69   5.513   5.885   6.328
    1AU       S   70   6.117   4.646   5.746
    1AU     LIG   71   6.348   4.375   5.292
    1AU     LIG   72   6.313   4.229   4.809
    1AU     LIG   73   5.937   4.188   4.547
    1AU       S   74   4.357   5.540   6.942
    1AU     LIG   75   4.361   5.434   7.509
    1AU     LIG   76   4.745   5.425   7.733
    1AU     LIG   77   4.988   5.102   7.942
    1AU    AUSL   78   5.352   5.466   6.152
    1AU    AUSL   79   5.581   5.471   5.782
    1AU     AUL   80   5.567   5.094   6.123
    1AU       S   81   6.035   4.622   5.538
    1AU     LIG   82   6.072   3.968   5.132
    1AU     LIG   83   5.649   3.796   4.937
    1AU     LIG   84   5.189   3.655   4.809
    1AU       S   85   5.147   5.948   5.206
    1AU     LIG   86   4.884   6.383   5.329
    1AU     LIG   87   4.782   6.759   5.326
    1AU     LIG   88   5.205   6.768   5.179
    1AU    AUSL   89   5.569   4.572   5.388
    1AU    AUSL   90   5.226   4.792   5.226
    1AU     AUL   91   5.393   4.466   5.056
    1AU       S   92   6.015   4.696   5.066
    1AU     LIG   93   6.348   5.510   5.149
    1AU     LIG   94   6.210   5.915   5.652
    1AU     LIG   95   6.220   6.316   6.007
    1AU       S   96   6.170   5.495   5.891
    1AU     LIG   97   5.926   5.837   6.722
    1AU     LIG   98   5.455   5.837   7.081
    1AU     LIG   99   5.093   5.853   7.491
    1AU    AUSL  100   5.319   4.199   5.419
    1AU    AUSL  101   5.750   4.373   5.738
    1AU     AUL  102   5.640   4.188   5.478
    1AU       S  103   5.834   5.570   6.179
    1AU     LIG  104   6.128   5.942   6.310
    1AU     LIG  105   6.415   5.846   6.713
    1AU     LIG  106   6.446   5.675   7.158
    1AU       S  107   5.860   4.372   5.100
    1AU     LIG  108   6.204   3.986   5.580
    1AU     LIG  109   5.938   3.606   5.803
    1AU     LIG  110   5.623   3.390   6.138
    1AU    AUSL  111   4.939   4.509   5.109
    1AU    AUSL  112   4.937   4.357   5.516
    1AU     AUL  113   5.010   4.143   5.215
    1AU       S  114   4.183   4.275   6.450
    1AU     LIG  115   3.651   4.818   6.748
    1AU     LIG  116   3.773   5.189   7.153
    1AU     LIG  117   3.830   5.355   7.624
    1AU       S  118   5.681   4.600   4.751
    1AU     LIG  119   5.757   5.011   4.412
    1AU     LIG  120   5.906   5.541   4.492
    1AU     LIG  121   6.023   5.849   4.848
    1AU    AUSL  122   4.511   5.672   6.546
    1AU    AUSL  123   4.915   5.650   6.381
    1AU     AUL  124   4.811   6.082   6.207
    1AU       S  125   4.247   5.246   7.087
    1AU     LIG  126   4.374   4.581   7.321
    1AU     LIG  127   4.264   4.090   7.378
    1AU     LIG  128   4.209   3.755   7.055
    1AU       S  129   5.275   5.295   6.987
    1AU     LIG  130   5.370   4.674   7.485
    1AU     LIG  131   5.623   4.305   7.364
    1AU     LIG  132   5.618   3.849   7.427
    1AU    AUSL  133   5.120   5.270   6.569
    1AU    AUSL  134   4.491   5.202   6.645
    1AU     AUL  135   4.513   5.172   6.741
    1AU       S  136   4.712   5.828   6.974
    1AU     LIG  137   4.559   6.299   6.786
    1AU     LIG  138   4.303   6.504   6.391
    1AU     LIG  139   4.183   6.594   5.921
    1AU       S  140   4.501   4.957   7.107
    1AU     LIG  141   4.228   4.330   6.939
    1AU     LIG  142   3.911   3.866   6.658
    1AU     LIG  143   3.621   3.407   6.293
    1AU    AUSL  144   4.427   4.277   6.093
    1AU    AUSL  145   4.768   4.365   5.892
    1AU     AUL  146   4.535   4.430   5.357
    1AU       S  147   4.366   4.075   6.505
    1AU     LIG  148   4.667   3.750   6.841
    1AU     LIG  149   5.130   3.931   7.229
    1AU     LIG  150   5.243   4.158   7.656
    1AU       S  151   3.870   4.652   6.366
    1AU     LIG  152   3.993   4.759   7.072
    1AU     LIG  153   4.102   4.946   7.503
    1AU     LIG  154   4.412   5.040   7.856
    1AU    AUSL  155   4.630   4.099   5.591
    1AU    AUSL  156   4.306   4.651   6.226
    1AU     AUL  157   4.285   4.089   6.037
    1AU       S  158   3.844   5.469   5.994
    1AU     LIG  159   3.456   5.520   6.438
    1AU     LIG  160   3.284   5.208   6.872
    1AU     LIG  161   3.076   5.006   7.330
    1AU       S  162   4.492   3.948   6.418
    1AU     LIG  163   4.642   4.164   7.065
    1AU     LIG  164   4.886   4.496   7.409
    1AU     LIG  165   5.032   4.599   7.849
    1AU    AUSL  166   5.680   5.385   5.195
    1AU    AUSL  167   5.616   4.913   5.090
    1AU     AUL  168   5.899   5.153   5.029
    1AU       S  169   6.349   5.354   5.598
    1AU     LIG  170   6.749   5.309   5.394
    1AU     LIG  171   6.841   5.517   4.991
    1AU     LIG  172   6.472   5.604   4.674
    1AU       S  173   5.532   5.489   4.932
    1AU     LIG  174   5.136   5.667   4.546
    1AU     LIG  175   5.035   6.112   4.602
    1AU     LIG  176   5.316   6.465   4.634
    1AU    AUSL  177   5.788   4.994   5.455
    1AU    AUSL  178   6.018   5.057   5.851
    1AU     AUL  179   6.130   5.025   5.410
    1AU       S  180   5.577   5.290   4.757
    1AU     LIG  181   6.217   5.164   4.536
    1AU     LIG  182   6.652   5.107   4.784
    1AU     LIG  183   6.948   4.680   4.775
    1AU       S  184   6.516   4.884   5.666
    1AU     LIG  185   6.646   4.764   5.197
    1AU     LIG  186   6.413   4.697   4.768
    1AU     LIG  187   6.127   4.656   4.421
    1AU    AUSL  188   5.911   5.398   5.547
    1AU    AUSL  189   5.390   5.645   5.412
    1AU     AUL  190   5.729   5.656   5.411
    1AU       S  191   4.966   5.915   5.068
    1AU     LIG  192   4.218   6.062   4.774
    1AU     LIG  193   3.726   6.123   4.998
    1AU     LIG  194   3.339   6.061   5.252
    1AU       S  195   5.358   5.596   4.950
    1AU     LIG  196   4.373   5.650   4.925
    1AU     LIG  197   3.607   5.266   5.140
    1AU     LIG  198   3.220   5.113   5.382
    1AU    AUSL  199   4.261   5.059   6.300
    1AU    AUSL  200   4.606   5.371   6.279
    1AU     AUL  201   4.801   5.469   6.765
    1AU       S  202   5.136   5.292   7.022
    1AU     LIG  203   4.773   4.971   7.488
    1AU     LIG  204   4.538   4.563   7.774
    1AU     LIG  205   4.080   4.425   7.710
    1AU       S  206   3.595   4.664   6.020
    1AU     LIG  207   3.349   4.598   6.419
    1AU     LIG  208   3.300   4.449   6.896
    1AU     LIG  209   3.620   4.314   7.300
    1AU    AUSL  210   4.452   4.960   5.951
    1AU    AUSL  211   4.347   5.186   5.621
    1AU     AUL  212   4.227   4.868   6.264
    1AU       S  213   3.936   5.102   5.466
    1AU     LIG  214   3.611   4.796   5.009
    1AU     LIG  215   3.876   4.565   4.557
    1AU     LIG  216   4.091   4.149   4.541
    1AU       S  217   4.094   5.643   5.665
    1AU     LIG  218   4.005   5.479   5.132
    1AU     LIG  219   3.430   5.657   4.933
    1AU     LIG  220   3.196   5.922   4.657
    1AU    AUSL  221   4.265   5.385   6.001
    1AU    AUSL  222   4.022   4.598   5.932
    1AU     AUL  223   3.837   5.091   6.258
    1AU       S  224   3.803   4.652   5.440
    1AU     LIG  225   3.928   5.089   4.842
    1AU     LIG  226   4.225   5.451   4.484
    1AU     LIG  227   4.625   5.504   4.169
    1AU       S  228   3.874   5.254   5.557
    1AU     LIG  229   4.102   5.934   5.256
    1AU     LIG  230   4.564   6.229   5.020
    1AU     LIG  231   4.835   6.548   4.831
    1AU    AUSL  232   5.974   4.673   6.160
    1AU    AUSL  233   6.034   5.182   6.279
    1AU     AUL  234   6.215   5.011   6.130
    1AU       S  235   6.486   4.615   6.029
    1AU     LIG  236   6.990   4.800   5.773
    1AU     LIG  237   7.199   5.221   5.933
    1AU     LIG  238   7.203   5.700   6.162
    1AU       S  239   6.139   5.387   6.501
    1AU     LIG  240   6.500   5.303   6.806
    1AU     LIG  241   6.888   5.139   6.713
    1AU     LIG  242   6.870   5.377   6.345
    1AU    AUSL  243   5.699   4.778   5.817
    1AU    AUSL  244   5.598   4.435   6.158
    1AU     AUL  245   5.906   4.352   6.031
    1AU       S  246   6.523   4.765   5.906
    1AU     LIG  247   6.914   4.893   6.255
    1AU     LIG  248   7.324   5.226   6.434
    1AU     LIG  249   7.631   5.623   6.421
    1AU       S  250   5.334   5.655   6.658
    1AU     LIG  251   4.609   5.883   7.395
    1AU     LIG  252   4.005   5.671   7.274
    1AU     LIG  253   3.614   5.634   6.955
    1AU    AUSL  254   4.060   5.018   5.917
    1AU    AUSL  255   4.227   4.753   5.588
    1AU     AUL  256   3.995   4.854   5.851
    1AU       S  257   3.571   5.083   5.895
    1AU     LIG  258   3.102   5.221   5.875
    1AU     LIG  259   2.835   5.423   5.556
    1AU     LIG  260   2.571   5.065   5.465
    1AU       S  261   3.588   4.813   5.504
    1AU     LIG  262   3.452   5.507   5.715
    1AU     LIG  263   3.723   6.068   5.666
    1AU     LIG  264   4.072   6.435   5.410
    1AU    AUSL  265   4.181   5.434   6.404
    1AU    AUSL  266   4.650   4.859   6.450
    1AU     AUL  267   4.080   5.217   6.629
    1AU       S  268   4.699   5.361   7.176
    1AU     LIG  269   4.275   5.981   7.041
    1AU     LIG  270   3.922   5.969   6.679
    1AU     LIG  271   3.722   5.929   6.213
    1AU       S  272   3.693   4.710   5.581
    1AU     LIG  273   3.707   4.116   5.802
    1AU     LIG  274   4.031   3.625   6.237
    1AU     LIG  275   4.463   3.460   6.395
    1AU    AUSL  276   4.937   5.710   5.951
    1AU    AUSL  277   4.539   5.746   6.107
    1AU     AUL  278   4.914   5.837   6.536
    1AU       S  279   5.175   5.440   7.003
    1AU     LIG  280   5.683   5.001   7.365
    1AU     LIG  281   6.006   4.667   7.371
    1AU     LIG  282   6.274   4.363   7.127
    1AU       S  283   4.543   4.494   6.635
    1AU     LIG  284   5.137   3.780   6.789
    1AU     LIG  285   5.578   3.735   6.582
    1AU     LIG  286   5.961   3.744   6.328
    1AU    AUSL  287   4.598   5.552   5.711
    1AU    AUSL  288   4.998   5.425   5.150
    1AU     AUL  289   4.678   5.766   5.422
    1AU       S  290   4.233   4.776   6.678
    1AU     LIG  291   3.717   4.235   6.398
    1AU     LIG  292   3.591   3.877   6.200
    1AU     LIG  293   3.855   3.645   5.789
    1AU       S  294   4.836   5.345   4.773
    1AU     LIG  295   4.667   5.043   4.333
    1AU     LIG  296   4.086   4.990   4.270
    1AU     LIG  297   3.588   4.942   4.470
    1AU    AUSL  298   5.019   5.514   5.569
    1AU    AUSL  299   5.320   5.815   5.805
    1AU     AUL  300   5.074   5.928   5.652
    1AU       S  301   4.850   5.806   5.005
    1AU     LIG  302   4.357   5.044   4.676
    1AU     LIG  303   4.050   4.581   4.999
    1AU     LIG  304   3.542   4.343   5.174
    1AU       S  305   4.322   4.738   6.684
    1AU     LIG  306   3.788   4.393   6.842
    1AU     LIG  307   3.500   4.792   7.212
    1AU     LIG  308   3.386   5.368   7.366
    1AU    AUSL  309   5.285   4.849   6.701
    1AU    AUSL  310   5.647   4.770   6.439
    1AU     AUL  311   5.660   4.691   6.829
    1AU       S  312   5.283   4.828   7.051
    1AU     LIG  313   5.578   5.437   7.299
    1AU     LIG  314   5.717   5.818   7.502
    1AU     LIG  315   5.455   6.205   7.506
    1AU       S  316   6.034   5.401   6.676
    1AU     LIG  317   6.485   5.647   6.246
    1AU     LIG  318   6.632   5.995   5.840
    1AU     LIG  319   6.368   6.365   5.534
    1AU    AUSL  320   4.974   4.592   6.542
    1AU    AUSL  321   4.900   4.993   6.805
    1AU     AUL  322   4.840   4.747   6.849
    1AU       S  323   5.208   4.578   7.056
    1AU     LIG  324   5.216   5.112   7.447
    1AU     LIG  325   5.265   5.452   7.685
    1AU     LIG  326   5.469   5.760   7.952
    1AU       S  327   4.776   5.504   7.221
    1AU     LIG  328   5.059   6.118   7.093
    1AU     LIG  329   5.566   6.293   6.979
    1AU     LIG  330   6.074   6.277   6.926
    1AU    AUSL  331   5.383   4.431   6.579
    1AU    AUSL  332   4.815   4.263   6.313
    1AU     AUL  333   5.007   4.304   6.649
    1AU       S  334   4.960   3.864   6.376
    1AU     LIG  335   5.202   3.401   6.452
    1AU     LIG  336   5.638   3.199   6.604
    1AU     LIG  337   6.080   3.344   6.670
    1AU       S  338   5.233   4.391   7.053
    1AU     LIG  339   4.778   4.050   7.514
    1AU     LIG  340   4.545   3.645   7.433
    1AU     LIG  341   4.210   3.303   7.356
    1AU    AUSL  342   4.857   4.994   5.112
    1AU    AUSL  343   5.325   5.194   5.284
    1AU     AUL  344   5.196   5.094   4.943
    1AU       S  345   4.748   4.964   4.910
    1AU     LIG  346   4.473   4.532   4.711
    1AU     LIG  347   4.502   4.013   4.814
    1AU     LIG  348   4.631   3.585   5.028
    1AU       S  349   6.269   5.401   5.854
    1AU     LIG  350   6.440   4.617   6.503
    1AU     LIG  351   6.027   4.106   6.757
    1AU     LIG  352   5.809   3.616   7.006
    1AU    AUSL  353   4.628   5.318   5.334
    1AU    AUSL  354   4.599   4.872   5.424
    1AU     AUL  355   4.396   5.048   5.238
    1AU       S  356   4.661   5.322   4.860
    1AU     LIG  357   4.640   5.795   4.560
    1AU     LIG  358   4.548   6.259   4.466
    1AU     LIG  359   4.291   6.580   4.727
    1AU       S  360   4.185   5.587   5.548
    1AU     LIG  361   4.250   6.110   5.720
    1AU     LIG  362   4.609   6.449   5.741
    1AU     LIG  363   4.704   6.895   5.841
    1AU    AUSL  364   5.061   4.047   5.867
    1AU    AUSL  365   4.313   4.356   5.712
    1AU     AUL  366   4.736   3.985   5.996
    1AU       S  367   3.608   5.079   5.867
    1AU     LIG  368   3.674   5.689   5.364
    1AU     LIG  369   3.864   5.720   4.757
    1AU     LIG  370   3.698   5.423   4.485
    1AU       S  371   5.122   3.744   6.091
    1AU     LIG  372   4.842   3.405   5.814
    1AU     LIG  373   4.440   3.465   5.526
    1AU     LIG  374   4.188   3.758   5.239
    1AU    AUSL  375   5.241   4.220   6.230
    1AU    AUSL  376   5.332   4.378   5.812
    1AU     AUL  377   5.477   4.068   5.968
    1AU       S  378   5.205   3.876   6.291
    1AU     LIG  379   5.355   3.505   5.750
    1AU     LIG  380   5.624   3.168   5.491
    1AU     LIG  381   5.708   2.765   5.193
    1AU       S  382   5.793   5.593   6.147
    1AU     LIG  383   5.783   6.169   5.699
    1AU     LIG  384   5.596   6.163   5.085
    1AU     LIG  385   5.563   5.927   4.624
    2POPC   NC3  386   3.515   1.399   8.134
    2POPC   PO4  387   3.084   0.807   8.209
    2POPC   GL1  388   3.298   0.829   7.786
    2POPC   GL2  389   3.424   1.152   7.693
    2POPC   C1A  390   3.138   0.874   7.342
    2POPC   D2A  391   3.113   0.987   6.898
    2POPC   C3A  392   3.403   0.983   6.506
    2POPC   C4A  393   3.330   0.905   6.043
    2POPC   C1B  394   3.443   1.283   7.259
    2POPC   C2B  395   3.473   1.402   6.813
    2POPC   C3B  396   3.742   1.395   6.451
    2POPC   C4B  397   3.793   1.125   6.132
    3POPC   NC3  398   7.280   0.313   8.128
    3POPC   PO4  399   7.863   9.940   8.014
    3POPC   GL1  400   7.593   0.209   7.726
    3POPC   GL2  401   7.378   0.538   7.687
    3POPC   C1A  402   7.421   0.176   7.316
    3POPC   D2A  403   7.539   0.433   6.944
    3POPC   C3A  404   7.367   0.382   6.538
    3POPC   C4A  405   7.404   0.098   6.178
    3POPC   C1B  406   7.166   0.630   7.306
    3POPC   C2B  407   7.218   0.799   6.915
    3POPC   C3B  408   7.112   0.853   6.486
    3POPC   C4B  409   7.264   0.738   6.072
    4POPC   NC3  410   1.087   1.444   8.157
    4POPC   PO4  411   0.711   0.821   8.091
    4POPC   GL1  412   0.852   1.133   7.792
    4POPC   GL2  413   1.194   1.044   7.849
    4POPC   C1A  414   1.126   1.294   7.412
    4POPC   D2A  415   1.362   1.414   7.012
    4POPC   C3A  416   1.213   1.304   6.578
    4POPC   C4A  417   1.008   1.412   6.159
    4POPC   C1B  418   1.320   0.828   7.495
    4POPC   C2B  419   1.282   0.886   7.072
    4POPC   C3B  420   1.482   0.775   6.688
    4POPC   C4B  421   1.383   0.920   6.299
    5POPC   NC3  422   0.698   5.067   8.137
    5POPC   PO4  423   0.415   4.505   7.927
    5POPC   GL1  424   0.625   4.826   7.642
    5POPC   GL2  425   0.551   5.172   7.632
    5POPC   C1A  426   0.648   4.927   7.178
    5POPC   D2A  427   0.474   5.025   6.740
    5POPC   C3A  428   0.700   4.979   6.370
    5POPC   C4A  429   0.595   4.939   5.924
    5POPC   C1B  430   0.354   5.335   7.283
    5POPC   C2B  431   0.109   5.441   6.949
    5POPC   C3B  432   0.009   5.307   6.578
    5POPC   C4B  433   0.207   5.077   6.260
    6POPC   NC3  434   6.295   7.544   8.620
    6POPC   PO4  435   5.743   7.727   8.198
    6POPC   GL1  436   5.649   8.031   7.769
    6POPC   GL2  437   5.639   8.404   7.827
    6POPC   C1A  438   5.717   8.032   7.269
    6POPC   D2A  439   5.511   8.016   6.840
    6POPC   C3A  440   5.758   7.865   6.477
    6POPC   C4A  441   6.182   7.769   6.417
    6POPC   C1B  442   5.455   8.465   7.412
    6POPC   C2B  443   5.658   8.466   6.986
    6POPC   C3B  444   5.671   8.366   6.502
    6POPC   C4B  445   5.656   8.396   6.010
    7POPC   NC3  446   0.337   8.150   8.247
    7POPC   PO4  447   0.868   7.708   8.173
    7POPC   GL1  448   0.486   7.877   7.848
    7POPC   GL2  449   0.394   8.274   7.760
    7POPC   C1A  450   0.206   7.906   7.456
    7POPC   D2A  451   0.375   7.859   7.030
    7POPC   C3A  452   0.127   7.938   6.642
    7POPC   C4A  453   0.174   7.766   6.216
    7POPC   C1B  454   0.525   8.294   7.307
    7POPC   C2B  455   0.443   8.327   6.841
    7POPC   C3B  456   0.545   8.182   6.427
    7POPC   C4B  457   0.852   8.274   6.078
    8POPC   NC3  458   8.578   6.420   8.154
    8POPC   PO4  459   9.249   6.316   8.333
    8POPC   GL1  460   9.091   6.447   7.908
    8POPC   GL2  461   8.909   6.733   7.841
    8POPC   C1A  462   8.892   6.358   7.476
    8POPC   D2A  463   8.666   6.475   7.074
    8POPC   C3A  464   8.813   6.566   6.646
    8POPC   C4A  465   9.056   6.387   6.304
    8POPC   C1B  466   8.889   6.872   7.353
    8POPC   C2B  467   9.087   7.060   6.944
    8POPC   C3B  468   8.976   7.019   6.489
    8POPC   C4B  469   8.737   6.779   6.158
    9POPC   NC3  470   2.585   6.273   8.062
    9POPC   PO4  471   2.688   6.889   8.195
    9POPC   GL1  472   2.569   6.722   7.761
    9POPC   GL2  473   2.870   6.521   7.649
    9POPC   C1A  474   2.508   6.686   7.291
    9POPC   D2A  475   2.567   6.512   6.873
    9POPC   C3A  476   2.405   6.729   6.531
    9POPC   C4A  477   2.537   6.737   6.095
    9POPC   C1B  478   2.992   6.629   7.181
    9POPC   C2B  479   2.999   6.777   6.721
    9POPC   C3B  480   3.020   6.728   6.252
    9POPC   C4B  481   2.899   6.438   5.905
   10POPC   NC3  482   7.544   9.593   7.990
   10POPC   PO4  483   6.957   9.888   8.141
   10POPC   GL1  484   7.168   9.850   7.712
   10POPC   GL2  485   7.202   9.480   7.632
   10POPC   C1A  486   7.050   9.807   7.259
   10POPC   D2A  487   7.133   0.084   6.899
   10POPC   C3A  488   7.057   9.938   6.517
   10POPC   C4A  489   6.847   9.973   6.132
   10POPC   C1B  490   7.503   9.592   7.288
   10POPC   C2B  491   7.350   9.599   6.851
   10POPC   C3B  492   7.440   9.586   6.407
   10POPC   C4B  493   7.679   9.681   5.998
   11POPC   NC3  494   7.958   4.804   8.072
   11POPC   PO4  495   8.013   4.146   8.329
   11POPC   GL1  496   8.157   4.336   7.900
   11POPC   GL2  497   8.487   4.367   7.819
   11POPC   C1A  498   8.172   4.220   7.427
   11POPC   D2A  499   8.214   4.018   6.982
   11POPC   C3A  500   8.133   4.155   6.535
   11POPC   C4A  501   7.900   4.051   6.133
   11POPC   C1B  502   8.573   4.543   7.397
   11POPC   C2B  503   8.553   4.429   6.961
   11POPC   C3B  504   8.489   4.536   6.506
   11POPC   C4B  505   8.314   4.374   6.121
   12POPC   NC3  506   3.341   2.060   8.150
   12POPC   PO4  507   3.777   2.532   8.111
   12POPC   GL1  508   3.673   2.222   7.802
   12POPC   GL2  509   3.586   1.846   7.721
   12POPC   C1A  510   3.515   2.254   7.405
   12POPC   D2A  511   3.304   2.370   7.032
   12POPC   C3A  512   3.478   2.314   6.625
   12POPC   C4A  513   3.368   2.238   6.187
   12POPC   C1B  514   3.753   1.718   7.273
   12POPC   C2B  515   3.933   1.688   6.821
   12POPC   C3B  516   3.733   1.900   6.446
   12POPC   C4B  517   3.271   1.811   6.446
   13POPC   NC3  518   9.230   5.965   8.039
   13POPC   PO4  519   9.497   5.356   8.199
   13POPC   GL1  520   9.210   5.468   7.873
   13POPC   GL2  521   9.475   5.589   7.641
   13POPC   C1A  522   8.910   5.510   7.517
   13POPC   D2A  523   8.896   5.361   7.060
   13POPC   C3A  524   9.078   5.616   6.725
   13POPC   C4A  525   9.181   5.868   6.338
   13POPC   C1B  526   9.277   5.691   7.230
   13POPC   C2B  527   8.888   5.910   7.124
   13POPC   C3B  528   8.847   6.074   6.718
   13POPC   C4B  529   8.647   6.066   6.331
   14POPC   NC3  530   1.995   4.415   8.352
   14POPC   PO4  531   1.367   4.218   8.032
   14POPC   GL1  532   1.674   4.328   7.727
   14POPC   GL2  533   1.945   4.557   7.852
   14POPC   C1A  534   1.666   4.356   7.265
   14POPC   D2A  535   1.646   4.165   6.818
   14POPC   C3A  536   1.822   4.395   6.455
   14POPC   C4A  537   1.850   4.204   6.027
   14POPC   C1B  538   2.123   4.240   7.532
   14POPC   C2B  539   2.090   4.096   7.072
   14POPC   C3B  540   2.164   4.049   6.597
   14POPC   C4B  541   2.292   4.360   6.230
   15POPC   NC3  542   4.347   9.048   8.126
   15POPC   PO4  543   3.885   8.550   8.246
   15POPC   GL1  544   3.910   8.768   7.779
   15POPC   GL2  545   4.003   9.125   7.700
   15POPC   C1A  546   3.736   8.886   7.321
   15POPC   D2A  547   3.910   8.842   6.884
   15POPC   C3A  548   4.144   9.044   6.529
   15POPC   C4A  549   4.184   9.212   6.058
   15POPC   C1B  550   4.227   8.861   7.352
   15POPC   C2B  551   4.512   8.667   7.085
   15POPC   C3B  552   4.574   8.820   6.685
   15POPC   C4B  553   4.492   8.795   6.226
   16POPC   NC3  554   0.332   1.170   7.967
   16POPC   PO4  555   0.669   1.680   8.125
   16POPC   GL1  556   0.495   1.606   7.701
   16POPC   GL2  557   0.171   1.444   7.576
   16POPC   C1A  558   0.638   1.416   7.296
   16POPC   D2A  559   0.886   1.210   6.959
   16POPC   C3A  560   0.697   1.229   6.534
   16POPC   C4A  561   0.397   1.459   6.280
   16POPC   C1B  562   0.260   1.042   7.334
   16POPC   C2B  563   0.388   1.091   6.921
   16POPC   C3B  564   0.202   1.030   6.513
   16POPC   C4B  565   0.172   0.977   6.056
   17POPC   NC3  566   7.971   5.752   8.015
   17POPC   PO4  567   8.639   5.885   8.061
   17POPC   GL1  568   8.402   5.773   7.702
   17POPC   GL2  569   8.239   6.124   7.743
   17POPC   C1A  570   8.473   5.607   7.252
   17POPC   D2A  571   8.546   5.651   6.789
   17POPC   C3A  572   8.253   5.481   6.447
   17POPC   C4A  573   8.032   5.621   6.090
   17POPC   C1B  574   8.395   6.114   7.290
   17POPC   C2B  575   8.345   6.152   6.800
   17POPC   C3B  576   8.129   6.050   6.373
   17POPC   C4B  577   7.925   6.146   5.948
   18POPC   NC3  578   5.764   0.413   8.346
   18POPC   PO4  579   6.227   9.905   8.333
   18POPC   GL1  580   6.036   0.280   7.939
   18POPC   GL2  581   5.702   0.495   7.859
   18POPC   C1A  582   5.878   0.264   7.457
   18POPC   D2A  583   5.979   9.991   7.098
   18POPC   C3A  584   6.079   0.073   6.661
   18POPC   C4A  585   5.907   0.037   6.276
   18POPC   C1B  586   5.554   0.662   7.439
   18POPC   C2B  587   5.749   0.767   7.032
   18POPC   C3B  588   5.750   0.516   6.628
   18POPC   C4B  589   5.958   0.540   6.231
   19POPC   NC3  590   9.561   6.601   8.118
   19POPC   PO4  591   0.217   6.237   8.096
   19POPC   GL1  592   9.976   6.512   7.758
   19POPC   GL2  593   9.778   6.788   7.702
   19POPC   C1A  594   9.824   6.549   7.271
   19POPC   D2A  595   9.792   6.443   6.794
   19POPC   C3A  596   9.913   6.608   6.353
   19POPC   C4A  597   9.977   6.400   5.888
   19POPC   C1B  598   9.374   6.765   7.482
   19POPC   C2B  599   9.223   6.577   7.078
   19POPC   C3B  600   9.342   6.669   6.639
   19POPC   C4B  601   9.387   6.887   6.244
   20POPC   NC3  602   9.618   0.905   8.525
   20POPC   PO4  603   9.955   1.407   8.120
   20POPC   GL1  604   9.698   1.320   7.760
   20POPC   GL2  605   9.344   1.304   7.820
   20POPC   C1A  606   9.747   1.186   7.342
   20POPC   D2A  607   9.879   0.975   6.957
   20POPC   C3A  608   9.698   1.108   6.548
   20POPC   C4A  609   9.679   0.858   6.166
   20POPC   C1B  610   9.225   1.169   7.404
   20POPC   C2B  611   9.348   1.151   6.952
   20POPC   C3B  612   9.358   1.490   6.612
   20POPC   C4B  613   9.520   1.525   6.173
   21POPC   NC3  614   1.947   8.078   8.066
   21POPC   PO4  615   2.375   7.545   8.077
   21POPC   GL1  616   2.215   7.791   7.685
   21POPC   GL2  617   1.886   8.029   7.575
   21POPC   C1A  618   2.269   7.960   7.263
   21POPC   D2A  619   2.077   7.906   6.866
   21POPC   C3A  620   2.386   7.955   6.531
   21POPC   C4A  621   2.467   8.035   6.077
   21POPC   C1B  622   1.518   8.306   7.417
   21POPC   C2B  623   1.386   8.320   6.967
   21POPC   C3B  624   1.675   8.149   6.620
   21POPC   C4B  625   1.994   8.185   6.278
   22POPC   NC3  626   4.166   1.500   8.217
   22POPC   PO4  627   4.713   1.114   8.432
   22POPC   GL1  628   4.602   1.342   7.997
   22POPC   GL2  629   4.279   1.170   7.838
   22POPC   C1A  630   4.636   1.298   7.480
   22POPC   D2A  631   4.419   1.225   7.044
   22POPC   C3A  632   4.568   0.990   6.656
   22POPC   C4A  633   4.639   0.904   6.196
   22POPC   C1B  634   3.940   1.293   7.534
   22POPC   C2B  635   3.910   1.242   7.067
   22POPC   C3B  636   4.030   1.033   6.665
   22POPC   C4B  637   4.255   1.228   6.293
   23POPC   NC3  638   7.715   6.999   8.054
   23POPC   PO4  639   8.313   7.482   8.111
   23POPC   GL1  640   8.035   7.312   7.815
   23POPC   GL2  641   8.182   7.465   7.584
   23POPC   C1A  642   7.918   7.125   7.365
   23POPC   D2A  643   8.151   7.236   6.944
   23POPC   C3A  644   7.978   7.239   6.491
   23POPC   C4A  645   7.695   6.981   6.197
   23POPC   C1B  646   8.280   7.688   7.227
   23POPC   C2B  647   8.397   7.709   6.793
   23POPC   C3B  648   8.362   7.635   6.374
   23POPC   C4B  649   8.324   7.412   5.981
   24POPC   NC3  650   9.183   3.479   8.231
   24POPC   PO4  651   8.753   3.965   8.073
   24POPC   GL1  652   8.896   3.702   7.735
   24POPC   GL2  653   8.860   3.341   7.802
   24POPC   C1A  654   9.155   3.808   7.359
   24POPC   D2A  655   9.340   3.613   6.990
   24POPC   C3A  656   9.076   3.727   6.654
   24POPC   C4A  657   8.782   3.625   6.365
   24POPC   C1B  658   9.089   3.299   7.415
   24POPC   C2B  659   8.918   3.343   6.996
   24POPC   C3B  660   8.985   3.180   6.592
   24POPC   C4B  661   8.798   3.147   6.191
   25POPC   NC3  662   0.177   1.798   8.226
   25POPC   PO4  663   0.449   2.231   8.497
   25POPC   GL1  664   0.387   2.121   7.918
   25POPC   GL2  665   0.672   2.099   7.691
   25POPC   C1A  666   0.220   2.008   7.475
   25POPC   D2A  667   9.963   2.136   7.094
   25POPC   C3A  668   0.118   2.070   6.669
   25POPC   C4A  669   0.158   2.079   6.226
   25POPC   C1B  670   0.686   2.038   7.232
   25POPC   C2B  671   0.629   2.114   6.789
   25POPC   C3B  672   0.634   1.991   6.368
   25POPC   C4B  673   0.497   1.825   5.941
   26POPC   NC3  674   9.984   4.374   8.042
   26POPC   PO4  675   9.587   4.828   7.808
   26POPC   GL1  676   9.760   4.519   7.587
   26POPC   GL2  677   9.691   4.141   7.681
   26POPC   C1A  678   9.713   4.647   7.164
   26POPC   D2A  679   9.446   4.636   6.791
   26POPC   C3A  680   9.611   4.472   6.390
   26POPC   C4A  681   9.605   4.656   5.975
   26POPC   C1B  682   9.810   4.142   7.249
   26POPC   C2B  683   9.860   4.303   6.842
   26POPC   C3B  684   0.047   4.214   6.509
   26POPC   C4B  685   9.982   3.874   6.270
   27POPC   NC3  686   7.299   0.958   8.117
   27POPC   PO4  687   7.707   1.408   7.809
   27POPC   GL1  688   7.267   1.343   7.673
   27POPC   GL2  689   7.112   1.015   7.654
   27POPC   C1A  690   7.153   1.286   7.224
   27POPC   D2A  691   7.354   1.268   6.805
   27POPC   C3A  692   7.045   1.356   6.483
   27POPC   C4A  693   6.966   1.160   6.063
   27POPC   C1B  694   7.524   0.966   7.385
   27POPC   C2B  695   7.740   0.940   6.990
   27POPC   C3B  696   7.624   0.860   6.572
   27POPC   C4B  697   7.468   1.169   6.283
   28POPC   NC3  698   9.267   4.967   8.090
   28POPC   PO4  699   8.622   4.893   8.065
   28POPC   GL1  700   8.916   4.750   7.718
   28POPC   GL2  701   9.117   5.032   7.604
   28POPC   C1A  702   9.020   4.724   7.208
   28POPC   D2A  703   8.926   4.716   6.732
   28POPC   C3A  704   9.176   4.780   6.337
   28POPC   C4A  705   9.138   4.817   5.843
   28POPC   C1B  706   8.675   5.063   7.420
   28POPC   C2B  707   8.558   4.962   7.012
   28POPC   C3B  708   8.705   5.174   6.600
   28POPC   C4B  709   8.740   5.547   6.324
   29POPC   NC3  710   6.010   8.863   8.437
   29POPC   PO4  711   5.467   9.250   8.268
   29POPC   GL1  712   5.680   9.248   7.866
   29POPC   GL2  713   5.862   8.926   7.847
   29POPC   C1A  714   5.780   9.224   7.423
   29POPC   D2A  715   5.972   9.106   7.019
   29POPC   C3A  716   5.750   9.198   6.633
   29POPC   C4A  717   5.429   9.162   6.308
   29POPC   C1B  718   5.905   8.721   7.435
   29POPC   C2B  719   6.151   8.622   7.079
   29POPC   C3B  720   5.996   8.699   6.684
   29POPC   C4B  721   5.784   8.806   6.303
   30POPC   NC3  722   5.040   8.882   8.194
   30POPC   PO4  723   4.443   8.661   7.907
   30POPC   GL1  724   4.848   8.768   7.716
   30POPC   GL2  725   4.919   9.150   7.733
   30POPC   C1A  726   4.959   8.849   7.279
   30POPC   D2A  727   4.829   9.249   7.136
   30POPC   C3A  728   4.821   9.292   6.718
   30POPC   C4A  729   4.971   8.985   6.442
   30POPC   C1B  730   5.342   8.988   7.574
   30POPC   C2B  731   5.483   8.913   7.126
   30POPC   C3B  732   5.402   8.790   6.678
   30POPC   C4B  733   5.276   8.631   6.252
   31POPC   NC3  734   5.899   9.658   8.088
   31POPC   PO4  735   5.393   0.061   8.304
   31POPC   GL1  736   5.604   9.986   7.838
   31POPC   GL2  737   5.783   9.725   7.576
   31POPC   C1A  738   5.406   0.050   7.413
   31POPC   D2A  739   5.534   0.270   7.028
   31POPC   C3A  740   5.505   0.037   6.608
   31POPC   C4A  741   5.572   9.652   6.330
   31POPC   C1B  742   6.141   9.540   7.260
   31POPC   C2B  743   6.247   9.576   6.825
   31POPC   C3B  744   6.053   9.559   6.412
   31POPC   C4B  745   5.900   9.260   6.095
   32POPC   NC3  746   7.152   2.435   8.198
   32POPC   PO4  747   7.211   3.112   8.203
   32POPC   GL1  748   7.309   2.812   7.870
   32POPC   GL2  749   7.539   2.912   7.614
   32POPC   C1A  750   7.140   2.627   7.485
   32POPC   D2A  751   7.317   2.697   7.092
   32POPC   C3A  752   7.169   2.628   6.682
   32POPC   C4A  753   7.169   2.929   6.325
   32POPC   C1B  754   7.799   2.728   7.307
   32POPC   C2B  755   7.773   2.593   6.885
   32POPC   C3B  756   7.623   2.776   6.502
   32POPC   C4B  757   7.575   2.834   6.005
   33POPC   NC3  758   8.985   9.253   8.391
   33POPC   PO4  759   9.220   8.555   8.297
   33POPC   GL1  760   9.072   8.797   7.903
   33POPC   GL2  761   8.726   8.803   8.024
   33POPC   C1A  762   9.098   8.937   7.405
   33POPC   D2A  763   9.174   8.756   6.996
   33POPC   C3A  764   9.146   9.002   6.632
   33POPC   C4A  765   8.947   8.965   6.272
   33POPC   C1B  766   8.599   8.880   7.587
   33POPC   C2B  767   8.677   8.875   7.112
   33POPC   C3B  768   8.685   8.733   6.659
   33POPC   C4B  769   8.446   8.670   6.249
   34POPC   NC3  770   5.055   0.377   8.206
   34POPC   PO4  771   4.656   0.855   7.955
   34POPC   GL1  772   4.860   0.545   7.694
   34POPC   GL2  773   4.676   0.228   7.683
   34POPC   C1A  774   5.083   0.506   7.279
   34POPC   D2A  775   5.257   0.678   6.884
   34POPC   C3A  776   5.009   0.635   6.495
   34POPC   C4A  777   5.066   0.595   6.029
   34POPC   C1B  778   4.735   0.128   7.214
   34POPC   C2B  779   5.041   0.207   6.823
   34POPC   C3B  780   5.059   0.130   6.331
   34POPC   C4B  781   4.876   0.131   5.861
   35POPC   NC3  782   0.324   6.772   8.028
   35POPC   PO4  783   0.823   6.609   8.276
   35POPC   GL1  784   0.866   6.452   7.822
   35POPC   GL2  785   0.534   6.404   7.743
   35POPC   C1A  786   0.823   6.640   7.388
   35POPC   D2A  787   0.770   6.911   7.004
   35POPC   C3A  788   0.775   6.696   6.601
   35POPC   C4A  789   0.649   6.779   6.175
   35POPC   C1B  790   0.328   6.524   7.377
   35POPC   C2B  791   0.517   6.433   6.981
   35POPC   C3B  792   0.323   6.435   6.592
   35POPC   C4B  793   0.184   6.154   6.273
   36POPC   NC3  794   7.625   8.618   7.960
   36POPC   PO4  795   7.844   9.246   8.063
   36POPC   GL1  796   7.534   9.099   7.769
   36POPC   GL2  797   7.204   8.970   7.905
   36POPC   C1A  798   7.612   9.074   7.316
   36POPC   D2A  799   7.831   9.090   6.913
   36POPC   C3A  800   7.626   9.043   6.513
   36POPC   C4A  801   7.521   9.191   6.076
   36POPC   C1B  802   7.226   8.778   7.484
   36POPC   C2B  803   7.270   8.721   7.047
   36POPC   C3B  804   7.008   8.675   6.663
   36POPC   C4B  805   7.203   8.849   6.305
   37POPC   NC3  806   1.989   8.724   8.161
   37POPC   PO4  807   2.315   8.244   7.846
   37POPC   GL1  808   1.993   8.534   7.689
   37POPC   GL2  809   2.042   8.932   7.694
   37POPC   C1A  810   1.904   8.643   7.275
   37POPC   D2A  811   2.054   8.943   6.983
   37POPC   C3A  812   2.040   8.755   6.577
   37POPC   C4A  813   1.686   8.627   6.315
   37POPC   C1B  814   2.200   9.284   7.382
   37POPC   C2B  815   2.410   9.314   6.948
   37POPC   C3B  816   2.220   9.248   6.540
   37POPC   C4B  817   1.916   9.109   6.222
   38POPC   NC3  818   0.678   6.180   8.194
   38POPC   PO4  819   0.467   5.510   8.010
   38POPC   GL1  820   0.539   5.890   7.781
   38POPC   GL2  821   0.857   5.923   7.746
   38POPC   C1A  822   0.538   6.062   7.367
   38POPC   D2A  823   0.457   5.816   7.007
   38POPC   C3A  824   0.556   5.977   6.605
   38POPC   C4A  825   0.709   6.258   6.282
   38POPC   C1B  826   0.764   5.612   7.389
   38POPC   C2B  827   0.744   5.417   6.943
   38POPC   C3B  828   0.558   5.467   6.505
   38POPC   C4B  829   0.221   5.647   6.252
   39POPC   NC3  830   2.127   7.157   8.154
   39POPC   PO4  831   1.546   7.663   8.111
   39POPC   GL1  832   1.770   7.551   7.704
   39POPC   GL2  833   2.044   7.306   7.681
   39POPC   C1A  834   1.931   7.568   7.246
   39POPC   D2A  835   1.756   7.483   6.793
   39POPC   C3A  836   1.978   7.671   6.431
   39POPC   C4A  837   2.073   7.635   5.988
   39POPC   C1B  838   2.250   7.131   7.332
   39POPC   C2B  839   2.092   7.122   6.921
   39POPC   C3B  840   2.228   7.238   6.517
   39POPC   C4B  841   2.241   7.146   6.065
   40POPC   NC3  842   6.533   0.107   8.017
   40POPC   PO4  843   6.969   0.644   7.996
   40POPC   GL1  844   6.912   0.307   7.718
   40POPC   GL2  845   6.599   0.470   7.656
   40POPC   C1A  846   6.844   0.260   7.272
   40POPC   D2A  847   6.759   0.549   6.925
   40POPC   C3A  848   6.855   0.423   6.475
   40POPC   C4A  849   6.729   0.685   6.129
   40POPC   C1B  850   6.352   0.333   7.333
   40POPC   C2B  851   6.170   0.463   6.968
   40POPC   C3B  852   6.362   0.532   6.575
   40POPC   C4B  853   6.399   0.281   6.244
   41POPC   NC3  854   8.915   7.362   8.171
   41POPC   PO4  855   8.454   6.856   8.214
   41POPC   GL1  856   8.602   7.146   7.822
   41POPC   GL2  857   9.008   7.209   7.695
   41POPC   C1A  858   8.670   7.497   7.506
   41POPC   D2A  859   8.675   7.389   7.092
   41POPC   C3A  860   8.833   7.460   6.682
   41POPC   C4A  861   8.798   7.436   6.231
   41POPC   C1B  862   9.168   7.443   7.301
   41POPC   C2B  863   9.317   7.586   6.862
   41POPC   C3B  864   9.208   7.694   6.404
   41POPC   C4B  865   9.271   7.722   5.923
   42POPC   NC3  866   2.382   3.714   8.150
   42POPC   PO4  867   1.801   4.003   8.369
   42POPC   GL1  868   1.774   3.855   7.921
   42POPC   GL2  869   1.900   3.501   7.816
   42POPC   C1A  870   1.736   3.860   7.468
   42POPC   D2A  871   1.999   3.613   7.181
   42POPC   C3A  872   1.856   3.647   6.742
   42POPC   C4A  873   1.700   3.859   6.371
   42POPC   C1B  874   1.671   3.319   7.435
   42POPC   C2B  875   1.540   3.167   6.997
   42POPC   C3B  876   1.686   3.178   6.556
   42POPC   C4B  877   1.945   3.402   6.259
   43POPC   NC3  878   1.008   3.098   8.093
   43POPC   PO4  879   0.728   2.515   7.986
   43POPC   GL1  880   0.910   2.777   7.696
   43POPC   GL2  881   1.275   2.812   7.744
   43POPC   C1A  882   0.912   2.732   7.282
   43POPC   D2A  883   0.804   2.577   6.899
   43POPC   C3A  884   0.925   2.783   6.534
   43POPC   C4A  885   1.064   2.656   6.110
   43POPC   C1B  886   1.494   2.755   7.342
   43POPC   C2B  887   1.325   2.675   6.934
   43POPC   C3B  888   1.434   2.686   6.518
   43POPC   C4B  889   1.434   2.976   6.177
   44POPC   NC3  890   9.396   1.893   7.933
   44POPC   PO4  891   9.930   2.282   8.103
   44POPC   GL1  892   9.788   2.149   7.704
   44POPC   GL2  893   9.885   1.814   7.792
   44POPC   C1A  894   9.508   2.234   7.319
   44POPC   D2A  895   9.471   2.491   6.904
   44POPC   C3A  896   9.769   2.435   6.507
   44POPC   C4A  897   9.757   2.302   5.999
   44POPC   C1B  898   9.762   1.720   7.357
   44POPC   C2B  899   9.783   1.498   6.936
   44POPC   C3B  900   9.900   1.602   6.512
   44POPC   C4B  901   9.682   1.961   6.370
   45POPC   NC3  902   0.315   2.536   8.195
   45POPC   PO4  903   0.404   3.162   8.107
   45POPC   GL1  904   0.368   2.871   7.735
   45POPC   GL2  905   0.156   2.554   7.711
   45POPC   C1A  906   0.272   2.926   7.281
   45POPC   D2A  907   0.515   2.999   6.907
   45POPC   C3A  908   0.507   3.052   6.461
   45POPC   C4A  909   0.600   2.829   6.105
   45POPC   C1B  910   0.427   2.461   7.350
   45POPC   C2B  911   0.297   2.510   6.911
   45POPC   C3B  912   0.413   2.497   6.467
   45POPC   C4B  913   0.197   2.553   6.057
   46POPC   NC3  914   8.141   7.148   8.358
   46POPC   PO4  915   7.899   6.572   8.081
   46POPC   GL1  916   8.164   6.834   7.788
   46POPC   GL2  917   8.432   6.623   7.707
   46POPC   C1A  918   8.399   7.004   7.360
   46POPC   D2A  919   8.592   6.943   6.905
   46POPC   C3A  920   8.469   7.117   6.506
   46POPC   C4A  921   8.233   6.941   6.146
   46POPC   C1B  922   8.115   6.551   7.387
   46POPC   C2B  923   8.167   6.682   6.984
   46POPC   C3B  924   8.281   6.624   6.562
   46POPC   C4B  925   7.934   6.528   6.299
   47POPC   NC3  926   4.998   1.477   8.386
   47POPC   PO4  927   4.498   1.842   8.178
   47POPC   GL1  928   4.789   1.797   7.861
   47POPC   GL2  929   5.130   1.866   7.965
   47POPC   C1A  930   4.777   1.785   7.414
   47POPC   D2A  931   4.954   2.000   7.066
   47POPC   C3A  932   4.757   1.989   6.673
   47POPC   C4A  933   4.797   2.257   6.350
   47POPC   C1B  934   5.308   1.933   7.512
   47POPC   C2B  935   5.449   1.880   7.058
   47POPC   C3B  936   5.300   1.945   6.633
   47POPC   C4B  937   5.345   1.997   6.186
   48POPC   NC3  938   2.601   4.564   7.975
   48POPC   PO4  939   2.722   5.218   8.065
   48POPC   GL1  940   2.683   5.229   7.642
   48POPC   GL2  941   2.628   4.869   7.535
   48POPC   C1A  942   2.682   5.270   7.203
   48POPC   D2A  943   2.502   5.012   6.899
   48POPC   C3A  944   2.633   5.141   6.483
   48POPC   C4A  945   2.630   5.199   6.052
   48POPC   C1B  946   2.793   4.660   7.130
   48POPC   C2B  947   2.958   4.804   6.712
   48POPC   C3B  948   2.885   4.752   6.238
   48POPC   C4B  949   2.960   4.531   5.823
   49POPC   NC3  950   4.308   2.274   8.188
   49POPC   PO4  951   3.767   1.786   8.205
   49POPC   GL1  952   4.071   1.919   7.896
   49POPC   GL2  953   4.277   1.678   7.748
   49POPC   C1A  954   4.052   2.093   7.468
   49POPC   D2A  955   3.985   2.149   6.993
   49POPC   C3A  956   4.213   2.061   6.573
   49POPC   C4A  957   4.316   2.198   6.146
   49POPC   C1B  958   4.263   1.636   7.332
   49POPC   C2B  959   4.406   1.807   7.000
   49POPC   C3B  960   4.428   1.583   6.627
   49POPC   C4B  961   4.542   1.751   6.233
   50POPC   NC3  962   6.376   7.314   8.003
   50POPC   PO4  963   6.866   7.096   8.418
   50POPC   GL1  964   6.808   7.164   7.794
   50POPC   GL2  965   7.030   7.393   7.648
   50POPC   C1A  966   6.621   7.263   7.333
   50POPC   D2A  967   6.361   7.288   6.927
   50POPC   C3A  968   6.510   7.384   6.502
   50POPC   C4A  969   6.726   7.145   6.167
   50POPC   C1B  970   7.035   7.517   7.235
   50POPC   C2B  971   6.894   7.353   6.864
   50POPC   C3B  972   7.001   7.492   6.467
   50POPC   C4B  973   6.858   7.613   6.037
   51POPC   NC3  974   9.643   2.639   8.140
   51POPC   PO4  975   9.066   3.040   8.149
   51POPC   GL1  976   9.381   2.923   7.773
   51POPC   GL2  977   9.603   2.625   7.655
   51POPC   C1A  978   9.346   2.853   7.303
   51POPC   D2A  979   9.395   3.098   6.959
   51POPC   C3A  980   9.491   2.900   6.580
   51POPC   C4A  981   9.286   2.936   6.216
   51POPC   C1B  982   9.859   2.607   7.286
   51POPC   C2B  983   9.899   2.843   6.917
   51POPC   C3B  984   0.023   2.883   6.488
   51POPC   C4B  985   9.759   2.788   6.129
   52POPC   NC3  986   6.685   1.847   8.324
   52POPC   PO4  987   7.093   1.375   8.153
   52POPC   GL1  988   6.811   1.568   7.891
   52POPC   GL2  989   6.763   1.943   7.823
   52POPC   C1A  990   6.761   1.563   7.454
   52POPC   D2A  991   6.509   1.412   7.123
   52POPC   C3A  992   6.638   1.569   6.721
   52POPC   C4A  993   6.839   1.806   6.377
   52POPC   C1B  994   6.481   2.108   7.482
   52POPC   C2B  995   6.395   1.998   7.028
   52POPC   C3B  996   6.317   1.962   6.561
   52POPC   C4B  997   6.492   2.053   6.108
   53POPC   NC3  998   0.136   3.483   7.928
   53POPC   PO4  999   9.921   3.187   8.528
   53POPC   GL1 1000   9.811   3.109   8.009
   53POPC   GL2 1001   9.607   3.403   7.819
   53POPC   C1A 1002   9.825   3.084   7.495
   53POPC   D2A 1003   0.013   3.329   7.113
   53POPC   C3A 1004   9.795   3.308   6.719
   53POPC   C4A 1005   9.729   3.276   6.290
   53POPC   C1B 1006   9.688   3.640   7.378
   53POPC   C2B 1007   9.811   3.779   6.900
   53POPC   C3B 1008   9.555   3.721   6.495
   53POPC   C4B 1009   9.253   3.427   6.226
   54POPC   NC3 1010   7.003   8.753   8.468
   54POPC   PO4 1011   6.434   9.015   8.334
   54POPC   GL1 1012   6.445   8.929   7.860
   54POPC   GL2 1013   6.754   8.702   7.787
   54POPC   C1A 1014   6.337   9.057   7.396
   54POPC   D2A 1015   6.514   9.140   6.950
   54POPC   C3A 1016   6.259   9.116   6.581
   54POPC   C4A 1017   6.299   8.788   6.288
   54POPC   C1B 1018   6.848   9.105   7.560
   54POPC   C2B 1019   7.112   9.240   7.175
   54POPC   C3B 1020   7.098   9.173   6.710
   54POPC   C4B 1021   6.736   9.023   6.435
   55POPC   NC3 1022   9.652   0.346   7.830
   55POPC   PO4 1023   9.259   0.730   8.249
   55POPC   GL1 1024   9.508   0.824   7.802
   55POPC   GL2 1025   9.883   0.811   7.703
   55POPC   C1A 1026   9.486   0.746   7.319
   55POPC   D2A 1027   9.585   0.559   6.902
   55POPC   C3A 1028   9.351   0.735   6.558
   55POPC   C4A 1029   9.195   0.645   6.148
   55POPC   C1B 1030   9.957   0.553   7.293
   55POPC   C2B 1031   9.972   0.214   6.950
   55POPC   C3B 1032   9.952   0.399   6.546
   55POPC   C4B 1033   9.602   0.345   6.313
   56POPC   NC3 1034   0.092   5.801   7.979
   56POPC   PO4 1035   9.556   6.164   7.775
   56POPC   GL1 1036   9.985   6.067   7.541
   56POPC   GL2 1037   0.134   5.740   7.474
   56POPC   C1A 1038   0.096   6.149   7.103
   56POPC   D2A 1039   0.039   5.915   6.721
   56POPC   C3A 1040   9.697   6.039   6.477
   56POPC   C4A 1041   9.718   5.965   6.073
   56POPC   C1B 1042   9.780   5.755   7.177
   56POPC   C2B 1043   9.603   5.601   6.778
   56POPC   C3B 1044   9.605   5.534   6.329
   56POPC   C4B 1045   9.362   5.620   5.920
   57POPC   NC3 1046   8.161   9.575   8.136
   57POPC   PO4 1047   8.650   0.004   7.985
   57POPC   GL1 1048   8.278   9.827   7.679
   57POPC   GL2 1049   8.264   9.418   7.656
   57POPC   C1A 1050   7.909   9.958   7.358
   57POPC   D2A 1051   7.697   9.959   6.919
   57POPC   C3A 1052   7.832   9.932   6.458
   57POPC   C4A 1053   8.148   9.847   6.134
   57POPC   C1B 1054   8.018   9.460   7.253
   57POPC   C2B 1055   8.023   9.561   6.785
   57POPC   C3B 1056   7.941   9.428   6.352
   57POPC   C4B 1057   8.084   9.376   5.890
   58POPC   NC3 1058   3.790   7.525   8.281
   58POPC   PO4 1059   3.680   6.972   8.104
   58POPC   GL1 1060   3.641   7.360   7.802
   58POPC   GL2 1061   3.313   7.495   7.811
   58POPC   C1A 1062   3.622   7.514   7.327
   58POPC   D2A 1063   3.607   7.579   6.841
   58POPC   C3A 1064   3.388   7.237   6.582
   58POPC   C4A 1065   3.412   7.043   6.141
   58POPC   C1B 1066   3.110   7.539   7.380
   58POPC   C2B 1067   3.095   7.624   6.919
   58POPC   C3B 1068   3.248   7.725   6.479
   58POPC   C4B 1069   3.566   7.568   6.167
   59POPC   NC3 1070   8.793   2.235   7.885
   59POPC   PO4 1071   9.000   1.644   7.945
   59POPC   GL1 1072   8.986   1.599   7.528
   59POPC   GL2 1073   8.725   1.833   7.517
   59POPC   C1A 1074   9.284   1.638   7.159
   59POPC   D2A 1075   9.477   1.952   6.867
   59POPC   C3A 1076   9.197   1.990   6.496
   59POPC   C4A 1077   9.033   1.687   6.229
   59POPC   C1B 1078   9.021   2.072   7.284
   59POPC   C2B 1079   8.969   2.228   6.887
   59POPC   C3B 1080   8.687   1.986   6.637
   59POPC   C4B 1081   8.545   1.780   6.280
   60POPC   NC3 1082   6.726   1.053   8.171
   60POPC   PO4 1083   6.097   0.767   8.229
   60POPC   GL1 1084   6.338   0.873   7.834
   60POPC   GL2 1085   6.575   1.126   7.690
   60POPC   C1A 1086   6.241   0.819   7.375
   60POPC   D2A 1087   6.356   0.929   6.949
   60POPC   C3A 1088   6.057   0.919   6.617
   60POPC   C4A 1089   6.232   0.970   6.202
   60POPC   C1B 1090   6.747   0.951   7.301
   60POPC   C2B 1091   6.827   1.092   6.876
   60POPC   C3B 1092   6.624   1.057   6.505
   60POPC   C4B 1093   6.536   1.400   6.234
   61POPC   NC3 1094   0.936   4.084   7.940
   61POPC   PO4 1095   0.995   4.676   8.170
   61POPC   GL1 1096   1.015   4.515   7.702
   61POPC   GL2 1097   1.209   4.238   7.544
   61POPC   C1A 1098   0.878   4.455   7.210
   61POPC   D2A 1099   0.827   4.644   6.778
   61POPC   C3A 1100   0.889   4.495   6.346
   61POPC   C4A 1101   1.085   4.423   5.928
   61POPC   C1B 1102   1.238   4.086   7.137
   61POPC   C2B 1103   1.137   4.224   6.722
   61POPC   C3B 1104   1.358   4.248   6.341
   61POPC   C4B 1105   1.384   4.001   5.949
   62POPC   NC3 1106   7.618   3.320   8.214
   62POPC   PO4 1107   7.129   3.777   8.040
   62POPC   GL1 1108   7.455   3.576   7.794
   62POPC   GL2 1109   7.230   3.303   7.725
   62POPC   C1A 1110   7.676   3.368   7.435
   62POPC   D2A 1111   7.604   3.127   7.047
   62POPC   C3A 1112   7.646   3.300   6.620
   62POPC   C4A 1113   7.536   3.276   6.214
   62POPC   C1B 1114   7.188   3.520   7.335
   62POPC   C2B 1115   7.335   3.560   6.922
   62POPC   C3B 1116   7.141   3.413   6.537
   62POPC   C4B 1117   7.103   3.499   6.093
   63POPC   NC3 1118   1.890   2.871   8.197
   63POPC   PO4 1119   2.459   3.257   8.227
   63POPC   GL1 1120   2.256   3.077   7.817
   63POPC   GL2 1121   2.129   2.737   7.757
   63POPC   C1A 1122   2.098   3.066   7.345
   63POPC   D2A 1123   2.040   3.194   6.908
   63POPC   C3A 1124   2.156   2.967   6.520
   63POPC   C4A 1125   2.065   2.939   6.068
   63POPC   C1B 1126   2.007   2.569   7.351
   63POPC   C2B 1127   1.876   2.714   6.934
   63POPC   C3B 1128   1.931   2.510   6.536
   63POPC   C4B 1129   1.739   2.565   6.121
   64POPC   NC3 1130   8.062   7.822   7.923
   64POPC   PO4 1131   8.268   8.396   8.276
   64POPC   GL1 1132   8.402   8.444   7.816
   64POPC   GL2 1133   8.334   8.116   7.624
   64POPC   C1A 1134   8.398   8.489   7.324
   64POPC   D2A 1135   8.395   8.163   7.027
   64POPC   C3A 1136   8.393   8.303   6.627
   64POPC   C4A 1137   8.409   8.153   6.228
   64POPC   C1B 1138   7.976   8.091   7.300
   64POPC   C2B 1139   7.917   7.838   6.894
   64POPC   C3B 1140   7.984   7.973   6.481
   64POPC   C4B 1141   8.036   7.867   6.057
   65POPC   NC3 1142   4.252   9.784   8.194
   65POPC   PO4 1143   4.762   9.290   8.223
   65POPC   GL1 1144   4.472   9.444   7.848
   65POPC   GL2 1145   4.399   9.797   7.719
   65POPC   C1A 1146   4.411   9.352   7.410
   65POPC   D2A 1147   4.455   9.631   7.028
   65POPC   C3A 1148   4.378   9.490   6.562
   65POPC   C4A 1149   4.637   9.322   6.229
   65POPC   C1B 1150   4.049   9.688   7.508
   65POPC   C2B 1151   3.945   9.819   7.095
   65POPC   C3B 1152   4.174   9.938   6.681
   65POPC   C4B 1153   4.085   9.805   6.220
   66POPC   NC3 1154   2.060   1.239   8.113
   66POPC   PO4 1155   1.563   0.822   8.125
   66POPC   GL1 1156   1.755   0.977   7.760
   66POPC   GL2 1157   2.115   0.979   7.627
   66POPC   C1A 1158   1.662   1.191   7.385
   66POPC   D2A 1159   1.753   1.079   6.977
   66POPC   C3A 1160   1.726   1.216   6.552
   66POPC   C4A 1161   1.990   1.094   6.207
   66POPC   C1B 1162   2.166   1.258   7.248
   66POPC   C2B 1163   2.145   1.369   6.799
   66POPC   C3B 1164   2.058   1.601   6.411
   66POPC   C4B 1165   1.953   1.595   5.965
   67POPC   NC3 1166   7.351   4.184   8.043
   67POPC   PO4 1167   7.502   4.773   7.983
   67POPC   GL1 1168   7.711   4.437   7.668
   67POPC   GL2 1169   7.773   4.036   7.744
   67POPC   C1A 1170   7.733   4.312   7.192
   67POPC   D2A 1171   7.690   4.100   6.764
   67POPC   C3A 1172   7.507   4.286   6.348
   67POPC   C4A 1173   7.169   4.471   6.100
   67POPC   C1B 1174   7.556   3.877   7.370
   67POPC   C2B 1175   7.261   4.049   7.055
   67POPC   C3B 1176   7.205   3.962   6.610
   67POPC   C4B 1177   7.520   3.760   6.389
   68POPC   NC3 1178   2.079   5.403   8.128
   68POPC   PO4 1179   2.260   4.773   8.234
   68POPC   GL1 1180   2.244   5.016   7.844
   68POPC   GL2 1181   1.907   5.070   7.752
   68POPC   C1A 1182   2.223   5.166   7.381
   68POPC   D2A 1183   2.052   5.378   7.018
   68POPC   C3A 1184   2.129   5.207   6.623
   68POPC   C4A 1185   2.198   4.943   6.272
   68POPC   C1B 1186   1.680   5.068   7.334
   68POPC   C2B 1187   1.603   5.160   6.880
   68POPC   C3B 1188   1.717   4.925   6.498
   68POPC   C4B 1189   1.542   4.675   6.133
   69POPC   NC3 1190   7.886   2.796   7.960
   69POPC   PO4 1191   8.408   2.449   7.984
   69POPC   GL1 1192   8.388   2.725   7.648
   69POPC   GL2 1193   8.206   3.033   7.626
   69POPC   C1A 1194   8.300   2.679   7.223
   69POPC   D2A 1195   8.437   2.466   6.857
   69POPC   C3A 1196   8.141   2.574   6.529
   69POPC   C4A 1197   7.902   2.517   6.164
   69POPC   C1B 1198   8.124   3.193   7.210
   69POPC   C2B 1199   8.039   3.038   6.782
   69POPC   C3B 1200   8.002   3.041   6.328
   69POPC   C4B 1201   8.290   2.857   6.093
   70POPC   NC3 1202   1.149   7.331   8.106
   70POPC   PO4 1203   1.692   6.811   8.158
   70POPC   GL1 1204   1.567   7.094   7.733
   70POPC   GL2 1205   1.284   7.353   7.639
   70POPC   C1A 1206   1.521   7.281   7.229
   70POPC   D2A 1207   1.242   7.146   6.898
   70POPC   C3A 1208   1.386   7.262   6.468
   70POPC   C4A 1209   1.758   7.271   6.212
   70POPC   C1B 1210   1.028   7.502   7.260
   70POPC   C2B 1211   0.941   7.525   6.802
   70POPC   C3B 1212   0.863   7.235   6.442
   70POPC   C4B 1213   0.974   7.328   5.992
   71POPC   NC3 1214   0.675   9.659   8.194
   71POPC   PO4 1215   1.271   9.261   8.136
   71POPC   GL1 1216   1.324   9.428   7.716
   71POPC   GL2 1217   1.010   9.619   7.737
   71POPC   C1A 1218   1.254   9.359   7.252
   71POPC   D2A 1219   0.956   9.136   6.939
   71POPC   C3A 1220   0.944   9.250   6.485
   71POPC   C4A 1221   0.917   9.290   6.023
   71POPC   C1B 1222   1.283   9.858   7.455
   71POPC   C2B 1223   1.344   9.929   7.016
   71POPC   C3B 1224   1.027   9.971   6.691
   71POPC   C4B 1225   0.866   9.876   6.304
   72POPC   NC3 1226   6.733   6.804   8.110
   72POPC   PO4 1227   6.214   6.960   7.751
   72POPC   GL1 1228   6.550   6.792   7.499
   72POPC   GL2 1229   6.829   6.618   7.641
   72POPC   C1A 1230   6.553   6.814   7.036
   72POPC   D2A 1231   6.698   6.921   6.642
   72POPC   C3A 1232   6.509   6.704   6.286
   72POPC   C4A 1233   6.422   6.878   5.833
   72POPC   C1B 1234   6.772   6.395   7.215
   72POPC   C2B 1235   6.611   6.339   6.754
   72POPC   C3B 1236   6.645   6.191   6.294
   72POPC   C4B 1237   6.705   6.472   5.894
   73POPC   NC3 1238   7.543   6.317   7.929
   73POPC   PO4 1239   7.184   6.871   7.978
   73POPC   GL1 1240   7.281   6.853   7.600
   73POPC   GL2 1241   7.642   6.762   7.615
   73POPC   C1A 1242   7.016   6.900   7.231
   73POPC   D2A 1243   7.090   6.625   6.866
   73POPC   C3A 1244   6.973   6.540   6.443
   73POPC   C4A 1245   7.084   6.729   6.089
   73POPC   C1B 1246   7.648   6.753   7.158
   73POPC   C2B 1247   7.742   6.828   6.713
   73POPC   C3B 1248   7.469   6.583   6.459
   73POPC   C4B 1249   7.533   6.136   6.293
   74POPC   NC3 1250   6.193   2.645   8.019
   74POPC   PO4 1251   6.699   2.293   8.202
   74POPC   GL1 1252   6.783   2.543   7.841
   74POPC   GL2 1253   6.818   2.917   7.852
   74POPC   C1A 1254   6.603   2.639   7.451
   74POPC   D2A 1255   6.333   2.555   7.119
   74POPC   C3A 1256   6.494   2.417   6.735
   74POPC   C4A 1257   6.294   2.440   6.344
   74POPC   C1B 1258   6.896   3.061   7.403
   74POPC   C2B 1259   6.803   2.839   7.007
   74POPC   C3B 1260   6.722   2.832   6.564
   74POPC   C4B 1261   6.819   2.522   6.275
   75POPC   NC3 1262   3.546   0.535   8.154
   75POPC   PO4 1263   3.901   1.094   8.188
   75POPC   GL1 1264   3.849   0.847   7.804
   75POPC   GL2 1265   3.764   0.493   7.707
   75POPC   C1A 1266   3.906   0.808   7.347
   75POPC   D2A 1267   3.586   0.826   7.026
   75POPC   C3A 1268   3.600   0.548   6.677
   75POPC   C4A 1269   3.740   0.647   6.263
   75POPC   C1B 1270   3.425   0.451   7.411
   75POPC   C2B 1271   3.206   0.451   7.016
   75POPC   C3B 1272   3.207   0.212   6.644
   75POPC   C4B 1273   3.254   0.471   6.280
   76POPC   NC3 1274   2.490   2.071   8.223
   76POPC   PO4 1275   3.054   2.482   8.285
   76POPC   GL1 1276   3.020   2.327   7.823
   76POPC   GL2 1277   2.822   2.016   7.813
   76POPC   C1A 1278   2.968   2.192   7.351
   76POPC   D2A 1279   2.711   2.089   6.932
   76POPC   C3A 1280   2.834   2.113   6.461
   76POPC   C4A 1281   2.918   2.065   5.979
   76POPC   C1B 1282   2.663   1.802   7.427
   76POPC   C2B 1283   2.494   1.640   7.048
   76POPC   C3B 1284   2.550   1.639   6.587
   76POPC   C4B 1285   2.834   1.641   6.219
   77POPC   NC3 1286   1.441   4.670   8.014
   77POPC   PO4 1287   1.514   5.280   7.971
   77POPC   GL1 1288   1.166   5.032   7.785
   77POPC   GL2 1289   0.983   5.361   7.803
   77POPC   C1A 1290   1.260   4.765   7.353
   77POPC   D2A 1291   1.395   4.631   6.911
   77POPC   C3A 1292   1.232   4.809   6.513
   77POPC   C4A 1293   1.100   4.921   6.075
   77POPC   C1B 1294   1.099   5.242   7.345
   77POPC   C2B 1295   1.094   5.059   6.936
   77POPC   C3B 1296   1.067   5.290   6.530
   77POPC   C4B 1297   1.329   5.384   6.171
   78POPC   NC3 1298   8.054   0.872   8.134
   78POPC   PO4 1299   8.023   1.547   8.229
   78POPC   GL1 1300   8.197   1.260   7.834
   78POPC   GL2 1301   8.481   1.424   7.703
   78POPC   C1A 1302   8.140   1.079   7.368
   78POPC   D2A 1303   8.301   1.145   6.913
   78POPC   C3A 1304   8.149   0.881   6.539
   78POPC   C4A 1305   7.918   0.982   6.131
   78POPC   C1B 1306   8.263   1.568   7.319
   78POPC   C2B 1307   7.881   1.452   7.041
   78POPC   C3B 1308   7.870   1.323   6.599
   78POPC   C4B 1309   8.242   1.340   6.305
   79POPC   NC3 1310   1.941   0.570   8.045
   79POPC   PO4 1311   1.956   9.927   8.085
   79POPC   GL1 1312   1.659   0.064   7.755
   79POPC   GL2 1313   1.581   0.446   7.711
   79POPC   C1A 1314   1.755   0.129   7.318
   79POPC   D2A 1315   2.125   0.238   7.037
   79POPC   C3A 1316   1.997   0.203   6.602
   79POPC   C4A 1317   2.062   0.200   6.170
   79POPC   C1B 1318   1.813   0.665   7.345
   79POPC   C2B 1319   2.141   0.775   7.016
   79POPC   C3B 1320   2.014   0.747   6.578
   79POPC   C4B 1321   1.719   0.552   6.267
   80POPC   NC3 1322   5.151   9.607   8.330
   80POPC   PO4 1323   4.639   0.084   8.223
   80POPC   GL1 1324   4.847   9.784   7.950
   80POPC   GL2 1325   5.103   9.963   7.847
   80POPC   C1A 1326   4.830   9.666   7.475
   80POPC   D2A 1327   4.997   9.729   7.033
   80POPC   C3A 1328   4.760   9.815   6.652
   80POPC   C4A 1329   4.611   9.854   6.226
   80POPC   C1B 1330   5.296   9.563   7.657
   80POPC   C2B 1331   5.325   9.388   7.222
   80POPC   C3B 1332   5.307   9.439   6.739
   80POPC   C4B 1333   5.077   9.556   6.333
   81POPC   NC3 1334   1.056   8.835   8.134
   81POPC   PO4 1335   1.595   8.395   8.108
   81POPC   GL1 1336   1.550   8.841   7.856
   81POPC   GL2 1337   1.214   8.938   7.671
   81POPC   C1A 1338   1.631   9.053   7.429
   81POPC   D2A 1339   1.360   8.834   7.103
   81POPC   C3A 1340   1.292   8.819   6.631
   81POPC   C4A 1341   1.358   9.043   6.205
   81POPC   C1B 1342   1.050   8.590   7.440
   81POPC   C2B 1343   0.897   8.547   7.025
   81POPC   C3B 1344   0.749   8.743   6.658
   81POPC   C4B 1345   0.936   8.747   6.262
   82POPC   NC3 1346   9.528   8.904   8.224
   82POPC   PO4 1347   9.972   8.454   8.181
   82POPC   GL1 1348   9.836   8.688   7.833
   82POPC   GL2 1349   9.524   8.520   7.847
   82POPC   C1A 1350   9.995   8.869   7.409
   82POPC   D2A 1351   9.971   9.193   7.040
   82POPC   C3A 1352   9.865   9.002   6.617
   82POPC   C4A 1353   9.863   8.746   6.177
   82POPC   C1B 1354   9.513   8.645   7.406
   82POPC   C2B 1355   9.675   8.686   6.986
   82POPC   C3B 1356   9.498   8.667   6.524
   82POPC   C4B 1357   9.479   9.080   6.219
   83POPC   NC3 1358   2.510   5.619   7.949
   83POPC   PO4 1359   1.931   5.732   8.398
   83POPC   GL1 1360   1.834   5.761   7.859
   83POPC   GL2 1361   2.089   5.570   7.657
   83POPC   C1A 1362   1.957   6.006   7.451
   83POPC   D2A 1363   2.203   6.111   7.053
   83POPC   C3A 1364   2.134   5.857   6.656
   83POPC   C4A 1365   1.771   5.990   6.404
   83POPC   C1B 1366   1.735   5.572   7.358
   83POPC   C2B 1367   1.704   5.746   6.910
   83POPC   C3B 1368   1.744   5.496   6.489
   83POPC   C4B 1369   2.102   5.459   6.187
   84POPC   NC3 1370   7.462   5.228   8.002
   84POPC   PO4 1371   7.549   5.861   7.893
   84POPC   GL1 1372   7.765   5.458   7.621
   84POPC   GL2 1373   7.779   5.051   7.634
   84POPC   C1A 1374   7.715   5.265   7.174
   84POPC   D2A 1375   7.741   4.960   6.815
   84POPC   C3A 1376   7.829   5.150   6.405
   84POPC   C4A 1377   7.665   5.301   6.025
   84POPC   C1B 1378   7.573   4.792   7.315
   84POPC   C2B 1379   7.384   4.593   6.950
   84POPC   C3B 1380   7.319   4.722   6.544
   84POPC   C4B 1381   7.494   4.840   6.169
   85POPC   NC3 1382   1.262   6.670   8.275
   85POPC   PO4 1383   0.744   7.076   7.997
   85POPC   GL1 1384   1.106   6.893   7.787
   85POPC   GL2 1385   1.356   6.614   7.793
   85POPC   C1A 1386   1.282   6.851   7.350
   85POPC   D2A 1387   1.205   6.595   6.985
   85POPC   C3A 1388   1.274   6.761   6.560
   85POPC   C4A 1389   1.117   6.583   6.190
   85POPC   C1B 1390   1.585   6.428   7.471
   85POPC   C2B 1391   1.697   6.270   7.078
   85POPC   C3B 1392   1.589   6.376   6.698
   85POPC   C4B 1393   1.608   6.488   6.290
   86POPC   NC3 1394   0.319   8.731   8.052
   86POPC   PO4 1395   0.316   9.349   8.095
   86POPC   GL1 1396   0.727   9.185   7.886
   86POPC   GL2 1397   0.707   8.833   7.734
   86POPC   C1A 1398   0.796   9.238   7.433
   86POPC   D2A 1399   0.485   9.293   7.079
   86POPC   C3A 1400   0.428   9.160   6.654
   86POPC   C4A 1401   0.538   9.044   6.240
   86POPC   C1B 1402   0.527   8.812   7.301
   86POPC   C2B 1403   0.237   8.772   6.939
   86POPC   C3B 1404   0.268   8.690   6.489
   86POPC   C4B 1405   0.437   8.564   6.103
   87POPC   NC3 1406   0.474   7.422   8.153
   87POPC   PO4 1407   9.925   7.025   8.132
   87POPC   GL1 1408   0.073   7.194   7.772
   87POPC   GL2 1409   9.984   7.535   7.755
   87POPC   C1A 1410   0.119   6.997   7.345
   87POPC   D2A 1411   0.143   6.797   6.933
   87POPC   C3A 1412   0.332   6.989   6.561
   87POPC   C4A 1413   0.387   7.277   6.222
   87POPC   C1B 1414   0.358   7.434   7.429
   87POPC   C2B 1415   0.433   7.338   6.964
   87POPC   C3B 1416   0.502   7.605   6.588
   87POPC   C4B 1417   0.806   7.755   6.288
   88POPC   NC3 1418   8.238   0.272   7.971
   88POPC   PO4 1419   7.657   0.622   8.126
   88POPC   GL1 1420   7.841   0.725   7.713
   88POPC   GL2 1421   8.195   0.664   7.645
   88POPC   C1A 1422   7.825   0.528   7.336
   88POPC   D2A 1423   8.082   0.567   6.958
   88POPC   C3A 1424   7.909   0.413   6.594
   88POPC   C4A 1425   7.722   0.514   6.195
   88POPC   C1B 1426   8.294   0.312   7.342
   88POPC   C2B 1427   8.219   0.045   6.959
   88POPC   C3B 1428   8.340   0.086   6.533
   88POPC   C4B 1429   8.229   0.385   6.199
   89POPC   NC3 1430   5.041   1.028   8.108
   89POPC   PO4 1431   5.451   1.543   8.207
   89POPC   GL1 1432   5.402   1.490   7.737
   89POPC   GL2 1433   5.077   1.380   7.754
   89POPC   C1A 1434   5.180   1.488   7.275
   89POPC   D2A 1435   4.835   1.514   6.951
   89POPC   C3A 1436   4.962   1.562   6.497
   89POPC   C4A 1437   5.393   1.493   6.374
   89POPC   C1B 1438   5.102   1.011   7.470
   89POPC   C2B 1439   4.900   1.001   7.095
   89POPC   C3B 1440   5.061   1.118   6.706
   89POPC   C4B 1441   5.095   1.100   6.265
   90POPC   NC3 1442   5.325   7.924   8.149
   90POPC   PO4 1443   4.878   8.441   8.270
   90POPC   GL1 1444   4.795   8.270   7.854
   90POPC   GL2 1445   5.142   8.248   7.788
   90POPC   C1A 1446   4.847   8.344   7.389
   90POPC   D2A 1447   5.135   8.376   7.022
   90POPC   C3A 1448   4.951   8.480   6.634
   90POPC   C4A 1449   4.760   8.290   6.270
   90POPC   C1B 1450   5.227   7.977   7.431
   90POPC   C2B 1451   5.062   7.862   7.028
   90POPC   C3B 1452   4.940   7.959   6.642
   90POPC   C4B 1453   5.255   8.122   6.397
   91POPC   NC3 1454   9.661   7.467   8.218
   91POPC   PO4 1455   9.228   7.032   8.121
   91POPC   GL1 1456   9.514   7.205   7.815
   91POPC   GL2 1457   9.423   7.537   7.752
   91POPC   C1A 1458   9.657   7.210   7.398
   91POPC   D2A 1459   9.608   6.952   7.026
   91POPC   C3A 1460   9.563   7.168   6.632
   91POPC   C4A 1461   9.855   7.122   6.271
   91POPC   C1B 1462   9.668   7.728   7.387
   91POPC   C2B 1463   9.963   7.554   7.083
   91POPC   C3B 1464   0.005   7.448   6.633
   91POPC   C4B 1465   9.697   7.607   6.293
   92POPC   NC3 1466   7.881   1.824   7.891
   92POPC   PO4 1467   7.611   2.420   7.970
   92POPC   GL1 1468   7.989   2.379   7.642
   92POPC   GL2 1469   8.361   2.213   7.540
   92POPC   C1A 1470   8.002   2.255   7.201
   92POPC   D2A 1471   7.867   1.982   6.899
   92POPC   C3A 1472   7.739   2.204   6.538
   92POPC   C4A 1473   7.678   2.033   6.150
   92POPC   C1B 1474   8.465   2.008   7.115
   92POPC   C2B 1475   8.291   1.678   6.800
   92POPC   C3B 1476   8.039   1.784   6.448
   92POPC   C4B 1477   8.194   2.133   6.259
   93POPC   NC3 1478   1.261   8.038   8.143
   93POPC   PO4 1479   0.709   8.492   8.131
   93POPC   GL1 1480   0.912   8.196   7.761
   93POPC   GL2 1481   1.068   7.827   7.722
   93POPC   C1A 1482   1.012   8.092   7.292
   93POPC   D2A 1483   0.863   8.029   6.868
   93POPC   C3A 1484   1.033   8.309   6.573
   93POPC   C4A 1485   1.328   8.269   6.267
   93POPC   C1B 1486   1.424   7.795   7.409
   93POPC   C2B 1487   1.368   7.793   6.952
   93POPC   C3B 1488   1.316   7.788   6.488
   93POPC   C4B 1489   1.621   7.865   6.138
   94POPC   NC3 1490   0.795   2.127   8.208
   94POPC   PO4 1491   1.392   1.803   8.215
   94POPC   GL1 1492   1.121   1.890   7.846
   94POPC   GL2 1493   1.150   2.265   7.822
   94POPC   C1A 1494   1.117   1.807   7.358
   94POPC   D2A 1495   0.944   1.707   6.905
   94POPC   C3A 1496   1.144   1.809   6.478
   94POPC   C4A 1497   1.001   1.925   6.036
   94POPC   C1B 1498   1.193   2.322   7.375
   94POPC   C2B 1499   1.131   2.184   6.949
   94POPC   C3B 1500   1.064   2.301   6.520
   94POPC   C4B 1501   1.359   2.246   6.189
   95POPC   NC3 1502   8.298   3.864   8.078
   95POPC   PO4 1503   8.056   3.219   8.084
   95POPC   GL1 1504   8.026   3.530   7.784
   95POPC   GL2 1505   8.386   3.516   7.723
   95POPC   C1A 1506   8.061   3.711   7.371
   95POPC   D2A 1507   7.842   3.618   6.996
   95POPC   C3A 1508   8.004   3.675   6.598
   95POPC   C4A 1509   7.954   3.542   6.199
   95POPC   C1B 1510   8.553   3.537   7.318
   95POPC   C2B 1511   8.407   3.530   6.884
   95POPC   C3B 1512   8.386   3.329   6.467
   95POPC   C4B 1513   8.372   3.358   5.989
   96POPC   NC3 1514   8.210   8.868   8.166
   96POPC   PO4 1515   7.900   8.258   7.916
   96POPC   GL1 1516   7.960   8.565   7.584
   96POPC   GL2 1517   8.012   8.903   7.699
   96POPC   C1A 1518   7.793   8.592   7.178
   96POPC   D2A 1519   7.918   8.342   6.838
   96POPC   C3A 1520   7.946   8.525   6.440
   96POPC   C4A 1521   7.639   8.670   6.129
   96POPC   C1B 1522   8.169   8.953   7.295
   96POPC   C2B 1523   8.225   8.753   6.897
   96POPC   C3B 1524   8.221   9.019   6.551
   96POPC   C4B 1525   8.032   8.967   6.182
   97POPC   NC3 1526   3.420   8.184   8.303
   97POPC   PO4 1527   3.349   7.567   8.387
   97POPC   GL1 1528   3.625   7.869   7.970
   97POPC   GL2 1529   3.522   8.224   7.816
   97POPC   C1A 1530   3.831   7.909   7.558
   97POPC   D2A 1531   3.691   8.001   7.127
   97POPC   C3A 1532   3.811   8.113   6.713
   97POPC   C4A 1533   3.633   8.045   6.339
   97POPC   C1B 1534   3.330   8.019   7.463
   97POPC   C2B 1535   3.184   8.106   7.060
   97POPC   C3B 1536   3.279   8.231   6.648
   97POPC   C4B 1537   3.244   8.375   6.214
   98POPC   NC3 1538   2.313   9.642   8.066
   98POPC   PO4 1539   2.938   9.958   8.160
   98POPC   GL1 1540   2.948   9.600   7.817
   98POPC   GL2 1541   2.613   9.520   7.668
   98POPC   C1A 1542   3.110   9.602   7.373
   98POPC   D2A 1543   2.841   9.638   6.981
   98POPC   C3A 1544   2.827   9.843   6.571
   98POPC   C4A 1545   2.504   9.967   6.281
   98POPC   C1B 1546   2.738   9.241   7.334
   98POPC   C2B 1547   2.926   9.133   6.932
   98POPC   C3B 1548   2.906   9.337   6.542
   98POPC   C4B 1549   2.586   9.467   6.252
   99POPC   NC3 1550   3.273   9.625   8.211
   99POPC   PO4 1551   3.956   9.365   8.148
   99POPC   GL1 1552   3.720   9.653   7.901
   99POPC   GL2 1553   3.462   9.461   7.761
   99POPC   C1A 1554   3.594   9.932   7.520
   99POPC   D2A 1555   3.408   9.972   7.091
   99POPC   C3A 1556   3.674   0.032   6.717
   99POPC   C4A 1557   3.648   0.158   6.298
   99POPC   C1B 1558   3.643   9.419   7.370
   99POPC   C2B 1559   3.421   9.454   6.979
   99POPC   C3B 1560   3.309   9.668   6.620
   99POPC   C4B 1561   3.555   9.680   6.254
  100POPC   NC3 1562   8.859   4.422   8.146
  100POPC   PO4 1563   9.489   4.606   8.292
  100POPC   GL1 1564   9.291   4.421   7.840
  100POPC   GL2 1565   8.982   4.232   7.694
  100POPC   C1A 1566   9.330   4.329   7.347
  100POPC   D2A 1567   9.375   4.120   6.918
  100POPC   C3A 1568   9.149   4.273   6.532
  100POPC   C4A 1569   9.197   4.371   6.054
  100POPC   C1B 1570   8.670   4.040   7.415
  100POPC   C2B 1571   8.744   3.905   7.010
  100POPC   C3B 1572   8.623   4.033   6.618
  100POPC   C4B 1573   8.754   4.152   6.217
  101POPC   NC3 1574   7.547   1.518   8.225
  101POPC   PO4 1575   7.150   2.010   8.381
  101POPC   GL1 1576   7.265   1.869   7.926
  101POPC   GL2 1577   7.215   2.192   7.741
  101POPC   C1A 1578   7.244   1.790   7.428
  101POPC   D2A 1579   7.147   1.728   6.949
  101POPC   C3A 1580   7.491   1.722   6.616
  101POPC   C4A 1581   7.323   1.676   6.209
  101POPC   C1B 1582   7.490   2.264   7.349
  101POPC   C2B 1583   7.390   2.193   6.916
  101POPC   C3B 1584   7.219   2.141   6.502
  101POPC   C4B 1585   7.351   2.436   6.230
  102POPC   NC3 1586   1.150   0.621   8.142
  102POPC   PO4 1587   0.961   0.025   8.078
  102POPC   GL1 1588   1.088   0.276   7.738
  102POPC   GL2 1589   0.911   0.586   7.683
  102POPC   C1A 1590   1.252   0.355   7.325
  102POPC   D2A 1591   1.157   0.415   6.904
  102POPC   C3A 1592   1.427   0.278   6.591
  102POPC   C4A 1593   1.334   0.125   6.182
  102POPC   C1B 1594   0.817   0.878   7.356
  102POPC   C2B 1595   0.765   0.727   6.944
  102POPC   C3B 1596   0.983   0.815   6.611
  102POPC   C4B 1597   0.894   0.872   6.201
  103POPC   NC3 1598   1.793   2.071   8.224
  103POPC   PO4 1599   2.294   1.640   8.167
  103POPC   GL1 1600   2.303   1.915   7.770
  103POPC   GL2 1601   2.077   2.196   7.768
  103POPC   C1A 1602   2.209   2.023   7.309
  103POPC   D2A 1603   2.034   1.922   6.897
  103POPC   C3A 1604   2.258   2.073   6.555
  103POPC   C4A 1605   2.424   1.937   6.184
  103POPC   C1B 1606   1.696   2.197   7.511
  103POPC   C2B 1607   1.636   2.277   7.066
  103POPC   C3B 1608   1.588   2.139   6.631
  103POPC   C4B 1609   1.843   2.053   6.231
  104POPC   NC3 1610   7.773   8.038   8.309
  104POPC   PO4 1611   7.223   8.471   8.178
  104POPC   GL1 1612   7.323   8.152   7.841
  104POPC   GL2 1613   7.500   8.331   7.562
  104POPC   C1A 1614   7.329   7.875   7.451
  104POPC   D2A 1615   7.521   8.089   7.074
  104POPC   C3A 1616   7.474   7.949   6.605
  104POPC   C4A 1617   7.300   7.810   6.207
  104POPC   C1B 1618   7.083   8.303   7.362
  104POPC   C2B 1619   7.084   8.246   6.913
  104POPC   C3B 1620   7.444   8.442   6.634
  104POPC   C4B 1621   7.198   8.328   6.293
  105POPC   NC3 1622   3.076   7.234   8.208
  105POPC   PO4 1623   3.127   7.928   8.047
  105POPC   GL1 1624   2.819   7.600   7.795
  105POPC   GL2 1625   2.760   7.235   7.790
  105POPC   C1A 1626   2.553   7.540   7.411
  105POPC   D2A 1627   2.399   7.523   6.991
  105POPC   C3A 1628   2.673   7.559   6.639
  105POPC   C4A 1629   2.535   7.545   6.216
  105POPC   C1B 1630   2.793   7.104   7.331
  105POPC   C2B 1631   2.599   7.050   6.898
  105POPC   C3B 1632   2.713   7.102   6.436
  105POPC   C4B 1633   3.017   7.320   6.249
  106POPC   NC3 1634   3.124   5.416   7.991
  106POPC   PO4 1635   2.833   5.933   7.897
  106POPC   GL1 1636   2.475   5.953   7.598
  106POPC   GL2 1637   2.460   6.243   7.551
  106POPC   C1A 1638   2.394   5.695   7.241
  106POPC   D2A 1639   2.489   5.520   6.812
  106POPC   C3A 1640   2.544   5.646   6.394
  106POPC   C4A 1641   2.965   5.579   6.215
  106POPC   C1B 1642   2.719   6.165   7.215
  106POPC   C2B 1643   2.635   6.009   6.804
  106POPC   C3B 1644   2.540   6.189   6.413
  106POPC   C4B 1645   2.717   5.988   6.053
  107POPC   NC3 1646   0.613   4.442   8.331
  107POPC   PO4 1647   0.181   3.900   8.137
  107POPC   GL1 1648   0.403   4.033   7.775
  107POPC   GL2 1649   0.190   4.224   7.578
  107POPC   C1A 1650   0.638   4.028   7.367
  107POPC   D2A 1651   0.782   3.915   6.960
  107POPC   C3A 1652   0.633   4.154   6.630
  107POPC   C4A 1653   0.451   4.055   6.253
  107POPC   C1B 1654   0.350   4.472   7.260
  107POPC   C2B 1655   0.342   4.518   6.847
  107POPC   C3B 1656   0.381   4.590   6.427
  107POPC   C4B 1657   0.081   4.573   6.105
  108POPC   NC3 1658   7.140   7.317   8.137
  108POPC   PO4 1659   7.737   7.553   8.194
  108POPC   GL1 1660   7.617   7.612   7.775
  108POPC   GL2 1661   7.525   7.298   7.702
  108POPC   C1A 1662   7.746   7.612   7.323
  108POPC   D2A 1663   7.452   7.586   6.949
  108POPC   C3A 1664   7.515   7.430   6.507
  108POPC   C4A 1665   7.695   7.483   6.068
  108POPC   C1B 1666   7.425   7.210   7.293
  108POPC   C2B 1667   7.340   7.088   6.884
  108POPC   C3B 1668   7.186   7.015   6.501
  108POPC   C4B 1669   7.232   7.211   6.119
  109POPC   NC3 1670   6.587   9.609   8.283
  109POPC   PO4 1671   6.218   9.839   7.810
  109POPC   GL1 1672   6.564   9.904   7.554
  109POPC   GL2 1673   6.710   9.625   7.734
  109POPC   C1A 1674   6.509   9.918   7.109
  109POPC   D2A 1675   6.600   0.086   6.752
  109POPC   C3A 1676   6.484   9.825   6.443
  109POPC   C4A 1677   6.300   9.820   6.026
  109POPC   C1B 1678   6.663   9.482   7.285
  109POPC   C2B 1679   6.814   9.591   6.836
  109POPC   C3B 1680   6.864   9.498   6.370
  109POPC   C4B 1681   6.465   9.372   6.190
  110POPC   NC3 1682   3.785   2.972   7.977
  110POPC   PO4 1683   4.311   2.739   8.201
  110POPC   GL1 1684   4.168   2.536   7.771
  110POPC   GL2 1685   3.878   2.640   7.591
  110POPC   C1A 1686   4.295   2.508   7.307
  110POPC   D2A 1687   4.467   2.347   6.904
  110POPC   C3A 1688   4.370   2.568   6.489
  110POPC   C4A 1689   4.448   2.952   6.238
  110POPC   C1B 1690   3.809   2.582   7.148
  110POPC   C2B 1691   3.904   2.616   6.720
  110POPC   C3B 1692   3.800   3.025   6.559
  110POPC   C4B 1693   3.331   3.232   6.631
  111POPC   NC3 1694   1.586   9.638   8.110
  111POPC   PO4 1695   2.190   9.200   8.114
  111POPC   GL1 1696   1.920   9.448   7.773
  111POPC   GL2 1697   2.100   9.753   7.616
  111POPC   C1A 1698   1.721   9.582   7.343
  111POPC   D2A 1699   1.850   9.794   6.922
  111POPC   C3A 1700   1.612   9.812   6.500
  111POPC   C4A 1701   1.718   9.834   6.016
  111POPC   C1B 1702   2.348   9.768   7.218
  111POPC   C2B 1703   2.345   9.806   6.757
  111POPC   C3B 1704   2.091   9.710   6.379
  111POPC   C4B 1705   2.152   9.529   5.969
  112POPC   NC3 1706   9.513   8.177   8.260
  112POPC   PO4 1707   0.049   7.749   8.251
  112POPC   GL1 1708   9.943   8.037   7.901
  112POPC   GL2 1709   9.616   7.999   7.812
  112POPC   C1A 1710   9.894   8.301   7.500
  112POPC   D2A 1711   9.893   8.145   7.065
  112POPC   C3A 1712   9.913   8.388   6.663
  112POPC   C4A 1713   9.887   8.223   6.228
  112POPC   C1B 1714   9.366   8.155   7.471
  112POPC   C2B 1715   9.360   8.213   7.027
  112POPC   C3B 1716   9.503   8.077   6.611
  112POPC   C4B 1717   9.340   8.161   6.195
  113POPC   NC3 1718   0.046   9.688   7.960
  113POPC   PO4 1719   0.453   0.037   8.367
  113POPC   GL1 1720   0.476   9.937   7.832
  113POPC   GL2 1721   0.490   9.606   7.684
  113POPC   C1A 1722   0.756   9.981   7.445
  113POPC   D2A 1723   0.871   9.678   7.116
  113POPC   C3A 1724   0.648   9.626   6.711
  113POPC   C4A 1725   0.468   9.564   6.291
  113POPC   C1B 1726   0.181   9.589   7.344
  113POPC   C2B 1727   0.204   9.736   6.927
  113POPC   C3B 1728   0.039   9.500   6.599
  113POPC   C4B 1729   0.085   9.226   6.229
  114POPC   NC3 1730   3.659   8.980   8.161
  114POPC   PO4 1731   3.137   8.543   8.332
  114POPC   GL1 1732   3.258   8.671   7.881
  114POPC   GL2 1733   3.423   8.950   7.716
  114POPC   C1A 1734   3.360   8.539   7.419
  114POPC   D2A 1735   3.568   8.473   7.000
  114POPC   C3A 1736   3.605   8.617   6.529
  114POPC   C4A 1737   3.466   8.813   6.121
  114POPC   C1B 1738   3.264   9.090   7.328
  114POPC   C2B 1739   3.392   8.945   6.919
  114POPC   C3B 1740   3.390   9.137   6.523
  114POPC   C4B 1741   3.740   9.215   6.279
  115POPC   NC3 1742   3.454   2.701   8.377
  115POPC   PO4 1743   3.444   3.280   8.054
  115POPC   GL1 1744   3.170   2.928   7.851
  115POPC   GL2 1745   3.399   2.670   7.779
  115POPC   C1A 1746   3.023   2.690   7.429
  115POPC   D2A 1747   2.830   2.596   7.011
  115POPC   C3A 1748   3.019   2.582   6.602
  115POPC   C4A 1749   2.974   2.539   6.141
  115POPC   C1B 1750   3.467   2.889   7.343
  115POPC   C2B 1751   3.426   2.807   6.853
  115POPC   C3B 1752   3.437   2.756   6.355
  115POPC   C4B 1753   3.742   2.929   6.025
  116POPC   NC3 1754   3.160   3.640   8.039
  116POPC   PO4 1755   2.655   4.093   8.046
  116POPC   GL1 1756   2.746   3.690   7.758
  116POPC   GL2 1757   2.750   3.305   7.831
  116POPC   C1A 1758   2.914   3.404   7.375
  116POPC   D2A 1759   2.942   3.164   6.977
  116POPC   C3A 1760   2.875   3.448   6.559
  116POPC   C4A 1761   3.113   3.475   6.129
  116POPC   C1B 1762   2.412   3.438   7.496
  116POPC   C2B 1763   2.478   3.414   7.043
  116POPC   C3B 1764   2.348   3.467   6.601
  116POPC   C4B 1765   2.460   3.281   6.212
  117POPC   NC3 1766   5.679   1.963   8.139
  117POPC   PO4 1767   6.267   1.543   8.149
  117POPC   GL1 1768   5.917   1.617   7.845
  117POPC   GL2 1769   6.013   1.972   7.748
  117POPC   C1A 1770   5.766   1.660   7.389
  117POPC   D2A 1771   5.938   1.781   6.955
  117POPC   C3A 1772   5.799   1.745   6.534
  117POPC   C4A 1773   6.110   1.681   6.195
  117POPC   C1B 1774   5.975   2.143   7.319
  117POPC   C2B 1775   5.969   2.301   6.877
  117POPC   C3B 1776   5.837   2.243   6.452
  117POPC   C4B 1777   5.714   2.410   6.053
  118POPC   NC3 1778   2.714   2.831   8.265
  118POPC   PO4 1779   2.144   2.419   8.212
  118POPC   GL1 1780   2.517   2.444   7.878
  118POPC   GL2 1781   2.669   2.756   7.777
  118POPC   C1A 1782   2.515   2.438   7.397
  118POPC   D2A 1783   2.298   2.400   6.960
  118POPC   C3A 1784   2.495   2.523   6.557
  118POPC   C4A 1785   2.541   2.782   6.165
  118POPC   C1B 1786   2.594   2.965   7.387
  118POPC   C2B 1787   2.436   2.899   6.976
  118POPC   C3B 1788   2.652   2.997   6.609
  118POPC   C4B 1789   2.988   3.015   6.316
  119POPC   NC3 1790   2.740   1.118   8.050
  119POPC   PO4 1791   3.130   1.664   8.039
  119POPC   GL1 1792   2.908   1.436   7.688
  119POPC   GL2 1793   2.501   1.397   7.702
  119POPC   C1A 1794   2.946   1.402   7.233
  119POPC   D2A 1795   2.987   1.594   6.837
  119POPC   C3A 1796   2.968   1.280   6.523
  119POPC   C4A 1797   2.913   0.846   6.397
  119POPC   C1B 1798   2.607   1.063   7.389
  119POPC   C2B 1799   2.609   1.151   6.907
  119POPC   C3B 1800   2.466   1.145   6.461
  119POPC   C4B 1801   2.405   1.386   6.086
  120POPC   NC3 1802   1.510   5.643   8.234
  120POPC   PO4 1803   1.214   6.212   8.174
  120POPC   GL1 1804   1.332   6.098   7.776
  120POPC   GL2 1805   1.334   5.740   7.770
  120POPC   C1A 1806   1.122   6.224   7.383
  120POPC   D2A 1807   1.229   6.071   6.964
  120POPC   C3A 1808   1.125   6.234   6.565
  120POPC   C4A 1809   1.329   6.098   6.165
  120POPC   C1B 1810   1.257   5.734   7.356
  120POPC   C2B 1811   1.249   5.550   6.954
  120POPC   C3B 1812   1.305   5.745   6.558
  120POPC   C4B 1813   0.946   5.784   6.320
  121POPC   NC3 1814   4.530   7.325   8.249
  121POPC   PO4 1815   5.136   7.495   8.095
  121POPC   GL1 1816   4.843   7.757   7.848
  121POPC   GL2 1817   4.533   7.563   7.791
  121POPC   C1A 1818   4.721   7.825   7.386
  121POPC   D2A 1819   4.605   7.644   6.931
  121POPC   C3A 1820   4.603   7.546   6.453
  121POPC   C4A 1821   4.640   7.414   5.989
  121POPC   C1B 1822   4.243   7.650   7.422
  121POPC   C2B 1823   4.152   7.849   7.005
  121POPC   C3B 1824   4.041   7.669   6.569
  121POPC   C4B 1825   3.871   7.238   6.421
  122POPC   NC3 1826   1.666   6.319   8.123
  122POPC   PO4 1827   2.229   5.974   8.056
  122POPC   GL1 1828   2.059   6.375   7.812
  122POPC   GL2 1829   2.028   6.776   7.766
  122POPC   C1A 1830   2.071   6.480   7.369
  122POPC   D2A 1831   2.087   6.621   6.965
  122POPC   C3A 1832   2.081   6.358   6.621
  122POPC   C4A 1833   2.129   6.446   6.207
  122POPC   C1B 1834   1.804   6.889   7.346
  122POPC   C2B 1835   1.653   6.858   6.907
  122POPC   C3B 1836   1.884   6.849   6.492
  122POPC   C4B 1837   1.849   6.809   5.996
  123POPC   NC3 1838   4.406   8.317   8.203
  123POPC   PO4 1839   4.229   7.674   8.241
  123POPC   GL1 1840   4.249   7.977   7.855
  123POPC   GL2 1841   4.041   8.270   7.846
  123POPC   C1A 1842   4.345   8.162   7.421
  123POPC   D2A 1843   4.586   8.167   6.987
  123POPC   C3A 1844   4.425   8.018   6.586
  123POPC   C4A 1845   4.441   7.910   6.131
  123POPC   C1B 1846   3.875   8.399   7.436
  123POPC   C2B 1847   4.079   8.384   7.053
  123POPC   C3B 1848   4.196   8.483   6.649
  123POPC   C4B 1849   4.098   8.287   6.295
  124POPC   NC3 1850   0.626   0.345   8.056
  124POPC   PO4 1851   9.988   0.131   8.053
  124POPC   GL1 1852   0.183   0.343   7.712
  124POPC   GL2 1853   0.389   0.675   7.715
  124POPC   C1A 1854   0.267   0.088   7.343
  124POPC   D2A 1855   0.575   0.132   6.974
  124POPC   C3A 1856   0.415   0.079   6.556
  124POPC   C4A 1857   0.041   9.944   6.344
  124POPC   C1B 1858   0.457   0.542   7.302
  124POPC   C2B 1859   0.280   0.604   6.882
  124POPC   C3B 1860   0.485   0.602   6.481
  124POPC   C4B 1861   0.870   0.378   6.378
  125POPC   NC3 1862   5.935   1.204   8.169
  125POPC   PO4 1863   5.401   0.731   8.211
  125POPC   GL1 1864   5.512   1.003   7.832
  125POPC   GL2 1865   5.854   0.970   7.735
  125POPC   C1A 1866   5.585   1.176   7.359
  125POPC   D2A 1867   5.533   1.365   6.913
  125POPC   C3A 1868   5.548   1.025   6.609
  125POPC   C4A 1869   5.502   0.790   6.235
  125POPC   C1B 1870   6.094   1.278   7.497
  125POPC   C2B 1871   6.021   1.290   7.056
  125POPC   C3B 1872   6.155   1.399   6.627
  125POPC   C4B 1873   5.839   1.268   6.273
  126POPC   NC3 1874   4.295   0.782   8.234
  126POPC   PO4 1875   3.833   0.256   8.411
  126POPC   GL1 1876   4.147   0.263   7.981
  126POPC   GL2 1877   4.283   0.570   7.766
  126POPC   C1A 1878   4.114   0.194   7.485
  126POPC   D2A 1879   3.845   0.337   7.118
  126POPC   C3A 1880   4.096   0.473   6.748
  126POPC   C4A 1881   4.137   0.308   6.327
  126POPC   C1B 1882   4.462   0.713   7.343
  126POPC   C2B 1883   4.663   0.569   6.954
  126POPC   C3B 1884   4.578   0.296   6.625
  126POPC   C4B 1885   4.628   0.387   6.228
  127POPC   NC3 1886   9.775   4.973   8.209
  127POPC   PO4 1887   0.378   4.839   8.419
  127POPC   GL1 1888   0.215   4.970   7.959
  127POPC   GL2 1889   0.032   5.278   7.827
  127POPC   C1A 1890   0.139   4.882   7.492
  127POPC   D2A 1891   0.124   4.932   7.068
  127POPC   C3A 1892   9.941   4.793   6.672
  127POPC   C4A 1893   9.644   4.992   6.396
  127POPC   C1B 1894   9.847   5.290   7.389
  127POPC   C2B 1895   9.659   5.133   6.986
  127POPC   C3B 1896   9.273   5.129   6.750
  127POPC   C4B 1897   9.175   5.282   6.352
  128POPC   NC3 1898   9.728   9.922   8.375
  128POPC   PO4 1899   9.379   9.349   8.185
  128POPC   GL1 1900   9.588   9.508   7.845
  128POPC   GL2 1901   9.838   9.227   7.831
  128POPC   C1A 1902   9.682   9.744   7.438
  128POPC   D2A 1903   9.715   9.648   7.008
  128POPC   C3A 1904   9.616   9.919   6.650
  128POPC   C4A 1905   9.301   9.798   6.345
  128POPC   C1B 1906   9.581   9.168   7.451
  128POPC   C2B 1907   9.460   9.183   7.013
  128POPC   C3B 1908   9.499   9.402   6.613
  128POPC   C4B 1909   9.708   9.559   6.217
  129POPC   NC3 1910   2.663   7.994   8.046
  129POPC   PO4 1911   2.362   8.509   8.340
  129POPC   GL1 1912   2.695   8.534   7.825
  129POPC   GL2 1913   2.952   8.292   7.716
  129POPC   C1A 1914   2.611   8.389   7.288
  129POPC   D2A 1915   2.297   8.361   6.899
  129POPC   C3A 1916   2.412   8.449   6.434
  129POPC   C4A 1917   2.745   8.542   6.168
  129POPC   C1B 1918   2.824   7.961   7.415
  129POPC   C2B 1919   2.690   7.957   6.997
  129POPC   C3B 1920   2.778   8.250   6.714
  129POPC   C4B 1921   2.881   8.054   6.349
  130POPC   NC3 1922   9.046   9.709   7.960
  130POPC   PO4 1923   8.542   9.283   8.244
  130POPC   GL1 1924   8.769   9.289   7.843
  130POPC   GL2 1925   9.135   9.275   7.746
  130POPC   C1A 1926   8.743   9.337   7.390
  130POPC   D2A 1927   8.955   9.297   6.988
  130POPC   C3A 1928   8.685   9.251   6.625
  130POPC   C4A 1929   8.435   9.557   6.418
  130POPC   C1B 1930   9.233   9.529   7.352
  130POPC   C2B 1931   9.193   9.781   6.957
  130POPC   C3B 1932   8.886   9.735   6.616
  130POPC   C4B 1933   8.913   9.492   6.201
  131POPC   NC3 1934   8.664   2.823   8.091
  131POPC   PO4 1935   9.240   2.346   7.963
  131POPC   GL1 1936   9.085   2.519   7.589
  131POPC   GL2 1937   8.905   2.833   7.648
  131POPC   C1A 1938   8.799   2.546   7.250
  131POPC   D2A 1939   8.966   2.790   6.928
  131POPC   C3A 1940   9.059   2.604   6.542
  131POPC   C4A 1941   9.323   2.415   6.239
  131POPC   C1B 1942   8.652   3.039   7.338
  131POPC   C2B 1943   8.524   3.031   6.906
  131POPC   C3B 1944   8.588   2.831   6.521
  131POPC   C4B 1945   8.610   2.405   6.355
  132POPC   NC3 1946   2.736   8.759   8.268
  132POPC   PO4 1947   3.218   9.186   8.113
  132POPC   GL1 1948   2.919   9.061   7.783
  132POPC   GL2 1949   2.551   9.023   7.788
  132POPC   C1A 1950   2.905   8.770   7.428
  132POPC   D2A 1951   3.032   8.587   7.017
  132POPC   C3A 1952   3.067   8.721   6.574
  132POPC   C4A 1953   3.000   8.983   6.192
  132POPC   C1B 1954   2.407   8.832   7.374
  132POPC   C2B 1955   2.554   8.792   6.942
  132POPC   C3B 1956   2.597   8.921   6.514
  132POPC   C4B 1957   2.483   8.996   6.067
  133POPC   NC3 1958   2.814   0.409   8.159
  133POPC   PO4 1959   2.327   0.856   8.071
  133POPC   GL1 1960   2.462   0.595   7.794
  133POPC   GL2 1961   2.814   0.665   7.697
  133POPC   C1A 1962   2.421   0.558   7.374
  133POPC   D2A 1963   2.722   0.685   7.069
  133POPC   C3A 1964   2.525   0.675   6.692
  133POPC   C4A 1965   2.429   0.672   6.264
  133POPC   C1B 1966   2.865   0.296   7.370
  133POPC   C2B 1967   2.722   0.212   6.896
  133POPC   C3B 1968   2.787   0.341   6.411
  133POPC   C4B 1969   2.965   0.156   5.993
  134POPC   NC3 1970   5.785   3.056   8.255
  134POPC   PO4 1971   5.791   2.420   8.080
  134POPC   GL1 1972   5.794   2.782   7.763
  134POPC   GL2 1973   6.049   2.607   7.534
  134POPC   C1A 1974   5.893   3.064   7.406
  134POPC   D2A 1975   5.926   2.899   6.988
  134POPC   C3A 1976   6.220   2.857   6.675
  134POPC   C4A 1977   5.933   2.801   6.338
  134POPC   C1B 1978   5.669   2.551   7.279
  134POPC   C2B 1979   5.454   2.375   6.896
  134POPC   C3B 1980   5.375   2.473   6.448
  134POPC   C4B 1981   5.447   2.848   6.144
  135POPC   NC3 1982   8.599   5.385   8.088
  135POPC   PO4 1983   7.920   5.282   8.086
  135POPC   GL1 1984   8.241   5.189   7.783
  135POPC   GL2 1985   8.276   4.830   7.685
  135POPC   C1A 1986   8.191   5.203   7.349
  135POPC   D2A 1987   8.171   5.297   6.918
  135POPC   C3A 1988   8.235   4.966   6.627
  135POPC   C4A 1989   8.223   4.905   6.195
  135POPC   C1B 1990   8.084   4.712   7.283
  135POPC   C2B 1991   8.053   4.540   6.863
  135POPC   C3B 1992   7.891   4.603   6.437
  135POPC   C4B 1993   7.871   4.583   5.966
  136POPC   NC3 1994   6.826   8.241   8.055
  136POPC   PO4 1995   6.740   7.604   8.067
  136POPC   GL1 1996   6.831   7.885   7.666
  136POPC   GL2 1997   6.584   8.188   7.598
  136POPC   C1A 1998   6.748   7.929   7.200
  136POPC   D2A 1999   6.491   7.787   6.853
  136POPC   C3A 2000   6.675   7.878   6.443
  136POPC   C4A 2001   6.476   7.942   6.036
  136POPC   C1B 2002   6.239   8.097   7.249
  136POPC   C2B 2003   6.035   8.152   6.822
  136POPC   C3B 2004   6.181   8.279   6.412
  136POPC   C4B 2005   6.629   8.376   6.410
  137POPC   NC3 2006   8.890   0.414   8.138
  137POPC   PO4 2007   9.425   9.978   8.028
  137POPC   GL1 2008   9.157   0.221   7.704
  137POPC   GL2 2009   8.795   0.371   7.648
  137POPC   C1A 2010   9.274   0.277   7.254
  137POPC   D2A 2011   9.079   0.448   6.874
  137POPC   C3A 2012   9.109   0.247   6.471
  137POPC   C4A 2013   9.235   0.158   6.020
  137POPC   C1B 2014   8.772   0.209   7.228
  137POPC   C2B 2015   8.572   0.411   6.872
  137POPC   C3B 2016   8.659   0.500   6.443
  137POPC   C4B 2017   8.746   0.457   5.998
  138POPC   NC3 2018   5.543   7.311   8.138
  138POPC   PO4 2019   6.101   7.205   8.363
  138POPC   GL1 2020   5.928   7.370   7.840
  138POPC   GL2 2021   6.035   7.698   7.774
  138POPC   C1A 2022   6.076   7.467   7.339
  138POPC   D2A 2023   5.973   7.653   6.916
  138POPC   C3A 2024   5.957   7.340   6.565
  138POPC   C4A 2025   6.190   7.101   6.240
  138POPC   C1B 2026   5.612   7.597   7.513
  138POPC   C2B 2027   5.479   7.564   7.063
  138POPC   C3B 2028   5.325   7.608   6.598
  138POPC   C4B 2029   5.352   7.428   6.170
  139POPC   NC3 2030   0.285   3.501   8.426
  139POPC   PO4 2031   0.924   3.678   8.165
  139POPC   GL1 2032   0.792   3.430   7.787
  139POPC   GL2 2033   0.523   3.581   7.617
  139POPC   C1A 2034   0.693   3.185   7.399
  139POPC   D2A 2035   0.531   3.476   7.092
  139POPC   C3A 2036   0.734   3.456   6.710
  139POPC   C4A 2037   0.668   3.586   6.321
  139POPC   C1B 2038   0.192   3.778   7.348
  139POPC   C2B 2039   0.263   4.017   6.997
  139POPC   C3B 2040   0.306   3.763   6.663
  139POPC   C4B 2041   0.189   3.431   6.407
  140POPC   NC3 2042   8.740   8.290   8.279
  140POPC   PO4 2043   9.253   7.760   8.224
  140POPC   GL1 2044   9.079   7.930   7.845
  140POPC   GL2 2045   9.069   8.278   7.878
  140POPC   C1A 2046   8.848   7.979   7.429
  140POPC   D2A 2047   8.889   7.858   6.991
  140POPC   C3A 2048   8.778   7.965   6.546
  140POPC   C4A 2049   8.850   7.935   6.086
  140POPC   C1B 2050   8.916   8.475   7.490
  140POPC   C2B 2051   8.853   8.376   7.043
  140POPC   C3B 2052   9.063   8.386   6.628
  140POPC   C4B 2053   8.880   8.424   6.222
  141POPC   NC3 2054   6.859   3.389   8.078
  141POPC   PO4 2055   6.215   3.101   8.113
  141POPC   GL1 2056   6.334   3.019   7.680
  141POPC   GL2 2057   6.533   3.305   7.661
  141POPC   C1A 2058   6.380   3.066   7.206
  141POPC   D2A 2059   6.589   3.277   6.837
  141POPC   C3A 2060   6.533   3.258   6.398
  141POPC   C4A 2061   6.411   2.875   6.132
  141POPC   C1B 2062   6.675   3.521   7.284
  141POPC   C2B 2063   6.847   3.714   6.891
  141POPC   C3B 2064   6.765   3.740   6.423
  141POPC   C4B 2065   6.594   3.610   6.011
  142POPC   NC3 2066   1.391   3.799   8.260
  142POPC   PO4 2067   1.473   3.106   8.157
  142POPC   GL1 2068   1.319   3.367   7.792
  142POPC   GL2 2069   1.278   3.737   7.759
  142POPC   C1A 2070   1.191   3.182   7.382
  142POPC   D2A 2071   1.014   3.103   6.967
  142POPC   C3A 2072   1.184   3.221   6.580
  142POPC   C4A 2073   0.967   3.184   6.205
  142POPC   C1B 2074   1.026   3.665   7.378
  142POPC   C2B 2075   1.191   3.591   6.950
  142POPC   C3B 2076   1.152   3.744   6.512
  142POPC   C4B 2077   0.941   4.012   6.219
  143POPC   NC3 2078   8.804   1.250   8.058
  143POPC   PO4 2079   8.481   0.677   8.061
  143POPC   GL1 2080   8.650   0.904   7.701
  143POPC   GL2 2081   8.999   0.847   7.759
  143POPC   C1A 2082   8.698   1.186   7.323
  143POPC   D2A 2083   8.747   1.553   7.042
  143POPC   C3A 2084   8.713   1.417   6.595
  143POPC   C4A 2085   8.718   1.308   6.128
  143POPC   C1B 2086   8.956   0.724   7.305
  143POPC   C2B 2087   8.794   0.890   6.892
  143POPC   C3B 2088   8.886   0.948   6.453
  143POPC   C4B 2089   9.216   1.139   6.238
  144POPC   NC3 2090   1.950   3.823   3.866
  144POPC   PO4 2091   1.964   3.101   3.905
  144POPC   GL1 2092   1.981   3.419   4.184
  144POPC   GL2 2093   1.621   3.553   4.188
  144POPC   C1A 2094   2.236   3.454   4.552
  144POPC   D2A 2095   2.445   3.397   4.942
  144POPC   C3A 2096   2.250   3.253   5.318
  144POPC   C4A 2097   2.200   3.368   5.774
  144POPC   C1B 2098   1.746   3.565   4.635
  144POPC   C2B 2099   1.815   3.392   5.030
  144POPC   C3B 2100   1.818   3.494   5.450
  144POPC   C4B 2101   1.817   3.716   5.864
  145POPC   NC3 2102   2.535   2.093   4.028
  145POPC   PO4 2103   2.564   1.490   3.755
  145POPC   GL1 2104   2.435   1.569   4.172
  145POPC   GL2 2105   2.752   1.747   4.314
  145POPC   C1A 2106   2.361   1.709   4.606
  145POPC   D2A 2107   2.712   1.654   4.902
  145POPC   C3A 2108   2.617   1.590   5.331
  145POPC   C4A 2109   2.569   1.728   5.746
  145POPC   C1B 2110   2.950   2.028   4.624
  145POPC   C2B 2111   3.079   2.058   5.071
  145POPC   C3B 2112   2.978   1.932   5.479
  145POPC   C4B 2113   3.088   1.607   5.765
  146POPC   NC3 2114   7.339   7.031   3.827
  146POPC   PO4 2115   7.668   6.608   4.088
  146POPC   GL1 2116   7.409   6.750   4.399
  146POPC   GL2 2117   7.097   6.935   4.297
  146POPC   C1A 2118   7.450   6.688   4.849
  146POPC   D2A 2119   7.594   6.864   5.230
  146POPC   C3A 2120   7.607   6.546   5.513
  146POPC   C4A 2121   7.530   6.524   5.955
  146POPC   C1B 2122   6.971   6.838   4.733
  146POPC   C2B 2123   7.073   6.797   5.211
  146POPC   C3B 2124   7.115   6.525   5.608
  146POPC   C4B 2125   7.123   6.205   5.985
  147POPC   NC3 2126   5.650   9.215   4.021
  147POPC   PO4 2127   5.385   8.625   3.934
  147POPC   GL1 2128   5.676   8.759   4.281
  147POPC   GL2 2129   5.997   8.833   4.415
  147POPC   C1A 2130   5.644   8.935   4.729
  147POPC   D2A 2131   5.874   8.995   5.107
  147POPC   C3A 2132   5.704   8.755   5.450
  147POPC   C4A 2133   5.503   8.880   5.857
  147POPC   C1B 2134   6.087   8.616   4.751
  147POPC   C2B 2135   6.245   8.652   5.119
  147POPC   C3B 2136   6.267   8.716   5.512
  147POPC   C4B 2137   6.010   8.797   5.856
  148POPC   NC3 2138   0.979   5.088   3.820
  148POPC   PO4 2139   1.582   5.330   3.967
  148POPC   GL1 2140   1.189   5.311   4.289
  148POPC   GL2 2141   1.272   4.993   4.444
  148POPC   C1A 2142   0.938   5.237   4.737
  148POPC   D2A 2143   0.986   5.008   5.151
  148POPC   C3A 2144   0.965   5.142   5.607
  148POPC   C4A 2145   0.838   5.372   6.020
  148POPC   C1B 2146   1.447   5.184   4.840
  148POPC   C2B 2147   1.461   5.090   5.291
  148POPC   C3B 2148   1.459   5.023   5.729
  148POPC   C4B 2149   1.748   5.135   6.039
  149POPC   NC3 2150   6.521   8.130   3.897
  149POPC   PO4 2151   6.129   8.627   3.994
  149POPC   GL1 2152   6.351   8.382   4.365
  149POPC   GL2 2153   6.477   8.017   4.390
  149POPC   C1A 2154   6.481   8.271   4.822
  149POPC   D2A 2155   6.296   8.160   5.222
  149POPC   C3A 2156   6.486   8.239   5.584
  149POPC   C4A 2157   6.365   8.431   5.943
  149POPC   C1B 2158   6.774   7.873   4.757
  149POPC   C2B 2159   6.780   8.018   5.172
  149POPC   C3B 2160   6.861   7.883   5.594
  149POPC   C4B 2161   6.872   8.203   5.930
  150POPC   NC3 2162   9.016   2.449   3.925
  150POPC   PO4 2163   8.945   3.102   3.924
  150POPC   GL1 2164   9.000   3.012   4.339
  150POPC   GL2 2165   9.100   2.665   4.376
  150POPC   C1A 2166   8.779   3.193   4.672
  150POPC   D2A 2167   8.530   3.028   5.018
  150POPC   C3A 2168   8.774   3.003   5.358
  150POPC   C4A 2169   8.616   2.988   5.741
  150POPC   C1B 2170   9.064   2.777   4.826
  150POPC   C2B 2171   8.924   2.527   5.183
  150POPC   C3B 2172   8.908   2.558   5.629
  150POPC   C4B 2173   8.896   2.672   6.044
  151POPC   NC3 2174   8.054   2.191   4.010
  151POPC   PO4 2175   8.681   2.154   4.103
  151POPC   GL1 2176   8.474   1.833   4.370
  151POPC   GL2 2177   8.125   1.924   4.436
  151POPC   C1A 2178   8.469   1.719   4.803
  151POPC   D2A 2179   8.632   1.707   5.220
  151POPC   C3A 2180   8.285   1.756   5.509
  151POPC   C4A 2181   8.202   1.727   5.923
  151POPC   C1B 2182   7.971   2.271   4.696
  151POPC   C2B 2183   8.034   2.125   5.095
  151POPC   C3B 2184   8.153   2.233   5.450
  151POPC   C4B 2185   8.004   2.182   5.800
  152POPC   NC3 2186   8.807   4.141   4.034
  152POPC   PO4 2187   8.985   4.783   3.867
  152POPC   GL1 2188   8.983   4.558   4.294
  152POPC   GL2 2189   9.135   4.238   4.413
  152POPC   C1A 2190   9.145   4.619   4.746
  152POPC   D2A 2191   9.330   4.488   5.145
  152POPC   C3A 2192   8.986   4.496   5.449
  152POPC   C4A 2193   8.749   4.475   5.833
  152POPC   C1B 2194   8.941   4.096   4.837
  152POPC   C2B 2195   8.815   3.987   5.299
  152POPC   C3B 2196   8.970   4.020   5.749
  152POPC   C4B 2197   9.183   3.902   6.171
  153POPC   NC3 2198   7.326   7.778   4.199
  153POPC   PO4 2199   7.651   7.333   3.694
  153POPC   GL1 2200   7.521   7.242   4.246
  153POPC   GL2 2201   7.634   7.542   4.552
  153POPC   C1A 2202   7.366   7.165   4.684
  153POPC   D2A 2203   7.556   7.349   5.050
  153POPC   C3A 2204   7.274   7.245   5.370
  153POPC   C4A 2205   7.426   6.980   5.719
  153POPC   C1B 2206   7.241   7.665   4.805
  153POPC   C2B 2207   7.253   7.838   5.181
  153POPC   C3B 2208   7.524   7.700   5.462
  153POPC   C4B 2209   7.275   7.548   5.764
  154POPC   NC3 2210   1.153   3.497   3.848
  154POPC   PO4 2211   0.624   3.722   4.096
  154POPC   GL1 2212   0.859   3.688   4.447
  154POPC   GL2 2213   1.113   3.437   4.370
  154POPC   C1A 2214   0.911   3.678   4.896
  154POPC   D2A 2215   0.989   3.341   5.192
  154POPC   C3A 2216   0.879   3.574   5.513
  154POPC   C4A 2217   0.968   3.615   5.926
  154POPC   C1B 2218   1.301   3.406   4.789
  154POPC   C2B 2219   1.374   3.656   5.183
  154POPC   C3B 2220   1.375   3.601   5.641
  154POPC   C4B 2221   1.412   3.496   6.133
  155POPC   NC3 2222   0.218   4.925   4.196
  155POPC   PO4 2223   0.752   4.642   3.836
  155POPC   GL1 2224   0.872   4.711   4.245
  155POPC   GL2 2225   0.712   5.024   4.342
  155POPC   C1A 2226   0.885   4.737   4.694
  155POPC   D2A 2227   0.532   4.946   4.957
  155POPC   C3A 2228   0.527   4.960   5.399
  155POPC   C4A 2229   0.280   4.666   5.632
  155POPC   C1B 2230   0.412   5.299   4.637
  155POPC   C2B 2231   0.117   5.363   4.997
  155POPC   C3B 2232   0.154   5.537   5.418
  155POPC   C4B 2233   0.367   5.397   5.802
  156POPC   NC3 2234   9.072   8.151   3.782
  156POPC   PO4 2235   8.597   7.763   3.848
  156POPC   GL1 2236   8.711   7.908   4.234
  156POPC   GL2 2237   9.043   7.851   4.226
  156POPC   C1A 2238   8.507   8.035   4.642
  156POPC   D2A 2239   8.406   8.330   5.003
  156POPC   C3A 2240   8.708   8.319   5.369
  156POPC   C4A 2241   8.553   8.361   5.791
  156POPC   C1B 2242   9.044   8.171   4.540
  156POPC   C2B 2243   9.306   8.311   4.885
  156POPC   C3B 2244   9.272   8.345   5.332
  156POPC   C4B 2245   9.067   8.287   5.749
  157POPC   NC3 2246   7.596   2.638   3.903
  157POPC   PO4 2247   7.015   2.261   3.880
  157POPC   GL1 2248   7.222   2.432   4.245
  157POPC   GL2 2249   7.247   2.786   4.236
  157POPC   C1A 2250   7.119   2.545   4.668
  157POPC   D2A 2251   7.068   2.455   5.099
  157POPC   C3A 2252   7.212   2.699   5.437
  157POPC   C4A 2253   7.105   2.700   5.863
  157POPC   C1B 2254   7.597   2.681   4.557
  157POPC   C2B 2255   7.580   2.552   4.983
  157POPC   C3B 2256   7.666   2.374   5.371
  157POPC   C4B 2257   7.527   2.386   5.766
  158POPC   NC3 2258   5.042   0.535   4.068
  158POPC   PO4 2259   5.102   9.913   4.037
  158POPC   GL1 2260   5.247   0.173   4.421
  158POPC   GL2 2261   5.330   0.554   4.499
  158POPC   C1A 2262   5.140   0.249   4.864
  158POPC   D2A 2263   5.325   0.450   5.224
  158POPC   C3A 2264   5.325   0.261   5.634
  158POPC   C4A 2265   5.523   0.312   6.053
  158POPC   C1B 2266   5.005   0.772   4.734
  158POPC   C2B 2267   4.859   0.657   5.106
  158POPC   C3B 2268   4.911   0.578   5.514
  158POPC   C4B 2269   4.610   0.601   5.782
  159POPC   NC3 2270   1.367   6.728   4.022
  159POPC   PO4 2271   0.872   6.208   3.889
  159POPC   GL1 2272   1.021   6.401   4.227
  159POPC   GL2 2273   1.339   6.408   4.444
  159POPC   C1A 2274   0.893   6.641   4.579
  159POPC   D2A 2275   1.046   6.825   4.958
  159POPC   C3A 2276   1.157   6.623   5.349
  159POPC   C4A 2277   0.947   6.743   5.742
  159POPC   C1B 2278   1.514   6.774   4.677
  159POPC   C2B 2279   1.536   6.968   5.091
  159POPC   C3B 2280   1.637   6.822   5.513
  159POPC   C4B 2281   1.426   6.498   5.780
  160POPC   NC3 2282   0.576   5.812   3.778
  160POPC   PO4 2283   0.514   5.143   3.896
  160POPC   GL1 2284   0.633   5.491   4.179
  160POPC   GL2 2285   0.339   5.653   4.247
  160POPC   C1A 2286   0.706   5.685   4.634
  160POPC   D2A 2287   0.632   5.470   5.087
  160POPC   C3A 2288   0.777   5.617   5.514
  160POPC   C4A 2289   0.640   5.843   5.920
  160POPC   C1B 2290   0.168   5.751   4.665
  160POPC   C2B 2291   0.343   5.909   5.044
  160POPC   C3B 2292   0.426   5.980   5.464
  160POPC   C4B 2293   0.151   5.917   5.806
  161POPC   NC3 2294   0.532   7.521   3.886
  161POPC   PO4 2295   0.010   7.041   3.853
  161POPC   GL1 2296   0.200   7.277   4.189
  161POPC   GL2 2297   0.511   7.068   4.236
  161POPC   C1A 2298   0.280   7.461   4.610
  161POPC   D2A 2299   0.139   7.653   5.030
  161POPC   C3A 2300   0.312   7.495   5.439
  161POPC   C4A 2301   0.529   7.606   5.855
  161POPC   C1B 2302   0.705   7.168   4.674
  161POPC   C2B 2303   0.670   7.485   5.035
  161POPC   C3B 2304   0.805   7.408   5.481
  161POPC   C4B 2305   0.575   7.105   5.759
  162POPC   NC3 2306   4.029   3.587   3.939
  162POPC   PO4 2307   4.304   4.025   3.864
  162POPC   GL1 2308   4.351   3.755   4.294
  162POPC   GL2 2309   4.374   3.374   4.277
  162POPC   C1A 2310   4.197   3.579   4.724
  162POPC   D2A 2311   4.197   3.258   5.092
  162POPC   C3A 2312   3.873   3.251   5.452
  162POPC   C4A 2313   3.489   3.319   5.772
  162POPC   C1B 2314   4.550   3.198   4.675
  162POPC   C2B 2315   4.606   2.954   5.065
  162POPC   C3B 2316   4.430   2.938   5.504
  162POPC   C4B 2317   4.179   3.146   5.849
  163POPC   NC3 2318   8.118   7.035   3.891
  163POPC   PO4 2319   7.755   7.632   4.091
  163POPC   GL1 2320   8.092   7.368   4.280
  163POPC   GL2 2321   8.430   7.495   4.306
  163POPC   C1A 2322   8.341   7.105   4.639
  163POPC   D2A 2323   8.441   6.928   5.069
  163POPC   C3A 2324   8.099   6.904   5.374
  163POPC   C4A 2325   7.921   7.140   5.739
  163POPC   C1B 2326   8.207   7.599   4.704
  163POPC   C2B 2327   8.122   7.336   5.057
  163POPC   C3B 2328   8.312   7.377   5.452
  163POPC   C4B 2329   8.005   7.631   5.627
  164POPC   NC3 2330   8.156   7.804   3.986
  164POPC   PO4 2331   7.541   8.152   3.946
  164POPC   GL1 2332   7.738   8.067   4.337
  164POPC   GL2 2333   8.006   8.280   4.259
  164POPC   C1A 2334   7.962   8.051   4.741
  164POPC   D2A 2335   7.978   7.847   5.145
  164POPC   C3A 2336   8.257   8.054   5.438
  164POPC   C4A 2337   8.457   7.868   5.776
  164POPC   C1B 2338   7.763   8.501   4.594
  164POPC   C2B 2339   7.908   8.525   5.012
  164POPC   C3B 2340   8.022   8.524   5.463
  164POPC   C4B 2341   8.062   8.421   5.941
  165POPC   NC3 2342   6.389   0.491   3.931
  165POPC   PO4 2343   6.084   1.041   4.072
  165POPC   GL1 2344   6.379   0.818   4.335
  165POPC   GL2 2345   6.669   0.581   4.344
  165POPC   C1A 2346   6.497   0.843   4.755
  165POPC   D2A 2347   6.379   0.587   5.079
  165POPC   C3A 2348   6.228   0.773   5.448
  165POPC   C4A 2349   6.306   0.625   5.843
  165POPC   C1B 2350   6.624   0.308   4.698
  165POPC   C2B 2351   6.628   0.106   5.106
  165POPC   C3B 2352   6.672   0.358   5.444
  165POPC   C4B 2353   6.549   0.186   5.784
  166POPC   NC3 2354   3.142   8.724   3.953
  166POPC   PO4 2355   3.772   8.942   3.986
  166POPC   GL1 2356   3.454   8.884   4.355
  166POPC   GL2 2357   3.361   9.215   4.536
  166POPC   C1A 2358   3.333   8.809   4.818
  166POPC   D2A 2359   3.398   9.150   5.119
  166POPC   C3A 2360   3.279   9.138   5.574
  166POPC   C4A 2361   3.348   9.311   5.975
  166POPC   C1B 2362   3.776   9.111   4.698
  166POPC   C2B 2363   3.827   8.882   5.054
  166POPC   C3B 2364   3.691   8.781   5.456
  166POPC   C4B 2365   3.752   9.052   5.784
  167POPC   NC3 2366   7.152   9.322   3.862
  167POPC   PO4 2367   6.919   9.941   3.950
  167POPC   GL1 2368   7.093   9.644   4.283
  167POPC   GL2 2369   7.457   9.526   4.223
  167POPC   C1A 2370   7.130   9.421   4.725
  167POPC   D2A 2371   7.338   9.312   5.125
  167POPC   C3A 2372   7.119   9.455   5.519
  167POPC   C4A 2373   7.181   9.611   5.967
  167POPC   C1B 2374   7.444   9.808   4.599
  167POPC   C2B 2375   7.582   9.779   5.028
  167POPC   C3B 2376   7.575   9.678   5.440
  167POPC   C4B 2377   7.392   9.975   5.692
  168POPC   NC3 2378   9.011   7.485   3.879
  168POPC   PO4 2379   8.552   7.072   4.041
  168POPC   GL1 2380   8.802   7.050   4.374
  168POPC   GL2 2381   8.931   7.362   4.359
  168POPC   C1A 2382   8.823   7.169   4.817
  168POPC   D2A 2383   8.796   7.343   5.218
  168POPC   C3A 2384   8.839   7.026   5.542
  168POPC   C4A 2385   9.060   7.121   5.934
  168POPC   C1B 2386   8.888   7.682   4.686
  168POPC   C2B 2387   8.920   7.987   5.033
  168POPC   C3B 2388   8.953   7.858   5.481
  168POPC   C4B 2389   8.802   7.508   5.726
  169POPC   NC3 2390   3.910   8.031   3.995
  169POPC   PO4 2391   3.249   7.833   3.810
  169POPC   GL1 2392   3.421   8.061   4.199
  169POPC   GL2 2393   3.616   8.403   4.222
  169POPC   C1A 2394   3.341   8.168   4.643
  169POPC   D2A 2395   3.204   7.985   5.067
  169POPC   C3A 2396   3.436   8.094   5.452
  169POPC   C4A 2397   3.381   7.982   5.896
  169POPC   C1B 2398   3.726   8.510   4.672
  169POPC   C2B 2399   3.824   8.376   5.127
  169POPC   C3B 2400   3.910   8.321   5.583
  169POPC   C4B 2401   3.705   8.383   5.963
  170POPC   NC3 2402   7.257   0.929   3.919
  170POPC   PO4 2403   7.387   1.563   3.900
  170POPC   GL1 2404   7.380   1.232   4.284
  170POPC   GL2 2405   7.707   1.209   4.412
  170POPC   C1A 2406   7.405   1.008   4.750
  170POPC   D2A 2407   7.518   1.165   5.176
  170POPC   C3A 2408   7.306   0.932   5.524
  170POPC   C4A 2409   6.901   0.769   5.654
  170POPC   C1B 2410   7.376   1.507   4.684
  170POPC   C2B 2411   7.144   1.544   5.042
  170POPC   C3B 2412   7.277   1.522   5.444
  170POPC   C4B 2413   7.385   1.346   5.810
  171POPC   NC3 2414   2.250   6.265   3.942
  171POPC   PO4 2415   1.603   6.328   4.033
  171POPC   GL1 2416   1.932   6.051   4.298
  171POPC   GL2 2417   1.900   5.711   4.333
  171POPC   C1A 2418   2.155   5.972   4.726
  171POPC   D2A 2419   1.960   5.985   5.180
  171POPC   C3A 2420   2.092   5.909   5.636
  171POPC   C4A 2421   2.194   5.943   6.117
  171POPC   C1B 2422   1.679   5.838   4.734
  171POPC   C2B 2423   1.438   5.972   5.097
  171POPC   C3B 2424   1.567   5.951   5.551
  171POPC   C4B 2425   1.682   5.699   5.957
  172POPC   NC3 2426   0.722   4.124   3.878
  172POPC   PO4 2427   1.366   3.867   3.690
  172POPC   GL1 2428   1.234   3.908   4.159
  172POPC   GL2 2429   1.018   4.183   4.283
  172POPC   C1A 2430   1.297   3.913   4.645
  172POPC   D2A 2431   1.218   4.175   5.051
  172POPC   C3A 2432   1.109   4.057   5.496
  172POPC   C4A 2433   0.706   4.009   5.748
  172POPC   C1B 2434   1.287   4.441   4.562
  172POPC   C2B 2435   1.334   4.683   4.946
  172POPC   C3B 2436   1.248   4.618   5.391
  172POPC   C4B 2437   1.528   4.443   5.686
  173POPC   NC3 2438   2.197   7.309   3.860
  173POPC   PO4 2439   2.420   6.664   3.778
  173POPC   GL1 2440   2.229   6.722   4.230
  173POPC   GL2 2441   1.940   6.553   4.335
  173POPC   C1A 2442   2.061   6.822   4.729
  173POPC   D2A 2443   2.029   7.095   5.131
  173POPC   C3A 2444   2.331   7.120   5.472
  173POPC   C4A 2445   2.243   6.757   5.686
  173POPC   C1B 2446   1.791   6.345   4.710
  173POPC   C2B 2447   1.697   6.447   5.142
  173POPC   C3B 2448   1.894   6.382   5.548
  173POPC   C4B 2449   1.797   6.196   5.933
  174POPC   NC3 2450   7.152   4.599   4.103
  174POPC   PO4 2451   7.486   4.043   3.981
  174POPC   GL1 2452   7.483   4.266   4.358
  174POPC   GL2 2453   7.725   4.062   4.460
  174POPC   C1A 2454   7.358   4.255   4.813
  174POPC   D2A 2455   7.367   4.181   5.278
  174POPC   C3A 2456   7.069   4.198   5.639
  174POPC   C4A 2457   7.149   3.983   6.062
  174POPC   C1B 2458   7.863   4.379   4.733
  174POPC   C2B 2459   8.023   4.333   5.145
  174POPC   C3B 2460   7.743   4.473   5.456
  174POPC   C4B 2461   7.547   4.225   5.801
  175POPC   NC3 2462   4.162   7.322   4.126
  175POPC   PO4 2463   3.922   6.749   4.174
  175POPC   GL1 2464   3.874   7.003   4.562
  175POPC   GL2 2465   3.905   7.370   4.574
  175POPC   C1A 2466   3.993   6.966   5.033
  175POPC   D2A 2467   4.306   6.945   5.362
  175POPC   C3A 2468   4.241   7.090   5.774
  175POPC   C4A 2469   4.320   7.019   6.216
  175POPC   C1B 2470   3.791   7.425   4.991
  175POPC   C2B 2471   3.986   7.371   5.384
  175POPC   C3B 2472   4.249   7.602   5.683
  175POPC   C4B 2473   4.151   7.495   6.100
  176POPC   NC3 2474   8.635   4.916   4.142
  176POPC   PO4 2475   8.236   5.377   3.740
  176POPC   GL1 2476   8.363   5.343   4.137
  176POPC   GL2 2477   8.087   5.117   4.225
  176POPC   C1A 2478   8.400   5.305   4.598
  176POPC   D2A 2479   8.263   5.172   5.014
  176POPC   C3A 2480   8.353   5.267   5.452
  176POPC   C4A 2481   8.439   5.335   5.926
  176POPC   C1B 2482   7.914   5.056   4.644
  176POPC   C2B 2483   7.904   4.807   5.032
  176POPC   C3B 2484   8.164   4.777   5.365
  176POPC   C4B 2485   8.317   4.698   5.745
  177POPC   NC3 2486   0.298   4.771   3.721
  177POPC   PO4 2487   0.241   4.100   3.883
  177POPC   GL1 2488   0.421   4.419   4.198
  177POPC   GL2 2489   0.508   4.133   4.371
  177POPC   C1A 2490   0.433   4.501   4.710
  177POPC   D2A 2491   0.770   4.510   5.111
  177POPC   C3A 2492   0.756   4.499   5.549
  177POPC   C4A 2493   0.571   4.440   5.965
  177POPC   C1B 2494   0.794   4.139   4.740
  177POPC   C2B 2495   0.680   4.019   5.190
  177POPC   C3B 2496   0.334   4.202   5.433
  177POPC   C4B 2497   0.165   4.128   5.848
  178POPC   NC3 2498   8.666   9.762   4.090
  178POPC   PO4 2499   9.277   9.443   3.865
  178POPC   GL1 2500   9.105   9.609   4.259
  178POPC   GL2 2501   9.108   9.965   4.337
  178POPC   C1A 2502   9.001   9.548   4.680
  178POPC   D2A 2503   9.159   9.378   5.048
  178POPC   C3A 2504   8.990   9.477   5.475
  178POPC   C4A 2505   9.111   9.187   5.829
  178POPC   C1B 2506   8.888   0.038   4.761
  178POPC   C2B 2507   8.991   9.940   5.228
  178POPC   C3B 2508   8.912   9.950   5.712
  178POPC   C4B 2509   8.744   9.989   6.182
  179POPC   NC3 2510   3.504   7.450   3.648
  179POPC   PO4 2511   4.093   7.642   3.759
  179POPC   GL1 2512   3.679   7.591   4.104
  179POPC   GL2 2513   3.546   7.297   4.236
  179POPC   C1A 2514   3.476   7.667   4.554
  179POPC   D2A 2515   3.297   7.492   4.937
  179POPC   C3A 2516   3.432   7.576   5.343
  179POPC   C4A 2517   3.288   7.405   5.758
  179POPC   C1B 2518   3.368   7.102   4.581
  179POPC   C2B 2519   3.466   6.990   4.992
  179POPC   C3B 2520   3.550   7.081   5.432
  179POPC   C4B 2521   3.768   7.227   5.834
  180POPC   NC3 2522   9.911   2.647   3.850
  180POPC   PO4 2523   9.983   3.255   4.191
  180POPC   GL1 2524   9.789   3.090   4.443
  180POPC   GL2 2525   9.558   2.889   4.316
  180POPC   C1A 2526   9.801   2.939   4.815
  180POPC   D2A 2527   9.586   3.089   5.106
  180POPC   C3A 2528   9.745   2.942   5.495
  180POPC   C4A 2529   9.593   3.161   5.831
  180POPC   C1B 2530   9.518   2.552   4.651
  180POPC   C2B 2531   9.456   2.550   5.086
  180POPC   C3B 2532   9.268   2.827   5.396
  180POPC   C4B 2533   9.382   2.673   5.797
  181POPC   NC3 2534   1.025   1.240   4.000
  181POPC   PO4 2535   0.866   0.691   3.656
  181POPC   GL1 2536   1.179   0.774   4.112
  181POPC   GL2 2537   1.436   1.015   4.282
  181POPC   C1A 2538   1.043   0.965   4.592
  181POPC   D2A 2539   1.218   1.237   4.923
  181POPC   C3A 2540   1.184   1.167   5.365
  181POPC   C4A 2541   1.169   1.076   5.806
  181POPC   C1B 2542   1.628   1.326   4.648
  181POPC   C2B 2543   1.638   1.500   5.127
  181POPC   C3B 2544   1.603   1.371   5.599
  181POPC   C4B 2545   1.531   1.338   6.078
  182POPC   NC3 2546   2.213   1.651   3.498
  182POPC   PO4 2547   1.928   1.823   4.071
  182POPC   GL1 2548   1.825   2.049   4.432
  182POPC   GL2 2549   1.641   2.310   4.291
  182POPC   C1A 2550   1.891   1.880   4.852
  182POPC   D2A 2551   2.285   1.910   5.071
  182POPC   C3A 2552   2.358   2.099   5.431
  182POPC   C4A 2553   2.134   2.022   5.788
  182POPC   C1B 2554   1.714   2.534   4.685
  182POPC   C2B 2555   1.896   2.346   5.083
  182POPC   C3B 2556   1.821   2.027   5.381
  182POPC   C4B 2557   1.654   2.231   5.749
  183POPC   NC3 2558   7.750   1.244   3.905
  183POPC   PO4 2559   8.355   1.547   3.705
  183POPC   GL1 2560   8.135   1.481   4.169
  183POPC   GL2 2561   8.348   1.271   4.341
  183POPC   C1A 2562   8.054   1.434   4.692
  183POPC   D2A 2563   8.200   1.413   5.154
  183POPC   C3A 2564   7.949   1.346   5.599
  183POPC   C4A 2565   7.792   1.499   6.062
  183POPC   C1B 2566   8.482   1.122   4.781
  183POPC   C2B 2567   8.541   1.049   5.238
  183POPC   C3B 2568   8.444   1.173   5.694
  183POPC   C4B 2569   8.428   0.876   6.089
  184POPC   NC3 2570   8.248   8.973   3.908
  184POPC   PO4 2571   7.581   9.130   3.863
  184POPC   GL1 2572   7.889   9.195   4.180
  184POPC   GL2 2573   7.928   8.849   4.276
  184POPC   C1A 2574   8.059   9.247   4.620
  184POPC   D2A 2575   7.886   9.332   5.042
  184POPC   C3A 2576   8.065   9.139   5.413
  184POPC   C4A 2577   7.810   8.952   5.728
  184POPC   C1B 2578   8.212   8.747   4.617
  184POPC   C2B 2579   8.291   8.872   5.030
  184POPC   C3B 2580   8.466   8.756   5.411
  184POPC   C4B 2581   8.299   8.829   5.783
  185POPC   NC3 2582   8.123   9.509   3.711
  185POPC   PO4 2583   8.364   0.134   3.952
  185POPC   GL1 2584   8.230   9.886   4.293
  185POPC   GL2 2585   7.959   9.693   4.210
  185POPC   C1A 2586   8.449   9.713   4.692
  185POPC   D2A 2587   8.650   9.606   5.066
  185POPC   C3A 2588   8.524   9.775   5.442
  185POPC   C4A 2589   8.530   9.645   5.880
  185POPC   C1B 2590   7.950   9.755   4.690
  185POPC   C2B 2591   8.100   9.778   5.148
  185POPC   C3B 2592   8.034   9.813   5.613
  185POPC   C4B 2593   7.859   0.143   5.876
  186POPC   NC3 2594   5.022   2.094   3.912
  186POPC   PO4 2595   5.160   1.411   4.040
  186POPC   GL1 2596   5.154   1.747   4.326
  186POPC   GL2 2597   5.232   2.097   4.364
  186POPC   C1A 2598   5.010   1.810   4.750
  186POPC   D2A 2599   5.218   1.797   5.161
  186POPC   C3A 2600   5.037   2.038   5.503
  186POPC   C4A 2601   4.823   2.035   5.891
  186POPC   C1B 2602   5.021   2.319   4.734
  186POPC   C2B 2603   4.841   2.379   5.164
  186POPC   C3B 2604   4.985   2.540   5.571
  186POPC   C4B 2605   5.160   2.422   5.979
  187POPC   NC3 2606   3.393   2.815   3.911
  187POPC   PO4 2607   4.033   3.127   3.952
  187POPC   GL1 2608   3.844   2.925   4.318
  187POPC   GL2 2609   3.572   2.685   4.379
  187POPC   C1A 2610   3.658   3.042   4.730
  187POPC   D2A 2611   3.357   2.891   5.050
  187POPC   C3A 2612   3.473   2.901   5.485
  187POPC   C4A 2613   3.253   2.883   5.883
  187POPC   C1B 2614   3.639   2.501   4.811
  187POPC   C2B 2615   3.602   2.439   5.295
  187POPC   C3B 2616   3.595   2.486   5.795
  187POPC   C4B 2617   3.831   2.428   6.242
  188POPC   NC3 2618   2.844   8.066   3.766
  188POPC   PO4 2619   2.234   7.805   3.812
  188POPC   GL1 2620   2.497   8.083   4.186
  188POPC   GL2 2621   2.879   8.179   4.253
  188POPC   C1A 2622   2.427   8.228   4.607
  188POPC   D2A 2623   2.238   8.066   5.000
  188POPC   C3A 2624   2.443   8.082   5.408
  188POPC   C4A 2625   2.489   8.415   5.726
  188POPC   C1B 2626   2.863   7.970   4.648
  188POPC   C2B 2627   2.754   8.217   5.013
  188POPC   C3B 2628   2.914   8.289   5.421
  188POPC   C4B 2629   2.924   8.196   5.844
  189POPC   NC3 2630   9.353   5.067   3.907
  189POPC   PO4 2631   9.978   5.301   4.084
  189POPC   GL1 2632   9.682   4.999   4.299
  189POPC   GL2 2633   9.514   4.648   4.293
  189POPC   C1A 2634   9.551   4.959   4.721
  189POPC   D2A 2635   9.617   5.139   5.097
  189POPC   C3A 2636   9.532   4.908   5.513
  189POPC   C4A 2637   9.490   5.146   5.938
  189POPC   C1B 2638   9.647   4.473   4.716
  189POPC   C2B 2639   9.838   4.663   5.105
  189POPC   C3B 2640   0.015   5.010   5.375
  189POPC   C4B 2641   9.969   5.015   5.818
  190POPC   NC3 2642   8.728   1.256   3.697
  190POPC   PO4 2643   9.331   1.417   3.920
  190POPC   GL1 2644   8.929   1.337   4.182
  190POPC   GL2 2645   8.729   1.014   4.157
  190POPC   C1A 2646   8.858   1.430   4.626
  190POPC   D2A 2647   9.073   1.459   5.043
  190POPC   C3A 2648   8.912   1.350   5.455
  190POPC   C4A 2649   9.162   1.413   5.814
  190POPC   C1B 2650   8.909   0.916   4.514
  190POPC   C2B 2651   9.008   0.952   4.946
  190POPC   C3B 2652   8.998   0.863   5.382
  190POPC   C4B 2653   8.877   0.931   5.831
  191POPC   NC3 2654   0.740   2.753   4.070
  191POPC   PO4 2655   1.345   2.412   3.892
  191POPC   GL1 2656   1.254   2.702   4.209
  191POPC   GL2 2657   1.261   3.033   4.052
  191POPC   C1A 2658   1.087   2.858   4.621
  191POPC   D2A 2659   0.906   2.849   5.060
  191POPC   C3A 2660   1.215   2.666   5.341
  191POPC   C4A 2661   1.470   2.732   5.718
  191POPC   C1B 2662   1.516   3.087   4.452
  191POPC   C2B 2663   1.487   2.963   4.925
  191POPC   C3B 2664   1.442   3.144   5.354
  191POPC   C4B 2665   1.157   3.152   5.729
  192POPC   NC3 2666   1.901   9.656   3.815
  192POPC   PO4 2667   1.345   9.706   4.079
  192POPC   GL1 2668   1.729   9.590   4.287
  192POPC   GL2 2669   2.062   9.789   4.267
  192POPC   C1A 2670   1.819   9.452   4.700
  192POPC   D2A 2671   2.018   9.521   5.099
  192POPC   C3A 2672   1.857   9.554   5.530
  192POPC   C4A 2673   1.633   9.343   5.855
  192POPC   C1B 2674   2.211   9.758   4.662
  192POPC   C2B 2675   2.401   9.949   4.970
  192POPC   C3B 2676   2.246   0.104   5.338
  192POPC   C4B 2677   2.110   9.987   5.718
  193POPC   NC3 2678   7.902   6.220   4.084
  193POPC   PO4 2679   8.349   6.620   3.763
  193POPC   GL1 2680   8.237   6.668   4.233
  193POPC   GL2 2681   7.954   6.896   4.376
  193POPC   C1A 2682   8.290   6.570   4.696
  193POPC   D2A 2683   8.480   6.426   5.144
  193POPC   C3A 2684   8.488   6.604   5.607
  193POPC   C4A 2685   8.365   6.429   6.067
  193POPC   C1B 2686   7.914   6.902   4.830
  193POPC   C2B 2687   7.947   6.508   5.081
  193POPC   C3B 2688   8.069   6.344   5.482
  193POPC   C4B 2689   7.999   6.645   5.810
  194POPC   NC3 2690   7.783   5.359   3.865
  194POPC   PO4 2691   7.535   4.745   3.922
  194POPC   GL1 2692   7.648   4.753   4.323
  194POPC   GL2 2693   7.469   5.084   4.326
  194POPC   C1A 2694   7.484   4.765   4.755
  194POPC   D2A 2695   7.535   5.145   5.040
  194POPC   C3A 2696   7.848   5.204   5.367
  194POPC   C4A 2697   8.011   5.080   5.767
  194POPC   C1B 2698   7.156   5.153   4.673
  194POPC   C2B 2699   7.058   5.034   5.105
  194POPC   C3B 2700   7.284   4.728   5.340
  194POPC   C4B 2701   7.541   4.886   5.674
  195POPC   NC3 2702   3.622   1.834   4.070
  195POPC   PO4 2703   3.723   2.476   3.929
  195POPC   GL1 2704   3.777   2.213   4.363
  195POPC   GL2 2705   3.401   2.186   4.373
  195POPC   C1A 2706   3.927   1.801   4.658
  195POPC   D2A 2707   4.132   1.726   5.087
  195POPC   C3A 2708   3.913   1.671   5.520
  195POPC   C4A 2709   4.002   1.587   5.988
  195POPC   C1B 2710   3.465   1.974   4.745
  195POPC   C2B 2711   3.649   1.949   5.141
  195POPC   C3B 2712   3.493   2.001   5.572
  195POPC   C4B 2713   3.524   1.805   5.976
  196POPC   NC3 2714   4.709   1.359   3.996
  196POPC   PO4 2715   4.018   1.551   3.938
  196POPC   GL1 2716   3.952   1.391   4.335
  196POPC   GL2 2717   4.201   1.153   4.279
  196POPC   C1A 2718   4.102   1.297   4.771
  196POPC   D2A 2719   4.095   1.219   5.221
  196POPC   C3A 2720   4.385   1.468   5.469
  196POPC   C4A 2721   4.556   1.374   5.898
  196POPC   C1B 2722   4.533   1.038   4.583
  196POPC   C2B 2723   4.588   1.081   5.024
  196POPC   C3B 2724   4.517   0.988   5.466
  196POPC   C4B 2725   4.133   1.126   5.739
  197POPC   NC3 2726   7.427   7.738   3.737
  197POPC   PO4 2727   6.906   7.985   4.093
  197POPC   GL1 2728   7.056   8.144   4.439
  197POPC   GL2 2729   7.316   8.380   4.375
  197POPC   C1A 2730   6.997   8.376   4.797
  197POPC   D2A 2731   7.232   8.555   5.124
  197POPC   C3A 2732   7.121   8.295   5.446
  197POPC   C4A 2733   7.313   8.061   5.758
  197POPC   C1B 2734   7.452   8.150   4.795
  197POPC   C2B 2735   7.609   8.188   5.242
  197POPC   C3B 2736   7.792   8.104   5.659
  197POPC   C4B 2737   7.652   8.172   6.128
  198POPC   NC3 2738   8.957   3.481   3.660
  198POPC   PO4 2739   9.281   3.876   4.049
  198POPC   GL1 2740   9.132   3.700   4.379
  198POPC   GL2 2741   8.858   3.515   4.231
  198POPC   C1A 2742   9.093   3.601   4.803
  198POPC   D2A 2743   9.112   3.267   5.052
  198POPC   C3A 2744   9.066   3.405   5.433
  198POPC   C4A 2745   9.099   3.129   5.781
  198POPC   C1B 2746   8.642   3.706   4.592
  198POPC   C2B 2747   8.630   3.561   5.039
  198POPC   C3B 2748   8.559   3.474   5.489
  198POPC   C4B 2749   8.828   3.551   5.870
  199POPC   NC3 2750   1.886   9.022   3.840
  199POPC   PO4 2751   2.336   9.462   3.957
  199POPC   GL1 2752   2.149   9.286   4.301
  199POPC   GL2 2753   2.170   8.945   4.283
  199POPC   C1A 2754   2.280   9.226   4.721
  199POPC   D2A 2755   2.093   8.946   5.020
  199POPC   C3A 2756   1.911   9.059   5.375
  199POPC   C4A 2757   2.094   9.076   5.747
  199POPC   C1B 2758   1.827   8.928   4.585
  199POPC   C2B 2759   1.582   8.833   4.993
  199POPC   C3B 2760   1.526   8.708   5.445
  199POPC   C4B 2761   1.665   8.835   5.843
  200POPC   NC3 2762   7.922   0.388   4.116
  200POPC   PO4 2763   7.667   0.823   3.727
  200POPC   GL1 2764   8.039   0.881   4.101
  200POPC   GL2 2765   8.349   0.639   4.216
  200POPC   C1A 2766   8.079   0.879   4.572
  200POPC   D2A 2767   7.965   0.995   4.990
  200POPC   C3A 2768   7.939   0.684   5.343
  200POPC   C4A 2769   8.038   0.611   5.784
  200POPC   C1B 2770   8.305   0.284   4.601
  200POPC   C2B 2771   8.437   0.146   5.015
  200POPC   C3B 2772   8.233   0.235   5.403
  200POPC   C4B 2773   8.400   0.144   5.795
  201POPC   NC3 2774   8.919   9.256   3.632
  201POPC   PO4 2775   8.393   9.389   4.066
  201POPC   GL1 2776   8.696   9.287   4.339
  201POPC   GL2 2777   8.984   9.122   4.158
  201POPC   C1A 2778   8.606   9.192   4.769
  201POPC   D2A 2779   8.748   9.114   5.201
  201POPC   C3A 2780   8.561   9.226   5.610
  201POPC   C4A 2781   8.516   9.168   6.091
  201POPC   C1B 2782   9.088   9.037   4.618
  201POPC   C2B 2783   9.089   8.782   5.019
  201POPC   C3B 2784   9.061   8.789   5.480
  201POPC   C4B 2785   8.802   8.786   5.831
  202POPC   NC3 2786   7.302   3.623   3.948
  202POPC   PO4 2787   7.624   3.077   3.761
  202POPC   GL1 2788   7.508   3.221   4.175
  202POPC   GL2 2789   7.656   3.538   4.291
  202POPC   C1A 2790   7.338   3.133   4.594
  202POPC   D2A 2791   7.201   2.956   4.975
  202POPC   C3A 2792   7.294   3.211   5.322
  202POPC   C4A 2793   7.329   3.191   5.754
  202POPC   C1B 2794   7.398   3.665   4.653
  202POPC   C2B 2795   7.275   3.688   5.095
  202POPC   C3B 2796   7.262   3.701   5.560
  202POPC   C4B 2797   7.564   3.691   5.888
  203POPC   NC3 2798   5.749   0.097   3.513
  203POPC   PO4 2799   5.512   0.475   4.048
  203POPC   GL1 2800   5.892   0.587   4.295
  203POPC   GL2 2801   5.878   0.888   4.500
  203POPC   C1A 2802   6.145   0.456   4.637
  203POPC   D2A 2803   6.151   0.114   4.955
  203POPC   C3A 2804   6.183   0.237   5.407
  203POPC   C4A 2805   6.015   0.207   5.818
  203POPC   C1B 2806   5.705   0.662   4.807
  203POPC   C2B 2807   5.855   0.498   5.130
  203POPC   C3B 2808   5.744   0.530   5.526
  203POPC   C4B 2809   5.377   0.782   5.651
  204POPC   NC3 2810   4.435   7.929   3.682
  204POPC   PO4 2811   4.120   7.741   4.284
  204POPC   GL1 2812   3.856   8.006   4.507
  204POPC   GL2 2813   4.094   8.265   4.411
  204POPC   C1A 2814   3.696   7.928   4.931
  204POPC   D2A 2815   3.915   7.874   5.307
  204POPC   C3A 2816   3.760   7.733   5.686
  204POPC   C4A 2817   3.955   7.937   5.972
  204POPC   C1B 2818   4.510   8.276   4.624
  204POPC   C2B 2819   4.553   8.332   5.078
  204POPC   C3B 2820   4.400   8.188   5.486
  204POPC   C4B 2821   4.407   8.369   5.897
  205POPC   NC3 2822   5.755   8.331   3.959
  205POPC   PO4 2823   6.164   7.810   3.946
  205POPC   GL1 2824   5.963   7.959   4.344
  205POPC   GL2 2825   5.831   8.302   4.441
  205POPC   C1A 2826   6.044   8.059   4.796
  205POPC   D2A 2827   5.829   8.352   5.120
  205POPC   C3A 2828   5.960   8.305   5.582
  205POPC   C4A 2829   5.997   8.029   5.962
  205POPC   C1B 2830   5.552   8.014   4.693
  205POPC   C2B 2831   5.417   8.062   5.140
  205POPC   C3B 2832   5.520   8.048   5.587
  205POPC   C4B 2833   5.510   7.885   6.017
  206POPC   NC3 2834   9.618   9.161   3.992
  206POPC   PO4 2835   9.993   8.656   3.875
  206POPC   GL1 2836   9.987   8.949   4.244
  206POPC   GL2 2837   9.681   8.811   4.368
  206POPC   C1A 2838   9.983   9.098   4.681
  206POPC   D2A 2839   0.201   9.186   5.064
  206POPC   C3A 2840   0.052   9.347   5.449
  206POPC   C4A 2841   9.809   9.266   5.819
  206POPC   C1B 2842   9.555   8.833   4.802
  206POPC   C2B 2843   9.554   8.806   5.256
  206POPC   C3B 2844   9.544   8.841   5.706
  206POPC   C4B 2845   9.286   8.660   6.031
  207POPC   NC3 2846   2.899   1.336   4.045
  207POPC   PO4 2847   2.337   0.980   3.948
  207POPC   GL1 2848   2.649   0.970   4.310
  207POPC   GL2 2849   2.760   1.274   4.518
  207POPC   C1A 2850   2.600   0.864   4.770
  207POPC   D2A 2851   2.710   1.139   5.077
  207POPC   C3A 2852   2.455   1.100   5.419
  207POPC   C4A 2853   2.486   0.941   5.834
  207POPC   C1B 2854   3.110   1.306   4.789
  207POPC   C2B 2855   3.227   1.104   5.162
  207POPC   C3B 2856   3.127   1.108   5.612
  207POPC   C4B 2857   2.888   1.182   6.004
  208POPC   NC3 2858   6.375   9.030   4.157
  208POPC   PO4 2859   6.920   8.924   3.808
  208POPC   GL1 2860   6.777   8.793   4.327
  208POPC   GL2 2861   6.694   9.142   4.570
  208POPC   C1A 2862   6.635   8.731   4.800
  208POPC   D2A 2863   6.717   8.519   5.211
  208POPC   C3A 2864   6.774   8.658   5.624
  208POPC   C4A 2865   6.796   8.681   6.069
  208POPC   C1B 2866   6.310   9.129   4.821
  208POPC   C2B 2867   6.392   9.136   5.228
  208POPC   C3B 2868   6.657   9.159   5.539
  208POPC   C4B 2869   6.482   9.001   5.874
  209POPC   NC3 2870   2.969   5.740   4.020
  209POPC   PO4 2871   2.296   5.777   3.951
  209POPC   GL1 2872   2.447   5.871   4.317
  209POPC   GL2 2873   2.720   6.084   4.324
  209POPC   C1A 2874   2.630   5.770   4.722
  209POPC   D2A 2875   2.469   5.872   5.133
  209POPC   C3A 2876   2.327   5.533   5.401
  209POPC   C4A 2877   2.449   5.604   5.836
  209POPC   C1B 2878   2.819   6.248   4.746
  209POPC   C2B 2879   2.854   6.214   5.194
  209POPC   C3B 2880   2.892   6.010   5.576
  209POPC   C4B 2881   3.230   5.962   5.896
  210POPC   NC3 2882   1.208   7.445   3.905
  210POPC   PO4 2883   0.919   6.857   3.951
  210POPC   GL1 2884   1.045   7.120   4.275
  210POPC   GL2 2885   0.856   7.456   4.290
  210POPC   C1A 2886   1.236   7.209   4.674
  210POPC   D2A 2887   1.144   7.308   5.120
  210POPC   C3A 2888   1.237   7.125   5.538
  210POPC   C4A 2889   1.369   6.982   5.979
  210POPC   C1B 2890   0.985   7.672   4.674
  210POPC   C2B 2891   1.169   7.816   5.079
  210POPC   C3B 2892   1.250   7.680   5.492
  210POPC   C4B 2893   1.456   7.476   5.850
  211POPC   NC3 2894   2.061   7.698   4.242
  211POPC   PO4 2895   1.644   7.273   3.942
  211POPC   GL1 2896   1.838   7.079   4.291
  211POPC   GL2 2897   2.168   7.202   4.362
  211POPC   C1A 2898   1.769   7.236   4.694
  211POPC   D2A 2899   1.566   7.508   4.938
  211POPC   C3A 2900   1.658   7.403   5.361
  211POPC   C4A 2901   1.887   7.234   5.700
  211POPC   C1B 2902   2.273   7.358   4.761
  211POPC   C2B 2903   2.054   7.598   5.052
  211POPC   C3B 2904   2.153   7.631   5.462
  211POPC   C4B 2905   2.519   7.640   5.703
  212POPC   NC3 2906   9.483   1.855   3.940
  212POPC   PO4 2907   9.504   2.493   4.011
  212POPC   GL1 2908   9.701   2.176   4.326
  212POPC   GL2 2909   9.889   1.831   4.278
  212POPC   C1A 2910   9.681   2.077   4.792
  212POPC   D2A 2911   9.787   2.152   5.233
  212POPC   C3A 2912   9.464   2.199   5.562
  212POPC   C4A 2913   9.356   1.972   5.955
  212POPC   C1B 2914   9.698   1.585   4.655
  212POPC   C2B 2915   9.550   1.662   5.116
  212POPC   C3B 2916   9.579   1.678   5.571
  212POPC   C4B 2917   9.869   1.790   5.917
  213POPC   NC3 2918   2.041   5.369   3.986
  213POPC   PO4 2919   2.463   4.886   4.130
  213POPC   GL1 2920   2.168   5.162   4.441
  213POPC   GL2 2921   1.776   5.212   4.411
  213POPC   C1A 2922   2.000   5.439   4.807
  213POPC   D2A 2923   1.699   5.532   5.166
  213POPC   C3A 2924   1.836   5.379   5.576
  213POPC   C4A 2925   2.184   5.152   5.781
  213POPC   C1B 2926   1.747   4.831   4.615
  213POPC   C2B 2927   1.832   4.836   5.053
  213POPC   C3B 2928   1.870   4.825   5.503
  213POPC   C4B 2929   1.989   4.671   5.899
  214POPC   NC3 2930   1.294   8.440   3.965
  214POPC   PO4 2931   0.902   7.845   3.958
  214POPC   GL1 2932   1.081   8.089   4.327
  214POPC   GL2 2933   1.459   8.141   4.342
  214POPC   C1A 2934   0.976   8.182   4.785
  214POPC   D2A 2935   0.713   8.010   5.183
  214POPC   C3A 2936   0.866   8.039   5.608
  214POPC   C4A 2937   1.158   7.894   5.942
  214POPC   C1B 2938   1.467   8.418   4.698
  214POPC   C2B 2939   1.318   8.348   5.128
  214POPC   C3B 2940   1.376   8.206   5.555
  214POPC   C4B 2941   1.665   8.326   5.885
  215POPC   NC3 2942   5.158   8.699   3.541
  215POPC   PO4 2943   4.771   8.970   4.001
  215POPC   GL1 2944   4.889   8.868   4.379
  215POPC   GL2 2945   5.193   8.807   4.387
  215POPC   C1A 2946   4.845   8.673   4.767
  215POPC   D2A 2947   4.699   8.827   5.141
  215POPC   C3A 2948   4.717   8.605   5.518
  215POPC   C4A 2949   4.870   8.650   5.922
  215POPC   C1B 2950   5.171   9.108   4.734
  215POPC   C2B 2951   5.053   9.215   5.142
  215POPC   C3B 2952   5.062   9.006   5.541
  215POPC   C4B 2953   5.052   9.112   5.975
  216POPC   NC3 2954   2.865   6.579   3.719
  216POPC   PO4 2955   3.301   7.087   3.869
  216POPC   GL1 2956   3.071   6.834   4.227
  216POPC   GL2 2957   2.746   6.584   4.249
  216POPC   C1A 2958   2.989   6.758   4.694
  216POPC   D2A 2959   2.653   6.642   5.031
  216POPC   C3A 2960   2.731   6.735   5.500
  216POPC   C4A 2961   3.124   6.889   5.735
  216POPC   C1B 2962   2.390   6.420   4.576
  216POPC   C2B 2963   2.212   6.402   4.999
  216POPC   C3B 2964   2.382   6.317   5.389
  216POPC   C4B 2965   2.407   6.295   5.812
  217POPC   NC3 2966   2.714   4.127   3.430
  217POPC   PO4 2967   2.835   4.101   4.050
  217POPC   GL1 2968   2.788   4.264   4.476
  217POPC   GL2 2969   2.708   4.618   4.524
  217POPC   C1A 2970   2.976   4.265   4.884
  217POPC   D2A 2971   2.942   4.353   5.325
  217POPC   C3A 2972   2.820   4.029   5.625
  217POPC   C4A 2973   2.703   4.079   6.078
  217POPC   C1B 2974   2.484   4.411   4.890
  217POPC   C2B 2975   2.442   4.206   5.301
  217POPC   C3B 2976   2.450   4.363   5.726
  217POPC   C4B 2977   2.493   4.743   5.903
  218POPC   NC3 2978   3.073   7.490   4.075
  218POPC   PO4 2979   2.486   7.577   4.179
  218POPC   GL1 2980   2.700   7.314   4.365
  218POPC   GL2 2981   2.610   7.055   4.131
  218POPC   C1A 2982   2.837   7.463   4.752
  218POPC   D2A 2983   2.711   7.706   5.140
  218POPC   C3A 2984   2.987   7.779   5.514
  218POPC   C4A 2985   2.949   7.718   5.970
  218POPC   C1B 2986   2.532   6.931   4.609
  218POPC   C2B 2987   2.623   7.132   5.053
  218POPC   C3B 2988   2.846   7.263   5.440
  218POPC   C4B 2989   2.716   7.179   5.868
  219POPC   NC3 2990   2.478   4.422   4.111
  219POPC   PO4 2991   1.925   4.053   4.259
  219POPC   GL1 2992   2.243   4.191   4.498
  219POPC   GL2 2993   2.185   4.577   4.502
  219POPC   C1A 2994   2.227   3.970   4.889
  219POPC   D2A 2995   2.178   3.758   5.245
  219POPC   C3A 2996   2.271   3.880   5.676
  219POPC   C4A 2997   2.243   3.814   6.139
  219POPC   C1B 2998   1.901   4.376   4.831
  219POPC   C2B 2999   1.714   3.982   4.994
  219POPC   C3B 3000   1.676   3.993   5.439
  219POPC   C4B 3001   1.987   4.293   5.538
  220POPC   NC3 3002   5.562   9.948   4.072
  220POPC   PO4 3003   6.204   0.076   3.839
  220POPC   GL1 3004   6.026   0.097   4.278
  220POPC   GL2 3005   5.920   9.792   4.404
  220POPC   C1A 3006   5.718   0.171   4.667
  220POPC   D2A 3007   5.572   0.030   5.078
  220POPC   C3A 3008   5.806   9.891   5.439
  220POPC   C4A 3009   5.819   9.727   5.865
  220POPC   C1B 3010   5.911   9.679   4.839
  220POPC   C2B 3011   6.023   9.480   5.221
  220POPC   C3B 3012   5.760   9.274   5.551
  220POPC   C4B 3013   5.441   9.391   5.844
  221POPC   NC3 3014   9.755   4.035   3.895
  221POPC   PO4 3015   9.952   4.615   3.995
  221POPC   GL1 3016   9.949   4.266   4.308
  221POPC   GL2 3017   9.626   4.119   4.367
  221POPC   C1A 3018   0.042   4.139   4.730
  221POPC   D2A 3019   9.775   4.137   5.095
  221POPC   C3A 3020   9.857   3.967   5.477
  221POPC   C4A 3021   9.845   4.427   5.594
  221POPC   C1B 3022   9.439   3.980   4.748
  221POPC   C2B 3023   9.313   3.932   5.201
  221POPC   C3B 3024   9.404   4.180   5.579
  221POPC   C4B 3025   9.642   4.117   5.974
  222POPC   NC3 3026   9.345   3.301   4.099
  222POPC   PO4 3027   9.886   3.370   3.718
  222POPC   GL1 3028   9.696   3.635   4.194
  222POPC   GL2 3029   9.954   3.721   4.459
  222POPC   C1A 3030   9.566   3.492   4.668
  222POPC   D2A 3031   9.711   3.630   5.070
  222POPC   C3A 3032   9.573   3.490   5.434
  222POPC   C4A 3033   9.343   3.663   5.765
  222POPC   C1B 3034   0.059   3.408   4.798
  222POPC   C2B 3035   0.067   3.222   5.195
  222POPC   C3B 3036   0.045   3.340   5.606
  222POPC   C4B 3037   9.831   3.615   5.878
  223POPC   NC3 3038   1.200   0.149   4.093
  223POPC   PO4 3039   0.716   0.630   4.166
  223POPC   GL1 3040   1.084   0.442   4.494
  223POPC   GL2 3041   1.457   0.449   4.409
  223POPC   C1A 3042   1.371   0.265   4.865
  223POPC   D2A 3043   1.161   0.205   5.233
  223POPC   C3A 3044   1.259   0.123   5.648
  223POPC   C4A 3045   0.904   0.207   5.901
  223POPC   C1B 3046   1.471   0.751   4.722
  223POPC   C2B 3047   1.219   0.725   5.088
  223POPC   C3B 3048   1.286   0.644   5.524
  223POPC   C4B 3049   1.246   0.571   5.965
  224POPC   NC3 3050   8.053   3.056   3.607
  224POPC   PO4 3051   8.530   3.492   3.836
  224POPC   GL1 3052   8.304   3.503   4.256
  224POPC   GL2 3053   8.118   3.764   4.300
  224POPC   C1A 3054   8.294   3.336   4.684
  224POPC   D2A 3055   8.139   3.410   5.113
  224POPC   C3A 3056   8.179   3.117   5.462
  224POPC   C4A 3057   7.907   3.174   5.835
  224POPC   C1B 3058   7.915   3.665   4.704
  224POPC   C2B 3059   7.738   3.926   5.002
  224POPC   C3B 3060   7.770   3.903   5.443
  224POPC   C4B 3061   8.055   3.662   5.706
  225POPC   NC3 3062   6.532   9.684   3.979
  225POPC   PO4 3063   6.023   9.322   4.260
  225POPC   GL1 3064   6.377   9.531   4.444
  225POPC   GL2 3065   6.495   9.901   4.429
  225POPC   C1A 3066   6.454   9.641   4.865
  225POPC   D2A 3067   6.651   9.598   5.238
  225POPC   C3A 3068   6.356   9.767   5.503
  225POPC   C4A 3069   6.216   9.411   5.722
  225POPC   C1B 3070   6.898   9.878   4.706
  225POPC   C2B 3071   7.091   9.842   5.140
  225POPC   C3B 3072   6.905   9.908   5.556
  225POPC   C4B 3073   6.708   9.590   5.813
  226POPC   NC3 3074   9.933   5.782   3.963
  226POPC   PO4 3075   9.372   5.493   3.720
  226POPC   GL1 3076   9.508   5.487   4.167
  226POPC   GL2 3077   9.474   5.798   4.266
  226POPC   C1A 3078   9.643   5.468   4.647
  226POPC   D2A 3079   9.688   5.660   5.100
  226POPC   C3A 3080   9.664   5.410   5.514
  226POPC   C4A 3081   9.871   5.501   5.899
  226POPC   C1B 3082   9.526   5.969   4.688
  226POPC   C2B 3083   9.879   6.125   4.924
  226POPC   C3B 3084   9.935   6.068   5.350
  226POPC   C4B 3085   9.655   5.901   5.589
  227POPC   NC3 3086   9.008   5.733   3.928
  227POPC   PO4 3087   9.265   6.376   3.903
  227POPC   GL1 3088   9.101   6.133   4.303
  227POPC   GL2 3089   8.902   5.834   4.408
  227POPC   C1A 3090   9.055   6.151   4.776
  227POPC   D2A 3091   9.181   5.779   5.040
  227POPC   C3A 3092   9.158   5.832   5.479
  227POPC   C4A 3093   9.254   6.104   5.845
  227POPC   C1B 3094   8.776   5.598   4.761
  227POPC   C2B 3095   8.766   5.403   5.160
  227POPC   C3B 3096   8.715   5.592   5.558
  227POPC   C4B 3097   8.869   5.798   5.914
  228POPC   NC3 3098   8.491   3.089   4.064
  228POPC   PO4 3099   8.067   2.633   3.826
  228POPC   GL1 3100   7.995   2.745   4.237
  228POPC   GL2 3101   7.991   3.075   4.160
  228POPC   C1A 3102   8.130   2.775   4.696
  228POPC   D2A 3103   8.072   2.672   5.142
  228POPC   C3A 3104   8.437   2.633   5.413
  228POPC   C4A 3105   8.447   2.446   5.852
  228POPC   C1B 3106   7.837   3.161   4.569
  228POPC   C2B 3107   7.719   3.066   4.999
  228POPC   C3B 3108   7.694   2.893   5.432
  228POPC   C4B 3109   7.992   2.680   5.689
  229POPC   NC3 3110   5.942   2.884   3.970
  229POPC   PO4 3111   5.286   3.063   4.114
  229POPC   GL1 3112   5.626   2.854   4.363
  229POPC   GL2 3113   5.577   2.489   4.374
  229POPC   C1A 3114   6.029   2.957   4.626
  229POPC   D2A 3115   6.218   2.790   5.015
  229POPC   C3A 3116   6.122   2.915   5.452
  229POPC   C4A 3117   5.881   2.925   5.851
  229POPC   C1B 3118   5.852   2.487   4.720
  229POPC   C2B 3119   5.984   2.310   5.076
  229POPC   C3B 3120   5.867   2.360   5.490
  229POPC   C4B 3121   5.506   2.609   5.644
  230POPC   NC3 3122   1.301   6.033   3.876
  230POPC   PO4 3123   0.972   5.566   3.734
  230POPC   GL1 3124   1.015   5.817   4.215
  230POPC   GL2 3125   1.379   5.868   4.335
  230POPC   C1A 3126   1.006   6.090   4.636
  230POPC   D2A 3127   0.862   5.949   5.060
  230POPC   C3A 3128   1.062   6.059   5.444
  230POPC   C4A 3129   0.974   6.236   5.834
  230POPC   C1B 3130   1.224   5.641   4.706
  230POPC   C2B 3131   1.160   5.509   5.136
  230POPC   C3B 3132   1.315   5.511   5.547
  230POPC   C4B 3133   1.158   5.748   5.854
  231POPC   NC3 3134   4.933   8.518   4.008
  231POPC   PO4 3135   5.439   7.992   3.977
  231POPC   GL1 3136   5.336   8.304   4.319
  231POPC   GL2 3137   5.005   8.311   4.453
  231POPC   C1A 3138   5.391   8.492   4.758
  231POPC   D2A 3139   5.176   8.624   5.159
  231POPC   C3A 3140   5.267   8.509   5.587
  231POPC   C4A 3141   5.158   8.239   5.917
  231POPC   C1B 3142   4.996   8.182   4.884
  231POPC   C2B 3143   4.950   8.164   5.365
  231POPC   C3B 3144   4.781   7.948   5.749
  231POPC   C4B 3145   4.962   7.793   6.149
  232POPC   NC3 3146   7.158   1.883   3.637
  232POPC   PO4 3147   7.601   2.142   4.041
  232POPC   GL1 3148   7.590   2.070   4.415
  232POPC   GL2 3149   7.671   1.715   4.331
  232POPC   C1A 3150   7.333   2.097   4.801
  232POPC   D2A 3151   7.343   1.997   5.243
  232POPC   C3A 3152   7.054   2.199   5.545
  232POPC   C4A 3153   7.013   2.127   6.008
  232POPC   C1B 3154   7.755   1.813   4.801
  232POPC   C2B 3155   7.753   1.653   5.198
  232POPC   C3B 3156   7.742   1.810   5.590
  232POPC   C4B 3157   7.388   1.895   5.765
  233POPC   NC3 3158   0.483   0.912   3.880
  233POPC   PO4 3159   0.726   1.604   3.940
  233POPC   GL1 3160   0.536   1.280   4.241
  233POPC   GL2 3161   0.178   1.201   4.209
  233POPC   C1A 3162   0.502   1.021   4.649
  233POPC   D2A 3163   0.773   0.997   5.053
  233POPC   C3A 3164   0.754   0.876   5.510
  233POPC   C4A 3165   0.638   1.148   5.876
  233POPC   C1B 3166   0.187   1.427   4.612
  233POPC   C2B 3167   0.438   1.398   4.981
  233POPC   C3B 3168   0.437   1.293   5.411
  233POPC   C4B 3169   0.221   1.424   5.792
  234POPC   NC3 3170   2.973   3.717   3.809
  234POPC   PO4 3171   2.358   3.995   3.689
  234POPC   GL1 3172   2.401   3.809   4.136
  234POPC   GL2 3173   2.552   3.459   4.131
  234POPC   C1A 3174   2.590   3.811   4.586
  234POPC   D2A 3175   2.712   3.845   5.048
  234POPC   C3A 3176   2.634   3.571   5.420
  234POPC   C4A 3177   2.659   3.607   5.879
  234POPC   C1B 3178   2.812   3.362   4.543
  234POPC   C2B 3179   2.941   3.286   5.015
  234POPC   C3B 3180   3.059   3.259   5.480
  234POPC   C4B 3181   2.810   3.128   5.850
  235POPC   NC3 3182   0.316   3.208   3.877
  235POPC   PO4 3183   0.370   2.509   3.878
  235POPC   GL1 3184   0.241   2.823   4.233
  235POPC   GL2 3185   9.995   2.617   4.402
  235POPC   C1A 3186   0.299   2.971   4.708
  235POPC   D2A 3187   0.367   2.787   5.148
  235POPC   C3A 3188   0.253   2.847   5.625
  235POPC   C4A 3189   0.158   3.090   6.026
  235POPC   C1B 3190   0.024   2.458   4.845
  235POPC   C2B 3191   0.315   2.247   5.152
  235POPC   C3B 3192   0.699   2.448   5.359
  235POPC   C4B 3193   0.809   2.784   5.642
  236POPC   NC3 3194   1.900   1.321   4.041
  236POPC   PO4 3195   1.690   0.643   4.022
  236POPC   GL1 3196   1.910   0.848   4.356
  236POPC   GL2 3197   2.220   0.737   4.435
  236POPC   C1A 3198   1.928   0.947   4.819
  236POPC   D2A 3199   1.654   0.992   5.151
  236POPC   C3A 3200   1.787   0.772   5.486
  236POPC   C4A 3201   1.641   0.883   5.869
  236POPC   C1B 3202   2.267   1.205   4.574
  236POPC   C2B 3203   2.221   1.404   4.999
  236POPC   C3B 3204   2.104   1.525   5.433
  236POPC   C4B 3205   2.048   1.163   5.715
  237POPC   NC3 3206   2.700   9.785   3.935
  237POPC   PO4 3207   3.089   9.187   4.100
  237POPC   GL1 3208   2.896   9.421   4.468
  237POPC   GL2 3209   2.591   9.582   4.396
  237POPC   C1A 3210   2.702   9.513   4.906
  237POPC   D2A 3211   2.445   9.290   5.206
  237POPC   C3A 3212   2.516   9.325   5.626
  237POPC   C4A 3213   2.860   9.320   5.840
  237POPC   C1B 3214   2.862   9.902   4.616
  237POPC   C2B 3215   2.915   9.981   5.061
  237POPC   C3B 3216   2.654   9.765   5.382
  237POPC   C4B 3217   2.596   9.795   5.823
  238POPC   NC3 3218   7.823   4.364   3.951
  238POPC   PO4 3219   8.493   4.484   3.954
  238POPC   GL1 3220   8.198   4.604   4.282
  238POPC   GL2 3221   8.209   4.263   4.394
  238POPC   C1A 3222   8.304   4.683   4.733
  238POPC   D2A 3223   8.569   4.413   5.003
  238POPC   C3A 3224   8.467   4.349   5.421
  238POPC   C4A 3225   8.101   4.218   5.679
  238POPC   C1B 3226   8.269   4.017   4.812
  238POPC   C2B 3227   8.289   3.892   5.282
  238POPC   C3B 3228   8.486   3.920   5.738
  238POPC   C4B 3229   8.361   3.839   6.179
  239POPC   NC3 3230   9.607   6.683   3.919
  239POPC   PO4 3231   9.932   6.159   4.227
  239POPC   GL1 3232   9.702   6.513   4.410
  239POPC   GL2 3233   9.876   6.855   4.320
  239POPC   C1A 3234   9.494   6.471   4.823
  239POPC   D2A 3235   9.432   6.210   5.204
  239POPC   C3A 3236   9.560   6.417   5.600
  239POPC   C4A 3237   9.522   6.419   6.114
  239POPC   C1B 3238   9.706   6.945   4.714
  239POPC   C2B 3239   9.726   6.824   5.139
  239POPC   C3B 3240   9.837   7.002   5.524
  239POPC   C4B 3241   9.708   6.824   5.876
  240POPC   NC3 3242   5.618   0.946   4.067
  240POPC   PO4 3243   5.899   1.473   3.680
  240POPC   GL1 3244   5.837   1.449   4.181
  240POPC   GL2 3245   5.555   1.396   4.322
  240POPC   C1A 3246   5.929   1.361   4.661
  240POPC   D2A 3247   6.020   1.033   5.007
  240POPC   C3A 3248   5.790   1.052   5.427
  240POPC   C4A 3249   5.851   0.883   5.865
  240POPC   C1B 3250   5.468   1.581   4.715
  240POPC   C2B 3251   5.546   1.401   5.100
  240POPC   C3B 3252   5.410   1.435   5.533
  240POPC   C4B 3253   5.455   1.208   5.922
  241POPC   NC3 3254   2.145   0.557   3.953
  241POPC   PO4 3255   1.728   0.193   3.553
  241POPC   GL1 3256   1.713   0.116   4.062
  241POPC   GL2 3257   1.949   0.296   4.307
  241POPC   C1A 3258   1.686   9.995   4.563
  241POPC   D2A 3259   1.843   9.990   4.994
  241POPC   C3A 3260   1.684   0.275   5.325
  241POPC   C4A 3261   1.697   0.338   5.791
  241POPC   C1B 3262   1.882   0.439   4.729
  241POPC   C2B 3263   2.102   0.550   5.104
  241POPC   C3B 3264   2.290   0.594   5.506
  241POPC   C4B 3265   2.083   0.650   5.907
  242POPC   NC3 3266   6.430   3.205   3.430
  242POPC   PO4 3267   6.251   3.295   4.024
  242POPC   GL1 3268   6.502   3.200   4.423
  242POPC   GL2 3269   6.880   3.167   4.333
  242POPC   C1A 3270   6.428   3.243   4.904
  242POPC   D2A 3271   6.328   3.427   5.345
  242POPC   C3A 3272   6.337   3.240   5.773
  242POPC   C4A 3273   6.100   3.269   6.162
  242POPC   C1B 3274   6.919   3.356   4.762
  242POPC   C2B 3275   6.837   3.416   5.197
  242POPC   C3B 3276   6.846   3.339   5.629
  242POPC   C4B 3277   6.825   3.104   6.003
  243POPC   NC3 3278   3.483   0.389   3.783
  243POPC   PO4 3279   3.208   0.990   3.939
  243POPC   GL1 3280   3.473   0.713   4.240
  243POPC   GL2 3281   3.637   0.364   4.254
  243POPC   C1A 3282   3.484   0.562   4.701
  243POPC   D2A 3283   3.426   0.160   4.972
  243POPC   C3A 3284   3.240   0.217   5.403
  243POPC   C4A 3285   3.358   0.447   5.781
  243POPC   C1B 3286   3.892   0.280   4.630
  243POPC   C2B 3287   3.853   0.460   5.057
  243POPC   C3B 3288   3.755   0.281   5.453
  243POPC   C4B 3289   3.879   0.316   5.874
  244POPC   NC3 3290   8.721   1.733   3.935
  244POPC   PO4 3291   9.190   2.099   3.699
  244POPC   GL1 3292   9.184   2.123   4.252
  244POPC   GL2 3293   9.038   1.821   4.324
  244POPC   C1A 3294   8.964   2.257   4.702
  244POPC   D2A 3295   8.571   2.195   5.031
  244POPC   C3A 3296   8.659   2.138   5.503
  244POPC   C4A 3297   8.863   2.145   5.960
  244POPC   C1B 3298   9.238   1.824   4.715
  244POPC   C2B 3299   9.194   2.035   5.131
  244POPC   C3B 3300   9.074   1.843   5.532
  244POPC   C4B 3301   8.712   1.686   5.786
  245POPC   NC3 3302   0.342   9.840   3.983
  245POPC   PO4 3303   0.736   9.325   3.848
  245POPC   GL1 3304   0.614   9.430   4.257
  245POPC   GL2 3305   0.311   9.341   4.374
  245POPC   C1A 3306   0.654   9.512   4.721
  245POPC   D2A 3307   0.514   9.571   5.139
  245POPC   C3A 3308   0.764   9.381   5.470
  245POPC   C4A 3309   0.462   9.311   5.799
  245POPC   C1B 3310   0.143   9.589   4.739
  245POPC   C2B 3311   0.063   9.814   5.123
  245POPC   C3B 3312   0.285   9.810   5.537
  245POPC   C4B 3313   0.126   9.669   5.923
  246POPC   NC3 3314   7.309   8.744   3.942
  246POPC   PO4 3315   6.767   9.301   4.119
  246POPC   GL1 3316   7.148   9.116   4.322
  246POPC   GL2 3317   7.452   9.007   4.363
  246POPC   C1A 3318   7.129   8.893   4.734
  246POPC   D2A 3319   6.928   8.990   5.134
  246POPC   C3A 3320   7.168   8.956   5.521
  246POPC   C4A 3321   6.994   9.135   5.936
  246POPC   C1B 3322   7.642   8.962   4.784
  246POPC   C2B 3323   7.629   8.882   5.242
  246POPC   C3B 3324   7.530   8.569   5.570
  246POPC   C4B 3325   7.232   8.572   5.858
  247POPC   NC3 3326   5.723   7.635   4.006
  247POPC   PO4 3327   6.132   7.080   3.978
  247POPC   GL1 3328   6.052   7.391   4.304
  247POPC   GL2 3329   6.037   7.125   4.511
  247POPC   C1A 3330   5.907   7.576   4.754
  247POPC   D2A 3331   5.884   7.821   5.209
  247POPC   C3A 3332   5.873   7.642   5.639
  247POPC   C4A 3333   5.875   7.528   6.088
  247POPC   C1B 3334   6.245   7.197   4.924
  247POPC   C2B 3335   6.220   7.288   5.382
  247POPC   C3B 3336   5.992   7.147   5.758
  247POPC   C4B 3337   5.700   7.041   6.109
  248POPC   NC3 3338   2.767   0.885   3.813
  248POPC   PO4 3339   2.598   0.238   3.915
  248POPC   GL1 3340   2.938   0.539   4.161
  248POPC   GL2 3341   3.139   0.309   4.380
  248POPC   C1A 3342   3.063   0.806   4.566
  248POPC   D2A 3343   3.088   0.624   5.024
  248POPC   C3A 3344   2.848   0.736   5.422
  248POPC   C4A 3345   2.894   0.656   5.896
  248POPC   C1B 3346   2.764   0.394   4.659
  248POPC   C2B 3347   2.613   0.409   5.096
  248POPC   C3B 3348   2.716   0.253   5.524
  248POPC   C4B 3349   2.488   0.315   5.902
  249POPC   NC3 3350   8.805   6.701   3.912
  249POPC   PO4 3351   8.629   6.075   4.049
  249POPC   GL1 3352   8.716   6.460   4.350
  249POPC   GL2 3353   9.094   6.635   4.326
  249POPC   C1A 3354   8.785   6.621   4.768
  249POPC   D2A 3355   9.066   6.587   5.122
  249POPC   C3A 3356   8.959   6.322   5.460
  249POPC   C4A 3357   8.791   6.290   5.877
  249POPC   C1B 3358   9.210   6.868   4.681
  249POPC   C2B 3359   9.259   7.059   5.111
  249POPC   C3B 3360   9.334   6.887   5.518
  249POPC   C4B 3361   9.154   6.636   5.841
  250POPC   NC3 3362   4.800   9.549   3.927
  250POPC   PO4 3363   5.488   9.572   3.791
  250POPC   GL1 3364   5.337   9.525   4.269
  250POPC   GL2 3365   4.999   9.381   4.350
  250POPC   C1A 3366   5.389   9.666   4.710
  250POPC   D2A 3367   5.496   9.516   5.148
  250POPC   C3A 3368   5.288   9.750   5.498
  250POPC   C4A 3369   5.304   9.863   5.955
  250POPC   C1B 3370   4.746   9.405   4.740
  250POPC   C2B 3371   4.819   9.704   5.065
  250POPC   C3B 3372   4.742   9.778   5.486
  250POPC   C4B 3373   4.887   9.579   5.851
  251POPC   NC3 3374   7.179   1.912   4.151
  251POPC   PO4 3375   6.505   1.847   3.883
  251POPC   GL1 3376   6.603   1.775   4.269
  251POPC   GL2 3377   6.264   1.696   4.358
  251POPC   C1A 3378   6.820   1.711   4.670
  251POPC   D2A 3379   6.859   1.978   5.037
  251POPC   C3A 3380   6.823   1.750   5.419
  251POPC   C4A 3381   6.945   1.635   5.857
  251POPC   C1B 3382   6.404   2.015   4.682
  251POPC   C2B 3383   6.353   1.970   5.149
  251POPC   C3B 3384   6.437   2.020   5.585
  251POPC   C4B 3385   6.444   1.649   5.803
  252POPC   NC3 3386   1.562   2.006   3.814
  252POPC   PO4 3387   1.449   1.421   3.989
  252POPC   GL1 3388   1.424   1.751   4.307
  252POPC   GL2 3389   1.195   2.014   4.193
  252POPC   C1A 3390   1.349   1.792   4.787
  252POPC   D2A 3391   1.070   1.671   5.171
  252POPC   C3A 3392   1.168   1.644   5.626
  252POPC   C4A 3393   1.477   1.805   5.928
  252POPC   C1B 3394   1.200   2.272   4.570
  252POPC   C2B 3395   1.054   2.193   5.002
  252POPC   C3B 3396   1.266   2.117   5.388
  252POPC   C4B 3397   1.143   2.332   5.737
  253POPC   NC3 3398   0.180   3.656   4.019
  253POPC   PO4 3399   0.776   3.234   3.868
  253POPC   GL1 3400   0.650   3.206   4.290
  253POPC   GL2 3401   0.399   3.412   4.421
  253POPC   C1A 3402   0.755   3.232   4.721
  253POPC   D2A 3403   0.512   3.398   5.049
  253POPC   C3A 3404   0.548   3.196   5.417
  253POPC   C4A 3405   0.617   3.250   5.836
  253POPC   C1B 3406   0.412   3.770   4.716
  253POPC   C2B 3407   0.203   3.811   5.109
  253POPC   C3B 3408   0.374   3.698   5.500
  253POPC   C4B 3409   0.335   3.651   5.945
  254POPC   NC3 3410   3.892   9.719   3.542
  254POPC   PO4 3411   4.344   9.409   3.811
  254POPC   GL1 3412   4.446   9.351   4.255
  254POPC   GL2 3413   4.553   9.697   4.369
  254POPC   C1A 3414   4.211   9.439   4.663
  254POPC   D2A 3415   4.308   9.597   5.108
  254POPC   C3A 3416   4.071   9.363   5.463
  254POPC   C4A 3417   3.833   9.546   5.834
  254POPC   C1B 3418   4.284   9.944   4.697
  254POPC   C2B 3419   3.996   9.984   5.075
  254POPC   C3B 3420   4.085   9.881   5.520
  254POPC   C4B 3421   4.368   9.620   5.808
  255POPC   NC3 3422   2.633   9.132   4.144
  255POPC   PO4 3423   2.697   8.507   3.877
  255POPC   GL1 3424   2.607   8.630   4.296
  255POPC   GL2 3425   2.923   8.790   4.423
  255POPC   C1A 3426   2.451   8.725   4.717
  255POPC   D2A 3427   2.368   8.543   5.146
  255POPC   C3A 3428   2.467   8.840   5.459
  255POPC   C4A 3429   2.847   8.817   5.720
  255POPC   C1B 3430   2.852   9.044   4.794
  255POPC   C2B 3431   2.898   9.040   5.223
  255POPC   C3B 3432   3.182   8.709   5.326
  255POPC   C4B 3433   3.294   8.531   5.714
  256POPC   NC3 3434   0.316   9.046   3.855
  256POPC   PO4 3435   0.905   8.671   4.072
  256POPC   GL1 3436   0.604   8.896   4.243
  256POPC   GL2 3437   0.379   8.641   4.212
  256POPC   C1A 3438   0.493   8.961   4.658
  256POPC   D2A 3439   0.698   9.087   5.019
  256POPC   C3A 3440   0.540   8.936   5.400
  256POPC   C4A 3441   0.726   8.859   5.801
  256POPC   C1B 3442   0.105   8.609   4.591
  256POPC   C2B 3443   0.214   8.687   5.022
  256POPC   C3B 3444   0.041   8.799   5.417
  256POPC   C4B 3445   0.186   8.909   5.819
  257POPC   NC3 3446   6.336   1.349   3.837
  257POPC   PO4 3447   6.778   0.770   3.881
  257POPC   GL1 3448   6.860   1.063   4.224
  257POPC   GL2 3449   6.594   1.268   4.261
  257POPC   C1A 3450   6.936   1.196   4.668
  257POPC   D2A 3451   7.003   1.055   5.116
  257POPC   C3A 3452   6.835   1.248   5.503
  257POPC   C4A 3453   6.519   1.106   5.803
  257POPC   C1B 3454   6.446   1.344   4.659
  257POPC   C2B 3455   6.591   1.419   5.068
  257POPC   C3B 3456   6.291   1.355   5.409
  257POPC   C4B 3457   6.039   1.342   5.801
  258POPC   NC3 3458   5.185   1.400   3.588
  258POPC   PO4 3459   4.791   0.888   3.882
  258POPC   GL1 3460   5.116   0.984   4.279
  258POPC   GL2 3461   4.982   1.258   4.474
  258POPC   C1A 3462   5.417   1.059   4.670
  258POPC   D2A 3463   5.377   0.931   5.107
  258POPC   C3A 3464   5.038   1.088   5.354
  258POPC   C4A 3465   4.939   1.051   5.782
  258POPC   C1B 3466   5.034   1.313   4.886
  258POPC   C2B 3467   4.782   1.536   5.150
  258POPC   C3B 3468   4.888   1.563   5.568
  258POPC   C4B 3469   5.077   1.570   5.974
  259POPC   NC3 3470   6.433   7.434   3.955
  259POPC   PO4 3471   7.078   7.403   3.949
  259POPC   GL1 3472   7.017   7.424   4.379
  259POPC   GL2 3473   6.740   7.579   4.336
  259POPC   C1A 3474   6.841   7.334   4.787
  259POPC   D2A 3475   6.843   7.529   5.186
  259POPC   C3A 3476   6.749   7.368   5.578
  259POPC   C4A 3477   6.917   7.002   5.706
  259POPC   C1B 3478   6.402   7.569   4.618
  259POPC   C2B 3479   6.364   7.691   5.054
  259POPC   C3B 3480   6.370   7.744   5.533
  259POPC   C4B 3481   6.366   7.465   5.922
  260POPC   NC3 3482   6.020   1.836   3.926
  260POPC   PO4 3483   6.040   2.410   4.043
  260POPC   GL1 3484   5.963   2.112   4.386
  260POPC   GL2 3485   5.690   1.897   4.374
  260POPC   C1A 3486   5.945   1.859   4.800
  260POPC   D2A 3487   5.737   1.859   5.193
  260POPC   C3A 3488   5.978   1.793   5.538
  260POPC   C4A 3489   6.023   2.055   5.888
  260POPC   C1B 3490   5.499   2.104   4.790
  260POPC   C2B 3491   5.427   2.265   5.239
  260POPC   C3B 3492   5.516   2.045   5.676
  260POPC   C4B 3493   5.657   1.677   5.943
  261POPC   NC3 3494   0.664   8.243   4.056
  261POPC   PO4 3495   0.156   7.796   3.920
  261POPC   GL1 3496   0.419   7.841   4.276
  261POPC   GL2 3497   0.260   8.165   4.372
  261POPC   C1A 3498   0.503   7.911   4.730
  261POPC   D2A 3499   0.242   8.166   5.044
  261POPC   C3A 3500   0.221   8.001   5.487
  261POPC   C4A 3501   0.417   8.085   5.909
  261POPC   C1B 3502   0.556   8.430   4.676
  261POPC   C2B 3503   0.686   8.516   5.106
  261POPC   C3B 3504   0.483   8.449   5.535
  261POPC   C4B 3505   0.073   8.423   5.782
  262POPC   NC3 3506   9.909   8.207   3.919
  262POPC   PO4 3507   9.379   7.815   3.797
  262POPC   GL1 3508   9.525   7.988   4.187
  262POPC   GL2 3509   9.835   7.847   4.302
  262POPC   C1A 3510   9.427   7.847   4.639
  262POPC   D2A 3511   9.660   7.911   5.040
  262POPC   C3A 3512   9.487   7.901   5.476
  262POPC   C4A 3513   9.782   7.864   5.849
  262POPC   C1B 3514   9.778   8.213   4.586
  262POPC   C2B 3515   9.793   8.417   4.974
  262POPC   C3B 3516   9.797   8.314   5.378
  262POPC   C4B 3517   9.578   8.329   5.774
  263POPC   NC3 3518   9.635   0.619   4.059
  263POPC   PO4 3519   0.047   0.124   3.743
  263POPC   GL1 3520   9.895   0.192   4.211
  263POPC   GL2 3521   9.581   0.166   4.389
  263POPC   C1A 3522   9.987   0.142   4.687
  263POPC   D2A 3523   9.838   0.293   5.122
  263POPC   C3A 3524   9.998   0.260   5.571
  263POPC   C4A 3525   0.052   0.445   6.028
  263POPC   C1B 3526   9.669   0.538   4.690
  263POPC   C2B 3527   9.455   0.685   5.062
  263POPC   C3B 3528   9.685   0.712   5.440
  263POPC   C4B 3529   9.601   0.485   5.818
  264POPC   NC3 3530   4.269   8.961   3.915
  264POPC   PO4 3531   4.541   8.354   3.806
  264POPC   GL1 3532   4.450   8.625   4.250
  264POPC   GL2 3533   4.087   8.767   4.368
  264POPC   C1A 3534   4.467   8.984   4.614
  264POPC   D2A 3535   4.292   9.103   5.033
  264POPC   C3A 3536   4.583   9.264   5.379
  264POPC   C4A 3537   4.594   9.082   5.775
  264POPC   C1B 3538   4.199   8.622   4.827
  264POPC   C2B 3539   4.228   8.660   5.302
  264POPC   C3B 3540   4.177   8.785   5.726
  264POPC   C4B 3541   3.980   8.755   6.149
  265POPC   NC3 3542   8.362   5.813   3.795
  265POPC   PO4 3543   7.749   5.811   3.918
  265POPC   GL1 3544   7.989   5.655   4.286
  265POPC   GL2 3545   8.330   5.806   4.368
  265POPC   C1A 3546   8.044   5.611   4.769
  265POPC   D2A 3547   8.289   5.690   5.176
  265POPC   C3A 3548   8.023   5.729   5.584
  265POPC   C4A 3549   7.591   5.777   5.839
  265POPC   C1B 3550   8.536   6.060   4.722
  265POPC   C2B 3551   8.720   5.972   5.143
  265POPC   C3B 3552   8.504   6.058   5.523
  265POPC   C4B 3553   8.386   5.923   5.916
  266POPC   NC3 3554   8.754   0.435   3.776
  266POPC   PO4 3555   9.341   0.289   3.959
  266POPC   GL1 3556   9.061   0.498   4.215
  266POPC   GL2 3557   8.746   0.335   4.316
  266POPC   C1A 3558   9.176   0.478   4.633
  266POPC   D2A 3559   9.369   0.176   4.915
  266POPC   C3A 3560   9.382   0.253   5.378
  266POPC   C4A 3561   9.131   0.484   5.662
  266POPC   C1B 3562   8.700   0.537   4.754
  266POPC   C2B 3563   8.951   0.437   5.100
  266POPC   C3B 3564   8.724   0.336   5.431
  266POPC   C4B 3565   8.499   0.661   5.599
  267POPC   NC3 3566   6.515   2.330   3.910
  267POPC   PO4 3567   6.237   2.833   3.619
  267POPC   GL1 3568   6.404   2.781   4.132
  267POPC   GL2 3569   6.739   2.671   4.271
  267POPC   C1A 3570   6.354   2.545   4.579
  267POPC   D2A 3571   6.570   2.417   4.975
  267POPC   C3A 3572   6.368   2.471   5.383
  267POPC   C4A 3573   6.192   2.530   5.831
  267POPC   C1B 3574   6.729   2.859   4.727
  267POPC   C2B 3575   6.720   2.908   5.183
  267POPC   C3B 3576   6.642   2.838   5.610
  267POPC   C4B 3577   6.675   2.437   5.798
  268POPC   NC3 3578   1.061   9.159   4.119
  268POPC   PO4 3579   1.569   9.331   3.722
  268POPC   GL1 3580   1.554   9.124   4.197
  268POPC   GL2 3581   1.377   8.796   4.328
  268POPC   C1A 3582   1.398   9.195   4.648
  268POPC   D2A 3583   1.176   9.285   5.002
  268POPC   C3A 3584   1.416   9.227   5.360
  268POPC   C4A 3585   1.210   9.049   5.693
  268POPC   C1B 3586   1.089   8.782   4.729
  268POPC   C2B 3587   1.091   8.818   5.188
  268POPC   C3B 3588   1.009   8.557   5.515
  268POPC   C4B 3589   1.224   8.580   5.888
  269POPC   NC3 3590   1.731   2.689   3.954
  269POPC   PO4 3591   2.342   2.461   3.843
  269POPC   GL1 3592   2.192   2.478   4.280
  269POPC   GL2 3593   2.125   2.821   4.294
  269POPC   C1A 3594   2.224   2.571   4.769
  269POPC   D2A 3595   2.321   2.593   5.255
  269POPC   C3A 3596   2.079   2.503   5.657
  269POPC   C4A 3597   2.211   2.405   6.117
  269POPC   C1B 3598   1.974   3.022   4.676
  269POPC   C2B 3599   1.947   2.890   5.106
  269POPC   C3B 3600   1.898   2.967   5.543
  269POPC   C4B 3601   1.693   3.208   5.831
  270POPC   NC3 3602   0.552   6.567   3.918
  270POPC   PO4 3603   0.196   6.071   3.700
  270POPC   GL1 3604   0.424   6.150   4.154
  270POPC   GL2 3605   0.283   6.510   4.332
  270POPC   C1A 3606   0.499   6.160   4.620
  270POPC   D2A 3607   0.631   6.431   4.972
  270POPC   C3A 3608   0.672   6.416   5.429
  270POPC   C4A 3609   0.477   6.349   5.847
  270POPC   C1B 3610   0.097   6.565   4.753
  270POPC   C2B 3611   0.155   6.500   5.202
  270POPC   C3B 3612   0.263   6.722   5.577
  270POPC   C4B 3613   0.192   6.860   5.997
  271POPC   NC3 3614   9.792   7.458   3.885
  271POPC   PO4 3615   9.253   7.013   3.936
  271POPC   GL1 3616   9.413   7.147   4.305
  271POPC   GL2 3617   9.428   7.491   4.238
  271POPC   C1A 3618   9.292   7.362   4.712
  271POPC   D2A 3619   9.243   7.601   5.097
  271POPC   C3A 3620   9.270   7.403   5.507
  271POPC   C4A 3621   9.535   7.295   5.878
  271POPC   C1B 3622   9.765   7.436   4.578
  271POPC   C2B 3623   9.704   7.361   5.043
  271POPC   C3B 3624   9.799   7.506   5.465
  271POPC   C4B 3625   0.037   7.388   5.862
  272POPC   NC3 3626   7.025   0.383   3.973
  272POPC   PO4 3627   7.558   0.667   4.207
  272POPC   GL1 3628   7.175   0.677   4.373
  272POPC   GL2 3629   7.110   0.292   4.461
  272POPC   C1A 3630   6.988   0.683   4.756
  272POPC   D2A 3631   7.058   0.327   4.988
  272POPC   C3A 3632   7.177   0.339   5.401
  272POPC   C4A 3633   7.053   0.329   5.850
  272POPC   C1B 3634   7.503   0.298   4.725
  272POPC   C2B 3635   7.877   0.213   4.969
  272POPC   C3B 3636   7.728   0.195   5.385
  272POPC   C4B 3637   7.541   0.497   5.707
  273POPC   NC3 3638   9.615   9.931   3.875
  273POPC   PO4 3639   0.016   9.403   3.978
  273POPC   GL1 3640   9.901   9.689   4.310
  273POPC   GL2 3641   9.595   9.618   4.276
  273POPC   C1A 3642   9.660   9.778   4.754
  273POPC   D2A 3643   9.491   9.761   5.186
  273POPC   C3A 3644   9.757   9.783   5.547
  273POPC   C4A 3645   9.728   0.002   5.945
  273POPC   C1B 3646   9.517   9.321   4.622
  273POPC   C2B 3647   9.679   9.289   5.058
  273POPC   C3B 3648   9.473   9.323   5.465
  273POPC   C4B 3649   9.349   9.641   5.830
  274POPC   NC3 3650   0.571   2.062   3.934
  274POPC   PO4 3651   0.576   2.478   4.403
  274POPC   GL1 3652   0.708   2.044   4.436
  274POPC   GL2 3653   0.443   1.791   4.347
  274POPC   C1A 3654   0.711   1.808   4.817
  274POPC   D2A 3655   0.566   1.798   5.259
  274POPC   C3A 3656   0.783   2.008   5.575
  274POPC   C4A 3657   0.665   2.328   5.932
  274POPC   C1B 3658   0.198   1.947   4.694
  274POPC   C2B 3659   0.048   1.728   5.042
  274POPC   C3B 3660   0.094   1.799   5.462
  274POPC   C4B 3661   0.205   2.180   5.693
  275POPC   NC3 3662   9.544   1.054   3.731
  275POPC   PO4 3663   8.946   0.858   3.743
  275POPC   GL1 3664   9.267   0.963   4.155
  275POPC   GL2 3665   9.645   1.113   4.218
  275POPC   C1A 3666   9.325   1.196   4.590
  275POPC   D2A 3667   9.575   1.178   4.967
  275POPC   C3A 3668   9.405   1.194   5.383
  275POPC   C4A 3669   9.364   0.941   5.761
  275POPC   C1B 3670   9.896   0.995   4.586
  275POPC   C2B 3671   0.072   1.040   5.014
  275POPC   C3B 3672   9.917   1.297   5.374
  275POPC   C4B 3673   9.752   1.250   5.811
  276POPC   NC3 3674   3.679   1.152   3.946
  276POPC   PO4 3675   3.206   1.657   4.124
  276POPC   GL1 3676   3.464   1.526   4.462
  276POPC   GL2 3677   3.360   1.211   4.363
  276POPC   C1A 3678   3.605   1.466   4.915
  276POPC   D2A 3679   3.416   1.539   5.348
  276POPC   C3A 3680   3.556   1.346   5.745
  276POPC   C4A 3681   3.328   1.385   6.168
  276POPC   C1B 3682   3.676   1.040   4.597
  276POPC   C2B 3683   3.705   0.946   5.009
  276POPC   C3B 3684   3.523   0.737   5.367
  276POPC   C4B 3685   3.728   0.797   5.753
  277POPC   NC3 3686   2.386   2.925   3.825
  277POPC   PO4 3687   3.034   3.133   3.900
  277POPC   GL1 3688   2.721   2.959   4.197
  277POPC   GL2 3689   2.738   2.609   4.113
  277POPC   C1A 3690   2.499   2.974   4.600
  277POPC   D2A 3691   2.704   2.801   4.959
  277POPC   C3A 3692   2.669   2.964   5.356
  277POPC   C4A 3693   2.393   2.898   5.685
  277POPC   C1B 3694   2.674   2.481   4.540
  277POPC   C2B 3695   2.625   2.283   4.956
  277POPC   C3B 3696   2.783   2.409   5.367
  277POPC   C4B 3697   2.592   2.418   5.780
  278POPC   NC3 3698   0.515   0.400   3.811
  278POPC   PO4 3699   9.970   0.887   3.855
  278POPC   GL1 3700   0.178   0.636   4.234
  278POPC   GL2 3701   0.381   0.272   4.293
  278POPC   C1A 3702   0.206   0.598   4.713
  278POPC   D2A 3703   0.399   0.631   5.150
  278POPC   C3A 3704   0.251   0.738   5.586
  278POPC   C4A 3705   0.535   0.617   5.955
  278POPC   C1B 3706   0.462   0.003   4.670
  278POPC   C2B 3707   0.517   0.096   5.125
  278POPC   C3B 3708   0.508   0.274   5.570
  278POPC   C4B 3709   0.420   0.100   6.021
  279POPC   NC3 3710   4.133   2.684   3.944
  279POPC   PO4 3711   4.602   2.267   3.939
  279POPC   GL1 3712   4.497   2.543   4.300
  279POPC   GL2 3713   4.358   2.860   4.355
  279POPC   C1A 3714   4.530   2.516   4.762
  279POPC   D2A 3715   4.326   2.545   5.182
  279POPC   C3A 3716   4.485   2.395   5.583
  279POPC   C4A 3717   4.651   2.558   5.968
  279POPC   C1B 3718   4.139   2.847   4.753
  279POPC   C2B 3719   3.898   2.833   5.132
  279POPC   C3B 3720   3.963   2.730   5.541
  279POPC   C4B 3721   4.149   2.620   5.906
  280POPC   NC3 3722   4.291   1.935   3.833
  280POPC   PO4 3723   4.864   1.710   3.711
  280POPC   GL1 3724   4.664   1.811   4.174
  280POPC   GL2 3725   4.726   2.086   4.394
  280POPC   C1A 3726   4.510   1.675   4.609
  280POPC   D2A 3727   4.556   2.012   4.925
  280POPC   C3A 3728   4.547   1.947   5.355
  280POPC   C4A 3729   4.361   1.882   5.749
  280POPC   C1B 3730   4.274   2.141   4.515
  280POPC   C2B 3731   4.049   2.217   4.926
  280POPC   C3B 3732   4.042   2.172   5.404
  280POPC   C4B 3733   3.918   2.104   5.845
  281POPC   NC3 3734   3.555   9.333   4.083
  281POPC   PO4 3735   3.529   9.928   3.723
  281POPC   GL1 3736   3.591   9.849   4.193
  281POPC   GL2 3737   3.301   9.726   4.376
  281POPC   C1A 3738   3.759   9.741   4.641
  281POPC   D2A 3739   3.774   9.514   5.049
  281POPC   C3A 3740   3.575   9.769   5.393
  281POPC   C4A 3741   3.521   9.961   5.818
  281POPC   C1B 3742   3.259   9.617   4.842
  281POPC   C2B 3743   3.102   9.539   5.271
  281POPC   C3B 3744   3.091   9.743   5.675
  281POPC   C4B 3745   3.049   9.685   6.146
  282POPC   NC3 3746   8.616   4.869   3.611
  282POPC   PO4 3747   8.896   5.303   4.065
  282POPC   GL1 3748   9.096   5.352   4.423
  282POPC   GL2 3749   9.148   5.019   4.422
  282POPC   C1A 3750   9.192   5.299   4.853
  282POPC   D2A 3751   9.135   5.000   5.182
  282POPC   C3A 3752   9.152   5.272   5.533
  282POPC   C4A 3753   8.958   5.305   5.914
  282POPC   C1B 3754   8.787   5.001   4.773
  282POPC   C2B 3755   8.641   4.878   5.201
  282POPC   C3B 3756   8.717   4.969   5.628
  282POPC   C4B 3757   8.716   4.907   6.123
  283POPC   NC3 3758   3.518   6.651   4.001
  283POPC   PO4 3759   3.046   6.195   3.944
  283POPC   GL1 3760   3.199   6.357   4.386
  283POPC   GL2 3761   3.549   6.482   4.458
  283POPC   C1A 3762   3.285   6.397   4.870
  283POPC   D2A 3763   3.144   6.641   5.221
  283POPC   C3A 3764   3.293   6.421   5.601
  283POPC   C4A 3765   3.417   6.441   6.045
  283POPC   C1B 3766   3.760   6.582   4.820
  283POPC   C2B 3767   3.637   6.588   5.260
  283POPC   C3B 3768   3.722   6.702   5.724
  283POPC   C4B 3769   3.822   6.771   6.199
  284POPC   NC3 3770   1.141   9.527   3.702
  284POPC   PO4 3771   0.785   0.040   3.924
  284POPC   GL1 3772   0.852   9.877   4.349
  284POPC   GL2 3773   1.079   9.576   4.475
  284POPC   C1A 3774   0.952   9.986   4.771
  284POPC   D2A 3775   0.977   9.737   5.121
  284POPC   C3A 3776   0.826   9.888   5.481
  284POPC   C4A 3777   0.720   9.732   5.851
  284POPC   C1B 3778   1.383   9.707   4.819
  284POPC   C2B 3779   1.454   9.759   5.280
  284POPC   C3B 3780   1.225   9.606   5.675
  284POPC   C4B 3781   1.278   9.606   6.148
  285POPC   NC3 3782   4.403   0.762   3.662
  285POPC   PO4 3783   3.808   0.717   3.812
  285POPC   GL1 3784   4.036   0.677   4.227
  285POPC   GL2 3785   4.422   0.681   4.217
  285POPC   C1A 3786   4.106   0.757   4.696
  285POPC   D2A 3787   4.335   0.639   5.103
  285POPC   C3A 3788   4.153   0.620   5.538
  285POPC   C4A 3789   4.183   0.714   6.021
  285POPC   C1B 3790   4.570   0.498   4.640
  285POPC   C2B 3791   4.616   0.205   5.010
  285POPC   C3B 3792   4.489   0.227   5.443
  285POPC   C4B 3793   4.354   0.143   5.874
  286POPC   NC3 3794   2.265   8.273   3.791
  286POPC   PO4 3795   1.708   8.621   3.959
  286POPC   GL1 3796   1.970   8.480   4.304
  286POPC   GL2 3797   1.975   8.161   4.405
  286POPC   C1A 3798   1.992   8.488   4.781
  286POPC   D2A 3799   1.843   8.388   5.188
  286POPC   C3A 3800   2.024   8.576   5.562
  286POPC   C4A 3801   2.118   8.623   6.023
  286POPC   C1B 3802   1.760   8.001   4.793
  286POPC   C2B 3803   1.651   7.914   5.223
  286POPC   C3B 3804   1.738   7.858   5.636
  286POPC   C4B 3805   2.085   8.091   5.765
  287W        W 3806   8.798   1.885   0.247
  288W        W 3807   4.526   0.977  10.749
  289W        W 3808   8.970   1.359   2.247
  290W        W 3809   0.032   7.985   1.676
  291W        W 3810   8.817   3.514   9.060
  292W        W 3811   7.147   7.394   9.516
  293W        W 3812   0.704   0.168   0.934
  294W        W 3813   3.474   7.647  11.174
  295W        W 3814   1.682   8.386   1.947
  296W        W 3815   8.618   1.710   3.312
  297W        W 3816   6.932   2.014  11.721
  298W        W 3817   2.170   0.755   8.959
  299W        W 3818   7.879   3.931   3.649
  300W        W 3819   4.618   3.656   8.926
  301W        W 3820   1.257   0.982   9.524
  302W        W 3821   5.653   6.314   2.441
  303W        W 3822   6.727   9.077  11.829
  304W        W 3823   8.683   2.620   2.446
  305W        W 3824   6.207   8.205   9.227
  306W        W 3825   4.570   6.792   9.507
  307W        W 3826   4.085   6.790   3.604
  308W        W 3827   5.112   4.634   0.923
  309W        W 3828   0.424   8.559   2.607
  310W        W 3829   7.270   6.021   1.915
  311W        W 3830   8.101   6.340  10.501
  312W        W 3831   4.494   1.861   0.436
  313W        W 3832   6.147   2.731  10.905
  314W        W 3833   2.717   3.293   3.542
  315W        W 3834   6.466   3.022  11.852
  316W        W 3835   6.902   6.891   2.710
  317W        W 3836   8.296   2.042   3.569
  318W        W 3837   5.484   0.548   1.675
  319W        W 3838   4.918   5.205  10.488
  320W        W 3839   2.791   4.705   9.467
  321W        W 3840   5.450   2.276  11.415
  322W        W 3841   2.273   9.340  10.391
  323W        W 3842   9.262   8.884   3.734
  324W        W 3843   3.690   0.544   3.315
  325W        W 3844   6.372   8.381   1.272
  326W        W 3845   8.759   4.498  11.072
  327W        W 3846   4.586   4.161  11.816
  328W        W 3847   9.570   0.731   9.540
  329W        W 3848   5.227   6.595  11.836
  330W        W 3849   8.719   2.231   3.294
  331W        W 3850   6.967   9.238   9.988
  332W        W 3851   3.372   4.587   0.961
  333W        W 3852   9.312   5.187   9.553
  334W        W 3853   5.806   7.918   3.588
  335W        W 3854   2.657   6.961   3.363
  336W        W 3855   2.661   6.679   9.557
  337W        W 3856   5.237   1.205   2.301
  338W        W 3857   1.395   2.082  10.600
  339W        W 3858   4.579   5.083   9.513
  340W        W 3859   0.450   5.937   1.679
  341W        W 3860   8.344   8.520   8.776
  342W        W 3861   6.899   2.796   0.120
  343W        W 3862   3.555   9.097   0.315
  344W        W 3863   4.068   1.856   9.448
  345W        W 3864   1.592   5.169   3.470
  346W        W 3865   0.382   3.419   2.230
  347W        W 3866   9.462   6.263   0.278
  348W        W 3867   3.025   4.799   8.614
  349W        W 3868   3.417   4.235   2.847
  350W        W 3869   2.905   0.422  11.521
  351W        W 3870   5.372   9.883   9.678
  352W        W 3871   8.024   2.396   0.478
  353W        W 3872   4.764   7.721   8.509
  354W        W 3873   4.723   0.913   0.691
  355W        W 3874   9.908   3.293  10.444
  356W        W 3875   9.389   0.661  10.023
  357W        W 3876   5.090   3.299   9.556
  358W        W 3877   7.330   3.597   9.708
  359W        W 3878   0.862   7.478   0.192
  360W        W 3879   3.069   4.144   1.742
  361W        W 3880   8.953   7.363  10.002
  362W        W 3881   0.362   0.878   8.855
  363W        W 3882   3.550   2.374  10.910
  364W        W 3883   4.634   5.072   3.058
  365W        W 3884   9.388   8.508   1.288
  366W        W 3885   1.405   3.570  11.537
  367W        W 3886   4.899   7.032   9.149
  368W        W 3887   0.119   1.044   8.444
  369W        W 3888   4.762   7.808   1.825
  370W        W 3889   9.499   9.650  11.212
  371W        W 3890   6.004   3.282   2.441
  372W        W 3891   5.502   1.756  10.777
  373W        W 3892   5.478   9.846   1.449
  374W        W 3893   2.254   3.970  11.471
  375W        W 3894   4.527   5.072   0.066
  376W        W 3895   2.664   2.207   9.263
  377W        W 3896   2.587   1.050   2.405
  378W        W 3897   5.969   8.173   1.029
  379W        W 3898   2.198   7.931  11.582
  380W        W 3899   4.600   6.133   0.308
  381W        W 3900   8.430   0.201   0.211
  382W        W 3901   3.673   3.389   2.671
  383W        W 3902   2.326   8.084   1.318
  384W        W 3903   3.944   6.355   1.321
  385W        W 3904   7.115   4.673  11.056
  386W        W 3905   9.670   2.411   9.677
  387W        W 3906   4.158   9.871   8.693
  388W        W 3907   6.880   1.467   2.718
  389W        W 3908   4.756   2.656   8.473
  390W        W 3909   3.556   8.082   9.817
  391W        W 3910   9.301   7.599   1.295
  392W        W 3911   1.178   7.308   1.500
  393W        W 3912   3.949   2.763   8.552
  394W        W 3913   2.420   1.561  11.302
  395W        W 3914   8.726   4.836   0.485
  396W        W 3915   2.534   2.526   8.718
  397W        W 3916   0.589   9.595  11.543
  398W        W 3917   7.927   9.880  11.392
  399W        W 3918   1.858   2.948   9.917
  400W        W 3919   5.243   2.689  11.211
  401W        W 3920   0.403   8.655  11.158
  402W        W 3921   4.978   5.606   8.801
  403W        W 3922   2.765   8.106   3.005
  404W        W 3923   0.352   3.244   1.111
  405W        W 3924   3.842   4.627  11.065
  406W        W 3925   1.666   0.471  10.590
  407W        W 3926   6.778   4.771   8.711
  408W        W 3927   4.817   2.420   1.103
  409W        W 3928   7.962   5.160   2.495
  410W        W 3929   4.102   6.147   0.194
  411W        W 3930   8.506   2.125   9.247
  412W        W 3931   6.068   7.426   3.590
  413W        W 3932   5.566   7.328  10.217
  414W        W 3933   2.761   6.620   8.967
  415W        W 3934   8.025   2.394  11.958
  416W        W 3935   3.231   3.144   9.499
  417W        W 3936   5.080   4.499   0.381
  418W        W 3937   8.790   1.649   1.271
  419W        W 3938   0.296   4.563   3.164
  420W        W 3939   1.881   5.380   2.700
  421W        W 3940   2.889   2.571   0.693
  422W        W 3941   3.729   4.010   9.083
  423W        W 3942   0.362   5.614   9.503
  424W        W 3943   4.211   2.803   2.645
  425W        W 3944   1.786   2.543   0.161
  426W        W 3945   5.450   0.122   9.219
  427W        W 3946   1.900   4.226   8.828
  428W        W 3947   2.764   7.632   3.217
  429W        W 3948   3.295   8.664   9.203
  430W        W 3949   6.576   5.176   8.469
  431W        W 3950   9.440   2.932   3.746
  432W        W 3951   9.783   7.780   0.687
  433W        W 3952   3.059   2.241   2.013
  434W        W 3953   0.468   7.454  11.846
  435W        W 3954   8.320   0.696   8.967
  436W        W 3955   4.953   3.567   0.293
  437W        W 3956   8.815   8.984  11.182
  438W        W 3957   4.218   9.980   3.199
  439W        W 3958   6.275   7.581   2.606
  440W        W 3959   3.589   3.643   1.175
  441W        W 3960   2.089   7.405   1.972
  442W        W 3961   6.178   1.473   1.845
  443W        W 3962   8.143   7.380   9.711
  444W        W 3963   9.696   2.941   0.938
  445W        W 3964   2.872   0.933   2.811
  446W        W 3965   8.043   5.569  11.463
  447W        W 3966   7.137   6.751   0.833
  448W        W 3967   9.204   7.418  11.488
  449W        W 3968   7.970   1.645   0.839
  450W        W 3969   6.878   9.533   0.173
  451W        W 3970   0.731   6.598   0.003
  452W        W 3971   4.227   2.058   0.922
  453W        W 3972   8.454   1.469   2.886
  454W        W 3973   2.234   8.098   2.286
  455W        W 3974   1.791   4.967   8.267
  456W        W 3975   9.777   3.664   3.136
  457W        W 3976   6.475   8.347  10.759
  458W        W 3977   4.006   6.192   0.830
  459W        W 3978   4.035   5.173   1.540
  460W        W 3979   8.494   4.638  10.093
  461W        W 3980   8.236   3.696   9.160
  462W        W 3981   3.303   1.987   0.876
  463W        W 3982   5.471   7.482  11.613
  464W        W 3983   0.833   4.495   9.179
  465W        W 3984   6.952   1.280  11.895
  466W        W 3985   0.542   4.412   0.912
  467W        W 3986   9.505   1.924   9.596
  468W        W 3987   8.924   7.028  10.429
  469W        W 3988   0.044   1.271   8.903
  470W        W 3989   5.207   3.493  11.869
  471W        W 3990   9.055   9.098   8.939
  472W        W 3991   3.199   7.367  11.505
  473W        W 3992   1.396   1.383  11.404
  474W        W 3993   1.809   5.980   3.279
  475W        W 3994   4.435   4.534   2.766
  476W        W 3995   9.394   7.707   9.956
  477W        W 3996   9.859   6.118   9.031
  478W        W 3997   6.615   2.160  10.402
  479W        W 3998   7.095   7.956  11.286
  480W        W 3999   7.540   2.589  11.877
  481W        W 4000   6.570   4.148   3.500
  482W        W 4001   7.242   5.625   2.607
  483W        W 4002   4.135   5.710   1.012
  484W        W 4003   0.533   2.749  10.748
  485W        W 4004   6.141   3.185   0.746
  486W        W 4005   8.588   1.086   0.080
  487W        W 4006   6.463   6.834   2.044
  488W        W 4007   6.651   9.753   0.934
  489W        W 4008   8.585   0.591  10.495
  490W        W 4009   0.755   8.404   8.933
  491W        W 4010   1.599   1.462   1.773
  492W        W 4011   5.420   6.618  11.329
  493W        W 4012   5.256   2.978   1.678
  494W        W 4013   6.668   0.005   9.943
  495W        W 4014   3.962   7.935   0.208
  496W        W 4015   4.142   1.688  11.639
  497W        W 4016   7.295   0.362   9.183
  498W        W 4017   6.853   4.114   9.346
  499W        W 4018   3.889   1.788   1.423
  500W        W 4019   2.228   4.684   8.748
  501W        W 4020   2.935   4.101  10.600
  502W        W 4021   5.491   5.186  11.814
  503W        W 4022   2.909   1.159   0.013
  504W        W 4023   9.560   5.015   9.116
  505W        W 4024   4.923   4.209  10.513
  506W        W 4025   4.143   1.531  10.763
  507W        W 4026   2.607   3.971   0.909
  508W        W 4027   3.745   8.809  11.941
  509W        W 4028   6.291   6.214   9.807
  510W        W 4029   9.707   4.542   3.130
  511W        W 4030   4.741   4.891   2.580
  512W        W 4031   2.971   0.783   0.405
  513W        W 4032   4.958   3.633   3.571
  514W        W 4033   8.356   3.915   1.795
  515W        W 4034   1.576   5.024   2.971
  516W        W 4035   2.944   1.391   2.270
  517W        W 4036   9.135   0.830   1.566
  518W        W 4037   2.454   5.299   0.688
  519W        W 4038   3.134   7.519   8.845
  520W        W 4039   3.329   2.095  11.904
  521W        W 4040   8.865   6.361   1.565
  522W        W 4041   0.417   5.432   1.656
  523W        W 4042   8.450   9.814  11.140
  524W        W 4043   3.213   0.980  10.873
  525W        W 4044   6.892   2.465   3.011
  526W        W 4045   4.531   5.598  10.546
  527W        W 4046   3.714   5.404   8.903
  528W        W 4047   1.346   1.624   3.508
  529W        W 4048   0.319   9.697   0.003
  530W        W 4049   5.069   2.961  10.221
  531W        W 4050   5.787   2.539   3.591
  532W        W 4051   9.523   9.804   8.877
  533W        W 4052   9.222   3.771   9.342
  534W        W 4053   7.354   7.202  11.922
  535W        W 4054   2.321   7.398   3.345
  536W        W 4055   1.240   6.448  11.380
  537W        W 4056   0.524   0.279   9.907
  538W        W 4057   1.269   5.364  11.676
  539W        W 4058   5.595   8.640   0.196
  540W        W 4059   4.006   3.816   8.372
  541W        W 4060   1.395   3.497   1.483
  542W        W 4061   1.379   8.808   3.607
  543W        W 4062   2.590   5.377   4.066
  544W        W 4063   2.689   2.668  10.795
  545W        W 4064   8.381   2.692   1.615
  546W        W 4065   6.155   6.380   1.331
  547W        W 4066   6.763   5.751   1.328
  548W        W 4067   4.956   9.596   1.749
  549W        W 4068   8.058   0.184  11.853
  550W        W 4069   7.949   9.674   0.977
  551W        W 4070   1.455   3.535  10.994
  552W        W 4071   1.638   3.295   1.878
  553W        W 4072   7.597   2.316   1.280
  554W        W 4073   7.164   5.562   2.119
  555W        W 4074   9.674   5.309   1.936
  556W        W 4075   1.670   2.747  11.696
  557W        W 4076   8.513   1.498  10.009
  558W        W 4077   3.665   8.837   2.135
  559W        W 4078   5.068   8.054   0.099
  560W        W 4079   7.625   4.635   1.299
  561W        W 4080   2.408   7.006   2.049
  562W        W 4081   7.040   0.645   0.786
  563W        W 4082   5.940   9.958  10.432
  564W        W 4083   8.082   5.147   9.056
  565W        W 4084   5.839   7.549   9.836
  566W        W 4085   0.954   9.518   1.875
  567W        W 4086   1.964   3.113   2.813
  568W        W 4087   9.440   3.393   9.690
  569W        W 4088   6.590   8.841   1.211
  570W        W 4089   7.749   6.181   2.019
  571W        W 4090   5.081   6.967   1.476
  572W        W 4091   0.479   0.775   9.833
  573W        W 4092   4.535   3.434   3.800
  574W        W 4093   1.382   6.114   2.545
  575W        W 4094   6.972   4.514   1.811
  576W        W 4095   9.578   2.960  11.042
  577W        W 4096   1.116   4.606   9.596
  578W        W 4097   0.337   9.590  11.080
  579W        W 4098   6.595   4.390   9.018
  580W        W 4099   4.331   1.112   2.450
  581W        W 4100   9.474   2.939   1.461
  582W        W 4101   9.732   9.380   1.278
  583W        W 4102   9.636   6.104  11.058
  584W        W 4103   0.264   0.504  11.746
  585W        W 4104   6.949   5.103  11.251
  586W        W 4105   4.958   2.352   2.123
  587W        W 4106   1.391   6.423   1.446
  588W        W 4107   5.774   0.185   9.942
  589W        W 4108   6.060   0.882   2.814
  590W        W 4109   5.093   3.170  11.481
  591W        W 4110   8.205   7.207  11.502
  592W        W 4111   1.666   4.557   2.685
  593W        W 4112   3.670   6.418   2.210
  594W        W 4113   2.260   2.423  11.065
  595W        W 4114   8.993   4.704   0.917
  596W        W 4115   6.802   5.364   4.386
  597W        W 4116   1.190   5.240   8.380
  598W        W 4117   3.608   7.310  10.366
  599W        W 4118   2.850   0.929   1.734
  600W        W 4119   8.390   2.193   2.466
  601W        W 4120   2.249   8.824   0.731
  602W        W 4121   0.003   6.208   1.877
  603W        W 4122   5.805   5.928   1.285
  604W        W 4123   7.073   3.700   3.332
  605W        W 4124   4.647   3.300   3.302
  606W        W 4125   4.261   2.712   1.889
  607W        W 4126   9.993   4.660  10.467
  608W        W 4127   3.268   5.555   0.806
  609W        W 4128   4.147   0.542   8.665
  610W        W 4129   0.447   4.168   2.864
  611W        W 4130   0.832   4.284  11.727
  612W        W 4131   1.662   2.266  11.444
  613W        W 4132   1.213   8.036  11.235
  614W        W 4133   3.967   0.322  10.946
  615W        W 4134   5.750   7.783   2.714
  616W        W 4135   0.197   0.051   2.201
  617W        W 4136   1.269   1.136   1.983
  618W        W 4137   2.115   3.740  10.367
  619W        W 4138   8.431   2.923   2.106
  620W        W 4139   5.472   5.664   3.191
  621W        W 4140   8.285   8.482  10.609
  622W        W 4141   6.440   2.524   3.283
  623W        W 4142   9.915   5.725   0.997
  624W        W 4143   6.753   1.849  11.062
  625W        W 4144   5.332   2.036   1.992
  626W        W 4145   5.885   5.968   9.982
  627W        W 4146   7.614   8.261   9.380
  628W        W 4147   2.236   6.010   9.229
  629W        W 4148   7.277   0.752  11.796
  630W        W 4149   4.921   4.029   1.967
  631W        W 4150   3.849   5.539   0.144
  632W        W 4151   7.895   4.991   2.957
  633W        W 4152   7.169   0.000  10.980
  634W        W 4153   6.181   6.998   3.244
  635W        W 4154   5.033   7.457  10.257
  636W        W 4155   0.769   7.403   0.694
  637W        W 4156   9.422   9.979  10.801
  638W        W 4157   8.014   1.162  10.132
  639W        W 4158   5.303   6.981   3.672
  640W        W 4159   4.760   3.839   9.886
  641W        W 4160   5.275   5.467   0.688
  642W        W 4161   7.442   1.225  11.021
  643W        W 4162   2.099   7.987   0.466
  644W        W 4163   9.877   1.511  10.527
  645W        W 4164   5.308   1.000   1.846
  646W        W 4165   2.915   8.310  10.892
  647W        W 4166   6.114   8.540  10.417
  648W        W 4167   9.999   9.410   9.547
  649W        W 4168   9.344   6.071   0.745
  650W        W 4169   7.027   0.908   1.223
  651W        W 4170   4.660   4.593   1.202
  652W        W 4171   8.423   1.997   2.940
  653W        W 4172   9.476   8.487   9.735
  654W        W 4173   1.760   3.667   0.236
  655W        W 4174   7.195   3.535  11.985
  656W        W 4175   6.958   0.451   0.325
  657W        W 4176   4.229   3.496  11.948
  658W        W 4177   9.317   3.551   0.296
  659W        W 4178   8.752   6.679   9.172
  660W        W 4179   3.663   5.436   1.256
  661W        W 4180   2.916   9.406   3.242
  662W        W 4181   9.688   1.845   9.092
  663W        W 4182   2.324   7.664  11.046
  664W        W 4183   6.997   5.082   4.020
  665W        W 4184   5.539   9.431   1.153
  666W        W 4185   9.224   3.275   1.782
  667W        W 4186   4.620   6.083   3.196
  668W        W 4187   0.357   7.086   9.768
  669W        W 4188   1.969   6.371   1.708
  670W        W 4189   2.042   0.396  10.962
  671W        W 4190   2.711   0.390   1.163
  672W        W 4191   3.848   2.938  11.254
  673W        W 4192   5.685   9.106   9.233
  674W        W 4193   5.519   7.198   0.427
  675W        W 4194   8.056   6.652  11.865
  676W        W 4195   6.063   7.576  10.331
  677W        W 4196   7.633   6.115   0.257
  678W        W 4197   3.060   1.317   3.571
  679W        W 4198   6.609   1.497   0.907
  680W        W 4199   3.596   3.252   3.707
  681W        W 4200   9.464   5.310   1.437
  682W        W 4201   3.613   0.756   1.302
  683W        W 4202   5.006   2.351   1.592
  684W        W 4203   5.714   7.121   3.151
  685W        W 4204   9.886   0.850  11.768
  686W        W 4205   5.216   7.507   0.070
  687W        W 4206   6.592   5.583   9.293
  688W        W 4207   2.324   9.096   0.279
  689W        W 4208   2.179   5.529  11.659
  690W        W 4209   8.818   9.075   2.799
  691W        W 4210   6.782   4.488  10.014
  692W        W 4211   4.068   9.216   2.804
  693W        W 4212   8.431   8.482   3.294
  694W        W 4213   2.290   7.600   2.399
  695W        W 4214   6.415   2.198  10.933
  696W        W 4215   4.260   1.412  10.252
  697W        W 4216   6.415   1.585   2.903
  698W        W 4217   4.625   0.745   1.172
  699W        W 4218   4.155   9.806   1.406
  700W        W 4219   5.436   7.050  11.920
  701W        W 4220   5.162   2.800  10.703
  702W        W 4221   0.085   9.555  11.547
  703W        W 4222   7.951   5.090   0.013
  704W        W 4223   4.277   5.106   2.685
  705W        W 4224   4.532   6.571   3.135
  706W        W 4225   3.913   3.935  10.374
  707W        W 4226   3.852   4.607   3.998
  708W        W 4227   0.875   9.884   9.743
  709W        W 4228   9.413   1.339   0.296
  710W        W 4229   9.791   3.794   0.663
  711W        W 4230   2.761   0.046  10.507
  712W        W 4231   3.211   4.933   8.156
  713W        W 4232   9.962   7.010   9.021
  714W        W 4233   2.423   8.330   9.036
  715W        W 4234   8.800   7.956   3.412
  716W        W 4235   4.249   3.850  11.584
  717W        W 4236   9.372   7.008  10.690
  718W        W 4237   5.664   6.470   1.123
  719W        W 4238   3.405   5.387   0.349
  720W        W 4239   5.615   7.816  10.388
  721W        W 4240   8.961   7.437   2.388
  722W        W 4241   8.614   4.801   3.081
  723W        W 4242   9.845   1.502   3.092
  724W        W 4243   2.820   1.465  11.620
  725W        W 4244   7.709   3.101   3.223
  726W        W 4245   5.064   5.399   3.072
  727W        W 4246   4.448   0.080   2.433
  728W        W 4247   9.488   0.256   9.726
  729W        W 4248   9.764   2.403  10.858
  730W        W 4249   7.629   5.298  11.661
  731W        W 4250   3.121   6.933   1.212
  732W        W 4251   8.862   6.254   0.830
  733W        W 4252   5.113   2.033   1.189
  734W        W 4253   4.275   5.813   3.476
  735W        W 4254   6.664   1.192   3.124
  736W        W 4255   3.824   4.607   0.046
  737W        W 4256   8.382   3.864   2.301
  738W        W 4257   8.128   5.867   1.140
  739W        W 4258   4.476   2.593   1.437
  740W        W 4259   7.186   7.262   0.788
  741W        W 4260   3.875   3.666   9.842
  742W        W 4261   8.947   4.609   0.051
  743W        W 4262   3.593   7.884  10.309
  744W        W 4263   4.053   8.251   1.522
  745W        W 4264   9.033   8.326   2.106
  746W        W 4265   7.525   8.937  10.493
  747W        W 4266   9.067   4.193   0.872
  748W        W 4267   0.456   2.871   3.529
  749W        W 4268   4.782   2.759  11.421
  750W        W 4269   1.754   0.721   2.283
  751W        W 4270   7.812   1.245  10.625
  752W        W 4271   2.841   3.342   2.899
  753W        W 4272   4.103   0.850  11.043
  754W        W 4273   2.782   8.010   1.649
  755W        W 4274   3.734   4.516   9.363
  756W        W 4275   7.481   4.437   3.083
  757W        W 4276   7.880   4.666   0.309
  758W        W 4277   9.806   7.668   2.011
  759W        W 4278   8.367   4.568  11.462
  760W        W 4279   1.525   0.547   9.391
  761W        W 4280   5.143   2.711   2.672
  762W        W 4281   8.709   6.110  11.950
  763W        W 4282   0.092   5.644   9.039
  764W        W 4283   8.949   7.080   9.462
  765W        W 4284   3.290   9.234   1.402
  766W        W 4285   0.448   6.607   9.914
  767W        W 4286   4.551   5.764   2.238
  768W        W 4287   7.880   1.869   1.333
  769W        W 4288   3.216   3.557  11.908
  770W        W 4289   7.104   6.443   8.267
  771W        W 4290   2.328   2.117  10.116
  772W        W 4291   7.003   6.379   8.764
  773W        W 4292   5.014   9.864   9.184
  774W        W 4293   2.316   1.912  10.914
  775W        W 4294   8.806   6.223  10.580
  776W        W 4295   7.358   3.172   2.707
  777W        W 4296   5.202   3.936  10.151
  778W        W 4297   2.627   7.989  11.284
  779W        W 4298   5.908   2.280  11.029
  780W        W 4299   9.162   9.276  11.530
  781W        W 4300   7.143   6.515   4.020
  782W        W 4301   8.460   7.925  11.036
  783W        W 4302   0.004   1.332  10.074
  784W        W 4303   1.690   3.752   0.743
  785W        W 4304   0.871   8.880   3.615
  786W        W 4305   2.088   3.476   3.189
  787W        W 4306   9.525   8.128   2.010
  788W        W 4307   9.404   4.863  11.812
  789W        W 4308   3.074   3.752   0.902
  790W        W 4309   2.303   3.745   1.859
  791W        W 4310   8.337   8.795   0.194
  792W        W 4311   5.146   8.714  10.932
  793W        W 4312   6.208   9.883   0.285
  794W        W 4313   5.881   1.626   8.469
  795W        W 4314   2.770   4.438   2.100
  796W        W 4315   2.778   2.093   0.944
  797W        W 4316   0.321   6.183   3.202
  798W        W 4317   6.553   9.254   2.380
  799W        W 4318   9.614   7.516  11.781
  800W        W 4319   4.132   8.904   8.865
  801W        W 4320   2.919   0.426   9.362
  802W        W 4321   8.727   6.418  11.225
  803W        W 4322   2.733   3.636  10.633
  804W        W 4323   5.418   0.862  11.071
  805W        W 4324   5.593   1.685   2.291
  806W        W 4325   5.153   8.868  10.435
  807W        W 4326   1.419   0.259   8.947
  808W        W 4327   5.988   8.039   3.117
  809W        W 4328   6.961   2.571   9.799
  810W        W 4329   3.359   4.687   3.814
  811W        W 4330   3.810   1.457   8.631
  812W        W 4331   9.885   6.838   9.964
  813W        W 4332   3.878   8.041   9.061
  814W        W 4333   6.851   2.825  10.212
  815W        W 4334   1.773   5.725   9.625
  816W        W 4335   8.829   0.828   8.930
  817W        W 4336   0.464   1.640   9.828
  818W        W 4337   3.314   8.455  10.599
  819W        W 4338   4.760   7.512   2.292
  820W        W 4339   3.836   9.790  11.834
  821W        W 4340   2.687   3.624   0.063
  822W        W 4341   5.058   6.349   0.246
  823W        W 4342   3.506   0.632   2.220
  824W        W 4343   5.224   5.674   1.162
  825W        W 4344   8.268   4.358   2.369
  826W        W 4345   6.676   8.494   1.823
  827W        W 4346   3.364   9.286   8.585
  828W        W 4347   7.241   1.987   1.457
  829W        W 4348   3.738   9.018   1.626
  830W        W 4349   8.947   9.902  10.946
  831W        W 4350   3.212   8.242   3.220
  832W        W 4351   0.066   1.762   2.710
  833W        W 4352   6.814   5.958   8.973
  834W        W 4353   0.321   0.025  11.609
  835W        W 4354   4.885   1.863   1.796
  836W        W 4355   6.577   8.756  10.450
  837W        W 4356   1.167   0.378  10.720
  838W        W 4357   6.453   2.722  10.502
  839W        W 4358   2.761   9.215  10.632
  840W        W 4359   6.235   3.690   0.818
  841W        W 4360   0.461   1.351  11.273
  842W        W 4361   4.570   9.215   2.784
  843W        W 4362   6.375   9.256   2.847
  844W        W 4363   5.831   4.596  10.458
  845W        W 4364   9.642   1.760   0.111
  846W        W 4365   6.097   9.060  11.162
  847W        W 4366   2.216   3.855   9.008
  848W        W 4367   7.633   2.570  11.366
  849W        W 4368   2.717   6.803   2.855
  850W        W 4369   1.350   3.838   9.262
  851W        W 4370   0.856   2.891  11.504
  852W        W 4371   2.130   0.984   0.823
  853W        W 4372   6.204   5.928   1.656
  854W        W 4373   0.663   2.816   9.555
  855W        W 4374   4.243   2.840   9.533
  856W        W 4375   9.627   0.559   3.561
  857W        W 4376   7.959   7.403   0.398
  858W        W 4377   9.438   8.624  10.252
  859W        W 4378   5.260   5.523   0.160
  860W        W 4379   2.774   3.334   9.658
  861W        W 4380   8.581   3.450   3.314
  862W        W 4381   8.286   1.981   1.699
  863W        W 4382   4.044   8.505   3.897
  864W        W 4383   8.307   3.223  11.450
  865W        W 4384   9.555   3.044   0.258
  866W        W 4385   3.946   2.409  11.259
  867W        W 4386   8.045   5.989   9.560
  868W        W 4387   3.459   4.311   4.183
  869W        W 4388   7.396   4.812   0.421
  870W        W 4389   5.210   2.271   0.175
  871W        W 4390   4.015   7.943   9.568
  872W        W 4391   7.808   1.660  10.295
  873W        W 4392   0.960   9.233   9.551
  874W        W 4393   4.999   5.990   8.270
  875W        W 4394   9.486   1.548   9.950
  876W        W 4395   6.579   2.414   0.931
  877W        W 4396   7.098   6.582   1.332
  878W        W 4397   7.542   3.743   1.982
  879W        W 4398   9.082   9.767  10.429
  880W        W 4399   9.920   4.757   0.886
  881W        W 4400   2.147   9.664   2.151
  882W        W 4401   0.359   4.533   1.750
  883W        W 4402   7.235   2.141   3.207
  884W        W 4403   2.179   3.017  11.429
  885W        W 4404   7.833   3.623   9.555
  886W        W 4405   1.355   9.513   2.629
  887W        W 4406   6.314   6.275   4.002
  888W        W 4407   8.630   5.061  10.377
  889W        W 4408   9.039   4.303  10.641
  890W        W 4409   4.498   7.672  11.360
  891W        W 4410   6.464   1.145   2.653
  892W        W 4411   7.959   0.195   0.981
  893W        W 4412   8.394   3.655  10.215
  894W        W 4413   8.979   4.700  10.281
  895W        W 4414   3.188   6.687  10.861
  896W        W 4415   6.555   7.195   3.516
  897W        W 4416   9.291   2.566  10.825
  898W        W 4417   9.937   9.837   9.242
  899W        W 4418   0.686   4.652  10.885
  900W        W 4419   4.209   4.319  10.615
  901W        W 4420   4.728   2.313   9.030
  902W        W 4421   0.296   3.929   2.243
  903W        W 4422   7.093   2.800  10.674
  904W        W 4423   1.791   6.164   1.227
  905W        W 4424   0.212   5.570   8.459
  906W        W 4425   2.465   3.163   0.181
  907W        W 4426   4.799   6.685   1.958
  908W        W 4427   1.510   8.620   2.817
  909W        W 4428   5.136   0.946   3.311
  910W        W 4429   0.788   7.965   0.020
  911W        W 4430   9.289   7.588   2.770
  912W        W 4431   6.572   7.161   2.980
  913W        W 4432   5.068   4.002  11.969
  914W        W 4433   3.081   7.414   2.897
  915W        W 4434   6.914   2.967   2.836
  916W        W 4435   7.584   1.213   0.494
  917W        W 4436   7.703   9.974   0.373
  918W        W 4437   3.215   7.899   2.803
  919W        W 4438   4.169   6.806   1.406
  920W        W 4439   6.064   3.349   9.161
  921W        W 4440   2.599   8.706   2.404
  922W        W 4441   0.938   7.592  11.679
  923W        W 4442   5.183   8.870   9.112
  924W        W 4443   1.006   5.673  10.959
  925W        W 4444   4.408   4.095   1.941
  926W        W 4445   6.153   5.246   9.318
  927W        W 4446   3.825   9.857   1.010
  928W        W 4447   5.612   0.620   0.773
  929W        W 4448   0.596   7.452  10.896
  930W        W 4449   6.682   9.943   0.465
  931W        W 4450   6.725   0.269   3.595
  932W        W 4451   6.264   4.187   8.286
  933W        W 4452   6.468   4.612   0.488
  934W        W 4453   0.523   3.525  11.770
  935W        W 4454   2.600   0.716   0.774
  936W        W 4455   2.021   2.669   9.526
  937W        W 4456   0.175   0.565  10.734
  938W        W 4457   3.320   2.192   3.517
  939W        W 4458   5.719   2.086  10.423
  940W        W 4459   9.984   2.161  11.477
  941W        W 4460   9.655   1.425   8.612
  942W        W 4461   3.278   3.674  11.022
  943W        W 4462   1.286   3.818   1.915
  944W        W 4463   4.756   2.825   0.810
  945W        W 4464   5.001   9.826   1.269
  946W        W 4465   4.014   3.420  10.414
  947W        W 4466   2.575   3.346  11.588
  948W        W 4467   0.122   6.535   8.914
  949W        W 4468   3.315   1.396  10.026
  950W        W 4469   5.306   6.448   0.710
  951W        W 4470   9.400   2.586  11.344
  952W        W 4471   9.610   7.048   3.540
  953W        W 4472   1.702   2.229   2.459
  954W        W 4473   3.305   3.058   2.406
  955W        W 4474   5.740   1.862   2.739
  956W        W 4475   0.303   0.928   3.381
  957W        W 4476   4.697   5.458   2.692
  958W        W 4477   4.354   7.678   1.084
  959W        W 4478   6.153   7.216  11.429
  960W        W 4479   8.640   2.403   9.658
  961W        W 4480   1.403   9.328   9.809
  962W        W 4481   4.952   9.377  10.492
  963W        W 4482   5.833   0.917   1.750
  964W        W 4483   6.615   3.656   3.595
  965W        W 4484   2.737   0.856  10.627
  966W        W 4485   1.875   6.976   0.851
  967W        W 4486   3.151   7.064   2.546
  968W        W 4487   9.839   4.363   1.271
  969W        W 4488   8.498   4.676   1.428
  970W        W 4489   2.246   1.311  10.904
  971W        W 4490   5.795   5.002   1.322
  972W        W 4491   7.553   6.350   1.576
  973W        W 4492   0.660   5.808   3.159
  974W        W 4493   2.884   0.647  11.067
  975W        W 4494   4.123   1.373   1.625
  976W        W 4495   7.377   6.227   9.531
  977W        W 4496   9.053   6.246   2.596
  978W        W 4497   0.554   7.705   3.154
  979W        W 4498   9.795   0.352   2.176
  980W        W 4499   1.950   9.900  11.993
  981W        W 4500   2.210   5.060   1.845
  982W        W 4501   9.117   7.193   3.489
  983W        W 4502   5.734   6.738   2.789
  984W        W 4503   1.691   2.300   1.454
  985W        W 4504   1.665   5.196   1.066
  986W        W 4505   7.430   3.001  11.557
  987W        W 4506   9.422   5.761   1.153
  988W        W 4507   0.812   7.870   8.853
  989W        W 4508   1.776   5.245  11.770
  990W        W 4509   3.250   8.249   0.446
  991W        W 4510   3.032   7.828  11.012
  992W        W 4511   9.581   5.033  10.423
  993W        W 4512   1.848   8.216   2.954
  994W        W 4513   6.074   1.489   2.356
  995W        W 4514   3.346   3.853  11.499
  996W        W 4515   8.836   3.310  10.455
  997W        W 4516   2.956   2.946   3.231
  998W        W 4517   3.071   9.476   2.344
  999W        W 4518   2.767   1.234  10.997
 1000W        W 4519   1.308   3.310   9.292
 1001W        W 4520   7.004   7.984   0.197
 1002W        W 4521   2.400   8.950  11.345
 1003W        W 4522   3.081   6.574   9.837
 1004W        W 4523   6.670   1.281   1.736
 1005W        W 4524   6.957   4.263   2.258
 1006W        W 4525   9.884   8.270   0.842
 1007W        W 4526   5.064   3.701   8.667
 1008W        W 4527   2.101   1.786   0.380
 1009W        W 4528   4.261   8.410   8.951
 1010W        W 4529   7.868   1.751   3.787
 1011W        W 4530   0.619   0.756   1.159
 1012W        W 4531   6.070   8.512   8.840
 1013W        W 4532   3.112   8.539   2.603
 1014W        W 4533   2.997   1.851   0.489
 1015W        W 4534   9.342   7.913   0.024
 1016W        W 4535   9.940   8.431  11.547
 1017W        W 4536   5.641   8.078   1.788
 1018W        W 4537   1.267   4.051  11.481
 1019W        W 4538   9.109   5.199  10.318
 1020W        W 4539   1.275   0.218   2.585
 1021W        W 4540   2.388   6.671   1.684
 1022W        W 4541   4.107   1.861  11.173
 1023W        W 4542   3.994   8.018   3.416
 1024W        W 4543   8.413   1.200   0.547
 1025W        W 4544   9.844   4.587  11.795
 1026W        W 4545   5.677   0.768  11.913
 1027W        W 4546   3.989   4.931   8.820
 1028W        W 4547   6.536   4.772   2.899
 1029W        W 4548   6.462   5.131   4.005
 1030W        W 4549   8.957   6.462   9.604
 1031W        W 4550   9.061   8.568  10.975
 1032W        W 4551   2.759   2.702   0.200
 1033W        W 4552   9.462   4.763   2.720
 1034W        W 4553   8.609   6.058   1.235
 1035W        W 4554   3.028   6.868  11.425
 1036W        W 4555   7.957   2.723   2.941
 1037W        W 4556   2.165   4.541   1.316
 1038W        W 4557   5.552   3.194   0.079
 1039W        W 4558   5.551   2.267   0.548
 1040W        W 4559   9.815   5.245   0.967
 1041W        W 4560   1.116   5.562   3.200
 1042W        W 4561   6.046   3.529  11.398
 1043W        W 4562   2.288   2.841   9.095
 1044W        W 4563   5.484   4.339  10.772
 1045W        W 4564   4.626   8.199   8.655
 1046W        W 4565   0.773   8.571   1.827
 1047W        W 4566   8.716   9.943   2.015
 1048W        W 4567   1.255   9.991   0.815
 1049W        W 4568   3.561   2.032  11.305
 1050W        W 4569   5.545   5.145   3.135
 1051W        W 4570   4.150   8.612  11.156
 1052W        W 4571   6.782   9.373   1.941
 1053W        W 4572   3.456   2.593   0.586
 1054W        W 4573   0.220   4.321  11.527
 1055W        W 4574   5.151   8.019   2.069
 1056W        W 4575   7.536   7.539   2.327
 1057W        W 4576   7.869   0.627   0.738
 1058W        W 4577   4.213   4.253   2.388
 1059W        W 4578   4.245   3.673   1.679
 1060W        W 4579   4.141   9.897  10.667
 1061W        W 4580   7.881   2.971  10.242
 1062W        W 4581   3.156   9.064   9.743
 1063W        W 4582   7.012   6.964   3.369
 1064W        W 4583   8.269   6.395  11.000
 1065W        W 4584   9.428   4.125   0.530
 1066W        W 4585   5.346   4.422  10.287
 1067W        W 4586   7.050   9.561   0.646
 1068W        W 4587   3.817   9.272   2.369
 1069W        W 4588   3.548   1.903   8.654
 1070W        W 4589   9.834   3.878  11.061
 1071W        W 4590   4.874   5.378  11.857
 1072W        W 4591   6.972   8.606  10.783
 1073W        W 4592   9.688   3.886   0.153
 1074W        W 4593   4.212   2.685  10.890
 1075W        W 4594   1.211   6.710  10.573
 1076W        W 4595   0.958   3.268   0.439
 1077W        W 4596   1.716   8.474  11.798
 1078W        W 4597   1.298   9.716   9.522
 1079W        W 4598   5.630   8.954   0.922
 1080W        W 4599   0.193   7.280  11.169
 1081W        W 4600   0.220   5.911  11.749
 1082W        W 4601   7.598   4.684   1.820
 1083W        W 4602   9.773   5.624  11.792
 1084W        W 4603   4.502   2.251  11.641
 1085W        W 4604   8.277   4.648  10.990
 1086W        W 4605   3.588   6.013   2.937
 1087W        W 4606   4.078   6.856   9.628
 1088W        W 4607   5.176   0.582  11.447
 1089W        W 4608   1.042   1.532   1.717
 1090W        W 4609   5.319   1.199   9.255
 1091W        W 4610   6.778   8.337  11.169
 1092W        W 4611   1.880   2.299   9.902
 1093W        W 4612   8.881   5.706  10.446
 1094W        W 4613   7.117   3.548   0.880
 1095W        W 4614   9.464   8.394  10.714
 1096W        W 4615   8.035   5.002  11.480
 1097W        W 4616   5.583   0.685  10.081
 1098W        W 4617   2.575   3.675   3.213
 1099W        W 4618   7.656   3.905  10.830
 1100W        W 4619   6.133   4.681   9.491
 1101W        W 4620   9.321   9.499   0.894
 1102W        W 4621   4.705   8.640  10.465
 1103W        W 4622   7.008   8.069   2.727
 1104W        W 4623   9.774   7.358   1.056
 1105W        W 4624   6.936   5.331   0.209
 1106W        W 4625   0.681   6.612   2.145
 1107W        W 4626   3.650   2.447   2.694
 1108W        W 4627   7.512   1.556   1.498
 1109W        W 4628   1.813   9.616   3.316
 1110W        W 4629   3.658   8.504   1.739
 1111W        W 4630   3.788   4.166  10.840
 1112W        W 4631   3.559   8.919   2.652
 1113W        W 4632   6.615   6.689   3.229
 1114W        W 4633   8.904   6.482  11.700
 1115W        W 4634   0.419   8.490   9.336
 1116W        W 4635   3.186   9.886   2.680
 1117W        W 4636   0.528   0.448   3.305
 1118W        W 4637   1.147   8.852   0.352
 1119W        W 4638   8.515   5.447  10.748
 1120W        W 4639   5.948   5.420   3.306
 1121W        W 4640   3.724   9.659   8.954
 1122W        W 4641   0.833   8.806  11.459
 1123W        W 4642   4.187   0.616  10.568
 1124W        W 4643   2.065   6.505  11.406
 1125W        W 4644   1.048   4.989  10.482
 1126W        W 4645   6.460   8.152  11.510
 1127W        W 4646   3.767   5.945  10.739
 1128W        W 4647   9.799   4.072  11.679
 1129W        W 4648   0.614   7.553   2.681
 1130W        W 4649   3.189   7.339   0.902
 1131W        W 4650   0.056   5.414   2.916
 1132W        W 4651   1.458   2.951   0.172
 1133W        W 4652   3.696   5.970   0.470
 1134W        W 4653   8.550   8.916   9.024
 1135W        W 4654   9.740   6.562   9.253
 1136W        W 4655   9.120   5.773   2.787
 1137W        W 4656   8.486   2.748  11.472
 1138W        W 4657   6.834   4.975  10.227
 1139W        W 4658   1.640   3.486  10.523
 1140W        W 4659   8.620   3.950   0.916
 1141W        W 4660   7.409   9.459  11.720
 1142W        W 4661   0.367   2.609   9.942
 1143W        W 4662   5.505   7.053   1.152
 1144W        W 4663   8.888   1.279   3.219
 1145W        W 4664   9.924   0.116   8.803
 1146W        W 4665   4.902   3.413   1.526
 1147W        W 4666   4.738   2.999   4.039
 1148W        W 4667   3.062   6.257   2.231
 1149W        W 4668   7.972   3.929   1.436
 1150W        W 4669   3.119   3.296   1.974
 1151W        W 4670   0.625   9.776   2.191
 1152W        W 4671   1.374   9.329   2.161
 1153W        W 4672   1.178   4.586  10.818
 1154W        W 4673   2.159   9.289   3.512
 1155W        W 4674   4.785   3.730  10.387
 1156W        W 4675   2.158   7.106  10.405
 1157W        W 4676   6.227   6.422   2.381
 1158W        W 4677   1.123   7.165  10.352
 1159W        W 4678   6.887   9.522  11.665
 1160W        W 4679   8.555   7.639   9.862
 1161W        W 4680   2.704   7.850   2.176
 1162W        W 4681   6.205   3.213   1.373
 1163W        W 4682   3.026   9.318   1.861
 1164W        W 4683   4.922   2.179  10.797
 1165W        W 4684   8.946   6.699   1.156
 1166W        W 4685   1.210   6.164  10.944
 1167W        W 4686   6.504   2.666   9.527
 1168W        W 4687   1.674   5.138   9.140
 1169W        W 4688   3.228   5.210   2.429
 1170W        W 4689   6.850   7.201  11.867
 1171W        W 4690   7.415   9.865  11.405
 1172W        W 4691   0.562   6.160  10.181
 1173W        W 4692   6.102   0.027   2.611
 1174W        W 4693   9.243   3.672   0.811
 1175W        W 4694   7.554   7.646   0.166
 1176W        W 4695   3.038   2.862   1.377
 1177W        W 4696   0.840   2.601   0.805
 1178W        W 4697   3.796   6.717   8.765
 1179W        W 4698   5.532   4.558   0.601
 1180W        W 4699   3.844   4.048   0.843
 1181W        W 4700   4.646   8.215   0.349
 1182W        W 4701   9.868   9.129   0.300
 1183W        W 4702   1.966   8.733   3.008
 1184W        W 4703   8.828   3.899   3.150
 1185W        W 4704   7.683   1.495   2.870
 1186W        W 4705   4.675   3.988  11.344
 1187W        W 4706   4.876   2.202   2.593
 1188W        W 4707   3.620   3.418   2.156
 1189W        W 4708   3.213   3.377   3.374
 1190W        W 4709   9.795   1.484   3.629
 1191W        W 4710   0.360   9.489   9.175
 1192W        W 4711   2.600   0.571   2.568
 1193W        W 4712   3.111   7.576  11.960
 1194W        W 4713   2.584   6.194   1.639
 1195W        W 4714   7.227   8.951   9.638
 1196W        W 4715   5.638   8.327  10.346
 1197W        W 4716   6.891   4.638  11.519
 1198W        W 4717   8.489   3.492   0.186
 1199W        W 4718   4.533   8.290   2.730
 1200W        W 4719   3.720   8.267  11.901
 1201W        W 4720   7.105   8.696  11.819
 1202W        W 4721   7.759   9.160   8.756
 1203W        W 4722   2.096   6.519  10.029
 1204W        W 4723   3.735   8.108   0.624
 1205W        W 4724   1.639   4.663   1.267
 1206W        W 4725   1.871   1.676   8.564
 1207W        W 4726   5.150   3.202   2.495
 1208W        W 4727   3.671   6.267   7.909
 1209W        W 4728   5.169   7.990  10.163
 1210W        W 4729   9.598   3.336   0.660
 1211W        W 4730   8.193   5.366   1.891
 1212W        W 4731   1.264   0.770  10.377
 1213W        W 4732   8.789   6.411   3.491
 1214W        W 4733   8.824   3.771   9.915
 1215W        W 4734   9.436   8.024   0.998
 1216W        W 4735   6.442   6.038  11.977
 1217W        W 4736   4.112   4.905  11.432
 1218W        W 4737   0.420   6.223   2.701
 1219W        W 4738   3.582   4.062   0.259
 1220W        W 4739   0.865   2.580   9.140
 1221W        W 4740   8.649   7.430  11.916
 1222W        W 4741   8.405   1.381   1.025
 1223W        W 4742   6.020   0.051  11.303
 1224W        W 4743   2.709   9.676  10.842
 1225W        W 4744   9.138   4.186   9.072
 1226W        W 4745   9.293   7.375   8.644
 1227W        W 4746   6.334   1.709   0.309
 1228W        W 4747   6.638   1.659  10.079
 1229W        W 4748   1.033   4.170   0.204
 1230W        W 4749   2.697   0.424   1.682
 1231W        W 4750   1.850   1.294  11.892
 1232W        W 4751   8.505   7.097   2.513
 1233W        W 4752   1.438   1.803   1.455
 1234W        W 4753   8.556   4.990   1.827
 1235W        W 4754   0.483   2.939   2.384
 1236W        W 4755   9.844   8.012  11.292
 1237W        W 4756   3.512   6.321   0.839
 1238W        W 4757   4.977   0.269  11.853
 1239W        W 4758   7.857   4.517  11.369
 1240W        W 4759   4.140   7.012   0.483
 1241W        W 4760   9.054   2.404  10.408
 1242W        W 4761   6.475   9.769   2.356
 1243W        W 4762   7.490   1.922   0.981
 1244W        W 4763   0.146   2.449  10.460
 1245W        W 4764   2.172   2.432   2.526
 1246W        W 4765   5.817   6.481   9.996
 1247W        W 4766   7.451   8.832   1.387
 1248W        W 4767   2.725   1.660  10.704
 1249W        W 4768   0.693   2.565  10.317
 1250W        W 4769   9.071   1.698  10.881
 1251W        W 4770   4.947   7.015   2.347
 1252W        W 4771   5.727   6.490  11.733
 1253W        W 4772   9.061   5.535   0.331
 1254W        W 4773   7.021   7.685   1.622
 1255W        W 4774   4.642   6.813   8.405
 1256W        W 4775   5.537   3.280   9.052
 1257W        W 4776   8.877   4.940   9.410
 1258W        W 4777   7.406   0.302   1.916
 1259W        W 4778   5.620   8.880  11.070
 1260W        W 4779   3.056   6.068   2.720
 1261W        W 4780   1.648   6.769  11.991
 1262W        W 4781   7.591   3.585   2.510
 1263W        W 4782   2.007   7.810   3.259
 1264W        W 4783   9.225   6.694   3.519
 1265W        W 4784   3.194   8.987   2.274
 1266W        W 4785   8.674   8.411   0.276
 1267W        W 4786   2.605   0.875   1.270
 1268W        W 4787   4.787   8.759   2.667
 1269W        W 4788   4.013   8.041  10.948
 1270W        W 4789   2.705   6.238   9.314
 1271W        W 4790   5.430   5.911   9.052
 1272W        W 4791   0.422   9.009   9.457
 1273W        W 4792   9.093   0.872   9.381
 1274W        W 4793   7.576   6.265   3.690
 1275W        W 4794   3.827   3.917   2.100
 1276W        W 4795   0.385   5.128   2.618
 1277W        W 4796   8.979   8.492  10.457
 1278W        W 4797   9.840   0.426  11.487
 1279W        W 4798   2.736   1.310   8.911
 1280W        W 4799   2.733   8.744   9.138
 1281W        W 4800   8.673   9.456  11.425
 1282W        W 4801   8.708   0.350   9.111
 1283W        W 4802   5.581   3.174   0.580
 1284W        W 4803   8.057   7.097  10.965
 1285W        W 4804   6.193   4.533  10.842
 1286W        W 4805   9.709   8.167  10.223
 1287W        W 4806   3.036   9.043   2.759
 1288W        W 4807   1.433   1.762  11.044
 1289W        W 4808   0.392   3.375  11.283
 1290W        W 4809   9.721   1.232   0.922
 1291W        W 4810   6.929   0.419   1.259
 1292W        W 4811   2.025   5.182   3.162
 1293W        W 4812   2.135   2.296   0.448
 1294W        W 4813   4.357   9.385   8.539
 1295W        W 4814   0.268   1.483   3.391
 1296W        W 4815   1.802   5.231   9.752
 1297W        W 4816   9.988   5.114  10.718
 1298W        W 4817   6.989   2.077   1.025
 1299W        W 4818   2.260   6.505   9.127
 1300W        W 4819   3.916   4.269   2.940
 1301W        W 4820   3.839   2.109   9.040
 1302W        W 4821   0.631   7.193  10.458
 1303W        W 4822   7.491   7.180   0.390
 1304W        W 4823   8.108   3.312   9.918
 1305W        W 4824   0.251   2.933  10.344
 1306W        W 4825   5.237   0.694   2.466
 1307W        W 4826   8.967   0.164   0.931
 1308W        W 4827   3.775   8.558   9.071
 1309W        W 4828   7.134   4.000   1.789
 1310W        W 4829   2.799   1.784   1.958
 1311W        W 4830   8.411   7.153   3.021
 1312W        W 4831   7.333   9.838  10.532
 1313W        W 4832   3.803   0.611   2.658
 1314W        W 4833   9.391   0.604  11.699
 1315W        W 4834   3.147   4.917  11.621
 1316W        W 4835   4.683   3.107   8.158
 1317W        W 4836   3.241   4.184   3.742
 1318W        W 4837   6.955   3.709  10.065
 1319W        W 4838   6.437   9.008   9.964
 1320W        W 4839   9.980   6.512  10.920
 1321W        W 4840   5.095   2.702   9.772
 1322W        W 4841   7.933   8.514   3.520
 1323W        W 4842   6.916   3.336   2.436
 1324W        W 4843   3.804   7.110   3.857
 1325W        W 4844   1.792   9.627  10.531
 1326W        W 4845   6.680   1.677   1.399
 1327W        W 4846   2.180   7.447   8.834
 1328W        W 4847   4.943   9.031   0.424
 1329W        W 4848   9.846   0.389   0.574
 1330W        W 4849   8.880   7.683  11.198
 1331W        W 4850   5.619   9.814  11.500
 1332W        W 4851   5.063   3.019  11.981
 1333W        W 4852   7.576   0.687   3.231
 1334W        W 4853   3.996   3.222   1.844
 1335W        W 4854   7.395   3.062   0.066
 1336W        W 4855   0.721   0.544   8.997
 1337W        W 4856   2.555   1.361   9.392
 1338W        W 4857   9.259   1.489   9.467
 1339W        W 4858   0.823   1.801  11.731
 1340W        W 4859   7.043   9.767   9.702
 1341W        W 4860   0.267   9.925   9.624
 1342W        W 4861   6.130   8.088   9.711
 1343W        W 4862   3.228   9.019  10.741
 1344W        W 4863   1.575   0.772   1.358
 1345W        W 4864   8.417   3.537   2.817
 1346W        W 4865   1.423   7.056   9.085
 1347W        W 4866   0.673   7.482   2.183
 1348W        W 4867   8.506   3.626  11.214
 1349W        W 4868   3.507   5.515  11.700
 1350W        W 4869   2.278   3.177  10.086
 1351W        W 4870   0.868   6.337   1.435
 1352W        W 4871   3.471   5.731   9.776
 1353W        W 4872   8.936   1.384   2.739
 1354W        W 4873   2.609   8.486  11.300
 1355W        W 4874   1.826   9.322   2.415
 1356W        W 4875   4.516   2.390  10.113
 1357W        W 4876   7.869   3.193   2.740
 1358W        W 4877   2.263   3.787  10.872
 1359W        W 4878   1.415   9.323  11.879
 1360W        W 4879   7.343   7.982  11.813
 1361W        W 4880   4.717   1.385   0.207
 1362W        W 4881   7.484   8.406   1.648
 1363W        W 4882   4.101   2.911  10.422
 1364W        W 4883   5.652   4.205   1.569
 1365W        W 4884   3.683   0.375   0.734
 1366W        W 4885   1.714   0.018  10.850
 1367W        W 4886   9.024   6.994   8.881
 1368W        W 4887   0.982   4.045   8.981
 1369W        W 4888   9.420   0.398   0.881
 1370W        W 4889   6.587   7.990   2.481
 1371W        W 4890   2.136   0.373  10.449
 1372W        W 4891   5.203   8.974  11.421
 1373W        W 4892   2.962   3.916   8.438
 1374W        W 4893   1.898   5.432  10.784
 1375W        W 4894   2.280   3.533   1.385
 1376W        W 4895   4.334   4.002   0.642
 1377W        W 4896   4.127   6.073   3.068
 1378W        W 4897   9.104   4.989  11.219
 1379W        W 4898   1.947   6.993   9.024
 1380W        W 4899   6.630   5.510   2.182
 1381W        W 4900   8.537   3.777  11.708
 1382W        W 4901   7.018   1.893  10.604
 1383W        W 4902   5.797   2.674  11.337
 1384W        W 4903   7.453   8.157   2.946
 1385W        W 4904   6.282   6.169  10.307
 1386W        W 4905   6.474   5.757  11.062
 1387W        W 4906   3.077   2.162  11.439
 1388W        W 4907   4.304   7.607   3.261
 1389W        W 4908   7.697   4.602   0.787
 1390W        W 4909   6.666   4.126   1.656
 1391W        W 4910   4.022   2.258   1.835
 1392W        W 4911   4.759   9.594   2.477
 1393W        W 4912   0.976   1.222  10.387
 1394W        W 4913   4.442   7.428   1.897
 1395W        W 4914   4.930   7.979   3.890
 1396W        W 4915   9.398   9.679  11.762
 1397W        W 4916   4.690   2.321   0.631
 1398W        W 4917   5.343   3.454   1.822
 1399W        W 4918   1.216   0.961   0.475
 1400W        W 4919   8.248   5.619   2.492
 1401W        W 4920   0.015   0.225   1.717
 1402W        W 4921   3.637   6.882   2.486
 1403W        W 4922   1.345   4.581   0.328
 1404W        W 4923   2.980   4.682  10.538
 1405W        W 4924   8.729   7.244  11.446
 1406W        W 4925   0.733   2.091  11.095
 1407W        W 4926   1.167   2.999   3.129
 1408W        W 4927   1.055   8.378   9.359
 1409W        W 4928   1.835   7.032   2.247
 1410W        W 4929   4.553   4.109   9.181
 1411W        W 4930   5.992   7.178   0.882
 1412W        W 4931   9.233   5.247   2.733
 1413W        W 4932   4.147   6.346   9.532
 1414W        W 4933   2.471   1.689   1.131
 1415W        W 4934   4.324   3.758   9.613
 1416W        W 4935   5.896   9.435   3.010
 1417W        W 4936   8.464   6.567   1.323
 1418W        W 4937   1.407   7.091   9.927
 1419W        W 4938   3.137   9.501  10.007
 1420W        W 4939   4.181   0.412   9.165
 1421W        W 4940   3.260   1.135   1.348
 1422W        W 4941   3.153   6.509   9.317
 1423W        W 4942   8.908   4.618   9.787
 1424W        W 4943   2.192   0.122   0.427
 1425W        W 4944   3.248   1.768   2.692
 1426W        W 4945   0.416   4.005  11.875
 1427W        W 4946   5.496   5.758  10.259
 1428W        W 4947   8.857   7.926   0.213
 1429W        W 4948   2.559   9.945   1.331
 1430W        W 4949   5.471   4.005   3.332
 1431W        W 4950   3.498   0.871   0.770
 1432W        W 4951   0.196   3.329   3.299
 1433W        W 4952   5.532   1.209  10.680
 1434W        W 4953   7.780   7.460   1.273
 1435W        W 4954   4.701   3.912   1.536
 1436W        W 4955   4.007   8.164  10.031
 1437W        W 4956   8.610   5.369   0.631
 1438W        W 4957   5.078   4.648  10.724
 1439W        W 4958   9.774   8.631   2.849
 1440W        W 4959   9.018   5.486  11.348
 1441W        W 4960   9.993   3.080  11.969
 1442W        W 4961   2.270   1.256   1.440
 1443W        W 4962   6.926   6.852  10.197
 1444W        W 4963   7.643   8.863   1.858
 1445W        W 4964   2.046   1.280   0.391
 1446W        W 4965   1.641   2.756   3.111
 1447W        W 4966   5.856   0.505   8.930
 1448W        W 4967   7.876   0.785   1.218
 1449W        W 4968   1.862   5.704   0.403
 1450W        W 4969   1.762   9.861   8.796
 1451W        W 4970   2.255   2.125   1.328
 1452W        W 4971   4.906   2.779   8.947
 1453W        W 4972   2.219   1.683   9.879
 1454W        W 4973   9.316   3.178   2.895
 1455W        W 4974   2.664   9.490   9.786
 1456W        W 4975   6.920   5.955   2.336
 1457W        W 4976   6.398   6.766  11.015
 1458W        W 4977   8.362   2.873  10.063
 1459W        W 4978   0.166   9.137   1.146
 1460W        W 4979   8.185   9.308   9.129
 1461W        W 4980   3.666   1.612   2.420
 1462W        W 4981   3.654   9.029   9.838
 1463W        W 4982   1.996   8.643   3.520
 1464W        W 4983   3.918   9.198   3.568
 1465W        W 4984   6.022   5.857   2.517
 1466W        W 4985   7.431   6.058   2.405
 1467W        W 4986   5.682   6.999   9.826
 1468W        W 4987   1.770   1.799  10.118
 1469W        W 4988   9.776   9.865   2.012
 1470W        W 4989   7.838   1.601  11.868
 1471W        W 4990   8.577   5.561   1.118
 1472W        W 4991   4.919   2.662   0.317
 1473W        W 4992   2.583   1.960   8.810
 1474W        W 4993   6.208   5.930   0.437
 1475W        W 4994   8.428   3.208   8.951
 1476W        W 4995   6.109   5.447   0.275
 1477W        W 4996   9.274   3.659   3.192
 1478W        W 4997   3.027   1.063   0.895
 1479W        W 4998   8.563   8.405   1.923
 1480W        W 4999   8.457   0.049   9.666
 1481W        W 5000   9.441   1.396  11.231
 1482W        W 5001   6.830   0.238   9.511
 1483W        W 5002   7.117   4.717   3.597
 1484W        W 5003   1.409   1.497   1.041
 1485W        W 5004   8.497   0.321  11.664
 1486W        W 5005   2.305   6.034  10.083
 1487W        W 5006   5.794   7.296  10.674
 1488W        W 5007   2.717   8.866   0.550
 1489W        W 5008   6.660   4.140   0.359
 1490W        W 5009   3.774   4.739   1.685
 1491W        W 5010   6.984   3.295   3.657
 1492W        W 5011   3.166   4.150   9.707
 1493W        W 5012   0.914   9.357   2.371
 1494W        W 5013   7.355   6.536   2.029
 1495W        W 5014   9.324   3.325   9.145
 1496W        W 5015   7.103   6.038   3.690
 1497W        W 5016   2.213   4.977  11.521
 1498W        W 5017   6.481   4.884  11.232
 1499W        W 5018   9.456   8.987   0.578
 1500W        W 5019   5.052   6.739   8.697
 1501W        W 5020   1.247   2.881   0.663
 1502W        W 5021   7.096   2.502   1.335
 1503W        W 5022   1.066   7.557   3.021
 1504W        W 5023   8.110   3.814   0.951
 1505W        W 5024   7.545   0.760  10.825
 1506W        W 5025   8.528   9.829   3.041
 1507W        W 5026   7.731   4.711   2.340
 1508W        W 5027   9.412   0.466  10.679
 1509W        W 5028   0.017   3.035   2.147
 1510W        W 5029   8.540   2.310  10.524
 1511W        W 5030   3.046   5.041   3.289
 1512W        W 5031   4.849   6.061   1.471
 1513W        W 5032   4.028   3.907   1.291
 1514W        W 5033   3.481   3.651   8.433
 1515W        W 5034   3.677   0.021   1.490
 1516W        W 5035   8.494   7.046  10.115
 1517W        W 5036   5.088   5.258   1.848
 1518W        W 5037   3.347   0.875   1.781
 1519W        W 5038   9.483   2.410   1.755
 1520W        W 5039   8.265   6.675   9.046
 1521W        W 5040   8.889   3.042   2.645
 1522W        W 5041   1.720   6.330   2.902
 1523W        W 5042   4.960   0.661  10.965
 1524W        W 5043   8.945   7.095   0.794
 1525W        W 5044   3.993   4.331   0.457
 1526W        W 5045   1.503   6.950   3.568
 1527W        W 5046   9.204   6.086   1.848
 1528W        W 5047   1.322   6.658   0.365
 1529W        W 5048   7.463   0.905   0.869
 1530W        W 5049   9.834   3.204   2.928
 1531W        W 5050   4.061   3.211  10.876
 1532W        W 5051   5.450   2.293   9.967
 1533W        W 5052   8.112   8.426   9.423
 1534W        W 5053   7.634   2.348   2.217
 1535W        W 5054   7.535   1.114   8.544
 1536W        W 5055   6.097   6.721   9.653
 1537W        W 5056   7.430   8.538   9.872
 1538W        W 5057   9.260   4.484  11.103
 1539W        W 5058   3.336   7.966   0.894
 1540W        W 5059   4.270   2.598   3.144
 1541W        W 5060   0.217   1.790  10.256
 1542W        W 5061   9.186   3.139   0.824
 1543W        W 5062   3.489   1.212  10.487
 1544W        W 5063   5.935   2.739  10.327
 1545W        W 5064   4.003   4.471   8.575
 1546W        W 5065   7.399   9.571   0.223
 1547W        W 5066   4.982   6.589  10.575
 1548W        W 5067   7.955   6.330   3.141
 1549W        W 5068   1.741   5.752   9.122
 1550W        W 5069   6.391   1.362  11.507
 1551W        W 5070   0.007   5.870   0.183
 1552W        W 5071   1.851   9.202   9.588
 1553W        W 5072   5.376   8.496  11.338
 1554W        W 5073   1.870   4.697  11.244
 1555W        W 5074   4.721   1.426   0.712
 1556W        W 5075   9.496   7.514   3.369
 1557W        W 5076   5.524   2.235   1.563
 1558W        W 5077   6.952   5.556   8.440
 1559W        W 5078   9.651   6.409   8.666
 1560W        W 5079   1.352   8.448   0.126
 1561W        W 5080   6.525   7.846   9.498
 1562W        W 5081   8.491   6.961   1.008
 1563W        W 5082   9.537   4.096   2.879
 1564W        W 5083   5.040   6.407  11.063
 1565W        W 5084   5.865   1.877   1.274
 1566W        W 5085   4.618   3.562   8.420
 1567W        W 5086   8.083   9.442  11.188
 1568W        W 5087   4.054   3.316   9.504
 1569W        W 5088   9.867   1.307  11.467
 1570W        W 5089   0.210   1.032   1.010
 1571W        W 5090   6.370   3.737   0.331
 1572W        W 5091   2.616   1.951  11.567
 1573W        W 5092   7.699   2.106  11.699
 1574W        W 5093   5.191   7.017   9.992
 1575W        W 5094   3.777   1.730   0.919
 1576W        W 5095   4.166   3.203   9.980
 1577W        W 5096   0.330   3.755  10.931
 1578W        W 5097   8.529   6.606   0.080
 1579W        W 5098   1.244   1.594  11.919
 1580W        W 5099   9.485   3.136   2.402
 1581W        W 5100   2.857   0.143  11.046
 1582W        W 5101   7.540   1.178  11.975
 1583W        W 5102   2.908   4.374   0.831
 1584W        W 5103   0.909   0.081   8.914
 1585W        W 5104   7.027   5.467   1.641
 1586W        W 5105   8.834   6.874   3.243
 1587W        W 5106   8.073   0.061  10.897
 1588W        W 5107   7.223   4.651  10.191
 1589W        W 5108   4.782   3.696   9.398
 1590W        W 5109   6.761   5.218   8.961
 1591W        W 5110   5.379   7.622   1.810
 1592W        W 5111   5.761   6.183  10.423
 1593W        W 5112   7.829   6.622  10.876
 1594W        W 5113   7.460   1.886   1.969
 1595W        W 5114   9.099   3.077   9.916
 1596W        W 5115   1.128   5.736   2.239
 1597W        W 5116   2.099   2.604   1.384
 1598W        W 5117   8.769   4.316   0.489
 1599W        W 5118   8.089   2.815   8.900
 1600W        W 5119   3.579   3.663   0.664
 1601W        W 5120   3.389   0.337  11.066
 1602W        W 5121   9.657   8.558   8.592
 1603W        W 5122   0.217   0.003   0.832
 1604W        W 5123   7.025   9.035  10.474
 1605W        W 5124   4.944   3.989   3.213
 1606W        W 5125   7.125   5.953  11.502
 1607W        W 5126   3.280   0.759  11.385
 1608W        W 5127   5.197   0.066  11.342
 1609W        W 5128   3.836   8.318  10.515
 1610W        W 5129   1.807   3.134   9.388
 1611W        W 5130   9.860   8.036  10.707
 1612W        W 5131   7.394   7.495   9.976
 1613W        W 5132   4.913   5.358   1.386
 1614W        W 5133   7.552   5.586  10.227
 1615W        W 5134   4.957   7.524  11.609
 1616W        W 5135   5.169   0.723  11.952
 1617W        W 5136   8.997   3.225   8.670
 1618W        W 5137   3.065   7.862  11.522
 1619W        W 5138   4.019   2.185  10.797
 1620W        W 5139   9.354   9.954   0.658
 1621W        W 5140   9.500   6.514   2.749
 1622W        W 5141   2.293   0.133   1.884
 1623W        W 5142   8.706   1.839  11.716
 1624W        W 5143   3.709   3.724   7.969
 1625W        W 5144   8.494   0.329   0.783
 1626W        W 5145   6.637   3.210  10.469
 1627W        W 5146   7.827   6.093  10.858
 1628W        W 5147   3.217   2.934   0.294
 1629W        W 5148   2.771   6.435  11.038
 1630W        W 5149   3.661   0.976   3.028
 1631W        W 5150   7.736   8.481  11.298
 1632W        W 5151   3.665   8.809  10.575
 1633W        W 5152   9.823   9.978  11.759
 1634W        W 5153   4.602   3.277  10.245
 1635W        W 5154   1.050   9.671   0.471
 1636W        W 5155   6.686   7.586   3.214
 1637W        W 5156   1.058   2.838  10.728
 1638W        W 5157   5.441   2.737   0.297
 1639W        W 5158   3.198   8.284  10.117
 1640W        W 5159   3.554   4.268  11.273
 1641W        W 5160   0.675   4.914   0.895
 1642W        W 5161   3.595   5.895   9.151
 1643W        W 5162   4.154   0.075   1.828
 1644W        W 5163   1.827   5.876   2.722
 1645W        W 5164   0.374   9.289   8.655
 1646W        W 5165   4.152   2.287   2.731
 1647W        W 5166   3.750   6.358  10.426
 1648W        W 5167   3.787   6.109   9.975
 1649W        W 5168   2.061   1.492   0.879
 1650W        W 5169   9.636   1.013   1.397
 1651W        W 5170   4.718   7.330   3.132
 1652W        W 5171   2.666   8.991   9.609
 1653W        W 5172   6.772   9.963   1.379
 1654W        W 5173   5.104   4.952   3.319
 1655W        W 5174   3.362   1.087   0.309
 1656W        W 5175   4.306   9.105  11.227
 1657W        W 5176   3.754   9.212   1.131
 1658W        W 5177   0.502   4.239   9.509
 1659W        W 5178   1.948   2.772   2.196
 1660W        W 5179   2.371   8.824   8.775
 1661W        W 5180   1.310   7.595   9.968
 1662W        W 5181   9.996   8.071   2.239
 1663W        W 5182   8.154   5.335   0.905
 1664W        W 5183   0.953   0.877   9.980
 1665W        W 5184   1.356   4.919  11.951
 1666W        W 5185   4.176   8.564   0.673
 1667W        W 5186   5.235   5.937   0.460
 1668W        W 5187   2.620   6.430  10.038
 1669W        W 5188   0.853   7.197   9.556
 1670W        W 5189   7.936   6.870   2.085
 1671W        W 5190   0.026   2.117   9.411
 1672W        W 5191   1.684   9.996   9.308
 1673W        W 5192   8.847   0.881   2.566
 1674W        W 5193   4.523   5.146   1.750
 1675W        W 5194   7.483   9.428   0.903
 1676W        W 5195   5.609   3.818  11.828
 1677W        W 5196   6.425   5.981   2.206
 1678W        W 5197   7.455   0.308   0.061
 1679W        W 5198   6.324   0.474   9.227
 1680W        W 5199   0.603   9.051   9.960
 1681W        W 5200   7.938   0.204   2.542
 1682W        W 5201   2.861   5.546   3.215
 1683W        W 5202   7.251   1.795   2.833
 1684W        W 5203   5.965   4.625   2.980
 1685W        W 5204   0.904   2.464   9.863
 1686W        W 5205   2.899   9.587   1.443
 1687W        W 5206   5.112   4.974   0.075
 1688W        W 5207   9.552   0.076   3.381
 1689W        W 5208   5.585   2.560   9.563
 1690W        W 5209   7.414   8.863  11.050
 1691W        W 5210   6.712   4.829   4.356
 1692W        W 5211   6.911   8.221  11.728
 1693W        W 5212   6.133   7.643  10.831
 1694W        W 5213   6.391   6.953   8.720
 1695W        W 5214   3.517   7.593   0.585
 1696W        W 5215   8.004   9.533   1.628
 1697W        W 5216   7.213   6.145  10.055
 1698W        W 5217   0.918   3.990   2.939
 1699W        W 5218   4.593   6.614   2.397
 1700W        W 5219   6.674   0.564  10.463
 1701W        W 5220   8.644   9.070   9.839
 1702W        W 5221   4.279   8.733   2.885
 1703W        W 5222   7.885   8.869   0.450
 1704W        W 5223   3.354   9.173   3.155
 1705W        W 5224   9.789   6.711  10.483
 1706W        W 5225   8.656   3.156  11.826
 1707W        W 5226   2.075   1.480   1.902
 1708W        W 5227   7.207   7.081  11.460
 1709W        W 5228   0.077   7.037   3.306
 1710W        W 5229   2.998   6.318   8.593
 1711W        W 5230   0.705   7.941  10.958
 1712W        W 5231   1.208   3.120  11.160
 1713W        W 5232   1.665   1.222   8.740
 1714W        W 5233   9.792   7.509   8.986
 1715W        W 5234   5.931   9.515  11.794
 1716W        W 5235   4.045   7.158  10.619
 1717W        W 5236   3.359   0.433  10.108
 1718W        W 5237   0.850   8.498   1.291
 1719W        W 5238   8.052   0.182   9.976
 1720W        W 5239   9.554   9.252   3.467
 1721W        W 5240   4.881   8.416  11.339
 1722W        W 5241   2.672   8.287  10.352
 1723W        W 5242   6.000   9.266   1.276
 1724W        W 5243   8.149   7.456   2.641
 1725W        W 5244   0.869   4.078   1.210
 1726W        W 5245   2.079   0.786   1.285
 1727W        W 5246   9.802   8.348   3.275
 1728W        W 5247   5.203   8.040   9.588
 1729W        W 5248   8.366   1.753   0.535
 1730W        W 5249   0.452   5.660   0.359
 1731W        W 5250   0.283   7.968   0.746
 1732W        W 5251   6.307   5.906   1.166
 1733W        W 5252   8.688   8.841  10.704
 1734W        W 5253   4.380   9.727   0.588
 1735W        W 5254   5.328   7.487  10.677
 1736W        W 5255   6.548   0.246   2.120
 1737W        W 5256   3.955   5.120  10.974
 1738W        W 5257   1.740   2.680   9.100
 1739W        W 5258   7.585   0.367  10.122
 1740W        W 5259   1.622   8.044  10.478
 1741W        W 5260   4.849   5.971   4.128
 1742W        W 5261   2.130   2.529  11.562
 1743W        W 5262   0.187   7.512   3.483
 1744W        W 5263   1.440   5.360   0.170
 1745W        W 5264   7.096   7.885   3.212
 1746W        W 5265   2.284   7.410  11.547
 1747W        W 5266   5.800   9.603   8.583
 1748W        W 5267   8.636   3.291   9.964
 1749W        W 5268   4.358   7.818   9.957
 1750W        W 5269   4.588   9.524   1.365
 1751W        W 5270   3.013   1.862   9.954
 1752W        W 5271   6.308   5.056   1.481
 1753W        W 5272   4.466   5.124  10.776
 1754W        W 5273   3.415   6.825   0.813
 1755W        W 5274   9.589   1.806  11.525
 1756W        W 5275   4.996   5.473   8.302
 1757W        W 5276   3.146   5.960   1.082
 1758W        W 5277   5.138   0.136   1.693
 1759W        W 5278   1.378   0.211   2.068
 1760W        W 5279   9.086   6.739   2.534
 1761W        W 5280   7.185   0.819   2.124
 1762W        W 5281   7.709   4.528   9.507
 1763W        W 5282   3.760   4.438  10.390
 1764W        W 5283   8.453   2.645   0.507
 1765W        W 5284   1.240   3.344   2.178
 1766W        W 5285   2.790   8.879   1.968
 1767W        W 5286   1.405   9.402  10.861
 1768W        W 5287   3.309   3.138   2.917
 1769W        W 5288   2.850   5.597   8.855
 1770W        W 5289   8.347   4.557   8.323
 1771W        W 5290   1.321   6.174   2.043
 1772W        W 5291   2.015   0.492   9.478
 1773W        W 5292   1.888   9.147  10.657
 1774W        W 5293   0.009   6.512   1.407
 1775W        W 5294   9.089   6.484   3.053
 1776W        W 5295   8.809   3.131  11.328
 1777W        W 5296   5.731   4.031   3.777
 1778W        W 5297   7.252   9.053   8.790
 1779W        W 5298   0.433   5.688   2.679
 1780W        W 5299   7.666   9.865   1.837
 1781W        W 5300   0.668   5.190   2.022
 1782W        W 5301   6.449   9.760   2.882
 1783W        W 5302   7.083   1.419   1.240
 1784W        W 5303   6.846   0.073  10.569
 1785W        W 5304   1.147   3.319  10.643
 1786W        W 5305   5.448   8.911   1.871
 1787W        W 5306   1.353   3.986   1.398
 1788W        W 5307   5.084   1.736   2.349
 1789W        W 5308   7.895   9.794   3.288
 1790W        W 5309   3.272   0.902   9.887
 1791W        W 5310   6.137   0.206   0.673
 1792W        W 5311   9.877   2.718   1.777
 1793W        W 5312   5.917   6.556   3.241
 1794W        W 5313   6.363   9.054   0.181
 1795W        W 5314   4.119   8.042   8.591
 1796W        W 5315   3.150   6.029   9.522
 1797W        W 5316   8.003   1.436   0.344
 1798W        W 5317   7.526   9.849   9.501
 1799W        W 5318   1.703   7.456   0.809
 1800W        W 5319   6.120   3.675  11.883
 1801W        W 5320   5.905   0.599   3.766
 1802W        W 5321   4.640   1.381   9.889
 1803W        W 5322   2.908   1.722  11.191
 1804W        W 5323   7.992   6.972   2.571
 1805W        W 5324   2.979   5.547   9.690
 1806W        W 5325   2.791   3.063   0.546
 1807W        W 5326   4.018   1.805   9.962
 1808W        W 5327   2.716   9.316   8.205
 1809W        W 5328   5.213   6.199   8.692
 1810W        W 5329   8.033   8.888  10.403
 1811W        W 5330   1.328   4.073  10.966
 1812W        W 5331   5.167   4.423   3.396
 1813W        W 5332   8.223   4.296   3.561
 1814W        W 5333   5.539   6.181   8.270
 1815W        W 5334   8.631   0.827  11.655
 1816W        W 5335   1.270   6.567   2.840
 1817W        W 5336   3.594   5.323  10.499
 1818W        W 5337   6.650   8.131   0.533
 1819W        W 5338   6.586   6.517   8.516
 1820W        W 5339   4.492   9.261  10.761
 1821W        W 5340   9.963   8.964   8.597
 1822W        W 5341   8.862   7.388   1.841
 1823W        W 5342   8.427   4.715   9.575
 1824W        W 5343   8.826   5.782  10.962
 1825W        W 5344   3.711   5.551   2.767
 1826W        W 5345   1.238   2.218  11.105
 1827W        W 5346   6.511   2.069   9.171
 1828W        W 5347   0.988   1.711   1.230
 1829W        W 5348   1.486   4.962  11.458
 1830W        W 5349   2.783   3.140   2.424
 1831W        W 5350   0.002   3.875   1.144
 1832W        W 5351   3.403   0.253   1.136
 1833W        W 5352   3.812   1.240   1.237
 1834W        W 5353   9.193   3.737   8.800
 1835W        W 5354   3.706   7.049   1.388
 1836W        W 5355   0.479   1.835   9.366
 1837W        W 5356   4.542   8.722   0.334
 1838W        W 5357   4.697   6.883   9.994
 1839W        W 5358   3.700   0.763  11.841
 1840W        W 5359   0.172   8.038   0.257
 1841W        W 5360   3.989   0.332   2.244
 1842W        W 5361   7.591   9.772   2.746
 1843W        W 5362   5.012   6.086   0.932
 1844W        W 5363   4.794   8.324  10.862
 1845W        W 5364   6.084   1.364  10.773
 1846W        W 5365   5.983   2.303   3.176
 1847W        W 5366   6.318   4.019   8.798
 1848W        W 5367   0.697   3.602  10.596
 1849W        W 5368   4.685   6.925   2.797
 1850W        W 5369   7.559   4.882   9.870
 1851W        W 5370   5.087   6.055  10.272
 1852W        W 5371   7.305   1.154  10.524
 1853W        W 5372   9.839   7.140   1.954
 1854W        W 5373   2.530   5.976  11.676
 1855W        W 5374   6.333   7.889   3.465
 1856W        W 5375   8.762   3.668   8.518
 1857W        W 5376   2.623   4.049   0.395
 1858W        W 5377   8.257   1.469  10.465
 1859W        W 5378   8.886   5.452   9.491
 1860W        W 5379   1.205   3.741   0.473
 1861W        W 5380   8.413   5.247   2.847
 1862W        W 5381   2.701   4.063   8.863
 1863W        W 5382   0.584   0.209   0.045
 1864W        W 5383   6.886   2.922   8.862
 1865W        W 5384   1.298   5.487   9.124
 1866W        W 5385   3.716   4.277   2.456
 1867W        W 5386   0.015   1.985  10.692
 1868W        W 5387   6.062   6.515   8.654
 1869W        W 5388   5.731   8.486   0.678
 1870W        W 5389   9.733   3.249   1.768
 1871W        W 5390   4.029   9.573   1.912
 1872W        W 5391   9.339   5.694  11.003
 1873W        W 5392   2.596   8.541   0.981
 1874W        W 5393   2.435   0.339   9.228
 1875W        W 5394   8.577   5.997   2.485
 1876W        W 5395   6.795   1.996   2.753
 1877W        W 5396   0.655   3.542   0.748
 1878W        W 5397   9.020   5.334  10.813
 1879W        W 5398   5.821   5.174  10.227
 1880W        W 5399   8.900   0.181   0.413
 1881W        W 5400   2.657   3.442   1.048
 1882W        W 5401   1.959   2.601  10.703
 1883W        W 5402   7.509   1.288  10.065
 1884W        W 5403   9.479   3.643   3.659
 1885W        W 5404   6.752   5.604   2.695
 1886W        W 5405   3.287   8.996   0.913
 1887W        W 5406   7.290   5.489  11.314
 1888W        W 5407   3.835   2.499   9.502
 1889W        W 5408   9.885   9.314  11.070
 1890W        W 5409   0.036   3.622  11.853
 1891W        W 5410   6.327   9.687   1.361
 1892W        W 5411   4.692   1.469  10.539
 1893W        W 5412   5.444   4.642   3.000
 1894W        W 5413   1.839   7.829   2.577
 1895W        W 5414   2.407   4.740   2.319
 1896W        W 5415   0.868   6.536  10.942
 1897W        W 5416   9.940   5.234  11.200
 1898W        W 5417   2.224   9.672   9.992
 1899W        W 5418   3.767   2.634   1.018
 1900W        W 5419   2.375   7.037   0.686
 1901W        W 5420   8.533   6.217   0.415
 1902W        W 5421   3.910   6.702   0.923
 1903W        W 5422   0.465   4.059   9.031
 1904W        W 5423   4.220   8.851  10.667
 1905W        W 5424   3.217   0.698   3.188
 1906W        W 5425   0.335   2.081   1.311
 1907W        W 5426   9.466   9.364  10.751
 1908W        W 5427   8.009   2.008   2.178
 1909W        W 5428   6.464   9.302   1.046
 1910W        W 5429   8.511   6.811  11.604
 1911W        W 5430   2.366   8.444   0.424
 1912W        W 5431   6.783   9.793   9.251
 1913W        W 5432   7.466   2.042  10.370
 1914W        W 5433   2.564   6.993  11.305
 1915W        W 5434   4.596   4.713   9.884
 1916W        W 5435   4.578   1.275   2.957
 1917W        W 5436   0.227   0.416   9.113
 1918W        W 5437   9.436   5.851  11.476
 1919W        W 5438   1.356   9.216   1.667
 1920W        W 5439   3.546   9.248  10.293
 1921W        W 5440   4.755   9.492   0.871
 1922W        W 5441   8.583   8.172  11.502
 1923W        W 5442   0.176   3.715   9.752
 1924W        W 5443   8.538   8.561   9.731
 1925W        W 5444   8.784   5.613  11.787
 1926W        W 5445   8.949   2.603   2.000
 1927W        W 5446   4.043   7.578   9.215
 1928W        W 5447   8.496   8.020  10.521
 1929W        W 5448   7.891   5.944   1.587
 1930W        W 5449   3.298   4.235   9.219
 1931W        W 5450   8.105   6.676   8.552
 1932W        W 5451   2.663   5.282   1.149
 1933W        W 5452   5.387   9.764   1.961
 1934W        W 5453   8.025   0.672   2.333
 1935W        W 5454   0.228   6.050   8.658
 1936W        W 5455   4.610   8.484   1.467
 1937W        W 5456   8.585   8.419   9.233
 1938W        W 5457   1.562   6.730   8.713
 1939W        W 5458   2.344   3.241   0.699
 1940W        W 5459   6.657   4.535  11.994
 1941W        W 5460   0.768   2.520   2.484
 1942W        W 5461   5.028   0.871   8.987
 1943W        W 5462   4.750   2.789   3.245
 1944W        W 5463   8.091   7.673   3.091
 1945W        W 5464   8.446   4.175   1.348
 1946W        W 5465   9.987   6.842   0.512
 1947W        W 5466   1.327   6.289   9.589
 1948W        W 5467   6.406   1.000   0.842
 1949W        W 5468   1.592   7.472   2.285
 1950W        W 5469   4.209   3.586   2.186
 1951W        W 5470   1.226   8.498   9.951
 1952W        W 5471   4.769   2.018   9.460
 1953W        W 5472   5.671   9.688  10.059
 1954W        W 5473   1.909   3.939   9.810
 1955W        W 5474   9.116   6.180  10.982
 1956W        W 5475   5.981   4.427   0.374
 1957W        W 5476   8.825   7.760   1.446
 1958W        W 5477   7.381   0.819   9.880
 1959W        W 5478   0.045   9.640   0.461
 1960W        W 5479   5.176   6.557   2.325
 1961W        W 5480   7.136   1.100   1.695
 1962W        W 5481   1.217   7.122   8.586
 1963W        W 5482   4.697   7.970   1.330
 1964W        W 5483   0.690   3.899  11.396
 1965W        W 5484   0.459   2.381  11.437
 1966W        W 5485   5.865   9.403  10.805
 1967W        W 5486   5.569   1.868   0.866
 1968W        W 5487   7.302   7.677   2.761
 1969W        W 5488   4.323   3.086   2.214
 1970W        W 5489   8.885   9.209   0.943
 1971W        W 5490   0.955   5.797   2.746
 1972W        W 5491   1.600   5.025   2.469
 1973W        W 5492   4.998   2.534   4.218
 1974W        W 5493   4.691   6.955   1.168
 1975W        W 5494   2.079   3.506  11.394
 1976W        W 5495   8.313   3.861   3.221
 1977W        W 5496   6.425   8.893   3.619
 1978W        W 5497   1.391   8.127   2.754
 1979W        W 5498   3.378   4.081   8.168
 1980W        W 5499   6.403   5.476   3.538
 1981W        W 5500   8.381   4.531   0.238
 1982W        W 5501   0.042   9.810  10.239
 1983W        W 5502   5.235   3.542   0.753
 1984W        W 5503   5.585   7.836   2.239
 1985W        W 5504   5.771   7.408   0.028
 1986W        W 5505   2.681   8.613   2.903
 1987W        W 5506   2.923   1.828   3.621
 1988W        W 5507   4.478   2.338  10.613
 1989W        W 5508   5.214   9.510   2.985
 1990W        W 5509   6.870   8.969   1.614
 1991W        W 5510   8.467   7.152  10.641
 1992W        W 5511   0.129   4.064   1.745
 1993W        W 5512   9.790   1.008   3.283
 1994W        W 5513   5.082   9.175   2.622
 1995W        W 5514   1.192   8.477  10.468
 1996W        W 5515   9.632   2.362   3.520
 1997W        W 5516   0.887   0.617   0.263
 1998W        W 5517   1.587   9.050   1.248
 1999W        W 5518   5.568   7.386   3.597
 2000W        W 5519   7.493   1.077   1.345
 2001W        W 5520   6.196   0.760   0.027
 2002W        W 5521   7.808   0.379  10.577
 2003W        W 5522   0.499   1.598   1.371
 2004W        W 5523   5.486   5.078  11.310
 2005W        W 5524   2.341   4.397   0.762
 2006W        W 5525   7.659   7.614  10.412
 2007W        W 5526   4.838   9.956   0.622
 2008W        W 5527   7.270   2.114   9.059
 2009W        W 5528   7.198   5.594   3.991
 2010W        W 5529   1.193   2.224   1.328
 2011W        W 5530   4.228   5.314   3.350
 2012W        W 5531   3.359   5.851   7.896
 2013W        W 5532   1.013   7.105   3.520
 2014W        W 5533   0.502   3.626   3.618
 2015W        W 5534   8.916   7.796  11.694
 2016W        W 5535   5.479   4.215  11.518
 2017W        W 5536   2.612   7.937  10.730
 2018W        W 5537   5.606   1.051   3.575
 2019W        W 5538   4.293   4.671   1.797
 2020W        W 5539   4.926   6.874   3.275
 2021W        W 5540   9.424   7.975  11.011
 2022W        W 5541   9.343   8.984  11.152
 2023W        W 5542   6.002   8.827   0.440
 2024W        W 5543   0.394   7.597   0.415
 2025W        W 5544   8.184   2.898   9.593
 2026W        W 5545   6.164   7.936   0.595
 2027W        W 5546   2.750   7.476  11.283
 2028W        W 5547   0.360   2.661   1.965
 2029W        W 5548   6.884   6.274  11.840
 2030W        W 5549   6.847   7.345   9.063
 2031W        W 5550   2.779   9.759   8.962
 2032W        W 5551   6.993   3.492   8.556
 2033W        W 5552   1.768   8.772   9.315
 2034W        W 5553   5.666   3.828   9.913
 2035W        W 5554   5.885   7.607   1.854
 2036W        W 5555   6.246   4.091   3.897
 2037W        W 5556   6.642   7.364   9.524
 2038W        W 5557   2.284   2.782   0.468
 2039W        W 5558   8.028   2.270   9.070
 2040W        W 5559   9.117   8.171   1.642
 2041W        W 5560   0.778   5.173  11.509
 2042W        W 5561   4.985   0.512   2.966
 2043W        W 5562   6.097   7.414   0.423
 2044W        W 5563   6.328   0.847  11.543
 2045W        W 5564   3.031   6.459   0.909
 2046W        W 5565   9.947   2.179   2.119
 2047W        W 5566   8.698   3.842   9.419
 2048W        W 5567   0.856   7.095  11.836
 2049W        W 5568   2.567   3.587   2.294
 2050W        W 5569   0.921   6.989   9.098
 2051W        W 5570   1.340   7.427   9.469
 2052W        W 5571   2.954   7.016   9.239
 2053W        W 5572   2.793   3.819   9.763
 2054W        W 5573   7.216   3.185   3.215
 2055W        W 5574   5.185   7.087  11.445
 2056W        W 5575   7.173   8.707   0.677
 2057W        W 5576   6.685   3.891   3.045
 2058W        W 5577   9.971   9.568   8.807
 2059W        W 5578   0.260   7.198   2.818
 2060W        W 5579   9.711   7.712   2.509
 2061W        W 5580   2.813   3.690   1.861
 2062W        W 5581   9.244   1.804   0.487
 2063W        W 5582   9.359   2.077  10.634
 2064W        W 5583   0.175   6.623   2.114
 2065W        W 5584   3.149   4.320   8.723
 2066W        W 5585   2.878   5.978  11.302
 2067W        W 5586   8.196   5.415   0.334
 2068W        W 5587   4.577   8.513   2.277
 2069W        W 5588   4.180   7.208  11.385
 2070W        W 5589   9.665   9.106   2.987
 2071W        W 5590   5.009   8.355   1.162
 2072W        W 5591   5.308   5.235   8.708
 2073W        W 5592   1.635   8.212   1.038
 2074W        W 5593   2.643   9.045   1.025
 2075W        W 5594   9.426   5.542   2.362
 2076W        W 5595   1.784   1.359   3.547
 2077W        W 5596   0.920   6.748   3.169
 2078W        W 5597   7.085   0.859   3.098
 2079W        W 5598   0.310   2.769   3.050
 2080W        W 5599   7.977   2.143   0.910
 2081W        W 5600   1.555   7.649   1.287
 2082W        W 5601   9.214   0.383   1.349
 2083W        W 5602   6.290   3.625   3.189
 2084W        W 5603   5.152   4.471   2.036
 2085W        W 5604   5.562   3.150   3.159
 2086W        W 5605   4.888   7.403   0.969
 2087W        W 5606   6.482   9.843   3.466
 2088W        W 5607   5.240   7.253   3.210
 2089W        W 5608   3.313   2.975  11.212
 2090W        W 5609   1.185   5.741   8.667
 2091W        W 5610   0.824   1.141   0.789
 2092W        W 5611   5.438   1.388  11.141
 2093W        W 5612   9.294   7.096   1.191
 2094W        W 5613   3.588   3.421   0.224
 2095W        W 5614   2.642   4.366   1.263
 2096W        W 5615   7.770   8.440   2.663
 2097W        W 5616   9.024   2.223  11.517
 2098W        W 5617   0.718   2.417   3.520
 2099W        W 5618   6.393   7.640   1.744
 2100W        W 5619   8.235   1.170   8.537
 2101W        W 5620   0.661   4.126   1.746
 2102W        W 5621   7.453   4.920  11.361
 2103W        W 5622   9.024   1.359  10.121
 2104W        W 5623   3.243   2.471   1.047
 2105W        W 5624   6.010   8.125  10.709
 2106W        W 5625   0.455   1.349   9.198
 2107W        W 5626   2.855   6.434  10.534
 2108W        W 5627   7.149   7.435   3.455
 2109W        W 5628   7.477   1.805   9.929
 2110W        W 5629   4.928   8.443   1.888
 2111W        W 5630   7.904   8.859   2.319
 2112W        W 5631   4.011   3.116   8.981
 2113W        W 5632   9.595   4.840  11.337
 2114W        W 5633   1.801   2.159  10.955
 2115W        W 5634   0.535   1.213  10.080
 2116W        W 5635   0.056   9.337   3.205
 2117W        W 5636   4.092   4.138  11.991
 2118W        W 5637   7.338   2.691   0.405
 2119W        W 5638   9.414   6.923  10.187
 2120W        W 5639   2.192   6.161   2.980
 2121W        W 5640   5.412   7.090   8.573
 2122W        W 5641   7.208   2.106   0.552
 2123W        W 5642   8.254   3.102   0.418
 2124W        W 5643   3.538   4.052   1.518
 2125W        W 5644   9.909   2.209   1.576
 2126W        W 5645   0.753   2.847   1.693
 2127W        W 5646   5.141   3.816  11.501
 2128W        W 5647   2.471   2.762   2.294
 2129W        W 5648   5.087   8.224   0.661
 2130W        W 5649   2.778   1.346   1.382
 2131W        W 5650   6.409   7.518   0.797
 2132W        W 5651   5.722   5.622  11.971
 2133W        W 5652   8.910   2.195  10.872
 2134W        W 5653   1.661   6.620   9.779
 2135W        W 5654   6.453   3.676  10.488
 2136W        W 5655   0.814   5.391   2.463
 2137W        W 5656   0.821   1.264  11.741
 2138W        W 5657   0.314   5.067   3.154
 2139W        W 5658   9.032   5.732   9.089
 2140W        W 5659   5.649   9.854  10.989
 2141W        W 5660   5.228   4.965   0.552
 2142W        W 5661   4.279   7.805   1.594
 2143W        W 5662   2.036   4.891   2.742
 2144W        W 5663   1.811   7.024   2.765
 2145W        W 5664   8.088   8.697   0.899
 2146W        W 5665   8.257   9.094   8.643
 2147W        W 5666   1.873   5.212  11.235
 2148W        W 5667   5.439   8.446   2.128
 2149W        W 5668   3.491   2.408   8.790
 2150W        W 5669   4.791   8.487   9.052
 2151W        W 5670   1.869   9.585  11.079
 2152W        W 5671   8.941   7.161   2.823
 2153W        W 5672   2.786   3.062  10.477
 2154W        W 5673   6.353   4.299   3.053
 2155W        W 5674   9.119   4.922   3.117
 2156W        W 5675   5.781   6.156   4.033
 2157W        W 5676   8.816   7.883   1.937
 2158W        W 5677   0.810   6.095   0.865
 2159W        W 5678   1.203   2.571  10.316
 2160W        W 5679   7.247   9.878   9.005
 2161W        W 5680   0.269   9.270   1.620
 2162W        W 5681   1.565   8.902  10.939
 2163W        W 5682   3.247   5.653   1.502
 2164W        W 5683   3.328   0.434   9.030
 2165W        W 5684   3.325   9.714   3.143
 2166W        W 5685   7.207   1.539   8.632
 2167W        W 5686   2.356   4.864   9.221
 2168W        W 5687   8.529   4.884   9.049
 2169W        W 5688   0.259   8.839   0.174
 2170W        W 5689   9.835   4.132   9.810
 2171W        W 5690   5.906   1.904   0.493
 2172W        W 5691   3.557   0.173   2.447
 2173W        W 5692   4.182   0.217   0.789
 2174W        W 5693   9.366   9.025   1.074
 2175W        W 5694   3.643   9.564   9.895
 2176W        W 5695   1.052   4.737  11.572
 2177W        W 5696   7.998   6.356   1.247
 2178W        W 5697   1.338   4.260  10.478
 2179W        W 5698   9.352   2.680   0.548
 2180W        W 5699   3.864   1.234   0.734
 2181W        W 5700   2.346   5.416   1.523
 2182W        W 5701   0.576   8.180   2.932
 2183W        W 5702   4.124   1.939   8.537
 2184W        W 5703   9.519   0.591   3.067
 2185W        W 5704   0.888   6.350   9.850
 2186W        W 5705   6.163   9.974  11.789
 2187W        W 5706   6.243   6.674  10.176
 2188W        W 5707   9.253   7.111   0.378
 2189W        W 5708   2.237   9.620   0.347
 2190W        W 5709   6.569   3.338   1.706
 2191W        W 5710   8.227   4.802   0.656
 2192W        W 5711   4.513   7.655   9.473
 2193W        W 5712   7.942   1.409   9.227
 2194W        W 5713   7.085   2.621  11.663
 2195W        W 5714   3.457   6.491   3.097
 2196W        W 5715   7.024   5.171   2.774
 2197W        W 5716   7.133   2.642  11.162
 2198W        W 5717   9.858   9.398   8.336
 2199W        W 5718   8.897   4.394   8.669
 2200W        W 5719   6.232   8.255   1.812
 2201W        W 5720   3.544   7.415   2.630
 2202W        W 5721   6.470   3.213   2.222
 2203W        W 5722   6.519   5.018   0.181
 2204W        W 5723   5.973   5.647  10.390
 2205W        W 5724   9.914   0.846   9.915
 2206W        W 5725   2.178   0.632   0.469
 2207W        W 5726   2.593   8.236  11.757
 2208W        W 5727   1.242   6.834   9.527
 2209W        W 5728   2.675   9.114   1.523
 2210W        W 5729   7.535   4.261  10.473
 2211W        W 5730   8.292   1.007   1.395
 2212W        W 5731   6.297   7.409  11.908
 2213W        W 5732   0.942   2.196   0.042
 2214W        W 5733   2.711   5.035   3.683
 2215W        W 5734   5.069   8.505  10.050
 2216W        W 5735   0.288   7.399   8.879
 2217W        W 5736   7.412   2.320   9.942
 2218W        W 5737   9.223   3.777   1.753
 2219W        W 5738   0.078   1.745   1.652
 2220W        W 5739   2.475   7.980   3.413
 2221W        W 5740   9.882   2.143   1.032
 2222W        W 5741   5.503   8.764  10.071
 2223W        W 5742   5.305   4.163   2.881
 2224W        W 5743   1.145   6.953  11.299
 2225W        W 5744   3.757   5.011   0.384
 2226W        W 5745   3.586   3.087  10.342
 2227W        W 5746   8.389   0.911   9.889
 2228W        W 5747   7.596   6.051   1.157
 2229W        W 5748   2.581   6.483  11.504
 2230W        W 5749   8.932   7.951   9.741
 2231W        W 5750   7.150   9.704   1.711
 2232W        W 5751   4.654   9.731  10.791
 2233W        W 5752   4.854   9.873   9.671
 2234W        W 5753   5.421   6.712   3.248
 2235W        W 5754   9.430   7.395   2.195
 2236W        W 5755   0.000   2.990   0.518
 2237W        W 5756   4.561   6.511  10.888
 2238W        W 5757   5.317   6.190  10.691
 2239W        W 5758   3.060   2.171   3.981
 2240W        W 5759   4.510   5.082   1.248
 2241W        W 5760   1.032   5.632   0.894
 2242W        W 5761   9.438   7.030  11.767
 2243W        W 5762   2.256   0.756  11.547
 2244W        W 5763   6.778   7.722   3.684
 2245W        W 5764   4.408   8.201  11.318
 2246W        W 5765   1.633   3.911  10.229
 2247W        W 5766   3.607   9.389  10.782
 2248W        W 5767   0.961   0.874  10.781
 2249W        W 5768   5.868   9.808   9.548
 2250W        W 5769   9.569   8.905   8.960
 2251W        W 5770   7.589   6.749   9.492
 2252W        W 5771   5.507   8.455   1.121
 2253W        W 5772   7.501   2.792   1.106
 2254W        W 5773   7.385   1.860   0.036
 2255W        W 5774   8.860   3.774   0.480
 2256W        W 5775   3.618   5.081   3.999
 2257W        W 5776   0.523   9.477   9.670
 2258W        W 5777   7.367   9.344  10.783
 2259W        W 5778   7.996   3.570   1.863
 2260W        W 5779   8.053   8.223  10.984
 2261W        W 5780   7.851   9.371  10.345
 2262W        W 5781   2.796   0.972  11.451
 2263W        W 5782   0.436   8.846   8.953
 2264W        W 5783   3.620   3.106   0.637
 2265W        W 5784   1.719   5.135   2.000
 2266W        W 5785   6.713   7.123   0.764
 2267W        W 5786   9.851   8.930   2.003
 2268W        W 5787   0.818   9.717   9.273
 2269W        W 5788   2.054   4.220  11.066
 2270W        W 5789   9.459   0.188  10.257
 2271W        W 5790   4.812   4.850   2.062
 2272W        W 5791   5.940   3.227   3.483
 2273W        W 5792   1.081   3.544   8.904
 2274W        W 5793   8.212   8.020   8.627
 2275W        W 5794   2.207   9.143  11.773
 2276W        W 5795   1.210   8.857   2.065
 2277W        W 5796   1.158   8.923   3.116
 2278W        W 5797   9.820   9.281   0.794
 2279W        W 5798   8.630   1.640  11.216
 2280W        W 5799   8.684   5.229   0.149
 2281W        W 5800   5.791   1.555  10.406
 2282W        W 5801   1.025   8.986  10.507
 2283W        W 5802   7.147   4.622   9.680
 2284W        W 5803   1.315   5.272   9.602
 2285W        W 5804   0.981   1.799  10.743
 2286W        W 5805   4.654   4.717   3.453
 2287W        W 5806   2.711   3.841   2.730
 2288W        W 5807   2.332   6.845  11.755
 2289W        W 5808   8.310   8.423   1.316
 2290W        W 5809   4.252   7.687   2.294
 2291W        W 5810   2.823   2.323  11.874
 2292W        W 5811   0.909   3.139   0.939
 2293W        W 5812   6.053   2.318   8.945
 2294W        W 5813   9.275   5.502  11.857
 2295W        W 5814   1.757   0.784  11.745
 2296W        W 5815   0.967   9.284   0.150
 2297W        W 5816   8.966   2.653   3.455
 2298W        W 5817   6.219   1.244   8.588
 2299W        W 5818   5.685   5.827   3.621
 2300W        W 5819   3.504   4.549   8.387
 2301W        W 5820   8.036   9.186   0.829
 2302W        W 5821   2.331   4.431   0.233
 2303W        W 5822   9.085   8.342   2.589
 2304W        W 5823   4.139   6.272  11.128
 2305W        W 5824   5.590   7.973  11.408
 2306W        W 5825   2.697   7.295  10.246
 2307W        W 5826   6.734   0.527   9.936
 2308W        W 5827   7.755   7.843   9.056
 2309W        W 5828   2.480   8.515   9.539
 2310W        W 5829   1.030   6.014   3.441
 2311W        W 5830   7.925   3.776  10.054
 2312W        W 5831   6.786   8.299  10.356
 2313W        W 5832   3.283   7.045  10.047
 2314W        W 5833   0.203   8.978   0.662
 2315W        W 5834   8.311   3.755   9.718
 2316W        W 5835   8.546   4.309   3.160
 2317W        W 5836   8.509   6.647  10.599
 2318W        W 5837   5.319   7.539   9.815
 2319W        W 5838   8.974   7.985   2.914
 2320W        W 5839   4.179   2.508  11.995
 2321W        W 5840   7.845   9.163  10.826
 2322W        W 5841   1.300   4.038   0.899
 2323W        W 5842   3.350   5.860   3.655
 2324W        W 5843   6.052   8.604  10.921
 2325W        W 5844   6.523   2.947   1.059
 2326W        W 5845   8.927   6.724   8.399
 2327W        W 5846   6.671   3.689  11.043
 2328W        W 5847   9.787   3.933   2.395
 2329W        W 5848   8.451   3.149  10.946
 2330W        W 5849   1.344   7.015   2.081
 2331W        W 5850   3.184   3.716   2.911
 2332W        W 5851   2.414   6.209  10.700
 2333W        W 5852   0.273   7.495   0.938
 2334W        W 5853   7.853   6.966   9.872
 2335W        W 5854   9.902   8.561   9.991
 2336W        W 5855   3.249   6.134  10.044
 2337W        W 5856   5.963   8.972  10.168
 2338W        W 5857   3.837   3.852  11.299
 2339W        W 5858   7.432   4.925   9.371
 2340W        W 5859   0.349   0.220   1.327
 2341W        W 5860   3.227   0.393   8.523
 2342W        W 5861   5.395   5.744   8.520
 2343W        W 5862   7.476   1.348   9.020
 2344W        W 5863   5.717   5.511   8.841
 2345W        W 5864   9.422   7.102   2.605
 2346W        W 5865   9.916   3.420   2.453
 2347W        W 5866   7.097   6.925   1.707
 2348W        W 5867   3.697   1.264  10.942
 2349W        W 5868   7.918   6.157  11.844
 2350W        W 5869   4.423   5.347  11.239
 2351W        W 5870   6.930   6.925   9.474
 2352W        W 5871   8.459   7.547   8.835
 2353W        W 5872   4.434   2.278  11.137
 2354W        W 5873   9.539   8.747   0.134
 2355W        W 5874   4.603   9.008   1.409
 2356W        W 5875   2.853   5.293   1.612
 2357W        W 5876   1.538   0.422  11.101
 2358W        W 5877   0.247   4.579   0.523
 2359W        W 5878   3.379   5.828   0.091
 2360W        W 5879   6.052   3.734   2.733
 2361W        W 5880   1.725   8.225   3.455
 2362W        W 5881   1.972   4.892  10.766
 2363W        W 5882   3.258   1.782   2.177
 2364W        W 5883   8.413   9.219  10.456
 2365W        W 5884   4.227   8.501   3.402
 2366W        W 5885   1.906   4.190   0.977
 2367W        W 5886   8.812   1.081   0.879
 2368W        W 5887   1.607   8.881   9.916
 2369W        W 5888   5.886   0.728   3.267
 2370W        W 5889   5.591   5.349  10.649
 2371W        W 5890   7.602   9.725   1.345
 2372W        W 5891   9.418   8.025   9.518
 2373W        W 5892   0.716   5.728  10.442
 2374W        W 5893   2.058   4.207   1.932
 2375W        W 5894   3.781   1.189  10.071
 2376W        W 5895   7.355   5.127  10.312
 2377W        W 5896   7.888   0.705   9.847
 2378W        W 5897   0.624   0.206   9.385
 2379W        W 5898   9.894   8.360   1.338
 2380W        W 5899   9.441   9.889   9.376
 2381W        W 5900   8.123   7.549  11.918
 2382W        W 5901   9.476   4.509   0.922
 2383W        W 5902   0.091   3.509   1.487
 2384W        W 5903   9.863   7.896   9.801
 2385W        W 5904   8.059   5.818   9.072
 2386W        W 5905   0.432   0.165  10.413
 2387W        W 5906   5.614   4.583   9.428
 2388W        W 5907   5.634   3.529  10.805
 2389W        W 5908   9.121   7.562   9.504
 2390W        W 5909   6.667   4.647   3.870
 2391W        W 5910   1.603   1.399   3.076
 2392W        W 5911   2.583   2.284   2.194
 2393W        W 5912   0.098   6.408  10.215
 2394W        W 5913   4.934   3.194   2.011
 2395W        W 5914   8.632   0.734   1.668
 2396W        W 5915   2.057   1.370   9.504
 2397W        W 5916   5.066   4.719   9.692
 2398W        W 5917   7.308   6.576   9.117
 2399W        W 5918   2.984   1.299  10.423
 2400W        W 5919   3.635   4.694  11.567
 2401W        W 5920   3.714   1.538   9.661
 2402W        W 5921   1.965   2.145  11.871
 2403W        W 5922   4.016   4.959   3.647
 2404W        W 5923   8.069   4.104  11.092
 2405W        W 5924   7.522   3.991   2.824
 2406W        W 5925   6.205   2.977  11.396
 2407W        W 5926   9.731   7.535  10.747
 2408W        W 5927   8.740   1.721   1.790
 2409W        W 5928   7.472   5.663   1.467
 2410W        W 5929   3.011   8.275   1.134
 2411W        W 5930   4.518   1.562   8.595
 2412W        W 5931   3.121   9.965   2.173
 2413W        W 5932   0.948   2.871   2.153
 2414W        W 5933   7.033   4.038   3.724
 2415W        W 5934   5.491   1.719   3.863
 2416W        W 5935   6.944   5.567  10.917
 2417W        W 5936   7.123   5.688   3.097
 2418W        W 5937   9.513   4.425   8.801
 2419W        W 5938   7.222   3.788   9.251
 2420W        W 5939   8.576   9.797   9.228
 2421W        W 5940   9.763   5.208   2.550
 2422W        W 5941   5.155   0.995  10.396
 2423W        W 5942   8.972   5.976   3.258
 2424W        W 5943   5.063   9.692   3.495
 2425W        W 5944   1.293   8.418   3.240
 2426W        W 5945   8.553   5.689   9.824
 2427W        W 5946   7.449   7.804   9.528
 2428W        W 5947   9.272   9.348  10.168
 2429W        W 5948   3.695   7.253  11.567
 2430W        W 5949   4.384   3.764   8.008
 2431W        W 5950   4.395   7.925   9.048
 2432W        W 5951   5.960   5.901   3.148
 2433W        W 5952   6.580   9.822   8.753
 2434W        W 5953   1.520   5.773  10.914
 2435W        W 5954   0.872   1.951   9.745
 2436W        W 5955   3.566   5.786  10.295
 2437W        W 5956   2.366   9.333   0.729
 2438W        W 5957   1.153   1.095   2.471
 2439W        W 5958   1.811   3.599   2.766
 2440W        W 5959   1.871   0.822  11.201
 2441W        W 5960   4.639   4.598   9.379
 2442W        W 5961   0.824   9.310   3.350
 2443W        W 5962   6.524   7.139   0.277
 2444W        W 5963   1.400   7.069   0.650
 2445W        W 5964   1.807   7.641  11.774
 2446W        W 5965   2.060   7.007  11.294
 2447W        W 5966   3.787   1.799   1.932
 2448W        W 5967   3.085   7.672   1.884
 2449W        W 5968   2.164   8.400  10.379
 2450W        W 5969   7.475   8.983   8.330
 2451W        W 5970   7.436   9.870  10.024
 2452W        W 5971   1.470   6.673  10.997
 2453W        W 5972   7.720   9.306   2.542
 2454W        W 5973   1.650   9.773   2.242
 2455W        W 5974   8.181   6.617  10.059
 2456W        W 5975   7.631   6.983   0.821
 2457W        W 5976   8.436   5.220   9.449
 2458W        W 5977   6.099   1.011   1.322
 2459W        W 5978   5.886   7.673   0.932
 2460W        W 5979   4.099   4.152   9.396
 2461W        W 5980   7.698   9.372   2.031
 2462W        W 5981   9.355   0.419   0.356
 2463W        W 5982   5.453   3.366   8.553
 2464W        W 5983   1.449   2.202  11.914
 2465W        W 5984   6.905   1.850   0.224
 2466W        W 5985   7.216   4.063   0.720
 2467W        W 5986   6.978   7.903   9.308
 2468W        W 5987   9.396   2.207   1.306
 2469W        W 5988   1.741   3.857  11.237
 2470W        W 5989   3.650   9.749  10.407
 2471W        W 5990   2.213   6.150   2.470
 2472W        W 5991   7.447   8.707   0.218
 2473W        W 5992   1.219   4.613   2.952
 2474W        W 5993   9.352   3.834  11.774
 2475W        W 5994   6.277   0.503   2.471
 2476W        W 5995   4.804   7.768   3.368
 2477W        W 5996   3.709   2.910   0.169
 2478W        W 5997   9.529   1.118  10.262
 2479W        W 5998   7.302   7.071   9.165
 2480W        W 5999   3.584   6.284   9.536
 2481W        W 6000   5.513   6.175   3.263
 2482W        W 6001   1.469   3.922   8.774
 2483W        W 6002   6.469   4.345  11.539
 2484W        W 6003   5.982   0.522   1.497
 2485W        W 6004   6.306   4.355   9.867
 2486W        W 6005   1.918   7.021   9.971
 2487W        W 6006   2.731   5.746   1.408
 2488W        W 6007   3.343   6.924   9.562
 2489W        W 6008   2.700   9.591  10.292
 2490W        W 6009   8.441   8.970   3.130
 2491W        W 6010   9.755   7.011   9.490
 2492W        W 6011   6.197   9.341   3.791
 2493W        W 6012   5.676   8.758   3.520
 2494W        W 6013   4.936   5.891  11.986
 2495W        W 6014   4.570   1.177   1.466
 2496W        W 6015   7.010   4.256   3.253
 2497W        W 6016   3.530   4.130   3.329
 2498W        W 6017   8.824   3.470   1.036
 2499W        W 6018   5.482   8.461   9.664
 2500W        W 6019   2.634   2.216   0.446
 2501W        W 6020   3.168   0.718  11.902
 2502W        W 6021   6.066   6.914   0.411
 2503W        W 6022   8.708   9.126   0.204
 2504W        W 6023   8.487   7.529   2.261
 2505W        W 6024   0.244   6.904  10.320
 2506W        W 6025   1.450   2.865   2.129
 2507W        W 6026   0.036   3.812   3.529
 2508W        W 6027   8.589   1.208   1.892
 2509W        W 6028   9.007   6.044   0.366
 2510W        W 6029   1.148   6.503   9.158
 2511W        W 6030   5.921   3.560   8.710
 2512W        W 6031   4.069   8.927   0.313
 2513W        W 6032   8.358   1.896   1.161
 2514W        W 6033   8.724   8.251  10.091
 2515W        W 6034   8.054   2.266   3.177
 2516W        W 6035   6.855   3.483   9.561
 2517W        W 6036   1.010   6.673   8.721
 2518W        W 6037   7.940   5.004   9.537
 2519W        W 6038   8.145   0.829  11.503
 2520W        W 6039   2.718   3.575   0.568
 2521W        W 6040   0.659   8.842   0.473
 2522W        W 6041   7.388   2.219  10.836
 2523W        W 6042   4.660   3.604   1.948
 2524W        W 6043   7.240   5.985   8.536
 2525W        W 6044   1.183   7.422   0.997
 2526W        W 6045   0.567   0.841  11.966
 2527W        W 6046   1.497   3.411   8.614
 2528W        W 6047   8.972   8.185   1.167
 2529W        W 6048   3.971   3.812   2.578
 2530W        W 6049   7.274   7.547   1.193
 2531W        W 6050   9.473   8.362  11.798
 2532W        W 6051   4.911   7.967   9.024
 2533W        W 6052   4.704   3.670   0.734
 2534W        W 6053   6.337   5.726  10.038
 2535W        W 6054   5.228   1.818  11.364
 2536W        W 6055   0.750   8.092   1.601
 2537W        W 6056   3.478   7.663   9.238
 2538W        W 6057   5.892   2.346   2.702
 2539W        W 6058   7.979   4.411  10.682
 2540W        W 6059   2.669   6.120   0.617
 2541W        W 6060   7.763   9.354   3.047
 2542W        W 6061   4.516   5.251   2.247
 2543W        W 6062   3.099   1.394   1.782
 2544W        W 6063   4.965   0.052   8.625
 2545W        W 6064   7.501   2.939  11.027
 2546W        W 6065   2.326   6.670  10.981
 2547W        W 6066   1.372   7.187  11.689
 2548W        W 6067   9.512   6.885   8.806
 2549W        W 6068   6.460   1.199   2.166
 2550W        W 6069   0.645   7.137  11.355
 2551W        W 6070   2.113   8.772  10.964
 2552W        W 6071   4.437   7.368   2.689
 2553W        W 6072   5.640   4.031  10.396
 2554W        W 6073   8.035   7.314  10.221
 2555W        W 6074   0.614   8.992   0.952
 2556W        W 6075   2.765   3.169   9.182
 2557W        W 6076   5.463   0.672   2.943
 2558W        W 6077   6.047   2.790   1.123
 2559W        W 6078   7.365   3.278   2.182
 2560W        W 6079   9.256   0.902   3.363
 2561W        W 6080   5.461   4.093   9.313
 2562W        W 6081   1.055   4.518   1.005
 2563W        W 6082   6.972   2.093   1.884
 2564W        W 6083   4.218   2.296   0.461
 2565W        W 6084   6.473   5.298   0.602
 2566W        W 6085   6.495   7.976   0.998
 2567W        W 6086   5.995   8.300   0.271
 2568W        W 6087   2.554   1.247   0.884
 2569W        W 6088   6.715   6.448   3.709
 2570W        W 6089   5.905   4.862   9.036
 2571W        W 6090   5.390   0.351   8.746
 2572W        W 6091   8.378   6.328  11.616
 2573W        W 6092   6.466   9.768  10.445
 2574W        W 6093   7.137   5.658   0.535
 2575W        W 6094   0.355   6.940  11.775
 2576W        W 6095   7.072   1.605   1.758
 2577W        W 6096   8.122   1.128   2.118
 2578W        W 6097   5.726   3.060   9.482
 2579W        W 6098   8.866   9.589   2.720
 2580W        W 6099   4.126   3.617   3.073
 2581W        W 6100   9.367   4.018  10.316
 2582W        W 6101   4.141   3.337  11.449
 2583W        W 6102   6.490   7.096   2.486
 2584W        W 6103   1.864   3.108   8.851
 2585W        W 6104   8.179   2.250  10.912
 2586W        W 6105   2.240   6.958   3.037
 2587W        W 6106   7.796   1.221  11.508
 2588W        W 6107   0.397   1.163   2.018
 2589W        W 6108   8.972   1.260  11.139
 2590W        W 6109   3.652   3.213   9.831
 2591W        W 6110   3.500   4.310   1.973
 2592W        W 6111   1.293   6.527  10.109
 2593W        W 6112   2.164   8.951   2.589
 2594W        W 6113   4.347   1.142   0.996
 2595W        W 6114   1.278   2.904   8.964
 2596W        W 6115   7.114   6.567   3.025
 2597W        W 6116   5.473   6.114  11.167
 2598W        W 6117   8.455   6.053   3.343
 2599W        W 6118   7.554   3.422  10.936
 2600W        W 6119   7.080   2.542   0.824
 2601W        W 6120   3.632   2.115   2.295
 2602W        W 6121   5.659   3.596   9.443
 2603W        W 6122   4.321   3.690  10.114
 2604W        W 6123   0.777   7.899   0.529
 2605W        W 6124   6.644   2.151   2.305
 2606W        W 6125   6.544   7.900  11.027
 2607W        W 6126   9.846   4.194  10.305
 2608W        W 6127   9.739   1.244   9.616
 2609W        W 6128   9.422   2.215   0.788
 2610W        W 6129   5.208   9.230   0.820
 2611W        W 6130   1.144   0.183   9.378
 2612W        W 6131   1.167   4.758   1.434
 2613W        W 6132   9.922   8.318   9.492
 2614W        W 6133   9.932   2.634  11.295
 2615W        W 6134   3.883   5.132   3.032
 2616W        W 6135   7.059   5.969   8.057
 2617W        W 6136   9.400   7.910  11.523
 2618W        W 6137   4.724   6.206   3.687
 2619W        W 6138   4.581   2.066   1.386
 2620W        W 6139   7.587   1.745   0.504
 2621W        W 6140   3.017   5.731  11.742
 2622W        W 6141   2.137   7.886   9.129
 2623W        W 6142   6.876   1.493   3.888
 2624W        W 6143   2.549   2.838  11.737
 2625W        W 6144   3.157   3.331   1.157
 2626W        W 6145   1.838   5.944   3.800
 2627W        W 6146   1.568   4.800   9.519
 2628W        W 6147   9.920   1.481   0.460
 2629W        W 6148   1.350   9.783  10.043
 2630W        W 6149   1.265   5.778   9.581
 2631W        W 6150   9.633   3.936   9.015
 2632W        W 6151   0.997   8.482   2.782
 2633W        W 6152   7.868   5.181  10.140
 2634W        W 6153   8.239   6.089   8.335
 2635W        W 6154   7.069   6.547   9.777
 2636W        W 6155   7.518   7.120   3.252
 2637W        W 6156   0.496   7.033   3.694
 2638W        W 6157   9.752   0.633  10.361
 2639W        W 6158   2.624   7.444   1.880
 2640W        W 6159   1.707   6.157   0.190
 2641W        W 6160   2.647   5.536  11.462
 2642W        W 6161   3.236   9.517   9.017
 2643W        W 6162   1.987   5.954  10.882
 2644W        W 6163   9.035   8.378   9.493
 2645W        W 6164   3.031   7.784   0.475
 2646W        W 6165   1.302   8.810   9.521
 2647W        W 6166   9.389   3.976  11.267
 2648W        W 6167   0.267   9.375  10.123
 2649W        W 6168   1.770   3.943  10.723
 2650W        W 6169   0.256   6.548   9.416
 2651W        W 6170   7.652   0.836  10.322
 2652W        W 6171   7.776   5.123   2.030
 2653W        W 6172   5.589   1.129   3.080
 2654W        W 6173   9.951   0.882   9.238
 2655W        W 6174   3.331   2.179   3.002
 2656W        W 6175   7.541   1.666   3.365
 2657W        W 6176   2.701   0.071   2.670
 2658W        W 6177   7.802   5.339   3.359
 2659W        W 6178   8.095   8.068  11.464
 2660W        W 6179   5.340   6.143   1.340
 2661W        W 6180   4.317   7.026   3.186
 2662W        W 6181   0.364   7.692   1.419
 2663W        W 6182   5.023   3.132   3.625
 2664W        W 6183   7.499   3.166   0.733
 2665W        W 6184   2.212   7.385   1.047
 2666W        W 6185   6.756   9.343   9.544
 2667W        W 6186   1.431   1.485   2.606
 2668W        W 6187   3.557   7.803  11.663
 2669W        W 6188   9.884   9.676   3.539
 2670W        W 6189   5.621   8.793   8.819
 2671W        W 6190   4.984   6.481  10.044
 2672W        W 6191   0.526   0.191   1.847
 2673W        W 6192   2.093   8.719   0.049
 2674W        W 6193   9.766   4.966   9.641
 2675W        W 6194   9.888   7.362   9.867
 2676W        W 6195   5.665   2.666   9.073
 2677W        W 6196   7.468   1.626  10.676
 2678W        W 6197   9.259   7.506  10.898
 2679W        W 6198   7.601   5.795   9.347
 2680W        W 6199   7.715   6.549   2.398
 2681W        W 6200   0.841   6.144   1.914
 2682W        W 6201   1.683   1.964   1.038
 2683W        W 6202   2.341   7.559  10.520
 2684W        W 6203   1.018   5.429  10.151
 2685W        W 6204   6.982   7.799  10.308
 2686W        W 6205   0.983   1.796   8.523
 2687W        W 6206   5.900   1.054   0.849
 2688W        W 6207   6.572   9.808   1.814
 2689W        W 6208   2.654   9.808  11.362
 2690W        W 6209   0.930   9.995  10.248
 2691W        W 6210   6.151   6.663   0.880
 2692W        W 6211   9.403   4.399  11.574
 2693W        W 6212   8.091   3.918  10.565
 2694W        W 6213   7.958   3.715   2.847
 2695W        W 6214   0.597   3.738   2.605
 2696W        W 6215   9.277   9.821   9.942
 2697W        W 6216   0.284   1.169  11.705
 2698W        W 6217   6.735   7.022  10.656
 2699W        W 6218   8.944   4.223  10.115
 2700W        W 6219   3.140   2.394  10.572
 2701W        W 6220   4.218   0.645   0.004
 2702W        W 6221   4.338   4.019   2.836
 2703W        W 6222   0.006   9.349  10.557
 2704W        W 6223   2.123   8.602   2.186
 2705W        W 6224   0.516   3.100   9.939
 2706W        W 6225   0.587   4.968   1.554
 2707W        W 6226   5.313   5.290  10.136
 2708W        W 6227   1.172   6.522   3.592
 2709W        W 6228   1.055   5.169   1.688
 2710W        W 6229   3.408   0.315   2.900
 2711W        W 6230   8.877   6.921   1.631
 2712W        W 6231   4.486   9.520  11.784
 2713W        W 6232   0.729   5.331   2.959
 2714W        W 6233   9.645   1.723   0.810
 2715W        W 6234   7.122   7.283   2.484
 2716W        W 6235   8.307   1.916  10.262
 2717W        W 6236   6.074   2.817   2.652
 2718W        W 6237   5.504   9.051   3.062
 2719W        W 6238   6.497   9.437   0.528
 2720W        W 6239   5.676   1.428   1.105
 2721W        W 6240   0.612   2.826   1.202
 2722W        W 6241   2.427   6.984   9.226
 2723W        W 6242   5.467   9.287   8.805
 2724W        W 6243   3.901   1.263  11.818
 2725W        W 6244   7.715   7.141  11.341
 2726W        W 6245   7.292   1.159   9.456
 2727W        W 6246   6.467   5.630  10.544
 2728W        W 6247   6.240   0.817   8.851
 2729W        W 6248   2.792   0.964   3.312
 2730W        W 6249   3.030   8.075  11.988
 2731W        W 6250   2.796   7.440  10.747
 2732W        W 6251   1.124   2.763   1.246
 2733W        W 6252   8.914   4.948   1.367
 2734W        W 6253   2.593   6.052   8.840
 2735W        W 6254   4.076   7.487  10.233
 2736W        W 6255   1.186   8.306   1.907
 2737W        W 6256   6.943   8.492   1.395
 2738W        W 6257   9.586   7.797   8.614
 2739W        W 6258   0.854   0.233   2.277
 2740W        W 6259   6.686   7.240   1.658
 2741W        W 6260   1.056   8.872  10.998
 2742W        W 6261   3.735   0.629   9.272
 2743W        W 6262   5.647   4.468   2.016
 2744W        W 6263   0.079   0.862  11.294
 2745W        W 6264   1.953   3.373  10.916
 2746W        W 6265   0.172   7.755  11.001
 2747W        W 6266   4.478   5.030  10.272
 2748W        W 6267   5.472   9.690  10.523
 2749W        W 6268   9.793   5.393   9.374
 2750W        W 6269   4.714   2.075   8.576
 2751W        W 6270   5.100   0.777   1.425
 2752W        W 6271   3.209   5.590   9.250
 2753W        W 6272   0.604   6.565   0.891
 2754W        W 6273   3.655   1.644   9.156
 2755W        W 6274   9.124   0.403   3.377
 2756W        W 6275   0.776   1.199   0.277
 2757W        W 6276   6.073   5.017  10.659
 2758W        W 6277   0.414   1.460   2.457
 2759W        W 6278   5.520   0.685  10.598
 2760W        W 6279   9.975   6.414   2.918
 2761W        W 6280   9.196   5.556   1.899
 2762W        W 6281   2.820   8.477   0.205
 2763W        W 6282   9.024   6.567   0.211
 2764W        W 6283   0.850   4.141  10.756
 2765W        W 6284   4.960   0.405   0.362
 2766W        W 6285   3.463   5.076   0.791
 2767W        W 6286   4.950   6.915  10.982
 2768W        W 6287   0.228   5.917  10.466
 2769W        W 6288   8.778   2.989   1.715
 2770W        W 6289   7.659   4.280  11.796
 2771W        W 6290   3.081   2.535  11.085
 2772W        W 6291   9.826   7.995  11.833
 2773W        W 6292   6.557   6.502   9.024
 2774W        W 6293   6.145   4.178  10.440
 2775W        W 6294   0.743   8.185  10.485
 2776W        W 6295   2.033   5.534   1.931
 2777W        W 6296   1.517   8.876  10.422
 2778W        W 6297   2.216   7.704   0.052
 2779W        W 6298   9.046   8.760   0.003
 2780W        W 6299   0.908   3.882   3.439
 2781W        W 6300   9.805   7.885   3.529
 2782W        W 6301   1.790   4.221   1.497
 2783W        W 6302   8.354   0.818   0.907
 2784W        W 6303   3.990   5.978   2.602
 2785W        W 6304   4.375   6.017   1.789
 2786W        W 6305   4.557   0.793   8.806
 2787W        W 6306   3.647   5.860   0.986
 2788W        W 6307   0.381   1.353   0.644
 2789W        W 6308   7.552   6.563   1.103
 2790W        W 6309   2.668   6.156   1.119
 2791W        W 6310   0.164   8.974   2.862
 2792W        W 6311   0.570   5.710   8.863
 2793W        W 6312   8.814   1.249   9.664
 2794W        W 6313   2.637   0.196   0.696
 2795W        W 6314   6.745   7.552   1.203
 2796W        W 6315   2.708   6.649   1.289
 2797W        W 6316   6.245   8.746   1.591
 2798W        W 6317   1.742   2.817   1.696
 2799W        W 6318   4.762   2.927   9.428
 2800W        W 6319   0.647   7.520   9.223
 2801W        W 6320   3.418   3.898  10.582
 2802W        W 6321   4.255   5.834  11.401
 2803W        W 6322   6.065   9.358   9.838
 2804W        W 6323   6.236   4.605   1.273
 2805W        W 6324   8.242   5.070   3.319
 2806W        W 6325   7.889   4.421   2.731
 2807W        W 6326   9.296   0.157  11.906
 2808W        W 6327   1.299   6.028   1.100
 2809W        W 6328   4.846   6.152   2.004
 2810W        W 6329   8.877   2.751   0.753
 2811W        W 6330   5.124   6.939   0.836
 2812W        W 6331   8.562   6.944   8.701
 2813W        W 6332   9.930   8.517  10.522
 2814W        W 6333   9.027   6.821  11.342
 2815W        W 6334   6.256   1.955   1.596
 2816W        W 6335   8.137   0.705   1.795
 2817W        W 6336   8.286   0.163  10.433
 2818W        W 6337   8.217   9.266   0.338
 2819W        W 6338   5.771   0.466   2.579
 2820W        W 6339   6.553   6.697   0.562
 2821W        W 6340   4.517   1.872  10.836
 2822W        W 6341   4.494   6.085   0.804
 2823W        W 6342   0.726   4.821   2.914
 2824W        W 6343   2.398   8.862  10.544
 2825W        W 6344   9.794   6.160  10.563
 2826W        W 6345   9.801   4.914   1.361
 2827W        W 6346   9.563   2.771   2.755
 2828W        W 6347   6.849   4.561  10.555
 2829W        W 6348   2.142   2.121   8.621
 2830W        W 6349   1.253   7.695   8.550
 2831W        W 6350   2.179   2.335   9.101
 2832W        W 6351   5.774   6.874  10.367
 2833W        W 6352   9.499   0.541   2.558
 2834W        W 6353   4.165   4.616   9.612
 2835W        W 6354   3.764   1.383   3.433
 2836W        W 6355   2.286   4.869  11.996
 2837W        W 6356   3.772   6.441   2.704
 2838W        W 6357   1.539   4.126   0.431
 2839W        W 6358   2.216   2.707   2.946
 2840W        W 6359   2.255   3.460   3.676
 2841W        W 6360   1.423   8.987   0.761
 2842W        W 6361   2.802   9.269   8.758
 2843W        W 6362   3.373   8.160  11.264
 2844W        W 6363   6.405   9.225   1.583
 2845W        W 6364   2.792   5.936   3.578
 2846W        W 6365   3.807   2.225  11.721
 2847W        W 6366   7.573   2.406   0.763
 2848W        W 6367   5.673   4.512   2.534
 2849W        W 6368   8.598   1.645   9.397
 2850W        W 6369   8.966   2.503   9.270
 2851W        W 6370   8.893   1.293   9.154
 2852W        W 6371   2.215   9.693   1.646
 2853W        W 6372   9.251   1.340   0.774
 2854W        W 6373   5.489   7.346   2.758
 2855W        W 6374   6.584   4.340   2.603
 2856W        W 6375   2.153   0.012   9.562
 2857W        W 6376   2.580   8.011   0.237
 2858W        W 6377   6.466   3.401   2.717
 2859W        W 6378   5.710   5.717   0.484
 2860W        W 6379   3.164   9.503  10.510
 2861W        W 6380   4.683   4.066   8.646
 2862W        W 6381   2.398   4.089   2.284
 2863W        W 6382   0.868   4.533   0.544
 2864W        W 6383   6.387   8.821   2.604
 2865W        W 6384   8.845   8.840   9.431
 2866W        W 6385   0.613   5.583  11.885
 2867W        W 6386   3.980   6.036   8.708
 2868W        W 6387   8.097   7.485   9.201
 2869W        W 6388   6.921   3.409   9.055
 2870W        W 6389   2.889   1.826  11.984
 2871W        W 6390   5.961   6.866   1.294
 2872W        W 6391   6.907   4.109  11.339
 2873W        W 6392   5.406   6.862   9.038
 2874W        W 6393   2.744   9.301  11.189
 2875W        W 6394   5.069   0.552   1.978
 2876W        W 6395   3.762   0.559  11.353
 2877W        W 6396   1.787   8.319   2.451
 2878W        W 6397   7.259   7.649  10.748
 2879W        W 6398   0.831   1.055   1.758
 2880W        W 6399   2.001   4.449   9.588
 2881W        W 6400   3.696   1.050  11.395
 2882W        W 6401   9.562   1.888   2.909
 2883W        W 6402   8.090   1.762   2.640
 2884W        W 6403   0.917   3.478   2.930
 2885W        W 6404   6.866   1.888   8.813
 2886W        W 6405   6.588   1.661  11.864
 2887W        W 6406   2.886   8.721  10.474
 2888W        W 6407   0.657   8.031   9.330
 2889W        W 6408   7.159   4.404  11.899
 2890W        W 6409   8.960   1.446   0.068
 2891W        W 6410   7.552   0.756   0.297
 2892W        W 6411   8.628   7.584   2.783
 2893W        W 6412   5.624   7.855  10.901
 2894W        W 6413   7.897   7.759   3.557
 2895W        W 6414   9.355   5.486   8.699
 2896W        W 6415   9.221   1.135   8.768
 2897W        W 6416   8.942   8.799   2.406
 2898W        W 6417   8.264   9.677  10.214
 2899W        W 6418   8.457   3.174   1.370
 2900W        W 6419   8.586   3.022   3.573
 2901W        W 6420   6.044   6.193   3.579
 2902W        W 6421   1.411   3.161   9.775
 2903W        W 6422   4.010   6.573   3.146
 2904W        W 6423   0.929   3.723   1.581
 2905W        W 6424   1.192   7.898   9.231
 2906W        W 6425   6.928   7.071   1.230
 2907W        W 6426   9.931   5.500   0.522
 2908W        W 6427   6.061   0.924   2.285
 2909W        W 6428   5.337   6.408   2.830
 2910W        W 6429   6.967   9.137   0.942
 2911W        W 6430   5.434   9.358   1.650
 2912W        W 6431   3.644   4.103   8.602
 2913W        W 6432   1.763   1.032   9.223
 2914W        W 6433   6.240   7.534   1.267
 2915W        W 6434   7.102   5.304   9.341
 2916W        W 6435   6.992   1.432  10.825
 2917W        W 6436   9.816   9.904   2.518
 2918W        W 6437   3.960   5.810   1.488
 2919W        W 6438   6.174   3.606  10.914
 2920W        W 6439   1.317   5.918  11.467
 2921W        W 6440   6.478   5.459  11.921
 2922W        W 6441   7.753   8.477  10.283
 2923W        W 6442   3.745   2.348   0.221
 2924W        W 6443   4.916   0.526   3.527
 2925W        W 6444   9.950   6.256   2.420
 2926W        W 6445   3.180   2.224   2.505
 2927W        W 6446   0.272   0.067  10.877
 2928W        W 6447   1.152   2.838   2.621
 2929W        W 6448   0.331   6.951   1.771
 2930W        W 6449   8.574   8.437  11.045
 2931W        W 6450   8.694   4.436   2.684
 2932W        W 6451   9.294   6.062  10.528
 2933W        W 6452   9.734   0.334   9.239
 2934W        W 6453   3.612   3.539   9.366
 2935W        W 6454   8.060   7.229   0.910
 2936W        W 6455   5.562   3.383  11.500
 2937W        W 6456   0.802   5.296   9.689
 2938W        W 6457   4.607   0.037  10.078
 2939W        W 6458   5.656   5.464   9.339
 2940W        W 6459   6.218   6.169   8.313
 2941W        W 6460   6.696   6.438   2.778
 2942W        W 6461   8.576   2.188  11.253
 2943W        W 6462   0.982   0.519   1.872
 2944W        W 6463   0.241   1.194   9.640
 2945W        W 6464   3.087   3.532   2.438
 2946W        W 6465   6.239   6.722   8.212
 2947W        W 6466   3.534   7.634   2.140
 2948W        W 6467   9.405   8.495   0.753
 2949W        W 6468   5.150   4.745   8.729
 2950W        W 6469   8.964   8.917   3.257
 2951W        W 6470   7.991   1.936   0.229
 2952W        W 6471   1.497   5.572  10.033
 2953W        W 6472   6.474   8.133   0.047
 2954W        W 6473   0.902   0.618   0.771
 2955W        W 6474   5.785   9.260   3.490
 2956W        W 6475   6.121   5.715   9.068
 2957W        W 6476   1.829   0.911   9.710
 2958W        W 6477   0.371   6.117   9.701
 2959W        W 6478   5.706   1.240   2.101
 2960W        W 6479   5.412   2.256  10.886
 2961W        W 6480   1.375   2.436   0.890
 2962W        W 6481   5.278   8.978  11.987
 2963W        W 6482   2.701   0.264   2.171
 2964W        W 6483   1.670   5.649   2.272
 2965W        W 6484   9.017   6.526   2.025
 2966W        W 6485   7.042   3.025   0.965
 2967W        W 6486   7.065   9.545  11.186
 2968W        W 6487   6.492   0.221  11.281
 2969W        W 6488   3.742   1.422   0.288
 2970W        W 6489   3.843   5.685   3.242
 2971W        W 6490   9.001   8.627  11.488
 2972W        W 6491   4.446   3.052  11.161
 2973W        W 6492   8.197   5.954   2.905
 2974W        W 6493   0.753   1.144   9.585
 2975W        W 6494   6.957   6.877   2.197
 2976W        W 6495   0.524   9.296   2.057
 2977W        W 6496   2.142   2.041  11.393
 2978W        W 6497   2.632   2.438  11.399
 2979W        W 6498   7.104   4.208  10.829
 2980W        W 6499   7.837   7.111  11.866
 2981W        W 6500   5.992   4.055  11.529
 2982W        W 6501   8.747   1.744   8.920
 2983W        W 6502   1.702   1.850   2.808
 2984W        W 6503   0.244   1.144   0.209
 2985W        W 6504   7.512   3.507   3.522
 2986W        W 6505   1.484   1.238  10.489
 2987W        W 6506   6.648   3.808   8.347
 2988W        W 6507   6.076   8.762   1.081
 2989W        W 6508   8.434   7.679  11.515
 2990W        W 6509   0.256   4.680   1.267
 2991W        W 6510   9.063   1.632   3.556
 2992W        W 6511   4.215   1.139   8.590
 2993W        W 6512   0.473   9.338   2.626
 2994W        W 6513   5.782   1.842   1.816
 2995W        W 6514   7.202   9.477   9.311
 2996W        W 6515   9.776   9.398  10.042
 2997W        W 6516   1.364   5.382  11.184
 2998W        W 6517   2.331   7.187  10.885
 2999W        W 6518   9.657   6.496   0.680
 3000W        W 6519   5.643   9.831   2.816
 3001W        W 6520   4.916   4.324   9.999
 3002W        W 6521   8.419   9.545   9.723
 3003W        W 6522   0.795   3.308   1.929
 3004W        W 6523   0.348   4.819   2.159
 3005W        W 6524   6.601   6.003  11.495
 3006W        W 6525   2.277   7.204   0.109
 3007W        W 6526   3.961   7.676  11.301
 3008W        W 6527   6.045   1.700  11.652
 3009W        W 6528   7.639   6.587  10.393
 3010W        W 6529   7.586   4.208   1.627
 3011W        W 6530   3.303   2.016   9.094
 3012W        W 6531   2.272   5.288   9.492
 3013W        W 6532   9.988   6.257  11.395
 3014W        W 6533   2.145   8.219   0.005
 3015W        W 6534   0.310   9.811   2.624
 3016W        W 6535   9.729   7.371   2.943
 3017W        W 6536   2.593   3.062   8.709
 3018W        W 6537   8.575   6.425   8.699
 3019W        W 6538   9.986   4.845   2.822
 3020W        W 6539   1.286   2.458   0.359
 3021W        W 6540   1.809   4.985   0.212
 3022W        W 6541   3.931   8.026   1.985
 3023W        W 6542   3.227   1.490  10.849
 3024W        W 6543   1.057   4.995   9.260
 3025W        W 6544   7.580   6.727  11.605
 3026W        W 6545   7.367   3.254   9.298
 3027W        W 6546   0.896   5.305   8.854
 3028W        W 6547   2.605   3.675   9.294
 3029W        W 6548   7.277   3.953  11.696
 3030W        W 6549   9.612   1.908   1.860
 3031W        W 6550   0.586   7.198   3.226
 3032W        W 6551   3.067   5.287  11.986
 3033W        W 6552   5.414   7.467   0.868
 3034W        W 6553   4.190   1.811   3.009
 3035W        W 6554   7.466   7.373   1.683
 3036W        W 6555   5.754   2.156   2.257
 3037W        W 6556   1.941   5.266   0.644
 3038W        W 6557   5.764   1.028   9.044
 3039W        W 6558   2.529   2.128   3.473
 3040W        W 6559   5.583   2.752   1.345
 3041W        W 6560   2.260   0.561   2.185
 3042W        W 6561   2.663   7.347   8.969
 3043W        W 6562   4.534   9.950   1.063
 3044W        W 6563   5.186   5.021   2.776
 3045W        W 6564   7.494   5.334   2.941
 3046W        W 6565   2.729   7.793  10.241
 3047W        W 6566   6.275   0.275   8.724
 3048W        W 6567   9.219   9.752   8.465
 3049W        W 6568   9.998   1.722  11.198
 3050W        W 6569   9.937   8.863   3.389
 3051W        W 6570   7.056   4.744   3.090
 3052W        W 6571   5.568   7.873  11.931
 3053W        W 6572   7.732   8.753   9.522
 3054W        W 6573   3.517   9.312   1.962
 3055W        W 6574   8.676   4.969  10.879
 3056W        W 6575   8.733   9.473  10.156
 3057W        W 6576   8.477   4.150  10.289
 3058W        W 6577   0.317   4.565   9.132
 3059W        W 6578   9.081   9.308   0.467
 3060W        W 6579   8.837   5.115   9.891
 3061W        W 6580   1.927   0.385  11.460
 3062W        W 6581   7.517   9.095   9.229
 3063W        W 6582   7.227   0.364  11.348
 3064W        W 6583   2.146   9.933  11.492
 3065W        W 6584   4.622   6.930   0.671
 3066W        W 6585   2.767   5.992  10.299
 3067W        W 6586   6.882   1.726   3.194
 3068W        W 6587   5.270   7.008  10.514
 3069W        W 6588   8.178   9.299   2.311
 3070W        W 6589   0.501   9.970   3.479
 3071W        W 6590   8.376   7.538   1.769
 3072W        W 6591   9.021   9.821  11.454
 3073W        W 6592   4.351   8.249   1.084
 3074W        W 6593   9.160   1.837   2.565
 3075W        W 6594   1.403   7.645  11.479
 3076W        W 6595   8.380   1.192   3.314
 3077W        W 6596   3.248   0.190   3.359
 3078W        W 6597   8.409   9.369   2.759
 3079W        W 6598   7.450   7.876   1.950
 3080W        W 6599   8.178   2.678  10.539
 3081W        W 6600   6.913   1.569  11.453
 3082W        W 6601   2.256   9.896   2.875
 3083W        W 6602   9.343   7.753   9.071
 3084W        W 6603   9.874   3.267   9.386
 3085W        W 6604   8.008   5.492   9.449
 3086W        W 6605   7.935   4.325   2.001
 3087W        W 6606   6.117   2.313   9.469
 3088W        W 6607   9.502   2.274  11.737
 3089W        W 6608   0.967   9.219   0.680
 3090W        W 6609   2.124   2.475   3.369
 3091W        W 6610   2.518   6.338   0.021
 3092W        W 6611   5.566   6.565   9.541
 3093W        W 6612   7.651   0.290  11.588
 3094W        W 6613   8.220   0.204   9.180
 3095W        W 6614   4.186   3.287   8.213
 3096W        W 6615   5.368   9.802   8.784
 3097W        W 6616   0.283   9.123  11.343
 3098W        W 6617   6.358   1.965   1.084
 3099W        W 6618   1.388   4.360   9.196
 3100W        W 6619   2.270   0.344   1.426
 3101W        W 6620   7.082   5.048   8.367
 3102W        W 6621   4.052   9.416  10.508
 3103W        W 6622   3.569   5.975   8.348
 3104W        W 6623   1.364   9.022  11.386
 3105W        W 6624   5.981   1.038   9.891
 3106W        W 6625   1.841   7.871   2.012
 3107W        W 6626   0.185   6.783  11.323
 3108W        W 6627   4.238   6.991  10.175
 3109W        W 6628   7.117   5.212   3.263
 3110W        W 6629   7.140   6.076   1.430
 3111W        W 6630   1.779   8.496  10.696
 3112W        W 6631   7.431   9.411   9.764
 3113W        W 6632   6.160   4.243   1.648
 3114W        W 6633   4.300   9.410   2.340
 3115W        W 6634   7.165   5.906  10.572
 3116W        W 6635   3.367   6.382   1.808
 3117W        W 6636   3.970   2.507   2.283
 3118W        W 6637   0.306   8.152   8.950
 3119W        W 6638   0.723   6.692  10.391
 3120W        W 6639   1.194   4.634   3.502
 3121W        W 6640   0.815   9.969  10.738
 3122W        W 6641   1.064   7.776   1.348
 3123W        W 6642   7.797   0.706  11.859
 3124W        W 6643   9.521   8.975   9.879
 3125W        W 6644   3.298   8.957  11.736
 3126W        W 6645   3.147   2.809  10.199
 3127W        W 6646   9.457   4.535  10.393
 3128W        W 6647   5.226   2.042  10.405
 3129W        W 6648   9.101   5.230   9.065
 3130W        W 6649   4.008   9.833   2.351
 3131W        W 6650   5.740   7.446   1.390
 3132W        W 6651   0.508   5.671   2.146
 3133W        W 6652   4.669   7.887  11.826
 3134W        W 6653   5.087   1.163   9.841
 3135W        W 6654   4.064   9.437  11.533
 3136W        W 6655   7.433   5.189   2.404
 3137W        W 6656   4.608   2.833  10.489
 3138W        W 6657   2.427   6.509   3.269
 3139W        W 6658   0.238   9.752   1.782
 3140W        W 6659   7.781   7.834   2.730
 3141W        W 6660   1.438   2.183  10.094
 3142W        W 6661   8.567   8.582  11.797
 3143W        W 6662   3.528   4.545   0.467
 3144W        W 6663   1.768   6.743   3.183
 3145W        W 6664   8.246   7.958   2.593
 3146W        W 6665   9.212   6.035  11.891
 3147W        W 6666   9.241   0.986   2.881
 3148W        W 6667   0.361   7.805  10.532
 3149W        W 6668   1.905   2.412   0.941
 3150W        W 6669   3.574   2.586  10.345
 3151W        W 6670   6.218   2.686   0.669
 3152W        W 6671   7.599   5.343   9.127
 3153W        W 6672   9.869   7.112   0.055
 3154W        W 6673   7.910   1.642   1.804
 3155W        W 6674   2.913   8.622   9.875
 3156W        W 6675   4.981   1.364  11.355
 3157W        W 6676   4.644   6.527   1.482
 3158W        W 6677   5.667   6.802   0.725
 3159W        W 6678   5.866   0.310   9.430
 3160W        W 6679   2.249   7.931  10.184
 3161W        W 6680   0.034   4.228  10.774
 3162W        W 6681   9.877   3.441   0.282
 3163W        W 6682   8.017   5.775  10.447
 3164W        W 6683   4.715   6.330   9.418
 3165W        W 6684   8.569   0.574  11.224
 3166W        W 6685   8.941   5.743   0.795
 3167W        W 6686   6.092   6.674   9.136
 3168W        W 6687   1.287   3.094  11.673
 3169W        W 6688   4.229   5.535   1.884
 3170W        W 6689   4.118   1.325  11.243
 3171W        W 6690   9.219   4.603   0.478
 3172W        W 6691   4.795   0.913   2.188
 3173W        W 6692   6.901   2.314  10.825
 3174W        W 6693   4.871   1.595   1.364
 3175W        W 6694   5.278   0.227   0.735
 3176W        W 6695   2.188   5.028   3.630
 3177W        W 6696   3.340   6.598  11.724
 3178W        W 6697   4.634   1.752   2.713
 3179W        W 6698   3.598   1.120   9.067
 3180W        W 6699   3.437   4.516   7.878
 3181W        W 6700   2.768   3.771  11.120
 3182W        W 6701   2.691   4.310   9.822
 3183W        W 6702   1.309   2.660  11.346
 3184W        W 6703   3.265   0.804   9.396
 3185W        W 6704   6.145   5.779   3.887
 3186W        W 6705   0.835   6.976   0.371
 3187W        W 6706   1.573   3.039  10.816
 3188W        W 6707   9.221   8.361   0.274
 3189W        W 6708   6.935   5.112   2.286
 3190W        W 6709   5.433   7.108  11.007
 3191W        W 6710   6.007   9.539  11.284
 3192W        W 6711   8.142   2.652   2.451
 3193W        W 6712   5.246   9.978   0.284
 3194W        W 6713   6.946   9.847   2.185
 3195W        W 6714   5.209   5.111  10.896
 3196W        W 6715   3.817   8.906   3.132
 3197W        W 6716   9.379   3.437  11.120
 3198W        W 6717   4.448   7.079   2.266
 3199W        W 6718   0.444   6.448   1.705
 3200W        W 6719   5.715   4.446   3.403
 3201W        W 6720   0.834   1.063   9.074
 3202W        W 6721   5.056   1.431   3.103
 3203W        W 6722   6.592   9.234  11.343
 3204W        W 6723   1.782   4.268  11.523
 3205W        W 6724   8.314   7.073   0.023
 3206W        W 6725   4.518   6.417   9.871
 3207W        W 6726   6.607   3.903   9.731
 3208W        W 6727   8.635   1.086  10.319
 3209W        W 6728   3.372   2.590  11.942
 3210W        W 6729   0.425   9.664  10.569
 3211W        W 6730   1.353   5.983   3.034
 3212W        W 6731   7.292   4.353   9.283
 3213W        W 6732   5.203   1.520  10.414
 3214W        W 6733   3.600   4.979   9.163
 3215W        W 6734   8.590   4.307  11.824
 3216W        W 6735   4.343   4.280   1.445
 3217W        W 6736   9.528   1.855   3.411
 3218W        W 6737   3.081   3.799  10.195
 3219W        W 6738   6.398   6.269  11.089
 3220W        W 6739   5.286   7.802   3.524
 3221W        W 6740   0.429   4.385  10.503
 3222W        W 6741   1.366   0.291   1.563
 3223W        W 6742   1.235   2.419   2.289
 3224W        W 6743   9.953   1.758   9.799
 3225W        W 6744   1.785   7.496   9.773
 3226W        W 6745   2.358   3.445   2.746
 3227W        W 6746   5.261   3.572   3.163
 3228W        W 6747   0.515   2.137  10.043
 3229W        W 6748   1.623   1.031   2.707
 3230W        W 6749   7.540   4.783  11.882
 3231W        W 6750   6.548   7.669   0.319
 3232W        W 6751   6.649   4.628   3.363
 3233W        W 6752   6.824   9.290   3.113
 3234W        W 6753   2.074   9.238   3.011
 3235W        W 6754   0.433   6.386  11.159
 3236W        W 6755   4.203   3.094   3.097
 3237W        W 6756   2.248   5.605  11.143
 3238W        W 6757   5.691   3.597   2.202
 3239W        W 6758   8.999   1.025   0.389
 3240W        W 6759   3.155   7.102  10.530
 3241W        W 6760   4.292   4.634  11.859
 3242W        W 6761   0.694   8.290   0.848
 3243W        W 6762   0.870   7.654  10.497
 3244W        W 6763   0.902   1.557   2.630
 3245W        W 6764   4.310   2.409   8.702
 3246W        W 6765   0.090   0.689   1.412
 3247W        W 6766   0.358   1.840   0.429
 3248W        W 6767   0.204   5.699   3.339
 3249W        W 6768   4.698   1.241   3.476
 3250W        W 6769   9.519   6.644   1.143
 3251W        W 6770   6.929   0.200   1.785
 3252W        W 6771   4.159   1.573   2.561
 3253W        W 6772   5.024   5.898  11.102
 3254W        W 6773   6.682   8.208   9.022
 3255W        W 6774   8.084   9.099   1.855
 3256W        W 6775   4.352   6.215   9.039
 3257W        W 6776   7.103   1.638   9.230
 3258W        W 6777   8.929   3.990  11.051
 3259W        W 6778   2.947   6.479   3.198
 3260W        W 6779   6.013   4.371   9.082
 3261W        W 6780   1.627   3.584   9.595
 3262W        W 6781   9.828   9.518  11.990
 3263W        W 6782   6.903   7.708   0.725
 3264W        W 6783   9.835   6.891   2.871
 3265W        W 6784   2.011   0.843  10.709
 3266W        W 6785   4.132   2.000   2.277
 3267W        W 6786   6.900   7.778   8.792
 3268W        W 6787   9.476   0.761   9.028
 3269W        W 6788   0.621   4.757   9.571
 3270W        W 6789   6.547   5.980   3.624
 3271W        W 6790   8.642   5.717   2.957
 3272W        W 6791   8.507   1.249   2.425
 3273W        W 6792   9.292   2.675   1.056
 3274W        W 6793   5.977   6.154   0.851
 3275W        W 6794   1.961   1.686   1.384
 3276W        W 6795   7.895   9.743   2.323
 3277W        W 6796   7.012   6.988   0.351
 3278W        W 6797   9.359   0.075   2.302
 3279W        W 6798   0.466   0.346   0.516
 3280W        W 6799   3.712   0.738  10.320
 3281W        W 6800   2.396   0.660   3.534
 3282W        W 6801   8.505   4.112   8.478
 3283W        W 6802   6.468   4.631   1.746
 3284W        W 6803   2.501   5.531   8.465
 3285W        W 6804   7.600   2.260   0.257
 3286W        W 6805   0.733   4.007  10.282
 3287W        W 6806   3.695   1.555  11.395
 3288W        W 6807   4.912   7.233   8.617
 3289W        W 6808   1.332   6.268   8.672
 3290W        W 6809   9.559   5.019   0.577
 3291W        W 6810   4.637   2.716  11.904
 3292W        W 6811   8.059   6.512   9.567
 3293W        W 6812   1.850   3.218   1.380
 3294W        W 6813   7.675   9.857  11.864
 3295W        W 6814   7.039   4.873   0.035
 3296W        W 6815   7.582   8.435  11.789
 3297W        W 6816   9.950   0.941   0.566
 3298W        W 6817   6.313   5.366  11.405
 3299W        W 6818   5.133   4.583   9.213
 3300W        W 6819   4.067   4.070   3.372
 3301W        W 6820   4.484   3.163   1.702
 3302W        W 6821   9.945   9.445   2.715
 3303W        W 6822   7.070   8.165   1.773
 3304W        W 6823   7.703   3.085   9.670
 3305W        W 6824   0.835   9.757   0.006
 3306W        W 6825   3.467   3.848   2.498
 3307W        W 6826   5.404   7.853   9.008
 3308W        W 6827   5.885   9.630   1.689
 3309W        W 6828   3.954   2.709   0.551
 3310W        W 6829   5.089   3.341  10.587
 3311W        W 6830   6.567   7.095   4.315
 3312W        W 6831   8.109   8.606   1.811
 3313W        W 6832   3.916   0.288  11.804
 3314W        W 6833   0.321   0.414  11.237
 3315W        W 6834   7.935   1.365   1.261
 3316W        W 6835   0.171   1.725   0.937
 3317W        W 6836   3.477   8.881   3.556
 3318W        W 6837   3.904   6.363   3.839
 3319W        W 6838   6.316   0.155   9.621
 3320W        W 6839   8.069   6.426   0.339
 3321W        W 6840   6.415   4.852   9.085
 3322W        W 6841   0.790   4.859   2.400
 3323W        W 6842   2.903   2.407   3.175
 3324W        W 6843   5.444   1.484   9.677
 3325W        W 6844   6.648   5.617   3.977
 3326W        W 6845   8.475   8.016   3.036
 3327W        W 6846   9.947   9.945  11.268
 3328W        W 6847   2.156   1.055   2.149
 3329W        W 6848   2.421   6.921   9.964
 3330W        W 6849   8.898   3.453   2.923
 3331W        W 6850   7.484   3.739   1.450
 3332W        W 6851   1.088   6.605   1.828
 3333W        W 6852   6.028   2.733   9.774
 3334W        W 6853   8.822   1.489   0.562
 3335W        W 6854   9.062   9.646   2.250
 3336W        W 6855   4.721   7.059  10.488
 3337W        W 6856   3.901   5.880  11.766
 3338W        W 6857   6.112   3.180  10.557
 3339W        W 6858   9.807   8.821   9.457
 3340W        W 6859   9.257   0.873  10.924
 3341W        W 6860   5.571   8.360  11.785
 3342W        W 6861   0.654   8.677  10.691
 3343W        W 6862   7.389   9.140   0.500
 3344W        W 6863   1.167   5.079   1.006
 3345W        W 6864   4.651   1.799   9.019
 3346W        W 6865   2.028   2.636   8.672
 3347W        W 6866   5.633   5.232   0.351
 3348W        W 6867   1.194   6.255   0.068
 3349W        W 6868   5.593   9.372   9.675
 3350W        W 6869   1.748   0.875  10.248
 3351W        W 6870   6.528   2.133   0.057
 3352W        W 6871   2.279   9.929  10.991
 3353W        W 6872   5.798   9.076   0.020
 3354W        W 6873   0.218   1.620   3.901
 3355W        W 6874   3.766   3.749  11.836
 3356W        W 6875   2.230   5.999   1.969
 3357W        W 6876   8.124   7.114   8.856
 3358W        W 6877   4.886   4.043   0.445
 3359W        W 6878   5.146   6.838   0.325
 3360W        W 6879   7.960   5.464   1.398
 3361W        W 6880   6.101   5.611   0.807
 3362W        W 6881   1.009   4.119   9.511
 3363W        W 6882   3.412   0.351   9.561
 3364W        W 6883   6.305   8.649  11.407
 3365W        W 6884   8.459   2.660   9.230
 3366W        W 6885   9.437   0.305   8.790
 3367W        W 6886   7.703   5.075   1.030
 3368W        W 6887   7.978   7.599  11.236
 3369W        W 6888   3.522   6.077   1.431
 3370W        W 6889   0.768   1.686   8.959
 3371W        W 6890   6.851   7.506  11.239
 3372W        W 6891   0.846   9.673   0.945
 3373W        W 6892   4.049   3.058   0.907
 3374W        W 6893   7.847   8.240   9.829
 3375W        W 6894   1.892   7.143  11.762
 3376W        W 6895   0.135   7.851   9.331
 3377W        W 6896   5.386   4.278   9.787
 3378W        W 6897   7.427   5.663   3.521
 3379W        W 6898   8.267   4.192   0.609
 3380W        W 6899   0.956   2.308  11.538
 3381W        W 6900   4.802   6.471   0.680
 3382W        W 6901   4.702   0.842   2.683
 3383W        W 6902   6.349   7.567   9.892
 3384W        W 6903   3.681   0.472   1.747
 3385W        W 6904   9.769   6.754   2.381
 3386W        W 6905   4.740   0.345  11.381
 3387W        W 6906   7.399   8.304  10.942
 3388W        W 6907   3.759   0.044  11.380
 3389W        W 6908   0.520   3.704   1.239
 3390W        W 6909   3.177   6.007   0.570
 3391W        W 6910   7.908   8.162   1.780
 3392W        W 6911   3.914   5.883   9.536
 3393W        W 6912   9.216   5.469   3.208
 3394W        W 6913   8.553   7.450   0.829
 3395W        W 6914   9.639   5.268   0.147
 3396W        W 6915   8.132   0.663  10.293
 3397W        W 6916   2.606   4.449   8.487
 3398W        W 6917   0.475   0.848   0.570
 3399W        W 6918   7.172   6.525   3.529
 3400W        W 6919   9.569   3.365  11.867
 3401W        W 6920   9.227   8.192  10.078
 3402W        W 6921   3.050   4.355   0.343
 3403W        W 6922   4.593   6.723   3.616
 3404W        W 6923   3.655   0.730  10.830
 3405W        W 6924   9.680   1.783   1.316
 3406W        W 6925   9.829   0.250   1.200
 3407W        W 6926   2.642   0.742  11.877
 3408W        W 6927   5.085   6.547   3.695
 3409W        W 6928   8.962   9.973   9.550
 3410W        W 6929   5.712   0.129   1.815
 3411W        W 6930   4.978   9.392  11.915
 3412W        W 6931   0.340   7.977  11.767
 3413W        W 6932   7.770   6.766   9.011
 3414W        W 6933   4.518   7.909  10.893
 3415W        W 6934   8.658   0.305   3.137
 3416W        W 6935   3.068   3.380  11.433
 3417W        W 6936   2.221   5.987   0.908
 3418W        W 6937   9.074   0.763  10.427
 3419W        W 6938   8.384   9.339  11.861
 3420W        W 6939   5.229   1.933   8.505
 3421W        W 6940   0.789   8.074  11.509
 3422W        W 6941   7.935   3.418   1.335
 3423W        W 6942   2.176   4.423   2.638
 3424W        W 6943   8.025   4.663   9.899
 3425W        W 6944   3.771   8.888   0.746
 3426W        W 6945   0.443   4.238  11.077
 3427W        W 6946   4.995   2.068  11.756
 3428W        W 6947   4.952   9.973   2.155
 3429W        W 6948   4.309   8.997   3.308
 3430W        W 6949   0.289   8.785  10.290
 3431W        W 6950   2.546   4.777   2.821
 3432W        W 6951   3.107   2.180   9.540
 3433W        W 6952   6.311   3.009  10.110
 3434W        W 6953   1.430   2.073   3.241
 3435W        W 6954   2.523   2.645   9.517
 3436W        W 6955   6.611   1.754   1.911
 3437W        W 6956   2.855   5.988   0.161
 3438W        W 6957   7.393   2.679   9.577
 3439W        W 6958   3.601   4.538   8.884
 3440W        W 6959   8.495   2.630  10.952
 3441W        W 6960   0.325   5.944   0.758
 3442W        W 6961   1.255   8.059  11.768
 3443W        W 6962   9.278   3.774  10.752
 3444W        W 6963   9.602   1.734  10.895
 3445W        W 6964   1.423   3.041  10.295
 3446W        W 6965   7.246   5.040   8.873
 3447W        W 6966   1.362   9.359  10.337
 3448W        W 6967   6.374   0.970  10.619
 3449W        W 6968   3.074   9.102   9.239
 3450W        W 6969   6.327   1.752   8.717
 3451W        W 6970   3.726   8.576  10.089
 3452W        W 6971   3.764   7.902   2.505
 3453W        W 6972   1.829   1.822   9.590
 3454W        W 6973   8.080   3.076   1.724
 3455W        W 6974   6.022   1.866  10.762
 3456W        W 6975   5.961   3.386  10.033
 3457W        W 6976   5.998   9.518   9.108
 3458W        W 6977   5.994   4.150   1.169
 3459W        W 6978   9.512   5.347  10.011
 3460W        W 6979   6.386   0.168   1.120
 3461W        W 6980   0.471   9.309   0.334
 3462W        W 6981   7.973   3.220   9.241
 3463W        W 6982   1.658   2.726   2.605
 3464W        W 6983   6.911   2.400   9.281
 3465W        W 6984   3.153   9.991   9.224
 3466W        W 6985   3.452   9.427   3.583
 3467W        W 6986   5.203   6.900   2.813
 3468W        W 6987   1.841   3.802  11.740
 3469W        W 6988   8.192   1.439  10.980
 3470W        W 6989   5.085   3.470   8.191
 3471W        W 6990   0.984   2.858   3.616
 3472W        W 6991   8.725   9.317   1.430
 3473W        W 6992   5.297   4.595  11.190
 3474W        W 6993   4.852   7.748   9.841
 3475W        W 6994   7.945   2.232  10.436
 3476W        W 6995   5.956   4.715   1.696
 3477W        W 6996   1.513   4.249   9.684
 3478W        W 6997   5.993   6.282   2.816
 3479W        W 6998   5.488   3.539  10.307
 3480W        W 6999   5.356   2.899   8.744
 3481W        W 7000   7.602   8.451   2.154
 3482W        W 7001   3.712   3.539   8.869
 3483W        W 7002   3.216   4.532   3.351
 3484W        W 7003   4.607   3.603   2.896
 3485W        W 7004   3.465   7.891   0.170
 3486W        W 7005   6.963   4.679   2.608
 3487W        W 7006   2.191   4.690   3.199
 3488W        W 7007   8.469   3.389   1.869
 3489W        W 7008   4.228   7.525   0.250
 3490W        W 7009   0.311   5.418  10.491
 3491W        W 7010   2.308   0.168  10.025
 3492W        W 7011   1.334   2.351   9.076
 3493W        W 7012   7.374   6.123   3.248
 3494W        W 7013   2.730   7.019   0.268
 3495W        W 7014   3.740   5.396   3.634
 3496W        W 7015   2.734   6.904  10.753
 3497W        W 7016   1.740   8.967  11.731
 3498W        W 7017   4.096   8.554  11.678
 3499W        W 7018   5.495   2.900  11.670
 3500W        W 7019   5.473   0.455   0.292
 3501W        W 7020   0.358   4.182   1.319
 3502W        W 7021   9.734   6.108   8.250
 3503W        W 7022   4.453   7.051   8.816
 3504W        W 7023   8.895   9.493  11.893
 3505W        W 7024   6.107   5.112   0.942
 3506W        W 7025   9.062   2.660   2.928
 3507W        W 7026   2.805   3.312   1.518
 3508W        W 7027   5.736   7.113   1.921
 3509W        W 7028   5.178   7.710   3.029
 3510W        W 7029   4.160   7.379   9.728
 3511W        W 7030   3.512   6.840  11.268
 3512W        W 7031   0.874   2.764   0.307
 3513W        W 7032   1.397   1.849   9.284
 3514W        W 7033   4.212   5.576   2.896
 3515W        W 7034   9.383   7.232   9.183
 3516W        W 7035   5.213   0.059   3.167
 3517W        W 7036   6.569   6.744   1.547
 3518W        W 7037   2.162   4.749  10.304
 3519W        W 7038   3.411   0.316  11.652
 3520W        W 7039   3.485   9.449   0.758
 3521W        W 7040   5.529   1.946  11.811
 3522W        W 7041   8.503   6.871  11.093
 3523W        W 7042   8.732   0.086   2.640
 3524W        W 7043   7.304   0.118   1.439
 3525W        W 7044   2.036   8.323   9.372
 3526W        W 7045   1.982   1.412   2.663
 3527W        W 7046   4.434   7.007  10.923
 3528W        W 7047   5.168   1.400   0.459
 3529W        W 7048   9.926   8.447  11.026
 3530W        W 7049   9.990   0.373   2.675
 3531W        W 7050   6.229   6.521  11.937
 3532W        W 7051   2.899   7.762   1.038
 3533W        W 7052   5.615   0.705   2.147
 3534W        W 7053   0.354   6.078   9.178
 3535W        W 7054   1.766   9.504   1.406
 3536W        W 7055   5.086   6.995   8.193
 3537W        W 7056   9.486   8.469   9.221
 3538W        W 7057   6.666   4.456  11.060
 3539W        W 7058   1.008   0.746  11.717
 3540W        W 7059   7.148   6.506   0.373
 3541W        W 7060   8.933   3.597  11.965
 3542W        W 7061   2.372   1.183   9.876
 3543W        W 7062   1.281   8.222   1.415
 3544W        W 7063   9.389   8.588   1.802
 3545W        W 7064   5.449   3.836   8.328
 3546W        W 7065   9.894   0.183  10.532
 3547W        W 7066   8.286   4.779   2.662
 3548W        W 7067   8.951   8.233   0.675
 3549W        W 7068   6.112   0.698   0.521
 3550W        W 7069   5.449   5.014   9.171
 3551W        W 7070   5.860   6.962   8.778
 3552W        W 7071   0.625   7.862  10.092
 3553W        W 7072   6.612   5.773   3.163
 3554W        W 7073   0.348   3.952   0.787
 3555W        W 7074   2.193   1.664  11.761
 3556W        W 7075   5.120   1.581  11.827
 3557W        W 7076   7.962   6.860   3.061
 3558W        W 7077   0.964   1.461   9.920
 3559W        W 7078   0.654   9.824   1.473
 3560W        W 7079   4.357   9.184   9.548
 3561W        W 7080   7.823   3.219  11.319
 3562W        W 7081   6.934   3.771  10.586
 3563W        W 7082   6.944   8.492   0.261
 3564W        W 7083   6.911   1.046   9.924
 3565W        W 7084   1.712   2.610  10.278
 3566W        W 7085   0.922   9.562  11.127
 3567W        W 7086   6.566   8.003  10.000
 3568W        W 7087   6.960   9.703  10.211
 3569W        W 7088   1.774   8.889   1.824
 3570W        W 7089   1.129   5.062   3.227
 3571W        W 7090   9.826   6.027   0.606
 3572W        W 7091   8.665   2.934   3.081
 3573W        W 7092   4.565   7.365  10.048
 3574W        W 7093   4.568   7.007   1.658
 3575W        W 7094   4.502   9.072  10.239
 3576W        W 7095   9.333   7.207   1.697
 3577W        W 7096   8.744   4.453   9.262
 3578W        W 7097   9.797   8.778   1.013
 3579W        W 7098   9.220   0.374   9.292
 3580W        W 7099   1.376   1.170   9.999
 3581W        W 7100   8.068   8.702   9.902
 3582W        W 7101   7.770   6.279   9.205
 3583W        W 7102   4.315   8.368  10.719
 3584W        W 7103   1.755   6.113   0.699
 3585W        W 7104   1.675   0.692   8.858
 3586W        W 7105   4.198   7.835   2.795
 3587W        W 7106   6.705   9.359   3.608
 3588W        W 7107   6.435   0.907  10.114
 3589W        W 7108   4.926   8.256   3.460
 3590W        W 7109   5.277   7.412   2.268
 3591W        W 7110   5.763   7.458   8.697
 3592W        W 7111   1.759   2.045   8.949
 3593W        W 7112   2.786   0.908   9.589
 3594W        W 7113   4.988   7.292   0.484
 3595W        W 7114   9.876   9.755  10.809
 3596W        W 7115   3.222   5.123   9.494
 3597W        W 7116   1.508   9.907   1.246
 3598W        W 7117   0.513   1.713   2.977
 3599W        W 7118   7.154   9.109  11.466
 3600W        W 7119   1.965   0.286   9.006
 3601W        W 7120   7.353   5.181   3.695
 3602W        W 7121   9.579   9.709  10.389
 3603W        W 7122   4.667   0.711   1.685
 3604W        W 7123   6.960   1.305   2.173
 3605W        W 7124   1.706   5.707   0.998
 3606W        W 7125   2.334   1.156   3.434
 3607W        W 7126   6.561   4.886   0.934
 3608W        W 7127   9.542   0.130   2.872
 3609W        W 7128   5.539   8.238   2.588
 3610W        W 7129   1.338   7.613  12.000
 3611W        W 7130   6.645   3.364   0.796
 3612W        W 7131   4.768   1.148   9.385
 3613W        W 7132   2.622   2.181   1.697
 3614W        W 7133   0.733   3.255   3.344
 3615W        W 7134   8.525   8.892   1.155
 3616W        W 7135   6.120   1.233   3.265
 3617W        W 7136   5.227   7.494   3.965
 3618W        W 7137   6.102   4.692  11.499
 3619W        W 7138   2.308   9.836   0.830
 3620W        W 7139   2.413   2.456   0.869
 3621W        W 7140   7.245   2.560   3.512
 3622W        W 7141   5.633   6.602   2.042
 3623W        W 7142   4.766   2.191   3.466
 3624W        W 7143   1.814   0.020   1.682
 3625W        W 7144   6.639   8.325   9.529
 3626W        W 7145   1.331   4.176   2.655
 3627W        W 7146   6.371   3.035   8.797
 3628W        W 7147   3.206   5.596   2.814
 3629W        W 7148   5.282   6.100   3.842
 3630W        W 7149   9.625   5.115   3.089
 3631W        W 7150   5.503   9.064   0.446
 3632W        W 7151   3.617   2.098  10.460
 3633W        W 7152   6.899   7.310   9.959
 3634W        W 7153   3.006   9.415   0.988
 3635W        W 7154   3.344   3.670   9.774
 3636W        W 7155   5.685   9.938   0.986
 3637W        W 7156   8.946   5.951   9.574
 3638W        W 7157   8.595   5.726   0.252
 3639W        W 7158   7.609   3.267   1.729
 3640W        W 7159   5.212   5.768   1.670
 3641W        W 7160   7.737   0.043   9.069
 3642W        W 7161   0.552   9.169  10.478
 3643W        W 7162   1.539   5.087   1.539
 3644W        W 7163   8.346   8.882   2.634
 3645W        W 7164   4.306   0.663   0.528
 3646W        W 7165   5.192   9.325   2.147
 3647W        W 7166   4.718   3.651  11.778
 3648W        W 7167   4.520   1.884   9.889
 3649W        W 7168   8.860   2.208   2.783
 3650W        W 7169   5.296   7.608   8.557
 3651W        W 7170   0.428   1.853  11.426
 3652W        W 7171   1.881   9.039   8.903
 3653W        W 7172   0.415   7.030   0.766
 3654W        W 7173   4.190   3.337   2.642
 3655W        W 7174   8.092   3.719  11.948
 3656W        W 7175   6.782   2.317  11.320
 3657W        W 7176   0.956   2.337  10.700
 3658W        W 7177   2.994   2.612   3.653
 3659W        W 7178   6.134   9.960   2.024
 3660W        W 7179   6.751   4.616   1.330
 3661W        W 7180   6.575   8.834   3.103
 3662W        W 7181   8.169   9.193   9.991
 3663W        W 7182   3.180   7.551  10.174
 3664W        W 7183   9.669   2.803  11.711
 3665W        W 7184   9.662   4.707  10.847
 3666W        W 7185   6.061   9.909   3.158
 3667W        W 7186   1.781   8.065   1.510
 3668W        W 7187   3.592   6.614   9.922
 3669W        W 7188   1.792   1.739   2.293
 3670W        W 7189   0.656   6.024  10.854
 3671W        W 7190   7.117   0.258   3.180
 3672W        W 7191   1.622   7.380   1.767
 3673W        W 7192   4.606   8.742   8.609
 3674W        W 7193   2.270   7.067   2.534
 3675W        W 7194   7.695   7.854  10.892
 3676W        W 7195   1.292   0.431   1.076
 3677W        W 7196   0.569   0.815  11.457
 3678W        W 7197   3.198   4.715   2.034
 3679W        W 7198   7.119   5.277  11.736
 3680W        W 7199   5.121   7.862   1.051
 3681W        W 7200   4.537   0.195  10.560
 3682W        W 7201   4.920   3.105  11.013
 3683W        W 7202   8.404   9.903   1.055
 3684W        W 7203   1.683   4.453  10.816
 3685W        W 7204   8.383   0.472   2.720
 3686W        W 7205   4.020   3.364   1.332
 3687W        W 7206   0.422   1.731  10.906
 3688W        W 7207   5.086   5.697   2.151
 3689W        W 7208   6.786   5.540  11.429
 3690W        W 7209   5.594   2.645   1.868
 3691W        W 7210   0.785   4.371   9.912
 3692W        W 7211   2.994   8.786   1.291
 3693W        W 7212   9.050   9.970   9.009
 3694W        W 7213   2.248   4.441  11.691
 3695W        W 7214   6.274   9.107   9.441
 3696W        W 7215   9.411   5.682   9.609
 3697W        W 7216   8.056   6.239   8.789
 3698W        W 7217   4.260   7.483  10.939
 3699W        W 7218   8.378   6.608   3.241
 3700W        W 7219   7.468   4.059   8.879
 3701W        W 7220   7.815   2.690   9.312
 3702W        W 7221   0.438   4.914  10.534
 3703W        W 7222   3.047   8.409  11.576
 3704W        W 7223   2.260   7.429   9.993
 3705W        W 7224   8.004   7.934   1.312
 3706W        W 7225   2.168   1.937   2.582
 3707W        W 7226   6.171   5.276   9.825
 3708W        W 7227   2.413   0.244   3.231
 3709W        W 7228   0.348   6.416  11.712
 3710W        W 7229   4.727   9.624   3.084
 3711W        W 7230   2.604   0.443   0.263
 3712W        W 7231   3.872   4.637   2.159
 3713W        W 7232   2.296   5.223  10.542
 3714W        W 7233   5.379   1.098   0.851
 3715W        W 7234   9.251   2.004  10.123
 3716W        W 7235   2.278   0.925   9.424
 3717W        W 7236   1.800   8.687   0.901
 3718W        W 7237   7.249   6.836  10.609
 3719W        W 7238   4.086   8.551   2.037
 3720W        W 7239   2.842   4.621  11.040
 3721W        W 7240   4.729   5.638   1.777
 3722W        W 7241   1.679   8.837   2.351
 3723W        W 7242   0.271   8.246  10.236
 3724W        W 7243   6.693   6.672   0.086
 3725W        W 7244   6.649   5.098   9.466
 3726W        W 7245   0.432   2.098  11.886
 3727W        W 7246   7.544   8.908   2.811
 3728W        W 7247   3.667   0.066   9.974
 3729W        W 7248   2.257   6.376   1.292
 3730W        W 7249   5.468   3.643   0.308
 3731W        W 7250   3.565   5.054   2.058
 3732W        W 7251   1.130   4.317   1.701
 3733W        W 7252   5.864   8.418  11.347
 3734W        W 7253   8.757   8.578   2.901
 3735W        W 7254   0.924   7.911   2.082
 3736W        W 7255   3.213   9.946   9.755
 3737W        W 7256   7.448   6.873   2.756
 3738W        W 7257   4.869   5.293   0.404
 3739W        W 7258   2.747   8.433   3.387
 3740W        W 7259   5.484   9.493   0.167
 3741W        W 7260   2.365   4.590   1.821
 3742W        W 7261   3.506   9.322   9.447
 3743W        W 7262   5.635   4.003   2.497
 3744W        W 7263   8.886   9.732   0.657
 3745W        W 7264   3.915   2.615   9.028
 3746W        W 7265   6.019   2.804   1.633
 3747W        W 7266   9.061   0.466   2.827
 3748W        W 7267   1.232   8.181   8.788
 3749W        W 7268   6.756   1.249  10.381
 3750W        W 7269   5.141   8.606   8.680
 3751W        W 7270   9.419   4.651   1.945
 3752W        W 7271   9.769   9.779   0.928
 3753W        W 7272   4.896   0.323   1.273
 3754W        W 7273   0.316   5.541  10.979
 3755W        W 7274   8.124   4.138  11.644
 3756W        W 7275   0.386   4.701  10.059
 3757W        W 7276   2.240   8.444   2.671
 3758W        W 7277   3.966   1.857   0.448
 3759W        W 7278   3.815   2.739  11.714
 3760W        W 7279   1.260   2.070   1.862
 3761W        W 7280   6.343   4.143   9.381
 3762W        W 7281   6.328   6.100   8.810
 3763W        W 7282   6.013   9.423   0.307
 3764W        W 7283   4.896   1.126  11.810
 3765W        W 7284   5.907   5.229   1.782
 3766W        W 7285   2.862   5.986  10.796
 3767W        W 7286   1.312   2.388   2.833
 3768W        W 7287   2.273   0.082   2.399
 3769W        W 7288   7.189   9.142   0.032
 3770W        W 7289   6.896   4.940   0.544
 3771W        W 7290   6.899   5.333   0.869
 3772W        W 7291   9.046   3.880   1.269
 3773W        W 7292   4.166   0.906  11.549
 3774W        W 7293   6.800   8.770  11.405
 3775W        W 7294   6.686   9.037   8.773
 3776W        W 7295   4.534   0.242   8.825
 3777W        W 7296   8.422   8.076   9.648
 3778W        W 7297   8.927   4.404   1.319
 3779W        W 7298   1.816   9.630   2.814
 3780W        W 7299   2.696   9.256  11.707
 3781W        W 7300   2.239   9.512   9.496
 3782W        W 7301   8.012   7.917   0.358
 3783W        W 7302   6.961   4.768   9.197
 3784W        W 7303   0.120   0.110   0.218
 3785W        W 7304   7.670   5.627   1.936
 3786W        W 7305   4.621   0.805   3.191
 3787W        W 7306   4.307   1.828   1.767
 3788W        W 7307   7.214   1.349   3.071
 3789W        W 7308   2.309   9.865   3.578
 3790W        W 7309   6.828   2.866   3.354
 3791W        W 7310   0.063   7.612  11.547
 3792W        W 7311   4.954   1.393   8.910
 3793W        W 7312   7.575   7.095  10.293
 3794W        W 7313   4.794   8.969   0.945
 3795W        W 7314   2.400   0.836  11.060
 3796W        W 7315   5.067   3.112   0.510
 3797W        W 7316   5.636   5.925   9.535
 3798W        W 7317   3.217   9.934  10.768
 3799W        W 7318   1.652   2.398   1.979
 3800W        W 7319   2.252   4.032   1.334
 3801W        W 7320   0.730   8.868   2.284
 3802W        W 7321   2.231   3.195   2.320
 3803W        W 7322   6.077   2.656  11.800
 3804W        W 7323   9.730   4.567   0.433
 3805W        W 7324   1.519   4.477   0.813
 3806W        W 7325   5.143   4.096   2.404
 3807W        W 7326   8.931   7.502   0.470
 3808W        W 7327   3.302   6.613  10.346
 3809W        W 7328   4.539   2.280   1.843
 3810W        W 7329   2.855   1.455   2.772
 3811W        W 7330   5.863   4.190   8.613
 3812W        W 7331   8.355   9.070  11.402
 3813W        W 7332   8.176   1.869  11.254
 3814W        W 7333   0.366   0.730   2.899
 3815W        W 7334   5.766   5.491   2.815
 3816W        W 7335   4.730   4.347  10.973
 3817W        W 7336   1.839   2.312   2.962
 3818W        W 7337   4.429   2.772   0.397
 3819W        W 7338   8.249   3.695   8.626
 3820W        W 7339   1.228   0.636   2.305
 3821W        W 7340   2.097   7.460   2.857
 3822W        W 7341   3.460   4.748   2.513
 3823W        W 7342   7.806   9.500   0.509
 3824W        W 7343   7.612   0.750  11.365
 3825W        W 7344   5.480   8.112   3.077
 3826W        W 7345   1.365   4.421  11.830
 3827W        W 7346   9.537   1.246  10.762
 3828W        W 7347   3.946   7.509   1.895
 3829W        W 7348   6.237   0.378   3.438
 3830W        W 7349   4.674   7.456   1.430
 3831W        W 7350   3.534   3.268  10.847
 3832W        W 7351   7.871   4.005   2.408
 3833W        W 7352   2.423   2.000   0.050
 3834W        W 7353   7.311   7.003   9.844
 3835W        W 7354   3.604   2.045   9.518
 3836W        W 7355   9.259   1.341   1.276
 3837W        W 7356   5.390   9.214  10.719
 3838W        W 7357   3.617   6.401  10.927
 3839W        W 7358   2.256   3.617   0.374
 3840W        W 7359   1.276   0.334  11.517
 3841W        W 7360   3.807   3.251  11.803
 3842W        W 7361   0.388   9.464   0.820
 3843W        W 7362   2.307   3.120   9.564
 3844W        W 7363   4.327   5.996   3.959
 3845W        W 7364   1.373   5.518   2.669
 3846W        W 7365   0.046   1.263  10.954
 3847W        W 7366   6.669   6.658   1.054
 3848W        W 7367   4.537   8.803   1.879
 3849W        W 7368   5.874   4.015  10.845
 3850W        W 7369   1.766   5.687  11.355
 3851W        W 7370   0.873   1.909   2.186
 3852W        W 7371   0.886   7.125   2.823
 3853W        W 7372   6.617   5.252   3.097
 3854W        W 7373   7.687   1.983   3.003
 3855W        W 7374   2.771   5.213   9.260
 3856W        W 7375   7.461   5.237   0.157
 3857W        W 7376   0.342   3.464  10.229
 3858W        W 7377   1.121   7.457   8.988
 3859W        W 7378   0.250   3.901  10.446
 3860W        W 7379   7.420   1.677  11.567
 3861W        W 7380   8.046   2.896   1.216
 3862W        W 7381   8.945   6.975  11.830
 3863W        W 7382   5.502   3.563   3.612
 3864W        W 7383   3.784   4.393   1.232
 3865W        W 7384   2.874   1.737   9.176
 3866W        W 7385   0.183   2.423   3.425
 3867W        W 7386   9.196   5.060   1.773
 3868W        W 7387   3.495   8.741   1.300
 3869W        W 7388   5.589   2.184   3.972
 3870W        W 7389   8.923   8.789   1.916
 3871W        W 7390   1.606   9.118   2.833
 3872W        W 7391   6.673   1.926   0.662
 3873W        W 7392   0.973   2.101  10.253
 3874W        W 7393   3.885   5.475   9.966
 3875W        W 7394   3.212   1.275  11.308
 3876W        W 7395   2.118   5.160   2.318
 3877W        W 7396   3.077   9.260   0.503
 3878W        W 7397   8.268   1.457  11.546
 3879W        W 7398   1.164   7.996   0.877
 3880W        W 7399   6.681   3.830   2.520
 3881W        W 7400   5.635   8.021   9.905
 3882W        W 7401   9.368   1.385  11.745
 3883W        W 7402   4.647   8.114  10.414
 3884W        W 7403   3.719   6.333  11.934
 3885W        W 7404   8.498   7.970   1.098
 3886W        W 7405   0.397   2.855  11.228
 3887W        W 7406   1.839   8.433   0.411
 3888W        W 7407   1.842   3.449  10.038
 3889W        W 7408   8.454   9.478   0.753
 3890W        W 7409   7.001   0.135   0.839
 3891W        W 7410   7.256   8.518   2.612
 3892W        W 7411   8.818   4.087   1.695
 3893W        W 7412   7.899   4.130   3.157
 3894W        W 7413   9.219   3.528  10.187
 3895W        W 7414   4.496   0.401   2.828
 3896W        W 7415   5.551   1.606   3.218
 3897W        W 7416   4.221   4.382   0.949
 3898W        W 7417   2.687   7.612   9.769
 3899W        W 7418   4.396   0.611   2.345
 3900W        W 7419   3.731   3.628   1.686
 3901W        W 7420   4.124   3.680   9.158
 3902W        W 7421   4.738   9.179  11.496
 3903W        W 7422   5.123   8.030  11.590
 3904W        W 7423   3.557   6.877   3.464
 3905W        W 7424   9.865   7.128  11.523
 3906W        W 7425   5.250   9.740   2.494
 3907W        W 7426   9.882   6.381   9.722
 3908W        W 7427   3.270   1.553   0.135
 3909W        W 7428   2.200   7.492   0.541
 3910W        W 7429   1.338   8.449  10.956
 3911W        W 7430   3.744   3.214   8.471
 3912W        W 7431   8.777   8.519   1.480
 3913W        W 7432   7.489   3.099  10.534
 3914W        W 7433   4.333   3.817  10.618
 3915W        W 7434   6.949   8.309   2.261
 3916W        W 7435   2.986   2.296   8.803
 3917W        W 7436   0.460   8.025   2.467
 3918W        W 7437   6.076   8.922   3.222
 3919W        W 7438   7.651   0.741   1.920
 3920W        W 7439   2.802   3.553   8.818
 3921W        W 7440   4.661   9.434   9.870
 3922W        W 7441   8.977   8.679   1.013
 3923W        W 7442   5.172   8.350  10.541
 3924W        W 7443   1.838   7.090   0.352
 3925W        W 7444   9.935   7.848   1.170
 3926W        W 7445   4.146   9.381   9.975
 3927W        W 7446   3.193   5.293   3.732
 3928W        W 7447   4.205   8.941   1.070
 3929W        W 7448   6.274   6.721   2.815
 3930W        W 7449   9.134   3.132  11.991
 3931W        W 7450   3.496   6.008   2.443
 3932W        W 7451   0.141   2.587  11.780
 3933W        W 7452   0.831   6.155   9.375
 3934W        W 7453   3.403   2.700   3.287
 3935W        W 7454   7.143   1.565  10.261
 3936W        W 7455   7.881   9.662   9.887
 3937W        W 7456   5.622   0.379  11.278
 3938W        W 7457   3.701   5.474   1.782
 3939W        W 7458   7.701   3.393  11.817
 3940W        W 7459   4.041   0.179   2.758
 3941W        W 7460   9.615   2.919   9.660
 3942W        W 7461   3.714   7.602   9.884
 3943W        W 7462   2.961   2.659   2.321
 3944W        W 7463   5.616   4.705  11.618
 3945W        W 7464   4.251   4.159  11.096
 3946W        W 7465   7.599   7.995  11.375
 3947W        W 7466   1.983   1.283  10.465
 3948W        W 7467   3.556   9.081   9.013
 3949W        W 7468   5.045   9.320   1.299
 3950W        W 7469   2.926   0.481   9.860
 3951W        W 7470   8.048   4.612  11.843
 3952W        W 7471   2.963   7.043   8.695
 3953W        W 7472   9.535   4.205  10.781
 3954W        W 7473   5.477   0.303  11.772
 3955W        W 7474   9.352   6.959   3.085
 3956W        W 7475   6.519   1.670  10.628
 3957W        W 7476   2.714   4.708   0.521
 3958W        W 7477   3.497   3.178   1.642
 3959W        W 7478   4.720   9.284   3.488
 3960W        W 7479   4.851   5.158   9.941
 3961W        W 7480   1.991   6.208  10.422
 3962W        W 7481   7.275   2.915   1.586
 3963W        W 7482   2.143   6.595   2.701
 3964W        W 7483   0.442   4.126   3.416
 3965W        W 7484   5.411   6.188   9.914
 3966W        W 7485   4.713   9.123   2.262
 3967W        W 7486   0.082   5.015   9.206
 3968W        W 7487   4.453   3.267   9.204
 3969W        W 7488   4.697   7.494   9.003
 3970W        W 7489   5.936   9.121   1.767
 3971W        W 7490   7.621   3.846   0.080
 3972W        W 7491   9.590   5.596   2.856
 3973W        W 7492   6.924   6.420   1.787
 3974W        W 7493   5.417   6.088   0.002
 3975W        W 7494   4.246   9.856   0.106
 3976W        W 7495   9.065   9.976   3.028
 3977W        W 7496   7.756   4.070   0.642
 3978W        W 7497   4.463   1.495   2.127
 3979W        W 7498   6.156   1.222   0.421
 3980W        W 7499   9.283   7.887   0.526
 3981W        W 7500   9.425   8.633   2.316
 3982W        W 7501   0.649   9.351   1.301
 3983W        W 7502   2.828   6.527   0.383
 3984W        W 7503   8.743   4.214   2.216
 3985W        W 7504   3.756   7.831   1.549
 3986W        W 7505   2.536   9.409   1.909
 3987W        W 7506   2.691   2.830   2.806
 3988W        W 7507   6.203   4.510   3.586
 3989W        W 7508   9.733   2.611   2.294
 3990W        W 7509   7.828   5.122   0.532
 3991W        W 7510   5.226   3.873   1.575
 3992W        W 7511   1.369   0.267  10.243
 3993W        W 7512   8.263   8.418   2.807
 3994W        W 7513   4.987   7.359   2.714
 3995W        W 7514   3.896   2.868   3.478
 3996W        W 7515   9.866   5.121  11.715
 3997W        W 7516   6.038   5.493  10.881
 3998W        W 7517   3.973   2.736   9.954
 3999W        W 7518   0.367   2.698   9.152
 4000W        W 7519   6.358   6.250   3.180
 4001W        W 7520   7.101   7.275   2.985
 4002W        W 7521   1.459   6.904   1.612
 4003W        W 7522   2.352   4.599  11.189
 4004W        W 7523   0.370   2.832   0.195
 4005W        W 7524   3.606   3.100   1.154
 4006W        W 7525   8.431   7.573   0.343
 4007W        W 7526   4.958   5.090   9.155
 4008W        W 7527   4.240   4.479   3.642
 4009W        W 7528   1.463   5.668   3.566
 4010W        W 7529   8.498   2.356   1.984
 4011W        W 7530   4.483   7.412   0.666
 4012W        W 7531   5.535   8.025   0.808
 4013W        W 7532   1.962   4.780   0.900
 4014W        W 7533   7.443   8.069   2.435
 4015W        W 7534   4.828   9.042   9.446
 4016W        W 7535   7.603   5.624  10.732
 4017W        W 7536   9.383   4.198   1.513
 4018W        W 7537   4.152   1.686   8.969
 4019W        W 7538   6.975   2.404   8.725
 4020W        W 7539   8.874   2.159   2.271
 4021W        W 7540   7.032   8.012   1.154
 4022W        W 7541   3.107   9.787   0.290
 4023W        W 7542   8.130   4.593   3.150
 4024W        W 7543   3.177   3.398  10.504
 4025W        W 7544   3.178   7.191  11.031
 4026W        W 7545   7.403   6.251  11.802
 4027W        W 7546   0.880   5.661  11.459
 4028W        W 7547   4.281   2.717  11.509
 4029W        W 7548   8.494   8.734  10.214
 4030W        W 7549   6.854   8.811   2.338
 4031W        W 7550   0.249   7.445   1.857
 4032W        W 7551   4.977   9.056   1.757
 4033W        W 7552   3.608   0.261  10.545
 4034W        W 7553   7.077   5.807   9.400
 4035W        W 7554   2.261   6.869   1.167
 4036W        W 7555   7.172   6.502   2.504
 4037W        W 7556   4.360   1.621   1.248
 4038W        W 7557   4.154   8.744   1.543
 4039W        W 7558   1.840   7.468   9.237
 4040W        W 7559   4.193   5.776   0.519
 4041W        W 7560   7.161   0.617   3.538
 4042W        W 7561   5.783   8.577   9.265
 4043W        W 7562   5.082   9.540  11.406
 4044W        W 7563   6.440   6.947  11.751
 4045W        W 7564   1.801   9.403   1.898
 4046W        W 7565   9.448   2.289   9.226
 4047W        W 7566   2.525   4.913   1.466
 4048W        W 7567   8.521   0.433  10.023
 4049W        W 7568   0.839   9.850   2.683
 4050W        W 7569   8.825   2.663  10.052
 4051W        W 7570   5.970   0.038   1.387
 4052W        W 7571   5.426   3.121  11.042
 4053W        W 7572   8.584   5.004   0.976
 4054W        W 7573   5.708   0.004   0.494
 4055W        W 7574   3.051   2.809   8.692
 4056W        W 7575   7.129   9.990   2.717
 4057W        W 7576   0.223   5.089   0.633
 4058W        W 7577   6.554   1.650   2.398
 4059W        W 7578   1.179   3.798  10.526
 4060W        W 7579   2.293   3.347   9.030
 4061W        W 7580   4.098   5.701   9.098
 4062W        W 7581   2.065   8.762   9.718
 4063W        W 7582   6.667   6.597   4.212
 4064W        W 7583   6.663   9.950  11.939
 4065W        W 7584   0.654   0.446  10.817
 4066W        W 7585   7.131   2.328   2.300
 4067W        W 7586   2.642   7.727  11.754
 4068W        W 7587   6.870   0.420  10.951
 4069W        W 7588   6.264   1.731  11.174
 4070W        W 7589   7.028   4.130   2.757
 4071W        W 7590   1.786   4.386  10.291
 4072W        W 7591   7.963   1.131   0.818
 4073W        W 7592   4.085   5.041   9.325
 4074W        W 7593   5.138   1.868   2.855
 4075W        W 7594   0.796   2.162   0.527
 4076W        W 7595   3.919   0.356   1.210
 4077W        W 7596   7.449   3.900  10.098
 4078W        W 7597   6.464   6.255   0.832
 4079W        W 7598   6.438   8.491  10.007
 4080W        W 7599   5.710   5.504   9.851
 4081W        W 7600   0.959   0.257   2.996
 4082W        W 7601   8.651   1.754   2.508
 4083W        W 7602   2.364   6.119  11.204
 4084W        W 7603   4.236   9.914  11.545
 4085W        W 7604   2.399   8.863   3.297
 4086W        W 7605   6.590   4.688   8.243
 4087W        W 7606   6.763   5.916   1.820
 4088W        W 7607   8.002   4.183   0.166
 4089W        W 7608   7.869   6.708   3.602
 4090W        W 7609   9.253   0.862   1.077
 4091W        W 7610   0.864   0.781   3.138
 4092W        W 7611   7.335   8.429   1.082
 4093W        W 7612   9.566   0.907  11.338
 4094W        W 7613   6.959   8.062  10.771
 4095W        W 7614   7.493   2.803   2.029
 4096W        W 7615   6.422   2.576   1.412
 4097W        W 7616   3.305   1.267   2.605
 4098W        W 7617   6.300   2.491  11.334
 4099W        W 7618   7.098   0.510   2.733
 4100W        W 7619   4.201   4.524   9.067
 4101W        W 7620   8.807   9.998  11.913
 4102W        W 7621   3.227   1.758  10.419
 4103W        W 7622   3.692   8.482  10.990
 4104W        W 7623   2.947   5.906   1.858
 4105W        W 7624   3.291   5.013   1.625
 4106W        W 7625   7.505   0.334   3.821
 4107W        W 7626   2.580   3.957  10.232
 4108W        W 7627   6.138   9.709   0.835
 4109W        W 7628   4.076   1.312   3.016
 4110W        W 7629   3.672   3.798   2.987
 4111W        W 7630   9.930   2.904   3.409
 4112W        W 7631   5.391   0.411   9.668
 4113W        W 7632   9.581   5.756   1.631
 4114W        W 7633   7.628   7.515   0.775
 4115W        W 7634   6.783   7.587   2.718
 4116W        W 7635   9.301   6.672   1.601
 4117W        W 7636   1.322   1.197   1.458
 4118W        W 7637   2.305   4.045   8.534
 4119W        W 7638   4.154   0.836   9.525
 4120W        W 7639   3.086   0.271   0.461
 4121W        W 7640   4.460   1.269   9.012
 4122W        W 7641   9.397   6.178   9.713
 4123W        W 7642   8.960   2.306   1.058
 4124W        W 7643   1.277   3.441   0.058
 4125W        W 7644   0.725   3.728   0.260
 4126W        W 7645   4.557   3.357  10.746
 4127W        W 7646   7.232   8.464  11.391
 4128W        W 7647   3.476   3.735   3.931
 4129W        W 7648   6.137   5.744  11.695
 4130W        W 7649   5.411   1.211   0.044
 4131W        W 7650   6.636   4.551   9.515
 4132W        W 7651   0.935   6.964   0.879
 4133W        W 7652   3.697   8.439   3.332
 4134W        W 7653   7.136   3.485   1.735
 4135W        W 7654   6.101   6.714  11.449
 4136W        W 7655   5.255   2.767   3.337
 4137W        W 7656   6.226   7.025  10.580
 4138W        W 7657   8.663   3.989   8.939
 4139W        W 7658   0.699   8.921   2.842
 4140W        W 7659   6.063   4.051   3.387
 4141W        W 7660   5.227   3.662   9.172
 4142W        W 7661   1.155   1.478   0.592
 4143W        W 7662   6.234   1.979   2.625
 4144W        W 7663   8.893   3.015   9.158
 4145W        W 7664   2.835   4.731   0.023
 4146W        W 7665   6.010   4.780   9.989
 4147W        W 7666   1.410   0.377   3.195
 4148W        W 7667   6.049   6.696   1.772
 4149W        W 7668   5.407   6.536  10.304
 4150W        W 7669   8.295   1.289   9.573
 4151W        W 7670   5.670   5.468   1.026
 4152W        W 7671   5.117   6.489   8.265
 4153W        W 7672   7.657   7.318   9.496
 4154W        W 7673   1.636   8.884   0.229
 4155W        W 7674   7.377   6.359  10.803
 4156W        W 7675   8.093   8.419  11.910
 4157W        W 7676   0.748   0.840   2.214
 4158W        W 7677   6.002   6.876   2.323
 4159W        W 7678   8.509   8.917   1.654
 4160W        W 7679   2.182   0.383   2.789
 4161W        W 7680   1.304   7.951   3.643
 4162W        W 7681   5.537   6.581   8.604
 4163W        W 7682   9.309   7.408  10.377
 4164W        W 7683   0.132   6.028  10.941
 4165W        W 7684   2.699   1.493   3.257
 4166W        W 7685   2.902   4.819   2.436
 4167W        W 7686   4.701   5.217   3.550
 4168W        W 7687   4.822   6.015   9.825
 4169W        W 7688   3.188   0.826  10.379
 4170W        W 7689   0.394   3.334   0.238
 4171W        W 7690   9.850   7.011  10.904
 4172W        W 7691   5.349   4.879   2.262
 4173W        W 7692   4.676   1.826  11.346
 4174W        W 7693   5.866   1.314   9.457
 4175W        W 7694   6.381   0.282  10.775
 4176W        W 7695   2.795   1.932   2.987
 4177W        W 7696   7.006   0.994   2.595
 4178W        W 7697   3.836   3.670  10.820
 4179W        W 7698   2.165   8.087   8.630
 4180W        W 7699   5.900   8.221   2.198
 4181W        W 7700   6.969   9.253   8.358
 4182W        W 7701   3.268   6.729   2.169
 4183W        W 7702   9.825   5.621  10.826
 4184W        W 7703   2.840   3.811  11.623
 4185W        W 7704   8.825   1.738  10.410
 4186W        W 7705   9.352   2.639  10.016
 4187W        W 7706   3.723   4.506   9.883
 4188W        W 7707   2.654   5.140   0.262
 4189W        W 7708   6.350   9.642   9.523
 4190W        W 7709   4.528   8.725  11.490
 4191W        W 7710   8.536   8.462   0.842
 4192W        W 7711   5.970   0.433  11.661
 4193W        W 7712   9.747   3.661  10.069
 4194W        W 7713   6.103   1.570   0.826
 4195W        W 7714   8.999   7.823   8.680
 4196W        W 7715   2.288   9.456  11.370
 4197W        W 7716   0.381   4.603   2.612
 4198W        W 7717   0.801   1.960   1.635
 4199W        W 7718   5.919   6.933  11.013
 4200W        W 7719   6.999   2.013  10.047
 4201W        W 7720   8.345   1.499   1.537
 4202W        W 7721   2.112   6.747   9.557
 4203W        W 7722   1.205   0.735   9.052
 4204W        W 7723   2.258   1.794   9.234
 4205W        W 7724   2.586   7.289   2.891
 4206W        W 7725   2.313   6.713   0.300
 4207W        W 7726   0.114   0.479   9.599
 4208W        W 7727   3.613   1.498   2.945
 4209W        W 7728   8.870   9.706   1.150
 4210W        W 7729   4.436   5.944  11.852
 4211W        W 7730   8.787   5.481   2.540
 4212W        W 7731   1.441   2.648   9.856
 4213W        W 7732   9.643   0.575   1.649
 4214W        W 7733   7.941   3.485   3.870
 4215W        W 7734   6.650   7.996   1.992
 4216W        W 7735   0.469   0.227   2.846
 4217W        W 7736   5.587   2.188   9.217
 4218W        W 7737   1.559   3.720   2.328
 4219W        W 7738   5.251   2.392   8.843
 4220W        W 7739   6.471   7.888  10.499
 4221W        W 7740   7.412   7.529  11.210
 4222W        W 7741   3.481   7.097   8.564
 4223W        W 7742   6.753   0.795  11.908
 4224W        W 7743   5.280   5.657  11.642
 4225W        W 7744   3.356   4.134   0.727
 4226W        W 7745   4.272   8.552  10.216
 4227W        W 7746   8.968   0.250  10.517
 4228W        W 7747   4.211   5.469   3.857
 4229W        W 7748   5.990   6.257   9.410
 4230W        W 7749   7.614   5.907   9.845
 4231W        W 7750   1.705   4.716   3.673
 4232W        W 7751   8.204   9.861   1.952
 4233W        W 7752   7.173   4.345   1.354
 4234W        W 7753   5.734   3.357   4.014
 4235W        W 7754   9.944   5.694   2.432
 4236W        W 7755   5.563   3.075  10.499
 4237W        W 7756   6.412   7.643  11.442
 4238W        W 7757   1.098   3.740   2.512
 4239W        W 7758   8.236   8.287  10.138
 4240W        W 7759   0.832   3.299   2.458
 4241W        W 7760   3.865   9.268   8.637
 4242W        W 7761   0.253   2.576   1.462
 4243W        W 7762   8.657   9.301   9.342
 4244W        W 7763   3.130   4.144   1.224
 4245W        W 7764   1.145   1.192   2.966
 4246W        W 7765   9.076   0.977  11.877
 4247W        W 7766   3.204   1.709   3.198
 4248W        W 7767   5.691   0.958   0.387
 4249W        W 7768   8.047   3.554  10.959
 4250W        W 7769   0.811   6.162   8.702
 4251W        W 7770   2.783   7.026   1.632
 4252W        W 7771   4.345   4.754   2.301
 4253W        W 7772   5.953   0.333   0.167
 4254W        W 7773   2.694   5.137   9.760
 4255W        W 7774   0.815   2.385   1.976
 4256W        W 7775   6.210   3.189   9.634
 4257W        W 7776   1.231   1.321  10.910
 4258W        W 7777   3.061   9.552   9.490
 4259W        W 7778   8.835   4.406   3.560
 4260W        W 7779   4.681   7.149  11.371
 4261W        W 7780   8.953   7.747   0.924
 4262W        W 7781   1.271   2.250   9.590
 4263W        W 7782   3.162   3.266  10.007
 4264W        W 7783   1.102   5.751  11.939
 4265W        W 7784   4.158   8.412   0.178
 4266W        W 7785   0.030   9.109   9.093
 4267W        W 7786   6.193   1.694   9.341
 4268W        W 7787   4.667   1.726   3.236
 4269W        W 7788   7.636   0.277  11.060
 4270W        W 7789   0.930   4.338  11.220
 4271W        W 7790   5.004   3.771   1.136
 4272W        W 7791   6.722   6.027   8.468
 4273W        W 7792   4.619   3.095   2.813
 4274W        W 7793   7.832   1.509   2.291
 4275W        W 7794   6.506   4.175   1.185
 4276W        W 7795   2.374   6.650  10.447
 4277W        W 7796   2.141   8.306   0.874
 4278W        W 7797   8.110   8.386   2.277
 4279W        W 7798   1.622   3.268   3.158
 4280W        W 7799   0.888   8.395   0.373
 4281W        W 7800   5.409   1.745   1.450
 4282W        W 7801   9.006   6.108  10.078
 4283W        W 7802   2.971   6.245  11.734
 4284W        W 7803   2.858   9.736  11.817
 4285W        W 7804   4.207   6.706   9.153
 4286W        W 7805   0.926   2.079   9.249
 4287W        W 7806   9.323   1.000   2.390
 4288W        W 7807   8.061  10.000   1.446
 4289W        W 7808   8.382   2.753   0.004
 4290W        W 7809   6.131   8.106   2.636
 4291W        W 7810   4.668   6.611   8.992
 4292W        W 7811   5.985   0.801   9.433
 4293W        W 7812   7.357   9.389  10.272
 4294W        W 7813   1.078   4.200   2.204
 4295W        W 7814   7.398   4.402   2.571
 4296W        W 7815   9.216   9.319   3.027
 4297W        W 7816   1.637   5.535   3.107
 4298W        W 7817   6.906   9.986  11.447
 4299W        W 7818   2.779   9.094  10.121
 4300W        W 7819   5.027   5.900   2.920
 4301W        W 7820   3.741   3.700   3.497
 4302W        W 7821   1.867   0.235   2.144
 4303W        W 7822   5.596   3.110   2.115
 4304W        W 7823   7.818   0.281   9.523
 4305W        W 7824   9.250   1.621   8.957
 4306W        W 7825   1.826   5.199  10.310
 4307W        W 7826   5.274   7.350   8.992
 4308W        W 7827   9.759   7.506   1.544
 4309W        W 7828   3.977   7.377   2.905
 4310W        W 7829   5.495   4.788   9.959
 4311W        W 7830   3.961   0.842   2.216
 4312W        W 7831   7.133   4.003   8.493
 4313W        W 7832   9.965   5.970  10.014
 4314W        W 7833   5.010   9.117   8.646
 4315W        W 7834   3.243   1.682   9.539
 4316W        W 7835   6.786   2.376   0.437
 4317W        W 7836   9.629   9.636   3.098
 4318W        W 7837   5.605   0.857   1.261
 4319W        W 7838   3.483   6.579   1.293
 4320W        W 7839   4.674   0.400   0.805
 4321W        W 7840   1.918   0.526   1.735
 4322W        W 7841   0.768   5.552   8.411
 4323W        W 7842   5.944   7.663  11.624
 4324W        W 7843   1.944   6.919   1.762
 4325W        W 7844   3.716   0.050   3.210
 4326W        W 7845   8.494   6.017  10.227
 4327W        W 7846   9.035   0.296   9.996
 4328W        W 7847   1.748   2.793   0.621
 4329W        W 7848   7.051   7.484   0.260
 4330W        W 7849   4.892   3.953   8.195
 4331W        W 7850   1.398   7.959   2.272
 4332W        W 7851   5.148   6.470   1.674
 4333W        W 7852   9.216   1.774   1.540
 4334W        W 7853   8.502   5.765   9.334
 4335W        W 7854   8.523   4.117  11.326
 4336W        W 7855   2.564   5.568  10.027
 4337W        W 7856   6.532   0.791  11.065
 4338W        W 7857   2.261   9.845   9.078
 4339W        W 7858   6.592   4.127  10.698
 4340W        W 7859   4.613   3.894   2.390
 4341W        W 7860   2.508   1.492   0.145
 4342W        W 7861   0.112   9.523   2.237
 4343W        W 7862   0.572   5.432   0.799
 4344W        W 7863   2.861   0.468   3.516
 4345W        W 7864   8.413   1.568   0.051
 4346W        W 7865   0.328   3.270  10.732
 4347W        W 7866   2.204   4.504   3.683
 4348W        W 7867   9.432   8.845  11.643
 4349W        W 7868   5.465   2.530  10.408
 4350W        W 7869   7.946   0.407   0.292
 4351W        W 7870   2.441   9.552   3.178
 4352W        W 7871   3.697   2.974   9.364
 4353W        W 7872   8.123   9.593  10.708
 4354W        W 7873   9.923   5.742  11.319
 4355W        W 7874   6.881   5.747  11.884
 4356W        W 7875   7.746   4.716  10.323
 4357W        W 7876   0.986   0.220   3.499
 4358W        W 7877   6.636   3.529  11.930
 4359W        W 7878   6.953   5.456  10.386
 4360W        W 7879   8.022   4.735   8.686
 4361W        W 7880   9.912   8.939  11.815
 4362W        W 7881   4.359   1.036   1.932
 4363W        W 7882   3.300   9.736   1.746
 4364W        W 7883   3.289   8.818  10.185
 4365W        W 7884   6.072   3.327   1.913
 4366W        W 7885   7.687   7.301   8.965
 4367W        W 7886   4.305   2.586   0.928
 4368W        W 7887   9.554   3.252   3.349
 4369W        W 7888   7.700   9.543   9.105
 4370W        W 7889   2.137   3.981   3.247
 4371W        W 7890   4.142   4.741   1.298
 4372W        W 7891   6.086   5.695   8.525
 4373W        W 7892   0.699   4.885   3.413
 4374W        W 7893   7.105   4.533   8.345
 4375W        W 7894   0.389   1.107   1.499
 4376W        W 7895   9.760   3.761  10.577
 4377W        W 7896   7.426   7.052   1.272
 4378W        W 7897   3.328   4.703  11.133
 4379W        W 7898   5.433   0.341   1.217
 4380W        W 7899   2.449   4.696  10.709
 4381W        W 7900   4.654   6.668   0.223
 4382W        W 7901   9.450   6.386   2.234
 4383W        W 7902   8.097   0.354  11.332
 4384W        W 7903   7.843   7.980  11.885
 4385W        W 7904   6.594   2.517  11.757
 4386W        W 7905   9.308   7.982   3.329
 4387W        W 7906   9.335   4.678   9.485
 4388W        W 7907   4.719   4.825   0.450
 4389W        W 7908   2.997   4.943   4.102
 4390W        W 7909   2.445   3.127   3.144
 4391W        W 7910   4.402   6.546   1.029
 4392W        W 7911   4.251   1.546   3.466
 4393W        W 7912   7.165   3.800   2.326
 4394W        W 7913   0.034   5.090  10.166
 4395W        W 7914   8.560   7.626   9.366
 4396W        W 7915   5.075   0.778   9.497
 4397W        W 7916   3.619   4.223  11.770
 4398W        W 7917   9.573   4.094   3.402
 4399W        W 7918   2.733   7.214  11.765
 4400W        W 7919   3.267   3.839   8.861
 4401W        W 7920   2.900   3.973   2.264
 4402W        W 7921   1.737   1.255  10.944
 4403W        W 7922   3.095   0.557   0.871
 4404W        W 7923   8.475   1.859  10.778
 4405W        W 7924   0.406   4.537  11.949
 4406W        W 7925   3.050   6.304   1.431
 4407W        W 7926   6.704   0.799   9.114
 4408W        W 7927   8.490   6.219   9.735
 4409W        W 7928   6.099   7.147  10.076
 4410W        W 7929   5.586   5.802   2.290
 4411W        W 7930   5.288   2.985   0.977
 4412W        W 7931   7.868   8.967  11.308
 4413W        W 7932   0.361   8.402   2.121
 4414W        W 7933   0.959   5.490   0.403
 4415W        W 7934   7.571   0.728   9.430
 4416W        W 7935   8.213   3.139   3.126
 4417W        W 7936   0.890   7.042   2.329
 4418W        W 7937   0.335   8.163  11.283
 4419W        W 7938   7.455   4.015   3.384
 4420W        W 7939   8.051   6.881  10.485
 4421W        W 7940   9.772   0.730   1.003
 4422W        W 7941   8.538   6.626   1.863
 4423W        W 7942   8.597   9.743  10.609
 4424W        W 7943   0.363   9.216  11.836
 4425W        W 7944   6.454   6.018   2.719
 4426W        W 7945   3.244   3.334   9.007
 4427W        W 7946   9.091   4.593   2.362
 4428W        W 7947   3.951   4.257   1.744
 4429W        W 7948   2.663   7.403   8.469
 4430W        W 7949   6.446   2.509  10.031
 4431W        W 7950   9.341   0.547   2.071
 4432W        W 7951   4.641   0.701  11.714
 4433W        W 7952   0.860   6.150  11.313
 4434W        W 7953   1.338   3.518  10.122
 4435W        W 7954   6.374   1.341   9.739
 4436W        W 7955   6.491   5.268  10.911
 4437W        W 7956   2.995   7.954   8.541
 4438W        W 7957   7.565   9.367  11.253
 4439W        W 7958   9.390   6.532  11.845
 4440W        W 7959   8.186   6.399   2.157
 4441W        W 7960   7.015   8.389   3.124
 4442W        W 7961   8.233   9.445   3.214
 4443W        W 7962   8.050   6.996   9.380
 4444W        W 7963   4.640   9.974   1.597
 4445W        W 7964   9.784   0.328  10.998
 4446W        W 7965   5.815   6.931   3.605
 4447W        W 7966   5.445   0.537   3.478
 4448W        W 7967   4.568   7.161   0.222
 4449W        W 7968   7.769   1.173   9.655
 4450W        W 7969   4.867   1.307   1.861
 4451W        W 7970   5.441   1.496   8.742
 4452W        W 7971   4.045   5.185   1.016
 4453W        W 7972   9.267   8.800   2.808
 4454W        W 7973   8.086   9.706   0.102
 4455W        W 7974   6.770   7.543  10.729
 4456W        W 7975   2.417   9.475   1.221
 4457W        W 7976   7.434   0.374   0.589
 4458W        W 7977   5.977   2.809   3.179
 4459W        W 7978   8.640   6.504   2.367
 4460W        W 7979   3.958   6.798  11.593
 4461W        W 7980   6.591   0.863   0.388
 4462W        W 7981   3.119   5.158  10.389
 4463W        W 7982   7.384   9.213   3.368
 4464W        W 7983   4.525   5.860  10.993
 4465W        W 7984   4.185   8.184   2.389
 4466W        W 7985   3.061   9.766   3.586
 4467W        W 7986   4.071   7.138  11.966
 4468W        W 7987   0.891   0.641   9.483
 4469W        W 7988   2.557   9.119   2.890
 4470W        W 7989   4.487   7.398  11.789
 4471W        W 7990   7.381   2.823  10.093
 4472W        W 7991   5.206   2.789   2.164
 4473W        W 7992   2.765   9.981   9.975
 4474W        W 7993   8.504   9.767   1.542
 4475W        W 7994   0.939   9.786   3.212
 4476W        W 7995   2.360   9.632  11.850
 4477W        W 7996   1.775   9.696   9.725
 4478W        W 7997   4.526   9.316   1.830
 4479W        W 7998   5.649   4.817  10.890
 4480W        W 7999   2.409   1.204  11.723
 4481W        W 8000   4.748   2.863   2.363
 4482W        W 8001   8.684   6.123   1.997
 4483W        W 8002   0.913   5.182   0.002
 4484W        W 8003   9.028   8.587   9.007
 4485W        W 8004   4.469   2.435   2.329
 4486W        W 8005   2.431   6.967   8.697
 4487W        W 8006   3.960   7.117   9.018
 4488W        W 8007   1.768   0.363   0.338
 4489W        W 8008   3.591   9.835   9.427
 4490W        W 8009   5.114   3.630   2.223
 4491W        W 8010   9.350   4.687   1.439
 4492W        W 8011   6.977   7.780   9.795
 4493W        W 8012   3.712   6.932   2.974
 4494W        W 8013   5.738   3.619   0.768
 4495W        W 8014   4.081   6.275   8.257
 4496W        W 8015   6.065   8.649  11.906
 4497W        W 8016   0.194   9.668   1.257
 4498W        W 8017   7.254   7.277   8.681
 4499W        W 8018   0.479   8.393   0.054
 4500W        W 8019   8.967   3.085   2.164
 4501W        W 8020   2.186   7.846   9.670
 4502W        W 8021   9.172   1.778   2.061
 4503W        W 8022   9.367   5.032   2.279
 4504W        W 8023   9.864   5.567  10.321
 4505W        W 8024   2.427   0.741   3.037
 4506W        W 8025   5.528   6.640  10.806
 4507W        W 8026   7.978   7.568   8.645
 4508W        W 8027   1.812   2.698  11.180
 4509W        W 8028   6.259   3.683   2.261
 4510W        W 8029   1.616   7.945   0.614
 4511W        W 8030   6.176   4.774   2.534
 4512W        W 8031   5.971   2.356   1.355
 4513W        W 8032   2.170   1.988   0.846
 4514W        W 8033   6.185   5.244   8.808
 4515W        W 8034   6.792   6.065   9.730
 4516W        W 8035   4.740   2.635  10.939
 4517W        W 8036   8.434   3.010   0.882
 4518W        W 8037   3.043   8.009   9.059
 4519W        W 8038   9.382   7.208   9.766
 4520W        W 8039   8.591   4.562  10.584
 4521W        W 8040   6.047   6.537  10.658
 4522W        W 8041   1.727   7.979   9.973
 4523W        W 8042   4.601   4.060   1.069
 4524W        W 8043   5.927   1.542   9.915
 4525W        W 8044   8.968   2.302   0.016
 4526W        W 8045   9.342   4.875   9.971
 4527W        W 8046   2.539   6.573   0.811
 4528W        W 8047   3.059   0.105   1.485
 4529W        W 8048   4.182   0.577   1.829
 4530W        W 8049   9.158   9.767   0.220
 4531W        W 8050   2.339   4.040   9.553
 4532W        W 8051   6.654   2.197   9.676
 4533W        W 8052   8.454   2.371   0.942
 4534W        W 8053   0.276   2.354  10.966
 4535W        W 8054   0.516   8.854   1.420
 4536W        W 8055   6.707   8.464   2.716
 4537W        W 8056   8.443   3.331   9.463
 4538W        W 8057   6.709   2.862  11.418
 4539W        W 8058   2.942   7.563   9.324
 4540W        W 8059   9.716   9.020   2.494
 4541W        W 8060   4.381   7.198   9.298
 4542W        W 8061   8.057   9.772   9.414
 4543W        W 8062   3.737   7.247   9.468
 4544W        W 8063   6.461   5.416   1.114
 4545W        W 8064   5.902   3.938   0.272
 4546W        W 8065   9.526   0.871   0.122
 4547W        W 8066   8.439   8.855   2.147
 4548W        W 8067   4.156   9.270   1.481
 4549W        W 8068   9.682   8.166   0.355
 4550W        W 8069   2.127   0.869   2.624
 4551W        W 8070   9.992   6.873   1.028
 4552W        W 8071   6.061   0.475   2.003
 4553W        W 8072   6.271   9.411   8.633
 4554W        W 8073   0.031   4.143   9.335
 4555W        W 8074   0.421   6.169   0.194
 4556W        W 8075   6.176   7.528   3.104
 4557W        W 8076   0.520   1.338   8.656
 4558W        W 8077   3.105   5.635  10.163
 4559W        W 8078   5.511   2.140   3.088
 4560W        W 8079   2.059   9.126   1.088
 4561W        W 8080   0.331   8.272  10.773
 4562W        W 8081   3.420   8.060   1.863
 4563W        W 8082   0.798   0.583   2.648
 4564W        W 8083   4.284   6.508   0.541
 4565W        W 8084   0.663   1.246   3.160
 4566W        W 8085   0.552   0.645   1.642
 4567W        W 8086   7.383   2.734   3.028
 4568W        W 8087   3.415   1.670   3.652
 4569W        W 8088   7.956   2.831  11.673
 4570W        W 8089   7.337   4.406  11.425
 4571W        W 8090   4.241   0.424  11.428
 4572W        W 8091   0.043   2.865   2.629
 4573W        W 8092   3.405   9.943   0.693
 4574W        W 8093   0.027   7.589   0.073
 4575W        W 8094   5.382   6.149   1.990
 4576W        W 8095   3.072   7.270   3.432
 4577W        W 8096   7.182   5.748   1.034
 4578W        W 8097   3.327   5.956  11.047
 4579W        W 8098   4.599   0.303   1.984
 4580W        W 8099   7.590   6.618   0.101
 4581W        W 8100   6.817   0.695   1.724
 4582W        W 8101   2.718   4.966   1.972
 4583W        W 8102   8.319   4.181   9.300
 4584W        W 8103   3.771   0.618   9.823
 4585W        W 8104   3.395   5.121   2.901
 4586W        W 8105   7.080   4.387   8.842
 4587W        W 8106   5.778   7.029   9.317
 4588W        W 8107   5.002   0.375   9.144
 4589W        W 8108   9.952   5.438   1.446
 4590W        W 8109   4.675   8.006   2.315
 4591W        W 8110   6.472   8.912   0.712
 4592W        W 8111   1.979   9.515   8.473
 4593W        W 8112   9.688   0.430   8.346
 4594W        W 8113   3.220   2.881  10.703
 4595W        W 8114   4.455   3.051   1.198
 4596W        W 8115   2.713   4.578   8.967
 4597W        W 8116   2.679   4.221  11.376
 4598W        W 8117   8.855   0.523   0.023
 4599W        W 8118   8.109   4.814   1.148
 4600W        W 8119   2.002   8.868  10.233
 4601W        W 8120   9.762   9.829   1.502
 4602W        W 8121   0.406   6.166   2.184
 4603W        W 8122   0.526   2.102  10.564
 4604W        W 8123   4.507   4.298   3.211
 4605W        W 8124   8.405   7.046   1.499
 4606W        W 8125   4.051   2.316   1.327
 4607W        W 8126   7.601   0.190   3.355
 4608W        W 8127   6.023   2.050   0.022
 4609W        W 8128   3.339   8.690   3.044
 4610W        W 8129   3.692   9.880  10.911
 4611W        W 8130   3.630   6.866  10.668
 4612W        W 8131   7.102   6.512  11.424
 4613W        W 8132   9.063   5.165   0.696
 4614W        W 8133   5.242   7.591  11.173
 4615W        W 8134   1.406   4.501  11.268
 4616W        W 8135   3.724   6.388  11.422
 4617W        W 8136   3.858   5.864   3.755
 4618W        W 8137   6.292   0.891   3.613
 4619W        W 8138   5.700   2.715   0.759
 4620W        W 8139   1.997   1.268  11.408
 4621W        W 8140   3.298   8.531   0.011
 4622W        W 8141   9.510   4.206   9.428
 4623W        W 8142   0.039   5.694   1.895
 4624W        W 8143   2.467   3.365  11.082
 4625W        W 8144   6.896   5.035  10.726
 4626W        W 8145   2.310   7.196   1.547
 4627W        W 8146   4.604   9.138   8.970
 4628W        W 8147   0.428   7.596   9.691
 4629W        W 8148   9.574   6.381  10.149
 4630W        W 8149   6.751   0.260   9.004
 4631W        W 8150   1.680   4.567   3.192
 4632W        W 8151   0.161   6.578   3.544
 4633W        W 8152   5.923   2.464   0.293
 4634W        W 8153   9.563   8.005   1.496
 4635W        W 8154   3.735   2.814  10.770
 4636W        W 8155   4.258   6.157  10.649
 4637W        W 8156   6.823   3.900   8.884
 4638W        W 8157   0.939   7.957   2.628
 4639W        W 8158   1.830   4.138   2.411
 4640W        W 8159   5.975   1.175  11.782
 4641W        W 8160   6.486   3.482  10.001
 4642W        W 8161   3.336   6.397   3.583
 4643W        W 8162   7.571   4.137   1.115
 4644W        W 8163   0.763   6.646   2.665
 4645W        W 8164   8.592   8.442   2.427
 4646W        W 8165   5.775   7.460  11.179
 4647W        W 8166   5.655   9.511   0.660
 4648W        W 8167   0.040   4.898   0.170
 4649W        W 8168   7.917   6.905   0.344
 4650W        W 8169   1.045   1.316   8.672
 4651W        W 8170   3.262   1.696  11.610
 4652W        W 8171   6.520   8.828  10.965
 4653W        W 8172   8.536   4.482   0.940
 4654W        W 8173   3.115   3.279   8.474
 4655W        W 8174   2.086   6.596   2.170
 4656W        W 8175   8.112   2.362  11.441
 4657W        W 8176   5.551   6.761   1.564
 4658W        W 8177   3.205   2.321  10.053
 4659W        W 8178   0.156   0.666   1.954
 4660W        W 8179   5.200   8.099  11.069
 4661W        W 8180   1.732   6.108   9.989
 4662W        W 8181   7.826   9.900  10.385
 4663W        W 8182   6.483   4.875   9.880
 4664W        W 8183   0.873   6.470   0.480
 4665W        W 8184   2.031   7.623   1.495
 4666W        W 8185   4.270   6.318   3.505
 4667W        W 8186   6.270   6.673   3.629
 4668W        W 8187   9.680   6.670  11.308
 4669W        W 8188   6.542   3.141   9.263
 4670W        W 8189   2.058   3.676   2.302
 4671W        W 8190   7.037   0.341   2.269
 4672W        W 8191   4.761   9.888  11.581
 4673W        W 8192   4.476   6.871  11.779
 4674W        W 8193   4.797   7.426  10.936
 4675W        W 8194   0.381   1.967   2.343
 4676W        W 8195   7.450   4.237   2.112
 4677W        W 8196   0.391   6.394  10.633
 4678W        W 8197   9.032   8.162  11.289
 4679W        W 8198   3.864   9.015  10.987
 4680W        W 8199   1.831   4.041   9.308
 4681W        W 8200   0.842   4.031   0.692
 4682W        W 8201   9.236   8.907  10.642
 4683W        W 8202   0.205   7.606   2.354
 4684W        W 8203   0.722   3.007   2.861
 4685W        W 8204   7.593   9.592   3.664
 4686W        W 8205   4.779   2.747   1.838
 4687W        W 8206   8.186   4.878  10.529
 4688W        W 8207   0.369   2.161   1.828
 4689W        W 8208   3.078   6.048   9.024
 4690W        W 8209   3.989   3.757   0.345
 4691W        W 8210   4.032   7.113   8.498
 4692W        W 8211   5.103   9.437   9.601
 4693W        W 8212   0.655   2.584  11.865
 4694W        W 8213   6.072   7.816   0.111
 4695W        W 8214   4.184   4.047   8.807
 4696W        W 8215   0.439   1.976   3.437
 4697W        W 8216   3.348   9.808  11.795
 4698W        W 8217   2.884   5.181   2.824
 4699W        W 8218   3.063   1.267   9.328
 4700W        W 8219   8.906   7.159  10.962
 4701W        W 8220   8.408   0.275   1.755
 4702W        W 8221   4.626   2.476   9.596
 4703W        W 8222   9.366   9.073   2.049
 4704W        W 8223   5.550   2.843   9.997
 4705W        W 8224   9.591   8.204   2.536
 4706W        W 8225   8.963   9.308   1.867
 4707W        W 8226   8.775   1.156   1.391
 4708W        W 8227   9.058   3.133   3.326
 4709W        W 8228   7.552   6.346   2.818
 4710W        W 8229   4.524   9.574  11.254
 4711W        W 8230   9.751   0.415   0.014
 4712W        W 8231   4.712   4.395   2.298
 4713W        W 8232   6.860   3.626   0.398
 4714W        W 8233   4.157   4.709   3.173
 4715W        W 8234   4.711   5.725   1.102
 4716W        W 8235   7.605   7.998   0.951
 4717W        W 8236   7.007   8.911   2.817
 4718W        W 8237   5.856   0.291  10.819
 4719W        W 8238   1.771   0.105   0.798
 4720W        W 8239   3.383   1.485   0.672
 4721W        W 8240   4.014   7.607  11.793
 4722W        W 8241   3.919   8.976   9.358
 4723W        W 8242   2.630   1.630  10.167
 4724W        W 8243   6.219   8.608   9.557
 4725W        W 8244   0.968   3.683  11.020
 4726W        W 8245   1.888   7.474  10.779
 4727W        W 8246   7.950   8.170   3.122
 4728W        W 8247   7.887   1.021   8.895
 4729W        W 8248   8.505   5.919   8.823
 4730W        W 8249   3.384   1.193  11.786
 4731W        W 8250   6.941   1.117   3.540
 4732W        W 8251   6.683   0.741   2.262
 4733W        W 8252   0.901   2.076   3.187
 4734W        W 8253   4.089   4.816  10.582
 4735W        W 8254   8.060   4.912   1.655
 4736W        W 8255   5.466   0.645   9.213
 4737W        W 8256   7.911   0.280   2.026
 4738W        W 8257   2.116   5.198   8.605
 4739W        W 8258   0.731   8.882  11.971
 4740W        W 8259   1.017   4.986  11.103
 4741W        W 8260   3.952   9.366   0.585
 4742W        W 8261   7.124   6.038   0.218
 4743W        W 8262   4.767   9.852   0.105
 4744W        W 8263   3.228   9.910  11.313
 4745W        W 8264   3.323   4.581  11.983
 4746W        W 8265   5.052   2.367   3.062
 4747W        W 8266   6.192   1.933   2.117
 4748W        W 8267   0.012   4.117   3.127
 4749W        W 8268   1.390   7.450   3.432
 4750W        W 8269   9.891   2.038   0.501
 4751W        W 8270   8.084   8.200   0.888
 4752W        W 8271   9.953   3.137  11.437
 4753W        W 8272   4.937   3.179   8.591
 4754W        W 8273   8.305   0.072   3.447
 4755W        W 8274   5.523   3.888   8.838
 4756W        W 8275   0.836   1.716   0.260
 4757W        W 8276   9.445   0.873   0.617
 4758W        W 8277   3.753   6.545   0.433
 4759W        W 8278   4.893   5.609  10.172
 4760W        W 8279   8.465   5.976  11.252
 4761W        W 8280   4.984   4.771  10.225
 4762W        W 8281   9.925   0.264  10.018
 4763W        W 8282   1.300   5.509   1.320
 4764W        W 8283   8.816   7.288   1.264
 4765W        W 8284   1.876   9.348   0.106
 4766W        W 8285   4.860   0.005   2.765
 4767W        W 8286   6.407   2.649   0.208
 4768W        W 8287   0.854   9.059   1.723
 4769W        W 8288   6.307   2.214   0.499
 4770W        W 8289   2.040   9.916   1.235
 4771W        W 8290   9.930   2.156  11.993
 4772W        W 8291   6.665   0.181   2.610
 4773W        W 8292   7.620   5.127   1.536
 4774W        W 8293   1.653   1.164   0.736
 4775W        W 8294   0.973   9.280  11.624
 4776W        W 8295   9.478   5.855  10.102
 4777W        W 8296   1.735   0.648   0.836
 4778W        W 8297   7.053   8.184   3.637
 4779W        W 8298   0.760   3.686   9.318
 4780W        W 8299   5.042   3.445  10.047
 4781W        W 8300   8.494   7.552   3.367
 4782W        W 8301   8.714   0.193   1.360
 4783W        W 8302   5.986   2.330   1.849
 4784W        W 8303   7.277   9.481   2.332
 4785W        W 8304   4.081   6.697   2.280
 4786W        W 8305   0.259   0.949   2.452
 4787W        W 8306   3.122   2.324   0.309
 4788W        W 8307   0.668   3.850   9.801
 4789W        W 8308   5.991   4.608   0.842
 4790W        W 8309   6.800   9.459   1.405
 4791W        W 8310   3.510   7.349   3.147
 4792W        W 8311   8.524   4.840  11.860
 4793W        W 8312   4.074   6.524  10.064
 4794W        W 8313   2.016   2.989   3.401
 4795W        W 8314   0.826   0.495  10.322
 4796W        W 8315   2.280   1.901   2.082
 4797W        W 8316   7.581   3.362  10.076
 4798W        W 8317   8.502   4.117  10.807
 4799W        W 8318   9.887   7.236   2.460
 4800W        W 8319   8.495   8.956   0.654
 4801W        W 8320   7.660   9.006   9.996
 4802W        W 8321   8.499   0.762   2.187
 4803W        W 8322   1.263   1.961   2.543
 4804W        W 8323   9.000   3.605  11.442
 4805W        W 8324   9.855   4.542   1.736
 4806W        W 8325   1.959   4.847   4.087
 4807W        W 8326   0.504   1.655   1.920
 4808W        W 8327   9.084   2.599   1.512
 4809W        W 8328   8.748   1.929   0.806
 4810W        W 8329   6.642   6.308   8.034
 4811W        W 8330   4.703   0.815   0.202
 4812W        W 8331   5.907   0.895  10.893
 4813W        W 8332   3.921   7.965   1.079
 4814W        W 8333   1.650   1.669   0.614
 4815W        W 8334   5.914   7.893   8.927
 4816W        W 8335   0.695   1.083   2.684
 4817W        W 8336   8.983   0.616   0.696
 4818W        W 8337   0.358   9.489   3.575
 4819W        W 8338   6.301   1.164   9.230
 4820W        W 8339   2.535   6.386   2.119
 4821W        W 8340   8.540   4.227   9.768
 4822W        W 8341   2.718   2.346   2.679
 4823W        W 8342   5.258   9.208   3.492
 4824W        W 8343   1.647   6.619   9.246
 4825W        W 8344   5.175   1.570   0.952
 4826W        W 8345   8.348   6.230   9.229
 4827W        W 8346   0.222   3.166   8.994
 4828W        W 8347   7.446   9.992   2.308
 4829W        W 8348   4.876   0.154  10.941
 4830W        W 8349   4.004   7.599   0.709
 4831W        W 8350   5.672   1.986   8.762
 4832W        W 8351   3.555   2.157   1.302
 4833W        W 8352   8.069   6.711   0.800
 4834W        W 8353   5.783   1.939   9.627
 4835W        W 8354   3.678   1.050   9.577
 4836W        W 8355   4.772   8.915  11.930
 4837W        W 8356   3.187   3.367   0.569
 4838W        W 8357   4.758   4.427   1.705
 4839W        W 8358   2.936   4.740   9.958
 4840W        W 8359   5.673   8.800  10.566
 4841W        W 8360   4.904   4.882   1.547
 4842W        W 8361   9.584   1.260   9.127
 4843W        W 8362   2.288   9.472   2.604
 4844W        W 8363   9.590   2.555   8.781
 4845W        W 8364   6.460   3.832  11.522
 4846W        W 8365   9.289   7.706   1.814
 4847W        W 8366   7.493   8.607   3.222
 4848W        W 8367   8.977   2.302   0.524
 4849W        W 8368   6.142   6.222  11.544
 4850W        W 8369   0.688   7.791   1.023
 4851W        W 8370   0.355   7.126   0.248
 4852W        W 8371   6.428   2.038  11.554
 4853W        W 8372   1.261   0.959   0.992
 4854W        W 8373   8.948   0.359   1.796
 4855W        W 8374   5.250   2.967   8.242
 4856W        W 8375   9.315   6.008   8.738
 4857W        W 8376   9.543   9.012   1.567
 4858W        W 8377   1.373   8.802   8.992
 4859W        W 8378   8.032   3.672  11.450
 4860W        W 8379   3.413   6.024  11.599
 4861W        W 8380   3.586   5.534   2.276
 4862W        W 8381   1.020   7.455  11.181
 4863W        W 8382   4.411   9.127   0.651
 4864W        W 8383   0.655   0.005  11.211
 4865W        W 8384   1.627   6.771  11.481
 4866W        W 8385   1.786   0.342   1.255
 4867W        W 8386   3.975   6.773  11.057
 4868W        W 8387   2.286   9.169   9.906
 4869W        W 8388   7.103   7.181  10.958
 4870W        W 8389   1.367   5.820   0.358
 4871W        W 8390   8.199   6.487   2.703
 4872W        W 8391   7.094   2.400  10.355
 4873W        W 8392   1.190   1.700   3.013
 4874W        W 8393   4.017   2.853   1.430
 4875W        W 8394   2.798   2.056  10.390
 4876W        W 8395   2.698   7.286   2.380
 4877W        W 8396   2.827   9.925   3.149
 4878W        W 8397   3.475   1.209   2.136
 4879W        W 8398   5.017   5.289  11.375
 4880W        W 8399   5.051   6.546   1.163
 4881W        W 8400   8.620   9.698   3.579
 4882W        W 8401   0.436   8.985   3.331
 4883W        W 8402   1.687   8.451  10.185
 4884W        W 8403   8.098   1.146  11.916
 4885W        W 8404   0.151   5.289   2.187
 4886W        W 8405   3.718   2.294   9.957
 4887W        W 8406   7.562   4.380  10.977
 4888W        W 8407   6.556   0.499   0.771
 4889W        W 8408   4.063   9.520  11.020
 4890W        W 8409   8.432   2.216   0.224
 4891W        W 8410   4.618   0.931  11.259
 4892W        W 8411   7.702   1.847   9.041
 4893W        W 8412   5.573   5.960   2.792
 4894W        W 8413   5.824   4.318  10.038
 4895W        W 8414   4.392   6.689  11.327
 4896W        W 8415   9.969   7.332   0.555
 4897W        W 8416   6.453   0.364   0.275
 4898W        W 8417   8.965   9.466   9.716
 4899W        W 8418   5.586   1.483  11.623
 4900W        W 8419   9.978   4.385   3.548
 4901W        W 8420   6.912   5.580   3.549
 4902W        W 8421   5.120   2.558  11.745
 4903W        W 8422   1.413   5.520   1.835
 4904W        W 8423   6.914   6.145  11.090
 4905W        W 8424   2.243   4.882   0.492
 4906W        W 8425   5.225   3.780   9.669
 4907W        W 8426   9.803   8.967  10.312
 4908W        W 8427   6.584   6.524  11.498
 4909W        W 8428   2.853   0.268   8.873
 4910W        W 8429   1.844   4.250   0.030
 4911W        W 8430   0.978   0.574  11.190
 4912W        W 8431   3.012   2.679   9.655
 4913W        W 8432   6.887   3.369   1.299
 4914W        W 8433   7.245   8.527  10.356
 4915W        W 8434   8.408   1.951   9.761
 4916W        W 8435   7.304   7.604   9.073
 4917W        W 8436   1.292   8.056   9.704
 4918W        W 8437   1.386   5.068  10.064
 4919W        W 8438   2.201   1.272   9.010
 4920W        W 8439   0.178   2.742   0.962
 4921W        W 8440   0.193   8.041   3.248
 4922W        W 8441   1.972   5.544   3.514
 4923W        W 8442   3.418   9.076  11.241
 4924W        W 8443   9.047   5.590   9.969
 4925W        W 8444   0.937   9.374   2.873
 4926W        W 8445   5.134   6.456   9.125
 4927W        W 8446   9.942   8.563   2.372
 4928W        W 8447   4.406   7.230   3.651
 4929W        W 8448   2.792   8.201   0.665
 4930W        W 8449   5.666   7.631   3.181
 4931W        W 8450   0.761   8.569   3.222
 4932W        W 8451   4.795   1.328   2.496
 4933W        W 8452   3.791   5.128   2.507
 4934W        W 8453   8.978   8.775   0.515
 4935W        W 8454   2.913   5.554   0.419
 4936W        W 8455   8.472   9.419   1.905
 4937W        W 8456   3.750   7.201   0.908
 4938W        W 8457   7.666   8.446   0.676
 4939W        W 8458   4.206   8.072  11.779
 4940W        W 8459   0.486   2.217   9.016
 4941W        W 8460   5.170   6.097   9.471
 4942W        W 8461   1.156   7.464   1.997
 4943W        W 8462   4.122   9.895   9.199
 4944W        W 8463   0.411   6.692   3.086
 4945W        W 8464   8.000   6.098  11.342
 4946W        W 8465   3.533   5.132  11.335
 4947W        W 8466   3.838   0.971   1.747
 4948W        W 8467   8.432   2.514   2.881
 4949W        W 8468   6.240   8.472   2.984
 4950W        W 8469   3.921   8.583   2.551
 4951W        W 8470   2.183   8.652   1.281
 4952W        W 8471   5.684   5.003   2.656
 4953W        W 8472   7.071   7.352   1.996
 4954W        W 8473   1.481   3.317   0.535
 4955W        W 8474   8.483   1.101  11.222
 4956W        W 8475   9.092   3.486   2.452
 4957W        W 8476   9.546   9.506   0.433
 4958W        W 8477   6.622   2.720   2.350
 4959W        W 8478   9.893   8.446   1.865
 4960W        W 8479   4.549   9.796   3.550
 4961W        W 8480   4.632   1.953   2.229
 4962W        W 8481   6.198   7.827   2.179
 4963W        W 8482   3.089   4.314  10.180
 4964W        W 8483   4.707   6.267   8.618
 4965W        W 8484   1.415   5.334  10.595
 4966W        W 8485   1.303   9.757   9.027
 4967W        W 8486   7.155   2.030   9.564
 4968W        W 8487   2.017   5.617  10.066
 4969W        W 8488   4.111   5.600  10.895
 4970W        W 8489   5.354   3.428   1.284
 4971W        W 8490   3.688   8.546   0.373
 4972W        W 8491   7.815   2.175   1.735
 4973W        W 8492   2.343   3.320  10.578
 4974W        W 8493   4.129   3.361   3.506
 4975W        W 8494   2.747   3.827   1.375
 4976W        W 8495   4.987   8.181   2.944
 4977W        W 8496   8.950   2.729  11.695
 4978W        W 8497   6.079   9.030   2.259
 4979W        W 8498   3.239   5.161  10.904
 4980W        W 8499   8.817   4.962   2.640
 4981W        W 8500   5.778   5.468  11.462
 4982W        W 8501   0.791   3.783   2.120
 4983W        W 8502   9.724   1.895  10.250
 4984W        W 8503   6.569   6.552   9.552
 4985W        W 8504   6.355   0.239  10.245
 4986W        W 8505   1.714   7.917   9.461
 4987W        W 8506   1.637   0.276  11.859
 4988W        W 8507   8.977   6.859   9.930
 4989W        W 8508   8.969   8.267  11.843
 4990W        W 8509   3.819   1.153   2.584
 4991W        W 8510   7.375   6.081   4.141
 4992W        W 8511   5.232   4.148   0.797
 4993W        W 8512   0.473   9.619   3.072
 4994W        W 8513   8.683   9.970  10.141
 4995W        W 8514   6.415   7.077   1.176
 4996W        W 8515   1.759   7.580   0.291
 4997W        W 8516   6.268   1.904   9.791
 4998W        W 8517   7.128   2.321   0.073
 4999W        W 8518   0.904   3.404  11.457
 5000W        W 8519   1.377   9.877   3.458
 5001W        W 8520   1.730   5.926   1.752
 5002W        W 8521   1.702   1.764   0.084
 5003W        W 8522   7.597   6.842   1.696
 5004W        W 8523   7.122   0.729  10.300
 5005W        W 8524   8.173   5.877   2.044
 5006W        W 8525   9.797   7.201  10.351
 5007W        W 8526   9.730   6.190   1.081
 5008W        W 8527   6.114   5.101   2.925
 5009W        W 8528   3.772   6.683   1.745
 5010W        W 8529   8.324   3.194  10.443
 5011W        W 8530   5.810   4.410  11.180
 5012W        W 8531   8.040   1.880   9.425
 5013W        W 8532   1.381   7.597  10.472
 5014W        W 8533   1.221   8.721   1.585
 5015W        W 8534   1.431   5.427   0.672
 5016W        W 8535   7.422   8.070  10.497
 5017W        W 8536   3.613   9.548  11.311
 5018W        W 8537   8.757   2.139  10.084
 5019W        W 8538   9.528   6.013   2.576
 5020W        W 8539   0.335   8.416   1.615
 5021W        W 8540   0.790   5.340   1.268
 5022W        W 8541   6.711   1.378   0.403
 5023W        W 8542   5.323   0.226   2.697
 5024W        W 8543   4.633   8.792  10.984
 5025W        W 8544   0.267   2.460   2.425
 5026W        W 8545   2.106   3.588   9.442
 5027W        W 8546   9.382   5.001   1.051
 5028W        W 8547   5.936   6.101   0.029
 5029W        W 8548   0.456   3.659   1.773
 5030W        W 8549   1.817   7.190   1.322
 5031W        W 8550   0.173   7.228   1.370
 5032W        W 8551   1.092   0.215  11.968
 5033W        W 8552   4.205   0.841   2.868
 5034W        W 8553   7.966   7.187   1.683
 5035W        W 8554   6.810   6.099   4.097
 5036W        W 8555   2.531   5.121   3.212
 5037W        W 8556   3.033   4.439   8.222
 5038W        W 8557   9.243   2.256   3.201
 5039W        W 8558   5.177   2.548   0.735
 5040W        W 8559   6.825   6.938   3.859
 5041W        W 8560   0.735   5.286  10.753
 5042W        W 8561   5.140   1.046   2.803
 5043W        W 8562   4.881   6.961   3.969
 5044W        W 8563   0.155   3.450   0.704
 5045W        W 8564   7.992   4.263  10.206
 5046W        W 8565   5.298   7.128   9.480
 5047W        W 8566   8.085   3.481   2.386
 5048W        W 8567   6.455   9.724  11.455
 5049W        W 8568   5.837   9.995   8.911
 5050W        W 8569   9.361   6.897   2.107
 5051W        W 8570   9.223   7.878   2.334
 5052W        W 8571   2.110   6.949   3.509
 5053W        W 8572   4.283   6.536   1.839
 5054W        W 8573   5.382   2.247   2.596
 5055W        W 8574   6.040   5.494   1.381
 5056W        W 8575   7.146   7.562  11.644
 5057W        W 8576   0.994   0.011   1.808
 5058W        W 8577   7.315   6.076   9.035
 5059W        W 8578   8.743   9.397   3.181
 5060W        W 8579   3.871   8.973  11.482
 5061W        W 8580   9.563   7.515   0.297
 5062W        W 8581   1.899   6.454  10.843
 5063W        W 8582   1.311   9.852  10.572
 5064W        W 8583   7.887   9.267   9.552
 5065W        W 8584   8.351   6.310   0.879
 5066W        W 8585   3.169   8.054   2.320
 5067W        W 8586   5.906   1.014  10.392
 5068W        W 8587   1.645   2.779   1.180
 5069W        W 8588   2.648   9.362   9.254
 5070W        W 8589   3.301   4.631   9.614
 5071W        W 8590   5.158   7.842   2.547
 5072W        W 8591   2.288   5.992   3.474
 5073W        W 8592   6.567   9.259  10.406
 5074W        W 8593   6.428   2.449   2.767
 5075W        W 8594   1.314   8.470   2.371
 5076W        W 8595   6.519   5.163   2.573
 5077W        W 8596   0.816   4.408   3.216
 5078W        W 8597   5.841   4.916   2.171
 5079W        W 8598   7.832   2.615   9.877
 5080W        W 8599   6.076   9.454  10.341
 5081W        W 8600   7.892   3.464  10.466
 5082W        W 8601   2.554   2.701   3.401
 5083W        W 8602   9.567   6.755   0.250
 5084W        W 8603   7.729   5.614   2.440
 5085W        W 8604   3.472   0.979   3.508
 5086W        W 8605   9.454   4.350   0.066
 5087W        W 8606   5.729   8.566   3.023
 5088W        W 8607   8.386   7.088   2.007
 5089W        W 8608   8.710   9.263   2.333
 5090W        W 8609   3.546   8.297   2.782
 5091W        W 8610   8.704   2.911   9.620
 5092W        W 8611   3.191   2.938   0.858
 5093W        W 8612   4.841   0.374   9.670
 5094W        W 8613   3.759   7.242  11.043
 5095W        W 8614   4.412   5.493  10.049
 5096W        W 8615   3.544   8.234   1.306
 5097W        W 8616   3.702   5.423   9.427
 5098W        W 8617   1.210   1.948   0.828
 5099W        W 8618   4.270   2.298   9.255
 5100W        W 8619   1.980   1.056   3.088
 5101W        W 8620   9.715   3.601  11.455
 5102W        W 8621   4.533   5.594   0.191
 5103W        W 8622   3.868   8.179  11.408
 5104W        W 8623   8.767   7.053   0.283
 5105W        W 8624   1.212   3.474   3.352
 5106W        W 8625   0.797   0.860   8.590
 5107W        W 8626   9.465   9.437   9.646
 5108W        W 8627   4.024   0.950   3.385
 5109W        W 8628   7.975   8.759   3.053
 5110W        W 8629   7.564   4.376   9.965
 5111W        W 8630   0.509   3.024   0.653
 5112W        W 8631   8.078   6.219   3.620
 5113W        W 8632   0.405   3.298   9.478
 5114W        W 8633   0.920   2.250   8.741
 5115W        W 8634   5.602   8.276   8.761
 5116W        W 8635   1.545   7.467   2.821
 5117W        W 8636   5.828   8.910   9.679
 5118W        W 8637   3.172   4.717   9.116
 5119W        W 8638   8.401   5.709   1.579
 5120W        W 8639   3.968   4.687   2.662
 5121W        W 8640   2.194   6.221   0.428
 5122W        W 8641   6.792   0.583  11.443
 5123W        W 8642   2.921   8.958   0.087
 5124W        W 8643   1.364   0.639   0.076
 5125W        W 8644   9.838   4.844   2.188
 5126W        W 8645   6.265   5.568   2.864
 5127W        W 8646   3.473   0.591   0.308
 5128W        W 8647   2.147   9.195   1.582
 5129W        W 8648   8.632   2.263   1.447
 5130W        W 8649   9.496   5.340  11.423
 5131W        W 8650   4.168   0.847   1.389
 5132W        W 8651   8.459   3.502   0.698
 5133W        W 8652   7.306   0.634   1.549
 5134W        W 8653   9.039   5.860   2.278
 5135W        W 8654   8.574   9.668   0.257
 5136W        W 8655   5.867   3.018   8.763
 5137W        W 8656   9.962   5.490   9.829
 5138W        W 8657   1.033   0.346   9.868
 5139W        W 8658   3.170   6.744   8.334
 5140W        W 8659   8.276   0.662   3.227
 5141W        W 8660   4.478   3.225   0.687
 5142W        W 8661   2.754   5.533  10.982
 5143W        W 8662   1.686   3.174  11.334
 5144W        W 8663   2.136   0.403  11.965
 5145W        W 8664   7.896   3.051   2.208
 5146W        W 8665   5.728   9.859   2.315
 5147W        W 8666   3.513   2.672   1.449
 5148W        W 8667   9.641   9.963   0.240
 5149W        W 8668   8.321   5.107   9.931
 5150W        W 8669   6.161   9.017  10.636
 5151W        W 8670   5.888   6.393  11.117
 5152W        W 8671   0.447   1.558  11.992
 5153W        W 8672   6.165   4.695  11.996
 5154W        W 8673   6.283   4.185   0.715
 5155W        W 8674   9.473   9.324   8.682
 5156W        W 8675   9.428   7.088  11.187
 5157W        W 8676   5.668   1.438   0.580
 5158W        W 8677   4.195   5.061   9.853
 5159W        W 8678   7.604   4.611   8.979
 5160W        W 8679   1.282   7.135   0.171
 5161W        W 8680   2.380   5.266   2.749
 5162W        W 8681   5.420   4.911  10.452
 5163W        W 8682   9.440   5.524   0.704
 5164W        W 8683   2.327   7.860   1.829
 5165W        W 8684   6.699   1.413   8.561
 5166W        W 8685   4.278   6.412   2.727
 5167W        W 8686   6.901   8.743  10.050
 5168W        W 8687   4.280   8.908   2.414
 5169W        W 8688   0.747   6.093  11.806
 5170W        W 8689   9.810   4.627  10.009
 5171W        W 8690   7.645   1.021   2.336
 5172W        W 8691   6.043   2.863   2.138
 5173W        W 8692   7.917   9.419  11.664
 5174W        W 8693   3.753   1.961   2.780
 5175W        W 8694   2.843   5.098  11.260
 5176W        W 8695   3.786   4.128   3.801
 5177W        W 8696   9.012   9.859   1.610
 5178W        W 8697   8.953   8.075  10.782
 5179W        W 8698   8.434   5.185   2.323
 5180W        W 8699   4.499   4.236   9.707
 5181W        W 8700   8.831   3.723   2.066
 5182W        W 8701   5.954   6.954  11.903
 5183W        W 8702   1.067   5.002   0.476
 5184W        W 8703   1.877   7.663  11.264
 5185W        W 8704   3.823   2.993   2.368
 5186W        W 8705   2.926   8.897   3.266
 5187W        W 8706   5.627   7.122   4.058
 5188W        W 8707   5.559   2.630   2.954
 5189W        W 8708   1.782   0.087   2.613
 5190W        W 8709   0.558   3.546   8.872
 5191W        W 8710   8.024   1.190   2.644
 5192W        W 8711   7.662   9.756  10.931
 5193W        W 8712   5.201   3.557   4.021
 5194W        W 8713   3.897   9.888   0.503
 5195W        W 8714   6.961   9.043   9.200
 5196W        W 8715   2.203   3.926   2.739
 5197W        W 8716   7.393   3.617   0.467
 5198W        W 8717   0.007   5.964   1.437
 5199W        W 8718   9.595   1.443   1.670
 5200W        W 8719   6.887   9.793   3.141
 5201W        W 8720   7.881   7.674   1.745
 5202W        W 8721   6.432   7.278  11.007
 5203W        W 8722   1.631   5.434   8.701
 5204W        W 8723   1.822   5.507   1.463
 5205W        W 8724   9.757   8.060   9.059
 5206W        W 8725   1.531   0.171   9.757
 5207W        W 8726   0.698   7.296   1.229
 5208W        W 8727   2.390   4.720   9.823
 5209W        W 8728   2.054   4.059   0.488
 5210W        W 8729   7.164   5.583   8.913
 5211W        W 8730   9.766   0.817  10.871
 5212W        W 8731   8.032   6.127  10.045
 5213W        W 8732   2.191   4.233  10.550
 5214W        W 8733   3.940   5.427  11.414
 5215W        W 8734   1.378   8.421   0.631
 5216W        W 8735   5.511   1.797  10.060
 5217W        W 8736   8.297   2.384  10.063
 5218W        W 8737   9.517   1.420   2.175
 5219W        W 8738   3.763   2.216   0.745
 5220W        W 8739   1.784   1.558   9.116
 5221W        W 8740   3.486   6.231   8.777
 5222W        W 8741   3.037   1.853   8.539
 5223W        W 8742   9.307   6.345  11.400
 5224W        W 8743   0.159   0.634   0.220
 5225W        W 8744   4.566   2.165   3.005
 5226W        W 8745   9.824   9.395   1.803
 5227W        W 8746   8.958   5.113  11.722
 5228W        W 8747   2.183   3.708   0.891
 5229W        W 8748   3.509   1.854  10.003
 5230W        W 8749   4.612   9.560   9.344
 5231W        W 8750   6.286   3.766   1.746
 5232W        W 8751   2.282   8.368   3.176
 5233W        W 8752   7.915   2.265   2.661
 5234W        W 8753   5.291   5.000   1.233
 5235W        W 8754   4.229   5.477   9.560
 5236W        W 8755   4.187   4.584  10.140
 5237W        W 8756   9.350   9.915   1.203
 5238W        W 8757   5.507   2.335   1.065
 5239W        W 8758   2.639   0.479  10.281
 5240W        W 8759   8.511   5.484  11.277
 5241W        W 8760   4.932   7.062  11.887
 5242W        W 8761   6.020   1.775   3.172
 5243W        W 8762   3.960   0.351   0.311
 5244W        W 8763   9.052   5.392   1.153
 5245W        W 8764   1.674   6.199  11.221
 5246W        W 8765   0.410   3.031  11.703
 5247W        W 8766   9.119   9.513   9.229
 5248W        W 8767   3.084   0.384   2.486
 5249W        W 8768   5.027   6.370   3.233
 5250W        W 8769   6.494   3.676   9.244
 5251W        W 8770   1.491   2.940   3.569
 5252W        W 8771   1.684   8.079  10.991
 5253W        W 8772   3.207   5.623  10.672
 5254W        W 8773   8.597   3.384   2.366
 5255W        W 8774   1.393   6.966   1.131
 5256W        W 8775   9.194   4.215   2.006
 5257W        W 8776   1.208   3.078   1.698
 5258W        W 8777   4.177   9.404   9.041
 5259W        W 8778   8.309   7.509   1.273
 5260W        W 8779   3.454   8.185   9.317
 5261W        W 8780   3.038   5.814   8.353
 5262W        W 8781   5.406   6.640   4.095
 5263W        W 8782   6.781   4.039  11.853
 5264W        W 8783   0.836   7.073   1.829
 5265W        W 8784   7.677   5.631   0.441
 5266W        W 8785   2.161   0.907   0.040
 5267W        W 8786   0.049   2.856  10.845
 5268W        W 8787   8.640   9.418   8.834
 5269W        W 8788   5.946   4.038   2.069
 5270W        W 8789   7.623   6.524   0.598
 5271W        W 8790   2.723   7.725   2.676
 5272W        W 8791   5.706   9.383   2.125
 5273W        W 8792   1.222   6.016  10.049
 5274W        W 8793   1.189   6.711  11.808
 5275W        W 8794   3.290   6.692   8.861
 5276W        W 8795   2.690   5.675   2.737
 5277W        W 8796   3.470   7.912   8.760
 5278W        W 8797   8.082   5.657  10.966
 5279W        W 8798   9.351   6.212   9.210
 5280W        W 8799   4.950   1.837   0.235
 5281W        W 8800   7.682   7.327   2.808
 5282W        W 8801   2.695   4.254  11.894
 5283W        W 8802   8.777   3.880   2.628
 5284W        W 8803   4.953   9.219  11.011
 5285W        W 8804   0.255   8.542   3.120
 5286W        W 8805   6.473   4.133   2.129
 5287W        W 8806   4.032   4.357  11.506
 5288W        W 8807   1.416   9.728   1.782
 5289W        W 8808   8.372   3.037   2.656
 5290W        W 8809   3.322   1.871   1.683
 5291W        W 8810   8.508   3.234   8.400
 5292W        W 8811   8.429   4.420   1.860
 5293W        W 8812   7.551   6.409   8.694
 5294W        W 8813   0.731   4.516   1.405
 5295W        W 8814   1.148   8.026  10.200
 5296W        W 8815   2.254   2.934  10.933
 5297W        W 8816   4.289   3.652  11.090
 5298W        W 8817   3.524   0.105   0.171
 5299W        W 8818   5.166   4.101  11.090
 5300W        W 8819   4.518   1.360  11.551
 5301W        W 8820   9.140   2.283   9.708
 5302W        W 8821   1.808   6.231   8.940
 5303W        W 8822   5.495   3.332   9.847
 5304W        W 8823   6.646   2.705  10.962
 5305W        W 8824   6.060   4.950   0.447
 5306W        W 8825   3.203   1.207   3.098
 5307W        W 8826   4.992   8.548   9.529
 5308W        W 8827   0.716   1.672  10.311
 5309W        W 8828   8.857   3.240   0.441
 5310W        W 8829   8.089   9.763   2.800
 5311W        W 8830   9.885   3.376  10.968
 5312W        W 8831   0.008   8.822   1.510
 5313W        W 8832   1.171   8.016  10.726
 5314W        W 8833   0.850   8.406  11.110
 5315W        W 8834   3.670   0.016   1.983
 5316W        W 8835   3.216   1.999  10.892
 5317W        W 8836   4.082   0.900   9.017
 5318W        W 8837   0.039   1.015  10.482
 5319W        W 8838   4.080   5.813  10.324
 5320W        W 8839   9.735   6.979   1.466
 5321W        W 8840   4.322   1.163   0.469
 5322W        W 8841   1.610   7.227  11.239
 5323W        W 8842   8.380   0.250   2.264
 5324W        W 8843   6.142   6.419   0.424
 5325W        W 8844   9.019   2.166   1.772
 5326W        W 8845   8.205   1.949  11.760
 5327W        W 8846   4.991   4.334  11.531
 5328W        W 8847   0.283   2.351   0.311
 5329W        W 8848   2.041   2.094   3.670
 5330W        W 8849   4.755   5.548   9.646
 5331W        W 8850   3.713   9.524   1.524
 5332W        W 8851   9.201   1.869  11.892
 5333W        W 8852   4.016   6.264   4.333
 5334W        W 8853   2.671   7.514   0.211
 5335W        W 8854   1.388   0.850  11.373
 5336W        W 8855   2.703   2.936  11.247
 5337W        W 8856   2.606   7.969   9.374
 5338W        W 8857   2.189   3.465  11.895
 5339W        W 8858   9.147   7.434  11.999
 5340W        W 8859   4.588   3.167  11.664
 5341W        W 8860   3.602   7.415   0.047
 5342W        W 8861   8.111   7.583  10.708
 5343W        W 8862   8.674   6.506  10.130
 5344W        W 8863   3.951   5.767   4.235
 5345W        W 8864   1.008   9.319   9.001
 5346W        W 8865   0.839   2.588  11.118
 5347W        W 8866   4.189   6.334  11.654
 5348W        W 8867   5.090   8.804   2.227
 5349W        W 8868   6.266   4.569   8.664
 5350W        W 8869   1.743   6.671  10.371
 5351W        W 8870   6.772   8.454   0.907
 5352W        W 8871   4.607   8.407  11.877
 5353W        W 8872   8.914   4.610   1.807
 5354W        W 8873   2.347   0.815   1.730
 5355W        W 8874   4.597   5.463   9.151
 5356W        W 8875   8.394   5.823   0.715
 5357W        W 8876   2.440   0.339  11.292
 5358W        W 8877   5.745   6.850   8.234
 5359W        W 8878   7.937   9.082   3.471
 5360W        W 8879   8.967   6.669  10.839
 5361W        W 8880   5.653   2.706  10.845
 5362W        W 8881   6.546   6.561  10.569
 5363W        W 8882   3.315   7.559  10.688
 5364W        W 8883   3.199   4.341   2.399
 5365W        W 8884   7.386   9.733   3.208
 5366W        W 8885   8.546   2.334  11.743
 5367W        W 8886   8.939   1.754   9.789
 5368W        W 8887   3.507   5.002   8.623
 5369W        W 8888   2.283   2.618   9.973
 5370W        W 8889   0.895   7.599   3.512
 5371W        W 8890   8.423   0.962   2.845
 5372W        W 8891   2.973   9.965   0.997
 5373W        W 8892   1.903   0.472   9.985
 5374W        W 8893   1.254   4.645   2.400
 5375W        W 8894   5.972   3.185  11.799
 5376W        W 8895   4.900   6.480   4.169
 5377W        W 8896   5.969   2.260   0.864
 5378W        W 8897   7.532   3.537   3.030
 5379W        W 8898   2.669   2.922   1.006
 5380W        W 8899   1.460   0.700   1.849
 5381W        W 8900   2.516   1.030   0.380
 5382W        W 8901   3.246   1.499   8.884
 5383W        W 8902   1.801   4.766   9.962
 5384W        W 8903   0.040   1.712  11.744
 5385W        W 8904   6.134   6.004  10.747
 5386W        W 8905   8.227   8.571  11.406
 5387W        W 8906   1.461   0.851  10.850
 5388W        W 8907   6.854   9.033   0.395
 5389W        W 8908   0.105   4.804  11.419
 5390W        W 8909   0.441   5.891  11.315
 5391W        W 8910   2.563   1.310   1.920
 5392W        W 8911   6.674   6.422  10.075
 5393W        W 8912   6.719   3.888   0.817
 5394W        W 8913   6.745   5.086   3.579
 5395W        W 8914   6.663   9.848  10.993
 5396W        W 8915   4.492   5.800   8.775
 5397W        W 8916   2.234   5.646   2.411
 5398W        W 8917   7.025   0.719   9.511
 5399W        W 8918   0.329   3.311   2.762
 5400W        W 8919   6.501   2.225   8.668
 5401W        W 8920   6.966   6.235   0.956
 5402W        W 8921   6.183   1.875  10.281
 5403W        W 8922   9.366   9.225   0.023
 5404W        W 8923   6.778   5.915  10.214
 5405W        W 8924   2.212   4.272  10.029
 5406W        W 8925   6.687   5.797   0.824
 5407W        W 8926   8.929   5.993  11.458
 5408W        W 8927   6.548   8.037   3.000
 5409W        W 8928   6.487   0.664   1.295
 5410W        W 8929   2.956   3.266  10.941
 5411W        W 8930   2.319   9.259  10.904
 5412W        W 8931   1.268   6.217   0.626
 5413W        W 8932   7.760   2.640   3.412
 5414W        W 8933   1.728   3.229   2.375
 5415W        W 8934   1.696   1.240   2.235
 5416W        W 8935   5.566   4.464   1.115
 5417W        W 8936   2.039   6.449  11.934
 5418W        W 8937   0.890   8.852   9.186
 5419W        W 8938   8.032   5.620   9.940
 5420W        W 8939   6.958   8.244   8.573
 5421W        W 8940   5.342   1.047  11.558
 5422W        W 8941   5.024   1.701   9.947
 5423W        W 8942   9.448   1.430   2.710
 5424W        W 8943   5.957   0.506  10.374
 5425W        W 8944   8.444   9.732   2.398
 5426W        W 8945   1.198   2.511   3.331
 5427W        W 8946   9.462   6.517  10.816
 5428W        W 8947   6.063   7.967  11.216
 5429W        W 8948   2.290   7.953   2.828
 5430W        W 8949   1.308   1.290   9.113
 5431W        W 8950   5.279   1.979   9.583
 5432W        W 8951   5.702   8.069   9.383
 5433W        W 8952   6.435   2.052   3.096
 5434W        W 8953   1.178   8.960   2.579
 5435W        W 8954   3.532   4.992   3.418
 5436W        W 8955   2.644   6.350   2.644
 5437W        W 8956   9.026   4.180   9.588
 5438W        W 8957   3.377   4.736  10.200
 5439W        W 8958   2.651   9.202   2.372
 5440W        W 8959   2.257   2.180   9.592
 5441W        W 8960   2.713   7.422   0.700
 5442W        W 8961   0.247   1.758   8.894
 5443W        W 8962   5.415   1.465   2.717
 5444W        W 8963   9.201   1.811   1.023
 5445W        W 8964   5.445   1.815   0.304
 5446W        W 8965   6.138   2.329  10.535
 5447W        W 8966   1.536   8.322   9.186
 5448W        W 8967   9.180   6.643   0.695
 5449W        W 8968   9.945   4.780   8.748
 5450W        W 8969   1.866   4.640   9.128
 5451W        W 8970   9.458   2.224   0.266
 5452W        W 8971   0.585   4.662  11.416
 5453W        W 8972   7.770   9.251   1.274
 5454W        W 8973   6.539   1.306  11.016
 5455W        W 8974   0.132   2.862   9.581
 5456W        W 8975   4.619   6.381   8.124
 5457W        W 8976   2.851   6.829  10.226
 5458W        W 8977   3.212   8.753   0.469
 5459W        W 8978   3.610   7.108   2.034
 5460W        W 8979   8.010   4.168   9.714
 5461W        W 8980   2.148   8.326   1.740
 5462W        W 8981   9.318   4.593   3.471
 5463W        W 8982   0.004   3.235   9.904
 5464W        W 8983   2.671   7.168   1.139
 5465W        W 8984   0.028   4.263   0.150
 5466W        W 8985   4.349   5.443  11.739
 5467W        W 8986   8.918   4.623  11.541
 5468W        W 8987   9.676   6.598   3.286
 5469W        W 8988   4.677   3.396   2.417
 5470W        W 8989   2.273   2.792   1.821
 5471W        W 8990   1.887   9.165   0.589
 5472W        W 8991   9.095   1.720  11.404
 5473W        W 8992   5.510   5.979   0.878
 5474W        W 8993   9.828   2.512   0.679
 5475W        W 8994   9.775   5.787   8.643
 5476W        W 8995   9.956   1.113   1.792
 5477W        W 8996   0.362   1.386  10.531
 5478W        W 8997   7.665   7.553  11.660
 5479W        W 8998   2.638   8.473   1.493
 5480W        W 8999   3.973   1.346   2.111
 5481W        W 9000   6.078   8.067  10.208
 5482W        W 9001   1.193   5.174   2.187
 5483W        W 9002   7.094   1.518   9.758
 5484W        W 9003   9.933   4.256   0.780
 5485W        W 9004   1.172   4.033  10.023
 5486W        W 9005   9.875   2.237   2.651
 5487W        W 9006   5.264   5.202   9.622
 5488W        W 9007   6.053   7.935   1.478
 5489W        W 9008   8.121   5.926   0.282
 5490W        W 9009   8.966   0.887   2.041
 5491W        W 9010   4.114   8.841   9.811
 5492W        W 9011   9.498   8.394   3.671
 5493W        W 9012   9.822   1.301  11.981
 5494W        W 9013   2.054   6.492   0.859
 5495W        W 9014   5.522   4.428   8.924
 5496W        W 9015   5.120   0.173  10.042
 5497W        W 9016   9.491   3.585   2.143
 5498W        W 9017   0.880   5.631   1.788
 5499W        W 9018   8.982   7.547   3.173
 5500W        W 9019   5.737   1.827  11.240
 5501W        W 9020   0.738   2.414   1.460
 5502W        W 9021   6.122   5.737   9.573
 5503W        W 9022   5.945   1.489   8.953
 5504W        W 9023   9.856   0.867   2.787
 5505W        W 9024   6.477   3.527   8.757
 5506W        W 9025   9.307   4.362   3.920
 5507W        W 9026   8.894   7.979   9.200
 5508W        W 9027   7.088   0.958   0.290
 5509W        W 9028   3.767   9.453   3.134
 5510W        W 9029   9.947   8.144   8.587
 5511W        W 9030   1.114   7.491   2.504
 5512W        W 9031   5.160   1.878   3.358
 5513W        W 9032   8.491   7.065   3.538
 5514W        W 9033   3.135   4.405  11.539
 5515W        W 9034   4.500   3.826   0.204
 5516W        W 9035   7.469   1.350   1.980
 5517W        W 9036   0.357   5.211   8.793
 5518W        W 9037   7.384   5.697  11.959
 5519W        W 9038   9.033   0.412  11.023
 5520W        W 9039   9.005   5.821   1.459
 5521W        W 9040   3.481   1.941   0.386
 5522W        W 9041   8.346   7.080   0.534
 5523W        W 9042   4.171   7.931  10.464
 5524W        W 9043   0.019   2.229   9.997
 5525W        W 9044   8.181   0.565  10.868
 5526W        W 9045   5.211   8.708   0.757
 5527W        W 9046   7.099   1.650   0.756
 5528W        W 9047   7.860   1.139   1.693
 5529W        W 9048   6.375   4.642  10.342
 5530W        W 9049   6.934   6.314   9.308
 5531W        W 9050   0.178   7.326  10.652
 5532W        W 9051   4.154   7.328   1.450
 5533W        W 9052   9.658   2.838  10.534
 5534W        W 9053   9.755   4.869   3.576
 5535W        W 9054   9.505   5.198  10.919
 5536W        W 9055   5.285   4.475  11.923
 5537W        W 9056   8.375   9.812  11.669
 5538W        W 9057   5.240   9.734   0.840
 5539W        W 9058   0.397   9.956   8.949
 5540W        W 9059   3.730   9.737   8.434
 5541W        W 9060   6.694   4.278   8.535
 5542W        W 9061   1.520   9.376   8.761
 5543W        W 9062   6.031   5.175  11.827
 5544W        W 9063   7.743   1.598  11.167
 5545W        W 9064   7.566   5.383   9.707
 5546W        W 9065   3.469   2.523  11.422
 5547W        W 9066   7.807   8.424   1.260
 5548W        W 9067   6.104   4.217   2.541
 5549W        W 9068   4.106   7.030   1.885
 5550W        W 9069   9.347   3.875   9.827
 5551W        W 9070   5.347   0.273  10.865
 5552W        W 9071   6.633   4.689   2.223
 5553W        W 9072   5.941   8.572   2.539
 5554W        W 9073   2.390   5.736   0.449
 5555W        W 9074   5.786   4.316  11.919
 5556W        W 9075   4.183   0.863  10.077
 5557W        W 9076   3.605   4.674   3.020
 5558W        W 9077   7.315   0.860   9.003
 5559W        W 9078   5.318   8.949   9.604
 5560W        W 9079   1.388   9.899   2.958
 5561W        W 9080   0.129   4.583   9.616
 5562W        W 9081   3.609   6.498   8.357
 5563W        W 9082   2.239   5.167  10.008
 5564W        W 9083   4.370   6.084   1.290
 5565W        W 9084   3.223   7.876   1.424
 5566W        W 9085   6.411   6.347   1.848
 5567W        W 9086   2.470   4.845   0.965
 5568W        W 9087   8.804   5.383   1.623
 5569W        W 9088   7.135   9.727   1.128
 5570W        W 9089   2.379   2.303  10.583
 5571W        W 9090   7.490   8.632   9.037
 5572W        W 9091   2.910   3.144  11.935
 5573W        W 9092   4.385   4.852   0.822
 5574W        W 9093   6.462   0.389  11.769
 5575W        W 9094   3.909   8.519   1.103
 5576W        W 9095   2.478   5.495   3.561
 5577W        W 9096   6.493   8.930   1.995
 5578W        W 9097   1.054   1.162   3.477
 5579W        W 9098   8.682   2.820  10.524
 5580W        W 9099   3.641   4.924   1.242
 5581W        W 9100   7.333   5.190  10.897
 5582W        W 9101   7.426   3.524  11.429
 5583W        W 9102   2.129   3.275   1.815
 5584W        W 9103   3.214   3.652   1.540
 5585W        W 9104   4.378   1.109  11.957
 5586W        W 9105   7.117   7.297  10.417
 5587W        W 9106   0.843   3.484  10.108
 5588W        W 9107   8.037   7.253   3.382
 5589W        W 9108   0.780   2.058   2.689
 5590W        W 9109   4.047   9.390   0.085
 5591W        W 9110   7.650   6.446   9.905
 5592W        W 9111   8.202   5.150  11.010
 5593W        W 9112   4.482   5.383   0.807
 5594W        W 9113   7.898   2.091   9.929
 5595W        W 9114   3.200   5.409   1.952
 5596W        W 9115   4.206   0.485   3.246
 5597W        W 9116   7.648   2.155   3.529
 5598W        W 9117   8.035   0.234   3.048
 5599W        W 9118   7.316   0.303   9.693
 5600W        W 9119   8.841   3.503   1.551
 5601W        W 9120   8.386   1.231   9.046
 5602W        W 9121   4.799   5.744   0.601
 5603W        W 9122   5.759   3.720   1.701
 5604W        W 9123   9.425   3.300  10.624
 5605W        W 9124   6.513   2.590   9.018
 5606W        W 9125   1.440   7.643  10.970
 5607W        W 9126   4.814   4.861  11.122
 5608W        W 9127   4.276   9.028  11.817
 5609W        W 9128   9.413   2.856   1.977
 5610W        W 9129   5.491   5.377   1.513
 5611W        W 9130   2.740   5.696   0.879
 5612W        W 9131   1.169   2.824   9.468
 5613W        W 9132   4.609   4.996  11.577
 5614W        W 9133   5.560   9.355   2.618
 5615W        W 9134   9.019   8.664   9.920
 5616W        W 9135   3.712   1.754  11.911
 5617W        W 9136   6.979   3.877   1.283
 5618W        W 9137   4.693   8.568   3.126
 5619W        W 9138   6.597   1.160   1.273
 5620W        W 9139   5.291   8.349   9.159
 5621W        W 9140   6.115   2.829   9.234
 5622W        W 9141   9.263   6.730   9.257
 5623W        W 9142   3.117   8.501   2.093
 5624W        W 9143   7.057   1.802   2.318
 5625W        W 9144   5.687   7.029  11.471
 5626W        W 9145   5.885   8.650   1.947
 5627W        W 9146   7.606   8.904   0.908
 5628W        W 9147   6.048   8.387   3.507
 5629W        W 9148   5.915   8.484   9.947
 5630W        W 9149   1.748   3.570   9.067
 5631W        W 9150   9.066   1.785   3.065
 5632W        W 9151   1.047   2.034   3.685
 5633W        W 9152   9.042   0.819  11.373
 5634W        W 9153   0.964   3.781  11.813
 5635W        W 9154   7.289   0.358  10.622
 5636W        W 9155   2.344   8.782   1.766
 5637W        W 9156   5.791   6.065   8.711
 5638W        W 9157   1.143   9.804   2.263
 5639W        W 9158   7.280   8.151   8.987
 5640W        W 9159   4.252   7.527   8.734
 5641W        W 9160   9.051   8.937   1.457
 5642W        W 9161   0.291   5.174   1.166
 5643W        W 9162   0.509   9.799  10.069
 5644W        W 9163   5.182   3.557  11.073
 5645W        W 9164   0.859   4.399   2.643
 5646W        W 9165   1.898   2.162  10.441
 5647W        W 9166   7.114   5.118   9.819
 5648W        W 9167   1.341   7.057   3.089
 5649W        W 9168   2.854   4.541   3.771
 5650W        W 9169   5.965   3.666  10.449
 5651W        W 9170   7.380   4.742  10.654
 5652W        W 9171   7.940   3.069  10.780
 5653W        W 9172   1.308   0.893   8.564
 5654W        W 9173   6.716   8.820   9.583
 5655W        W 9174   6.717   7.730  11.840
 5656W        W 9175   3.798   2.384   3.176
 5657W        W 9176   4.055   0.354  10.163
 5658W        W 9177   2.133   2.311   1.812
 5659W        W 9178   1.740   2.271   9.403
 5660W        W 9179   4.631   5.590   3.195
 5661W        W 9180   3.047   0.870   2.244
 5662W        W 9181   6.949   9.094  10.982
 5663W        W 9182   4.912   2.868   1.333
 5664W        W 9183   1.859   6.760   3.887
 5665W        W 9184   3.371   2.562   9.274
 5666W        W 9185   5.038   9.525   0.418
 5667W        W 9186   1.350   1.777   9.801
 5668W        W 9187   4.481   4.955   9.018
 5669W        W 9188   1.640   9.974  11.381
 5670W        W 9189   0.532   4.212   0.330
 5671W        W 9190   7.272   9.301   1.368
 5672W        W 9191   9.869   2.604   9.226
 5673W        W 9192   0.834   5.848   1.319
 5674W        W 9193   1.426   9.336   0.396
 5675W        W 9194   0.131   6.417   0.817
 5676W        W 9195   9.387   8.326   2.982
 5677W        W 9196   3.771   2.877   2.918
 5678W        W 9197   1.092   6.503   1.016
 5679W        W 9198   9.329   8.214   8.781
 5680W        W 9199   3.755   2.777   1.888
 5681W        W 9200   5.444   4.153   0.296
 5682W        W 9201   7.901   8.321   8.947
 5683W        W 9202   9.436   6.684   9.733
 5684W        W 9203   1.726   1.693  10.629
 5685W        W 9204   2.948   4.793   1.166
 5686W        W 9205   0.759   7.568   1.694
 5687W        W 9206   9.567   4.395   2.356
 5688W        W 9207   3.758   4.541   3.489
 5689W        W 9208   8.077   3.724   0.448
 5690W        W 9209   5.187   7.758   0.518
 5691W        W 9210   5.145   7.820   4.365
 5692W        W 9211   5.248   3.842  10.656
 5693W        W 9212   6.216   7.292   2.105
 5694W        W 9213   7.767   0.396   1.537
 5695W        W 9214   0.872   6.186   2.427
 5696W        W 9215   6.812   4.418   0.847
 5697W        W 9216   3.353   4.528   1.486
 5698W        W 9217   9.423   0.130   1.763
 5699W        W 9218   2.730   5.998   9.785
 5700W        W 9219   2.713   4.639   3.289
 5701W        W 9220   9.703   8.877  10.811
 5702W        W 9221   0.804   5.824   9.796
 5703W        W 9222   5.159   5.676  10.636
 5704W        W 9223   5.239   5.699   9.801
 5705W        W 9224   6.651   5.720   0.333
 5706W        W 9225   1.535   4.796  10.466
 5707W        W 9226   6.929   2.603   1.898
 5708W        W 9227   1.117   9.582   1.383
 5709W        W 9228   7.528   0.511   2.390
 5710W        W 9229   1.754   8.549  11.264
 5711W        W 9230   1.382   9.534  11.375
 5712W        W 9231   7.819   0.538   9.036
 5713W        W 9232   1.867   9.571   0.903
 5714W        W 9233   6.047   5.304   2.440
 5715W        W 9234   1.965   0.883   8.475
 5716W        W 9235   1.734   1.741  11.574
 5717W        W 9236   4.264   9.482   3.253
 5718W        W 9237   2.481   1.253  10.455
 5719W        W 9238   3.180   5.247   1.195
 5720W        W 9239   5.920   9.016   2.747
 5721W        W 9240   6.648   6.248   1.381
 5722W        W 9241   1.914   3.070  10.438
 5723W        W 9242   2.255   8.989   9.288
 5724W        W 9243   5.044   9.371   9.091
 5725W        W 9244   6.160   9.841   9.988
 5726W        W 9245   7.084   6.090   2.803
 5727W        W 9246   2.881   4.609   1.641
 5728W        W 9247   5.987   5.066  11.170
 5729W        W 9248   3.232   2.793   1.864
 5730W        W 9249   0.539   6.944   8.731
 5731W        W 9250   7.139   3.995   0.208
 5732W        W 9251   5.122   6.164  11.552
 5733W        W 9252   7.133   8.472   9.422
 5734W        W 9253   9.781   9.834   9.772
 5735W        W 9254   7.561   6.328  11.288
 5736W        W 9255   1.971   0.569   3.249
 5737W        W 9256   8.785   7.588  10.708
 5738W        W 9257   3.261   6.319   0.163
 5739W        W 9258   1.281   6.010   9.120
 5740W        W 9259   5.515   9.380  11.184
 5741W        W 9260   1.552   1.387   9.556
 5742W        W 9261   0.400   6.500   8.504
 5743W        W 9262   9.520   4.014   1.052
 5744W        W 9263   3.298   6.893   1.679
 5745W        W 9264   5.079   3.123   3.005
 5746W        W 9265   5.022   0.468  10.487
 5747W        W 9266   8.300   2.667   3.356
 5748W        W 9267   3.215   6.391  11.283
 5749W        W 9268   3.167   6.001   3.214
 5750W        W 9269   4.946   3.268   9.076
 5751W        W 9270   3.644   4.050   9.585
 5752W        W 9271   7.944   0.999  11.062
 5753W        W 9272   6.958   9.473   8.846
 5754W        W 9273   6.481   0.826   9.598
 5755W        W 9274   8.892   0.818   9.949
 5756W        W 9275   6.158   7.220   9.572
 5757W        W 9276   6.205   1.504   1.326
 5758W        W 9277   8.483   3.991   0.195
 5759W        W 9278   3.515   8.023  10.805
 5760W        W 9279   3.187   6.930   3.058
 5761W        W 9280   1.319   4.174   3.242
 5762W        W 9281   1.756   4.113   2.937
 5763W        W 9282   2.734   5.505  10.487
 5764W        W 9283   1.380   7.847   1.757
 5765W        W 9284   4.650   2.251   0.127
 5766W        W 9285   7.517   1.414   0.958
 5767W        W 9286   3.600   8.338   2.250
 5768W        W 9287   5.398   0.238   2.200
 5769W        W 9288   2.697   8.223   2.519
 5770W        W 9289   7.656   6.953   8.557
 5771W        W 9290   6.756   2.159   3.462
 5772W        W 9291   1.283   8.499  11.469
 5773W        W 9292   2.548   7.621   1.388
 5774W        W 9293   2.733   8.827  10.951
 5775W        W 9294   9.628   5.929   2.093
 5776W        W 9295   5.932   1.394   2.822
 5777W        W 9296   5.875   8.416   1.471
 5778W        W 9297   0.448   6.796   1.301
 5779W        W 9298   3.915   0.205   9.549
 5780W        W 9299   4.294   6.216   2.253
 5781W        W 9300   9.960   6.398   0.243
 5782W        W 9301   4.661   8.232   9.937
 5783W        W 9302   9.052   9.426  11.067
 5784W        W 9303   2.324   3.647   9.892
 5785W        W 9304   3.373   5.483   3.279
 5786W        W 9305   4.692   8.132   9.446
 5787W        W 9306   6.802   5.126   1.326
 5788W        W 9307   4.277   5.955   9.867
 5789W        W 9308   8.352   5.318  11.772
 5790W        W 9309   5.698   8.856  11.578
 5791W        W 9310   2.768   0.946  10.103
 5792W        W 9311   9.134   6.493   8.815
 5793W        W 9312   6.682   6.237   0.377
 5794W        W 9313   6.438   1.631   3.424
 5795W        W 9314   4.210   4.771   0.349
 5796W        W 9315   7.034   8.850   3.327
 5797W        W 9316   6.459   6.079   9.325
 5798W        W 9317   4.910   2.625   3.713
 5799W        W 9318   6.640   8.019   1.491
 5800W        W 9319   0.177   4.677  10.942
 5801W        W 9320   0.304   4.188  10.008
 5802W        W 9321   4.577   1.406  11.038
 5803W        W 9322   3.553   8.577  11.507
 5804W        W 9323   5.613   2.445  11.886
 5805W        W 9324   5.647   6.402   9.062
 5806W        W 9325   5.517   3.914   1.153
 5807W        W 9326   4.805   4.178   2.767
 5808W        W 9327   0.931   0.158   0.457
 5809W        W 9328   4.516   5.952   2.711
 5810W        W 9329   4.483   3.571   1.210
 5811W        W 9330   0.911   9.466  10.071
 5812W        W 9331   9.359   9.697   2.675
 5813W        W 9332   1.425   0.662   9.897
 5814W        W 9333   3.208   9.967  10.262
 5815W        W 9334   9.475   8.449  11.278
 5816W        W 9335   7.059   3.312  10.763
 5817W        W 9336   9.836   6.101   3.352
 5818W        W 9337   8.337   1.621   2.107
 5819W        W 9338   4.214   1.539   0.140
 5820W        W 9339   3.727   7.491   8.792
 5821W        W 9340   1.270   1.670  10.305
 5822W        W 9341   9.255   3.979   2.446
 5823W        W 9342   7.272   5.275   1.204
 5824W        W 9343   5.393   2.629   3.911
 5825W        W 9344   7.143   6.739  11.881
 5826W        W 9345   2.666   9.904   9.453
 5827W        W 9346   4.651   2.600   2.788
 5828W        W 9347   6.965   3.149  11.752
 5829W        W 9348   1.804   3.738   1.257
 5830W        W 9349   0.866   6.252   2.987
 5831W        W 9350   4.101   9.070   1.971
 5832W        W 9351   6.288   9.967   9.145
 5833W        W 9352   9.732   3.747   9.488
 5834W        W 9353   2.602   8.359   2.009
 5835W        W 9354   3.984   8.994  10.252
 5836W        W 9355   4.163   6.915   2.721
 5837W        W 9356   3.098   4.163  11.082
 5838W        W 9357   0.329   3.138   1.746
 5839W        W 9358   1.784   8.083   3.938
 5840W        W 9359   1.001   2.943  10.012
 5841W        W 9360   7.063   3.192  11.246
 5842W        W 9361   0.866   5.980   0.353
 5843W        W 9362   3.121   3.831   0.374
 5844W        W 9363   0.943   1.096  11.265
 5845W        W 9364   0.883   7.033  10.865
 5846W        W 9365   6.730   6.998  11.326
 5847W        W 9366   6.542   3.342  11.441
 5848W        W 9367   3.459   2.593   2.261
 5849W        W 9368   9.074   4.373   3.061
 5850W        W 9369   8.444   7.415  11.071
 5851W        W 9370   8.243   8.863  10.951
 5852W        W 9371   0.199   8.930  10.788
 5853W        W 9372   4.722   3.485  11.289
 5854W        W 9373   3.782   7.092   9.954
 5855W        W 9374   3.784   5.908  11.256
 5856W        W 9375   5.682   5.979  11.596
 5857W        W 9376   1.233   8.855  11.847
 5858W        W 9377   1.269   1.910  11.512
 5859W        W 9378   2.862   7.115   9.755
 5860W        W 9379   4.741   4.213   3.645
 5861W        W 9380   6.058   9.497   2.514
 5862W        W 9381   8.976   4.108  11.560
 5863W        W 9382   3.483   2.732   9.810
 5864W        W 9383   7.977   3.521   3.346
 5865W        W 9384   0.921   7.716   9.641
 5866W        W 9385   4.736   1.958  10.349
 5867W        W 9386   8.649   6.728   2.813
 5868W        W 9387   3.108   0.624   1.395
 5869W        W 9388   4.601   2.865   9.940
 5870W        W 9389   5.064   0.682  10.009
 5871W        W 9390   7.410   6.791  11.100
 5872W        W 9391   4.438   8.209   1.882
 5873W        W 9392   9.892   6.661  11.785
 5874W        W 9393   1.399   1.689   8.788
 5875W        W 9394   4.266   6.554   8.656
 5876W        W 9395   9.109   3.987   3.581
 5877W        W 9396   2.755   2.655   1.834
 5878W        W 9397   0.802   2.532   2.999
 5879W        W 9398   6.020   3.255   2.948
 5880W        W 9399   6.902   6.864   8.895
 5881W        W 9400   9.906   5.900   9.496
 5882W        W 9401   7.421   8.012   9.999
 5883W        W 9402   9.966   2.034   3.729
 5884W        W 9403   0.300   7.433  10.161
 5885W        W 9404   4.629   6.220  11.343
 5886W        W 9405   4.088   3.577   0.846
 5887W        W 9406   3.084   0.416  10.642
 5888W        W 9407   6.787   1.212   9.453
 5889W        W 9408   5.308   2.312   3.537
 5890W        W 9409   5.645   4.772   0.140
 5891W        W 9410   1.828   9.993  10.172
 5892W        W 9411   5.138   4.556   2.573
 5893W        W 9412   7.320   2.651   9.066
 5894W        W 9413   2.853   0.425   2.993
 5895W        W 9414   0.221   8.994   2.360
 5896W        W 9415   7.929   6.893   1.263
 5897W        W 9416   0.845   1.368   2.169
 5898W        W 9417   0.927   8.440  11.834
 5899W        W 9418   7.288   1.183  11.511
 5900W        W 9419   9.139   6.545  10.368
 5901W        W 9420   2.637   9.734   2.297
 5902W        W 9421   2.608   3.165   1.954
 5903W        W 9422   7.141   5.650   9.901
 5904W        W 9423   3.872   4.730   0.811
 5905W        W 9424   2.412   0.622   9.812
 5906W        W 9425   0.442   0.823   9.340
 5907W        W 9426   0.849   1.219   1.280
 5908W        W 9427   3.974   9.505   9.501
 5909W        W 9428   7.524   8.175   0.259
 5910W        W 9429   2.355   5.109  11.051
 5911W        W 9430   0.144   0.620   8.158
 5912W        W 9431   9.878   2.735  10.058
 5913W        W 9432   6.491   5.480   1.682
 5914W        W 9433   5.012   1.581   9.412
 5915W        W 9434   1.334   0.462   0.563
 5916W        W 9435   0.023   1.566   9.337
 5917W        W 9436   0.623   6.518   9.028
 5918W        W 9437   5.105   4.839  11.588
 5919W        W 9438   7.194   4.845   1.493
 5920W        W 9439   6.540   8.564   8.626
 5921W        W 9440   8.145   2.370   9.558
 5922W        W 9441   1.642   7.165  10.382
 5923W        W 9442   6.245   9.452   2.017
 5924W        W 9443   3.111   8.859   8.755
 5925W        W 9444   5.577   7.938   1.301
 5926W        W 9445   5.753   4.123   0.728
 5927W        W 9446   2.788   9.560   2.767
 5928W        W 9447   1.237   5.954   1.601
 5929W        W 9448   1.867   3.293   0.870
 5930W        W 9449   8.647   6.243   2.924
 5931W        W 9450   3.408   5.249   9.975
 5932W        W 9451   8.842   6.191   9.121
 5933W        W 9452   8.087   4.630   9.193
 5934W        W 9453   8.859   2.763   0.224
 5935W        W 9454   6.226   2.119   3.559
 5936W        W 9455   0.555   5.194  10.122
 5937W        W 9456   3.616   8.777   8.622
 5938W        W 9457   5.524   5.338   2.109
 5939W        W 9458   1.774   4.207   3.554
 5940W        W 9459   9.566   6.994   0.756
 5941W        W 9460   1.355   9.478   0.926
 5942W        W 9461   7.680   5.586   0.960
 5943W        W 9462   0.777   3.274   1.413
 5944W        W 9463   9.186   9.661   3.412
 5945W        W 9464   1.342   7.026   2.581
 5946W        W 9465   2.960   4.202   3.007
 5947W        W 9466   3.532   2.930   8.859
 5948W        W 9467   5.285   1.259   1.408
 5949W        W 9468   4.479   0.221   0.359
 5950W        W 9469   2.222   5.653   3.059
 5951W        W 9470   9.019   8.414   3.326
 5952W        W 9471   6.210   9.094  11.674
 5953W        W 9472   7.155   8.672   1.935
 5954W        W 9473   1.371   4.757   1.912
 5955W        W 9474   3.216   7.073  11.911
 5956W        W 9475   5.969   2.277  10.008
 5957W        W 9476   3.030   7.410   1.413
 5958W        W 9477   1.828   6.588   0.426
 5959W        W 9478   4.216   2.149   3.385
 5960W        W 9479   1.069   0.752   1.426
 5961W        W 9480   8.291   0.654  11.987
 5962W        W 9481   4.030   5.082  11.928
 5963W        W 9482   2.679   5.729   9.316
 5964W        W 9483   4.694   4.413   0.732
 5965W        W 9484   5.740   6.292   1.633
 5966W        W 9485   7.496   0.997   2.817
 5967W        W 9486   1.645   7.381   8.750
 5968W        W 9487   1.901   9.115  11.275
 5969W        W 9488   8.487   8.014   0.582
 5970W        W 9489   3.751   6.184   3.387
 5971W        W 9490   6.703   2.850   0.600
 5972W        W 9491   5.645   2.641   2.379
 5973W        W 9492   4.413   2.762   9.063
 5974W        W 9493   6.572   8.384   3.412
 5975W        W 9494   4.134   6.642   0.075
 5976W        W 9495   3.338   5.705   8.749
 5977W        W 9496   2.636   1.820   9.622
 5978W        W 9497   0.348   2.247   2.924
 5979W        W 9498   5.145   1.934   9.046
 5980W        W 9499   1.870   7.605  10.286
 5981W        W 9500   0.023   1.624   2.137
 5982W        W 9501   3.300   9.912   8.700
 5983W        W 9502   5.886   4.159   9.571
 5984W        W 9503   1.977   6.411   3.525
 5985W        W 9504   5.322   1.525   1.892
 5986W        W 9505   4.601   1.765  11.869
 5987W        W 9506   8.577   0.889   9.385
 5988W        W 9507   0.637   9.154  10.979
 5989W        W 9508   2.743   2.173  10.950
 5990W        W 9509   9.167   4.835  10.727
 5991W        W 9510   4.993   7.855  10.665
 5992W        W 9511   9.399   5.550  10.518
 5993W        W 9512   0.727   3.101  10.428
 5994W        W 9513   5.552   1.675   9.222
 5995W        W 9514   3.217   8.636  11.105
 5996W        W 9515   1.509   4.953  10.949
 5997W        W 9516   9.729   6.140  11.831
 5998W        W 9517   4.918   7.323   3.600
 5999W        W 9518   7.985   0.449   3.593
 6000W        W 9519   3.353   4.392  10.700
 6001W        W 9520   4.428   3.038   8.628
 6002W        W 9521   6.416   9.505  11.945
 6003W        W 9522   2.713   2.288   9.838
 6004W        W 9523   3.112   7.561   2.397
 6005W        W 9524   5.100   8.544  11.772
 6006W        W 9525   9.837   8.863  11.307
 6007W        W 9526   7.641   3.997  11.343
 6008W        W 9527   4.491   4.159  10.226
 6009W        W 9528   6.994   8.275   9.891
 6010W        W 9529   9.798   3.414   1.098
 6011W        W 9530   3.710   9.801   2.771
 6012W        W 9531   8.864   3.837  10.454
 6013W        W 9532   0.100   5.257   3.586
 6014W        W 9533   4.945   9.039   3.103
 6015W        W 9534   8.979   0.336  11.533
 6016W        W 9535   2.701   2.937   9.964
 6017W        W 9536   9.063   3.015  10.892
 6018W        W 9537   9.367   2.302   2.706
 6019W        W 9538   1.448   0.997   3.737
 6020W        W 9539   0.351   8.849   1.897
 6021W        W 9540   9.373   2.237   2.207
 6022W        W 9541   3.654   0.701   8.721
 6023W        W 9542   0.610   2.683   8.688
 6024W        W 9543   8.779   0.660   1.177
 6025W        W 9544   6.168   7.180   1.625
 6026W        W 9545   6.469   2.846   1.866
 6027W        W 9546   8.281   0.511   9.578
 6028W        W 9547   7.179   9.990   0.379
 6029W        W 9548   4.937   2.279  11.297
 6030W        W 9549   4.098   5.318  10.451
 6031W        W 9550   5.452   8.289   3.543
 6032W        W 9551   7.940   6.081   2.494
 6033W        W 9552   9.738   6.644   1.863
 6034W        W 9553   7.802   8.623  10.793
 6035W        W 9554   5.669   6.222   0.445
 6036W        W 9555   5.007   1.684  10.911
 6037W        W 9556   7.126   2.837   2.383
 6038W        W 9557   9.797   4.372  11.228
 6039W        W 9558   7.860   5.859   3.338
 6040W        W 9559   6.724   6.420   2.260
 6041W        W 9560   2.643   8.146   9.859
 6042W        W 9561   4.382   5.535   1.414
 6043W        W 9562   4.375   6.504   4.017
 6044W        W 9563   3.784   1.611  10.384
 6045W        W 9564   3.070   7.183   2.036
 6046W        W 9565   2.588   7.842   8.860
 6047W        W 9566   4.681   8.501   0.781
 6048W        W 9567   2.950   1.590   0.947
 6049W        W 9568   4.060   3.236   0.392
 6050W        W 9569   3.523   2.318   1.822
 6051W        W 9570   0.276   8.609   1.037
 6052W        W 9571   1.216   8.006   0.307
 6053W        W 9572   4.528   4.502  11.430
 6054W        W 9573   2.132   2.876   0.968
 6055W        W 9574   9.994   5.917   2.889
 6056W        W 9575   0.900   4.514  10.385
 6057W        W 9576   4.964   4.190   9.504
 6058W        W 9577   3.270   8.871   1.766
 6059W        W 9578   0.362   8.143   1.209
 6060W        W 9579   2.185   5.893   1.449
 6061W        W 9580   0.978   1.568   9.412
 6062W        W 9581   1.410   2.167   8.583
 6063W        W 9582   4.420   8.763   9.284
 6064W        W 9583   5.528   3.037   3.664
 6065W        W 9584   0.828   8.718   9.664
 6066W        W 9585   0.813   8.229   9.803
 6067W        W 9586   8.758   9.033  11.700
 6068W        W 9587   0.488   3.710   3.112
 6069W        W 9588   4.771   3.845   4.008
 6070W        W 9589   5.692   2.504   8.583
 6071W        W 9590   0.542   9.824   0.460
 6072W        W 9591   2.426   1.716   1.623
 6073W        W 9592   6.534   5.618   8.749
 6074W        W 9593   0.059   4.373   2.176
 6075W        W 9594   0.327   8.100   9.734
 6076W        W 9595   6.926   3.095   1.979
 6077W        W 9596   3.094   7.924   9.668
 6078W        W 9597   8.041   0.912   0.356
 6079W        W 9598   7.088   0.224  10.152
 6080W        W 9599   5.564   3.548   2.733
 6081W        W 9600   7.900   2.825   0.723
 6082W        W 9601   2.321   6.290   9.639
 6083W        W 9602   6.690   3.054   9.784
 6084W        W 9603   5.714   3.204   1.581
 6085W        W 9604   0.586   4.356   2.203
 6086W        W 9605   6.537   7.353  10.316
 6087W        W 9606   0.274   5.108   9.692
 6088W        W 9607   9.826   2.618   0.184
 6089W        W 9608   3.712   4.965   9.669
 6090W        W 9609   7.743   2.704   1.578
 6091W        W 9610   3.251   7.749   3.301
 6092W        W 9611   9.092   1.325   1.763
 6093W        W 9612   7.994   7.385   2.161
 6094W        W 9613   9.295   1.094   9.790
 6095W        W 9614   7.945   1.826  10.753
 6096W        W 9615   5.268   2.898   9.293
 6097W        W 9616   3.157   0.410   1.913
 6098W        W 9617   1.509   0.893   3.234
 6099W        W 9618   1.343   9.415   3.205
 6100W        W 9619   5.062   3.706   2.720
 6101W        W 9620   5.704   9.917   0.002
 6102W        W 9621   1.304   1.632   2.145
 6103W        W 9622   6.687   5.384   9.906
 6104W        W 9623   3.731   1.883   3.293
 6105W        W 9624   9.837   5.287   8.765
 6106W        W 9625   2.347   2.205   2.995
 6107W        W 9626   6.639   7.523   2.219
 6108W        W 9627   2.149   8.197  11.158
 6109W        W 9628   5.981   5.875  11.208
 6110W        W 9629   8.069   8.922  11.791
 6111W        W 9630   2.739   9.883   1.820
 6112W        W 9631   0.108   7.355   9.381
 6113W        W 9632   1.942   8.502   8.886
 6114W        W 9633   3.594   1.410   1.670
 6115W        W 9634   0.208   3.814   0.318
 6116W        W 9635   2.462   4.280   3.020
 6117W        W 9636   4.437   4.743   8.538
 6118W        W 9637   1.814   6.675   1.304
 6119W        W 9638   1.513   1.325   0.268
 6120W        W 9639   8.115   2.355   1.354
 6121W        W 9640   6.127   9.020   8.941
 6122W        W 9641   6.748   3.699   2.023
 6123W        W 9642   3.790   5.474   0.676
 6124W        W 9643   5.083   9.667  10.076
 6125W        W 9644   1.491   6.243  10.525
 6126W        W 9645   4.470   8.100   3.192
 6127W        W 9646   0.446   5.070  11.124
 6128W        W 9647   7.901   9.981   3.779
 6129W        W 9648   6.939   3.629  11.517
 6130W        W 9649   6.282   4.162  11.993
 6131W        W 9650   8.042   4.316   1.039
 6132W        W 9651   5.938   1.326  11.265
 6133W        W 9652   4.830   6.367   2.762
 6134W        W 9653   5.668   8.881   1.416
 6135W        W 9654   0.414   6.634   0.404
 6136W        W 9655   1.174   6.589   2.332
 6137W        W 9656   9.646   1.851   2.403
 6138W        W 9657   7.374   6.085   0.691
 6139W        W 9658   4.000   1.088  10.558
 6140W        W 9659   0.843   5.639   9.296
 6141W        W 9660   9.978   2.002   3.190
 6142W        W 9661   0.567   5.184   9.255
 6143W        W 9662   1.723   3.287  11.851
 6144W        W 9663   5.126   5.583   9.296
 6145W        W 9664   6.078   3.651   3.688
 6146W        W 9665   8.728   5.279   3.268
 6147W        W 9666   1.868   4.537   0.453
 6148W        W 9667   2.562   8.748  11.803
 6149W        W 9668   6.603   0.223   3.105
 6150W        W 9669   7.398   3.611  10.497
 6151W        W 9670   9.435   2.765   3.257
 6152W        W 9671   8.904   3.486  10.937
 6153W        W 9672   1.698   8.078  11.500
 6154W        W 9673   7.544   0.290   2.860
 6155W        W 9674   6.494   8.694   9.131
 6156W        W 9675   1.072   9.068   1.202
 6157W        W 9676   0.011   4.264   8.831
 6158W        W 9677   8.045   6.711  11.349
 6159W        W 9678   0.405   5.018  11.808
 6160W        W 9679   1.899   4.653   2.235
 6161W        W 9680   0.087   2.712   8.707
 6162W        W 9681   0.560   0.904  10.477
 6163W        W 9682   4.503   9.768   2.042
 6164W        W 9683   6.259   1.364  10.271
 6165W        W 9684   9.323   2.655   0.036
 6166W        W 9685   1.024   9.879  11.546
 6167W        W 9686   6.415   0.274   1.630
 6168W        W 9687   6.368   5.199  10.287
 6169W        W 9688   9.517   3.606   2.704
 6170W        W 9689   6.438   2.947   2.989
 6171W        W 9690   6.997   1.154   0.771
 6172W        W 9691   6.653   6.078  10.674
 6173W        W 9692   3.084   4.686   2.885
 6174W        W 9693   2.622   9.939   0.224
 6175W        W 9694   1.969   7.837   1.019
 6176W        W 9695   1.214   0.001  11.080
 6177W        W 9696   9.350   7.453   0.786
 6178W        W 9697   3.332   0.777   2.687
 6179W        W 9698   1.859   1.031   1.722
 6180W        W 9699   7.101   3.264  10.246
 6181W        W 9700   8.922   2.616  11.197
 6182W        W 9701   4.384   0.354   1.401
 6183W        W 9702   7.072   4.172  10.304
 6184W        W 9703   5.032   8.343   2.455
 6185W        W 9704   3.473   7.420   1.659
 6186W        W 9705   0.385   6.877  10.843
 6187W        W 9706   4.951   7.320   1.851
 6188W        W 9707   1.837   6.213   9.481
 6189W        W 9708   3.167   6.280   8.107
 6190W        W 9709   0.469   0.921  10.972
 6191W        W 9710   1.930   1.679  11.112
 6192W        W 9711   9.604   9.474   2.288
 6193W        W 9712   9.623   9.396   9.172
 6194W        W 9713   9.300   3.092  11.492
 6195W        W 9714   7.285   5.120   1.909
 6196W        W 9715   3.561   3.572  10.223
 6197W        W 9716   0.775   2.139   1.042
 6198W        W 9717   8.904   5.172   2.157
 6199W        W 9718   7.591   7.237  10.797
 6200W        W 9719   3.489   5.588   4.056
 6201W        W 9720   8.612   5.402   8.998
 6202W        W 9721   4.722   6.362  11.831
 6203W        W 9722   2.039   5.035   1.356
 6204W        W 9723   4.628   9.705   8.858
 6205W        W 9724   7.078   3.615   2.821
 6206W        W 9725   4.600   0.660   9.302
 6207W        W 9726   1.352   1.100  11.838
 6208W        W 9727   7.349   0.621   8.545
 6209W        W 9728   1.864   1.327   9.981
 6210W        W 9729   8.524   9.328  10.943
 6211W        W 9730   2.215   1.737  10.444
 6212W        W 9731   8.515   7.139   9.190
 6213W        W 9732   8.478   3.611  10.704
 6214W        W 9733   2.282   9.355   8.900
 6215W        W 9734   2.620   2.536   1.336
 6216W        W 9735   1.689   3.762   3.315
 6217W        W 9736   4.703   7.783   2.819
 6218W        W 9737   5.148   8.022   1.557
 6219W        W 9738   3.366   3.056  11.727
 6220W        W 9739   5.632   1.014   2.572
 6221W        W 9740   3.703   7.830   3.017
 6222W        W 9741   1.791   6.159   2.213
 6223W        W 9742   7.740   2.107  11.173
 6224W        W 9743   4.571   0.111   9.319
 6225W        W 9744   3.595   3.398  11.356
 6226W        W 9745   8.300   8.045   3.521
 6227W        W 9746   1.494   7.863   3.163
 6228W        W 9747   3.427   7.148   9.074
 6229W        W 9748   0.861   0.295   1.401
 6230W        W 9749   5.766   5.041   9.604
 6231W        W 9750   8.003   8.821   9.071
 6232W        W 9751   5.191   4.230   8.547
 6233W        W 9752   6.137   7.306   9.051
 6234W        W 9753   3.090   2.346   1.517
 6235W        W 9754   7.207   1.456   0.295
 6236W        W 9755   2.896   6.583   1.835
 6237W        W 9756   7.916   0.693   2.830
 6238W        W 9757   4.701   5.693   3.716
 6239W        W 9758   2.379   3.040   1.400
 6240W        W 9759   5.438   4.000   2.008
 6241W        W 9760   8.466   7.546  10.331
 6242W        W 9761   7.559   7.649   3.203
 6243W        W 9762   2.669   6.046   3.091
 6244W        W 9763   4.620   0.858   9.777
 6245W        W 9764   5.226   9.820  11.811
 6246W        W 9765   0.436   7.000   9.242
 6247W        W 9766   6.479   3.667   1.271
 6248W        W 9767   6.269   4.986   3.395
 6249W        W 9768   6.592   4.066  10.202
 6250W        W 9769   5.599   8.920   2.341
 6251W        W 9770   0.723   1.698   0.787
 6252W        W 9771   2.520   0.410  10.779
 6253W        W 9772   4.881   3.283   1.021
 6254W        W 9773   0.914   4.870   9.990
 6255W        W 9774   3.150   8.399   1.599
 6256W        W 9775   0.787   3.123   9.137
 6257W        W 9776   6.146   4.510   2.116
 6258W        W 9777   5.742   0.911   8.561
 6259W        W 9778   9.382   4.373   9.910
 6260W        W 9779   1.932   0.891   3.632
 6261W        W 9780   4.661   8.772   3.569
 6262W        W 9781   9.960   8.458   0.044
 6263W        W 9782   7.617   5.834  11.532
 6264W        W 9783   2.537   1.699   0.623
 6265W        W 9784   6.969   2.900   9.369
 6266W        W 9785   9.451   8.740   3.281
 6267W        W 9786   9.957   4.337   2.683
 6268W        W 9787   0.938   8.329   3.630
 6269W        W 9788   0.388   5.672  10.036
 6270W        W 9789   4.817   7.234   9.629
 6271W        W 9790   9.387   1.380   3.243
 6272W        W 9791   2.553   4.214  10.895
 6273W        W 9792   9.432   6.092   3.059
 6274W        W 9793   4.185   2.258   9.765
 6275W        W 9794   3.523   5.056  11.938
 6276W        W 9795   3.178   6.563   2.662
 6277W        W 9796   3.541   6.109   4.086
 6278W        W 9797   0.377   8.591   9.830
 6279W        W 9798   3.145   9.417  11.514
 6280W        W 9799   4.493   3.792   3.405
 6281W        W 9800   9.231   9.421   1.398
 6282W        W 9801   8.284   1.011  10.675
 6283W        W 9802   0.354   8.707  11.667
 6284W        W 9803   3.294   6.143  10.567
 6285W        W 9804   4.064   5.097   2.053
 6286W        W 9805   7.371   5.915  11.059
 6287W        W 9806   7.864   2.823   0.201
 6288W        W 9807   7.250   9.196   1.872
 6289W        W 9808   1.861   6.962  10.815
 6290W        W 9809   4.228   1.913  10.408
 6291W        W 9810   6.456   3.216   0.327
 6292W        W 9811   8.188   9.911   0.574
 6293W        W 9812   1.736   0.869   0.329
 6294W        W 9813   9.469   1.001   1.894
 6295W        W 9814   5.489   9.603   9.237
 6296W        W 9815   4.553   7.579  10.501
 6297W        W 9816   0.431   7.909   1.966
 6298W        W 9817   5.946   6.128   2.065
 6299W        W 9818   6.615   0.683   2.825
 6300W        W 9819   2.272   9.865  10.474
 6301W        W 9820   3.171   5.519  11.292
 6302W        W 9821   7.639   2.208   9.469
 6303W        W 9822   9.660   4.055   1.921
 6304W        W 9823   3.328   8.383   8.790
 6305W        W 9824   7.412   3.533   8.846
 6306W        W 9825   8.385   5.194   1.397
 6307W        W 9826   8.159   9.759   8.895
 6308W        W 9827   1.398   3.210   1.057
 6309W        W 9828   5.590   7.531   9.364
 6310W        W 9829   7.790   3.321   0.322
 6311W        W 9830   3.167   4.071  11.932
 6312W        W 9831   6.325   5.074   2.051
 6313W        W 9832   8.278   9.372   1.234
 6314W        W 9833   8.288   8.938   9.487
 6315W        W 9834   9.896   1.310   2.514
 6316W        W 9835   7.186   3.125   9.762
 6317W        W 9836   7.886   1.112   3.164
 6318W        W 9837   1.840   9.522  11.623
 6319W        W 9838   2.124   8.304   9.880
 6320W        W 9839   5.044   4.106   9.011
 6321W        W 9840   4.239   1.575   0.759
 6322W        W 9841   2.644   5.136  11.752
 6323W        W 9842   1.666   2.171   0.547
 6324W        W 9843   0.850   4.701   1.909
 6325W        W 9844   7.407   9.488   8.534
 6326W        W 9845   9.352   1.602  10.443
 6327W        W 9846   8.283   0.474   1.296
 6328W        W 9847   1.170   2.642  11.873
 6329W        W 9848   9.032   1.954   9.316
 6330W        W 9849   1.663   2.430   3.511
 6331W        W 9850   2.708   3.449  10.159
 6332W        W 9851   3.450   5.898   1.936
 6333W        W 9852   8.928   7.807  10.263
 6334W        W 9853   6.065   2.126   8.431
 6335W        W 9854   7.256   1.787  11.100
 6336W        W 9855   6.857   9.561   2.648
 6337W        W 9856   5.584   8.385  10.874
 6338W        W 9857   2.911   1.346   0.483
 6339W        W 9858   5.157   9.701  10.928
 6340W        W 9859   0.290   8.546   8.574
 6341W        W 9860   4.309   9.701   2.770
 6342W        W 9861   3.523   9.679   2.310
 6343W        W 9862   0.189   3.827  11.421
 6344W        W 9863   8.855   6.986   2.156
 6345W        W 9864   4.165   1.298   9.766
 6346W        W 9865   7.555   6.619   3.236
 6347W        W 9866   1.283   1.925   0.325
 6348W        W 9867   6.540   9.514   9.977
 6349W        W 9868   4.950   2.210   9.913
 6350W        W 9869   4.866   6.017   9.058
 6351W        W 9870   7.477   0.444   1.091
 6352W        W 9871   8.801   0.789   3.149
 6353W        W 9872   8.065   6.631   1.672
 6354W        W 9873   1.430   9.248   9.284
 6355W        W 9874   1.726   5.774  10.445
 6356W        W 9875   6.860   6.201   3.263
 6357W        W 9876   3.014   5.302   8.480
 6358W        W 9877   6.462   3.179  10.960
 6359W        W 9878   5.498   0.212  10.381
 6360W        W 9879   1.348   3.301   2.703
 6361W        W 9880   5.119   2.029   0.671
 6362W        W 9881   3.250   6.791   0.331
 6363W        W 9882   1.787   3.782   1.793
 6364W        W 9883   0.374   5.681   1.211
 6365W        W 9884   4.658   1.034  10.259
 6366W        W 9885   7.361   5.239   0.688
 6367W        W 9886   1.057   3.616   1.079
 6368W        W 9887   3.441   8.485   0.858
 6369W        W 9888   4.423   2.946   3.610
 6370W        W 9889   2.260   0.838  10.253
 6371W        W 9890   3.094   7.988  10.519
 6372W        W 9891   9.849   8.650   0.512
 6373W        W 9892   2.850   6.712  11.889
 6374W        W 9893   6.130   0.551   9.878
 6375W        W 9894   8.761   0.874  10.860
 6376W        W 9895   8.029   2.579   1.972
 6377W        W 9896   2.533   0.150  11.767
 6378W        W 9897   9.760   2.569   1.266
 6379W        W 9898   2.909   6.932   0.733
 6380W        W 9899   2.293   1.691   2.999
 6381W        W 9900   8.944   3.392   9.547
 6382W        W 9901   0.680   6.408   3.458
 6383W        W 9902   6.050   9.204   0.768
 6384W        W 9903   6.427   9.386  10.885
 6385W        W 9904   5.211   4.029   3.769
 6386W        W 9905   9.991   2.226   8.886
 6387W        W 9906   4.034   8.284   2.959
 6388W        W 9907   0.249   6.712   2.602
 6389W        W 9908   2.167   5.350   0.166
 6390W        W 9909   4.883   6.678  11.465
 6391W        W 9910   9.998   1.379   1.320
 6392W        W 9911   7.996   3.318   0.825
 6393W        W 9912   5.530   1.223  10.111
 6394W        W 9913   8.399   5.970  10.733
 6395W        W 9914   8.589   5.004  11.375
 6396W        W 9915   7.014   6.395  10.457
 6397W        W 9916   8.111   7.713   0.821
 6398W        W 9917   4.788   4.615  11.938
 6399W        W 9918   4.025   1.320   9.292
 6400W        W 9919   7.367   2.390   1.762
 6401W        W 9920   2.443   7.857   0.834
 6402W        W 9921   5.114   2.408   9.350
 6403W        W 9922   8.056   0.896   9.355
 6404W        W 9923   7.147   0.828  11.162
 6405W        W 9924   1.715   0.548   2.805
 6406W        W 9925   0.827   1.634   3.432
 6407W        W 9926   6.578   8.593  11.842
 6408W        W 9927   9.321   9.001   9.397
 6409W        W 9928   3.017   0.205  11.970
 6410W        W 9929   1.599   6.588   1.978
 6411W        W 9930   7.555   1.624   9.476
 6412W        W 9931   1.135   5.068   2.710
 6413W        W 9932   8.657   6.673   0.614
 6414W        W 9933   2.341   2.808  10.440
 6415W        W 9934   9.168   2.910  10.402
 6416W        W 9935   0.961   6.846   1.385
 6417W        W 9936   5.799   0.857  11.417
 6418W        W 9937   3.989   0.767   0.910
 6419W        W 9938   7.381   8.952   2.320
 6420W        W 9939   3.182   9.373   0.015
 6421W        W 9940   1.586   6.305  11.722
 6422W        W 9941   3.108   3.741   9.334
 6423W        W 9942   6.911   6.642  10.957
 6424W        W 9943   2.329   2.491   0.030
 6425W        W 9944   9.791   4.579   9.219
 6426W        W 9945   2.452   8.682  10.054
 6427W        W 9946   4.491   4.352   0.275
 6428W        W 9947   1.362   3.749   2.944
 6429W        W 9948   9.369   2.113  11.150
 6430W        W 9949   5.982   2.953   0.276
 6431W        W 9950   5.658   5.831  10.779
 6432W        W 9951   0.752   3.175  10.978
 6433W        W 9952   2.747   9.672   0.640
 6434W        W 9953   8.411   4.432   8.851
 6435W        W 9954   7.616   6.081  10.376
 6436W        W 9955   0.769   8.608  10.182
 6437W        W 9956   3.181   2.655   2.797
 6438W        W 9957   9.433   0.139  11.368
 6439W        W 9958   2.699   9.424   0.197
 6440W        W 9959   8.233   1.747   8.972
 6441W        W 9960   5.921   3.170  11.035
 6442W        W 9961   9.513   5.763   0.248
 6443W        W 9962   0.010   0.491   3.200
 6444W        W 9963   7.583   1.904   2.477
 6445W        W 9964   8.150   3.210  11.937
 6446W        W 9965   1.650   8.421   9.678
 6447W        W 9966   8.000   1.597   9.841
 6448W        W 9967   1.215   5.795  10.502
 6449W        W 9968   8.409   5.501  10.264
 6450W        W 9969   8.322   5.840  11.783
 6451W        W 9970   9.635   2.376  10.341
 6452W        W 9971   4.700   0.163   3.231
 6453W        W 9972   8.625   5.609   2.063
 6454W        W 9973   8.896   0.430   2.306
 6455W        W 9974   2.898   1.853   1.402
 6456W        W 9975   1.949   3.193   0.347
 6457W        W 9976   3.281   7.423   9.676
 6458W        W 9977   2.081   2.926  11.936
 6459W        W 9978   3.855   4.248   8.129
 6460W        W 9979   5.729   2.000   3.522
 6461W        W 9980   9.552   3.136  10.128
 6462W        W 9981   8.776   1.324  11.611
 6463W        W 9982   0.412   6.209   1.221
 6464W        W 9983   1.264   7.551   0.515
 6465W        W 9984   0.966   6.248  10.484
 6466W        W 9985   8.039   4.433   1.524
 6467W        W 9986   2.425   1.218   2.881
 6468W        W 9987   0.922   1.622  11.244
 6469W        W 9988   0.061   8.213   2.756
 6470W        W 9989   1.543   4.940   0.638
 6471W        W 9990   3.409   9.400   2.716
 6472W        W 9991   7.385   2.311   2.737
 6473W        W 9992   1.556   4.273   1.993
 6474W        W 9993   3.555   7.585   1.160
 6475W        W 9994   9.165   5.051   0.212
 6476W        W 9995   6.901   0.923  10.740
 6477W        W 9996   4.318   9.842   9.691
 6478W        W 9997   3.684   1.776  10.870
 6479W        W 9998   0.755   6.681   9.492
 6480W        W 9999   6.505   9.397   9.088
 6481W        W10000   2.640   4.990  10.267
 6482W        W10001   5.713   5.762   1.774
 6483W        W10002   2.809   8.421   8.717
 6484W        W10003   4.241   7.107   0.991
 6485W        W10004   6.490   2.330   1.868
 6486W        W10005   8.276   7.996   9.139
 6487W        W10006   5.935   2.202  11.546
 6488W        W10007   8.303   4.078   2.772
 6489W        W10008   5.208   7.463   1.365
 6490W        W10009   3.092   5.713   2.334
 6491W        W10010   1.818   7.265   3.236
 6492W        W10011   9.375   9.609   1.847
 6493W        W10012   5.254   6.927   1.951
 6494W        W10013   0.153   5.393   0.047
 6495W        W10014   8.550   0.701   0.428
 6496W        W10015   0.108   5.018   1.748
 6497W        W10016   7.847   1.498   8.701
 6498W        W10017   7.169   8.175   0.659
 6499W        W10018   9.210   6.238   1.214
 6500W        W10019   0.462   8.554   3.667
 6501W        W10020   8.082   7.802  10.046
 6502W        W10021   2.370   7.479   9.368
 6503W        W10022   3.176   5.197   8.947
 6504W        W10023   6.065   7.694   9.386
 6505W        W10024   2.914   8.888  11.431
 6506W        W10025   2.938   5.135   0.744
 6507W        W10026   5.109   0.667   0.927
 6508W        W10027   2.275   3.968  11.995
 6509W        W10028   5.633   4.995   0.834
 6510W        W10029   0.933   9.489  10.607
 6511W        W10030   7.442   1.183   3.481
 6512W        W10031   2.300   4.342   9.147
 6513W        W10032   5.011   9.948  10.491
 6514W        W10033   9.881   7.701  10.289
 6515W        W10034   5.845   1.550   0.106
 6516W        W10035   4.950   2.469  10.365
 6517W        W10036   5.963   3.864   9.137
 6518W        W10037   6.792   1.077  11.437
 6519W        W10038   7.619   3.653   0.940
 6520W        W10039   6.156   0.402   2.947
 6521W        W10040   4.249   8.043   0.625
 6522W        W10041   9.984   3.015   1.373
 6523W        W10042   2.666   0.810   9.102
 6524W        W10043   2.649   5.936   2.303
 6525W        W10044   5.685   7.706   0.439
 6526W        W10045   2.591   5.582  11.996
 6527W        W10046   6.161   9.826  10.871
 6528W        W10047   7.540   8.135   3.437
 6529W        W10048   9.131   4.710   9.016
 6530W        W10049   5.499   6.967   2.396
 6531W        W10050   1.631   7.856   8.958
 6532W        W10051   7.645   5.781   8.786
 6533W        W10052   5.466   9.340  11.685
 6534W        W10053   9.382   7.896  10.507
 6535W        W10054   9.008   4.091   0.089
 6536W        W10055   1.653   8.042   8.489
 6537W        W10056   8.059   8.870   1.382
 6538W        W10057   1.417   3.933  11.970
 6539W        W10058   4.724   4.510   8.890
 6540W        W10059   2.957   8.360   9.433
 6541W        W10060   2.795   4.186   9.340
 6542W        W10061   1.464   2.545  10.791
 6543W        W10062   2.284   5.765   9.655
 6544W        W10063   1.815   4.717  11.776
 6545W        W10064   8.078   2.805  11.180
 6546W        W10065   3.885   0.913   0.316
 6547W        W10066   3.716   3.298   3.192
 6548W        W10067   9.642   7.568   9.472
 6549W        W10068   5.609   6.471   3.662
 6550W        W10069   8.513   6.774   9.640
 6551W        W10070   7.726   6.078   8.349
 6552W        W10071   2.202   0.379   0.921
 6553W        W10072   3.173   9.486  11.014
 6554W        W10073   9.794   0.861   2.259
 6555W        W10074   4.474   0.234  11.849
 6556W        W10075   3.632   9.325  11.788
 6557W        W10076   7.409   3.281   1.242
 6558W        W10077   8.602   3.942   3.616
 6559W        W10078   0.074   9.008   9.850
 6560W        W10079   4.477   5.913   8.280
 6561W        W10080   1.846   9.517   9.167
 6562W        W10081   2.864   2.668   9.143
 6563W        W10082   3.641   7.102   0.437
 6564W        W10083   5.289   5.551   2.635
 6565W        W10084   7.742   5.316  11.153
 6566W        W10085   7.461   7.035   2.176
 6567W        W10086   5.171   6.073   2.468
 6568W        W10087   7.185   3.758  11.052
 6569W        W10088   9.975   3.634   1.981
 6570W        W10089   4.582   0.535  10.181
 6571W        W10090   5.604   3.049   2.662
 6572W        W10091   2.731   2.538  10.280
 6573W        W10092   9.662   9.289  11.542
 6574W        W10093   5.191   5.418   3.569
 6575W        W10094   9.658   7.537  11.249
 6576W        W10095   6.783   5.025   1.815
 6577W        W10096   7.623   2.749   2.546
 6578W        W10097   8.799   0.472   9.587
 6579W        W10098   7.496   7.932   1.449
 6580W        W10099   2.434   8.415  10.803
 6581W        W10100   4.775   3.819  10.882
 6582W        W10101   6.446   1.197  11.995
 6583W        W10102   7.174   9.881  11.881
 6584W        W10103   3.499   5.448   8.342
 6585W        W10104   5.179   0.873   0.440
 6586W        W10105   5.137   8.100   8.594
 6587W        W10106   0.743   0.335  11.583
 6588W        W10107   4.812   6.117  10.687
 6589W        W10108   9.721   5.569   3.348
 6590W        W10109   6.069   0.588   1.011
 6591W        W10110   0.355   7.094   2.274
 6592W        W10111   4.616   3.206   0.183
 6593W        W10112   5.014   5.243   2.346
 6594W        W10113   6.298   9.398   3.309
 6595W        W10114   2.555   5.575   1.949
 6596W        W10115   1.232   2.571   1.727
 6597W        W10116   4.204   2.995  11.960
 6598W        W10117   4.752   5.724  11.495
 6599W        W10118   7.525   4.897   3.304
 6600W        W10119   6.793   2.910   1.485
 6601W        W10120   7.444   4.852   2.775
 6602W        W10121   5.493   8.174   0.332
 6603W        W10122   4.057   4.129   9.923
 6604W        W10123   4.508   9.596  10.330
 6605W        W10124   1.828   9.337  10.105
 6606W        W10125   9.590   6.257   1.566
 6607W        W10126   8.923   7.457   9.045
 6608W        W10127   2.567   4.146   1.735
 6609W        W10128   2.715   4.354   2.590
 6610W        W10129   3.322   3.802   2.013
 6611W        W10130   3.966   0.234   3.636
 6612W        W10131   5.398   5.553  11.118
 6613W        W10132   9.199   2.689   2.422
 6614W        W10133   5.613   3.818  11.237
 6615W        W10134   4.851   0.394   2.437
 6616W        W10135   5.748   1.383   1.596
 6617W        W10136   2.765   5.079  10.758
 6618W        W10137   0.317   8.454   0.539
 6619W        W10138   1.796   1.929   1.817
 6620W        W10139   7.281   2.200  11.400
 6621W        W10140   7.022   4.475   0.387
 6622W        W10141   0.756   6.647  11.482
 6623W        W10142   4.471   5.895   9.405
 6624W        W10143   1.439   9.817  11.837
 6625W        W10144   4.917   1.148   1.090
 6626W        W10145   1.645   5.751  11.872
 6627W        W10146   0.520   2.322   9.528
 6628W        W10147   8.569   0.224  10.854
 6629W        W10148   5.561   9.684   3.300
 6630W        W10149   0.806   7.389  10.021
 6631W        W10150   0.742   1.338  10.839
 6632W        W10151   4.179   2.021   0.019
 6633W        W10152   8.285   5.578   3.282
 6634W        W10153   7.348   1.406   2.498
 6635W        W10154   7.242   4.710   2.194
 6636W        W10155   4.599   4.622  10.537
 6637W        W10156   3.975   7.262   2.373
 6638W        W10157   5.371   8.479   1.612
 6639W        W10158   7.960   8.050  10.498
 6640W        W10159   4.194   3.487   8.695
 6641W        W10160   0.919   6.873   9.954
 6642W        W10161   7.900   6.090   0.728
 6643W        W10162   1.722   9.055   3.327
 6644W        W10163   3.828   7.628  10.706
 6645W        W10164   5.062   6.687   9.584
 6646W        W10165   5.023   1.171  10.866
 6647W        W10166   7.055   7.790   2.284
 6648W        W10167   9.978   8.565   9.013
 6649W        W10168   1.647   3.421   3.680
 6650W        W10169   3.936   7.273   3.406
 6651W        W10170   6.979   8.608   8.950
 6652W        W10171   6.024   8.154  11.750
 6653W        W10172   5.809   4.137   2.961
 6654W        W10173   4.898   5.112   0.910
 6655W        W10174   0.171   3.665   9.208
 6656W        W10175   5.058   8.556   0.274
 6657W        W10176   0.536   7.655  11.363
 6658W        W10177   4.569   9.368   0.248
 6659W        W10178   1.366   7.162  10.808
 6660W        W10179   2.496   9.662   8.544
 6661W        W10180   4.702   1.878   0.926
 6662W        W10181   5.954   3.443   0.324
 6663W        W10182   4.356   4.214   8.286
 6664W        W10183   5.534   0.949   9.647
 6665W        W10184   8.324   6.202   1.652
 6666W        W10185   8.416   3.671   1.331
 6667W        W10186   1.663   6.602   2.483
 6668W        W10187   0.329   2.237   0.804
 6669W        W10188   4.826   5.449  10.943
 6670W        W10189   1.246   0.704   2.820
 6671W        W10190   9.219   9.224   2.516
 6672W        W10191   6.718   2.172   1.443
 6673W        W10192   1.678   8.038   0.082
 6674W        W10193   5.950   3.637   1.246
 6675W        W10194   2.091   7.982  10.685
 6676W        W10195   1.795   1.218   1.234
 6677W        W10196   8.155   8.404   0.439
 6678W        W10197   0.598   5.385   3.452
 6679W        W10198   2.166   5.487   1.060
 6680W        W10199   6.300   4.087  11.113
 6681W        W10200   6.029   7.166   2.756
 6682W        W10201   0.399   0.472   2.365
 6683W        W10202   1.107   8.983  10.012
 6684W        W10203   3.364   9.720   1.206
 6685W        W10204   6.669   0.699   3.341
 6686W        W10205   4.096   9.850  10.159
 6687W        W10206   4.567   6.032  10.261
 6688W        W10207   0.545   7.984   3.610
 6689W        W10208   2.601   4.466  10.291
 6690W        W10209   6.119   5.608   2.049
 6691W        W10210   6.187   2.634   8.538
 6692W        W10211   3.579   4.848  10.673
 6693W        W10212   0.974   8.023   3.211
 6694W        W10213   7.969   5.496   2.897
 6695W        W10214   3.663   6.847   0.009
 6696W        W10215   2.866   1.372   9.800
 6697W        W10216   7.191   4.802   0.967
 6698W        W10217   6.684   1.717   9.546
 6699W        W10218   7.070   3.174   0.453
 6700W        W10219   6.488   6.972   9.236
 6701W        W10220   6.985   0.337  11.831
 6702W        W10221   7.607   5.851   2.884
 6703W        W10222   0.244   0.595  10.232
 6704W        W10223   3.525   4.070  10.082
 6705ION    NA+10224   4.472   0.493  10.974
 6706ION    NA+10225   7.986   4.135   8.814
 6707ION    NA+10226   6.271   8.436   0.724
 6708ION    NA+10227   3.386   1.622   1.237
 6709ION    NA+10228   3.876   6.192   1.809
 6710ION    NA+10229   2.271   5.739  10.509
 6711ION    NA+10230   4.518   6.549  10.366
 6712ION    NA+10231   6.646   5.047  11.688
 6713ION    NA+10232   9.716   3.034   8.950
 6714ION    NA+10233   4.618   8.729   9.817
 6715ION    NA+10234   6.133   3.697   9.616
 6716ION    NA+10235   4.718   7.862   0.731
 6717ION    NA+10236   7.890   5.616  11.957
 6718ION    NA+10237   0.845   3.153  11.952
 6719ION    NA+10238   0.033   9.980   3.042
 6720ION    NA+10239   7.565   8.956  11.733
 6721ION    NA+10240   1.713   7.059   9.505
 6722ION    NA+10241   4.050   2.395  10.332
 6723ION    NA+10242   3.787   0.200   8.874
 6724ION    NA+10243   3.831   8.451   9.588
 6725ION    NA+10244   6.946   1.221   8.967
 6726ION    NA+10245   3.607   5.511  10.991
 6727ION    NA+10246   7.517   4.044   9.595
 6728ION    NA+10247   5.334   9.238  10.115
 6729ION    NA+10248   6.907   9.532  10.683
 6730ION    NA+10249   3.128   0.950   8.940
 6731ION    NA+10250   0.293   5.430  11.509
 6732ION    NA+10251   9.317   3.427   1.307
 6733ION    NA+10252   8.087   1.674   3.164
 6734ION    NA+10253   2.615   5.073   8.780
 6735ION    NA+10254   6.338   0.862   1.778
 6736ION    NA+10255   8.652   1.376  10.765
 6737ION    NA+10256   5.319   8.699   2.683
 6738ION    NA+10257   1.858   4.689   1.728
 6739ION    NA+10258   7.282   9.360   2.852
 6740ION    NA+10259   1.745   9.740   0.437
 6741ION    NA+10260   7.896   7.904   2.227
 6742ION    NA+10261   2.781   6.771   2.336
 6743ION    NA+10262   1.557   6.569   0.859
 6744ION    NA+10263   1.341   8.621   1.112
 6745ION    NA+10264   2.150   5.908   0.020
 6746ION    NA+10265   8.183   4.795   2.131
 6747ION    NA+10266   8.912   9.007  10.273
 6748ION    NA+10267   8.402   7.995  11.972
 6749ION    NA+10268   8.411   8.025   1.624
 6750ION    NA+10269   5.947   6.661   4.029
 6751ION    NA+10270   4.218   9.476   1.010
 6752ION    NA+10271   0.903   3.267   9.624
 6753ION    NA+10272   1.375   0.499   3.704
 6754ION    NA+10273   4.095   5.528   2.384
 6755ION    NA+10274   8.700   2.741   1.225
 6756ION    NA+10275   6.401   8.431   2.269
 6757ION    NA+10276   7.791   4.838  10.957
 6758ION    NA+10277   4.197   5.269   0.413
 6759ION    NA+10278   0.587   4.893   0.300
 6760ION    NA+10279   1.849   0.104   3.112
 6761ION    NA+10280   3.819   4.968  10.179
 6762ION    NA+10281   9.700   7.898   2.992
 6763ION    NA+10282   5.064   5.894   3.421
 6764ION    NA+10283   3.581   9.595   0.247
 6765ION    NA+10284   0.293   0.406   8.611
 6766ION    NA+10285   8.715   7.959   2.417
 6767ION    NA+10286   3.858   6.336   9.109
 6768ION    NA+10287   4.342   0.399   9.731
 6769ION    NA+10288   7.968   7.848   9.533
 6770ION    NA+10289   2.761   1.866   2.463
 6771ION    NA+10290   3.021   2.713  11.586
 6772ION    NA+10291   7.566   2.574  10.478
 6773ION    NA+10292   2.147   5.775   8.811
 6774ION    NA+10293   5.288   4.560   1.542
 6775ION    NA+10294   6.534   6.966   9.852
 6776ION    CL-10295   8.609   4.714   2.243
 6777ION    CL-10296   0.230   1.234   2.901
 6778ION    CL-10297   5.165   8.831   1.289
 6779ION    CL-10298   6.116   0.536  11.179
 6780ION    CL-10299   4.890   4.615   3.006
 6781ION    CL-10300   6.154   3.885  10.018
 6782ION    CL-10301   1.130   3.645   9.680
 6783ION    CL-10302   2.387   5.422   8.985
 6784ION    CL-10303   3.942   5.864   2.113
 6785ION    CL-10304   1.846   1.795   3.285
 6786ION    CL-10305   6.439   8.566   0.332
 6787ION    CL-10306   4.295   8.423   9.641
 6788ION    CL-10307   4.481   1.570   9.442
 6789ION    CL-10308   2.714   5.317   2.355
 6790ION    CL-10309   0.895   4.673   0.060
 6791ION    CL-10310   7.031   1.030   8.541
 6792ION    CL-10311   7.820   4.080   9.245
 6793ION    CL-10312   4.718   7.702   0.312
 6794ION    CL-10313   2.170   8.515  11.567
 6795ION    CL-10314   4.146   6.659  10.586
 6796ION    CL-10315   2.180   9.117   2.112
 6797ION    CL-10316   7.720   9.191   0.082
 6798ION    CL-10317   9.404   2.821   9.208
 6799ION    CL-10318   5.059   4.262   1.287
 6800ION    CL-10319   1.411   0.006   0.313
 6801ION    CL-10320   9.009   3.071   1.282
 6802ION    CL-10321   3.081   3.870   3.380
 6803ION    CL-10322   5.803   7.398   2.357
 6804ION    CL-10323   3.198   4.919   0.366
 6805ION    CL-10324   0.226   0.519   0.922
 6806ION    CL-10325   6.202   2.416   2.306
 6807ION    CL-10326   4.795   5.134   8.653
 6808ION    CL-10327   9.047   1.237  10.617
 6809ION    CL-10328   7.507   4.329   0.285
 6810ION    CL-10329   7.776   5.154  10.644
 6811ION    CL-10330   5.631   6.672   0.215
 6812ION    CL-10331   0.999   8.696   0.824
 6813ION    CL-10332   0.828   8.360   2.308
 6814ION    CL-10333   6.625   1.528   9.082
 6815ION    CL-10334   1.321   4.550  10.061
 6816ION    CL-10335   0.094   7.716   2.865
 6817ION    CL-10336   4.339   4.682  11.000
 6818ION    CL-10337   4.395   0.067  11.086
 6819ION    CL-10338   3.401   8.568   9.689
 6820ION    CL-10339   3.147   7.290   0.388
 6821ION    CL-10340   2.022   6.038  11.613
 6822ION    CL-10341   2.456   1.542   2.414
 6823ION    CL-10342   5.476   4.912   1.760
 6824ION    CL-10343   8.341   7.972   2.088
 6825ION    CL-10344   7.110   4.116   9.787
 6826ION    CL-10345   9.917   0.643   8.765
 6827ION    CL-10346   5.213   8.606   3.110
 6828ION    CL-10347   5.749   3.191   1.069
 6829ION    CL-10348   6.750   3.359   3.154
 6830ION    CL-10349   7.509   9.946   0.859
 6831ION    CL-10350   8.920   9.310  10.600
 6832ION    CL-10351   8.466   9.210   3.582
 6833ION    CL-10352   3.700   6.722   9.270
 6834ION    CL-10353   0.107   3.784   2.755
 6835ION    CL-10354   6.407   7.771   8.996
 6836ION    CL-10355   4.596   3.338   9.723
 6837ION    CL-10356   4.962   9.014   9.969
 6838ION    CL-10357   5.688   0.255   3.089
 6839ION    CL-10358   5.790   3.630   3.202
 6840ION    CL-10359   5.050   7.605   9.369
 6841ION    CL-10360   9.544   5.738   9.122
 6842ION    CL-10361   9.846   2.519   3.072
 6843ION    CL-10362   2.685   4.688  11.539
 6844ION    CL-10363   7.781   2.547  10.865
 6845ION    CL-10364   1.683   8.567   1.413
 6846ION    CL-10365   9.626   3.723   1.471
  10.00000  10.00000  12.00000
