Protein in INSANE! Membrane UpperLeaflet>POPC=1.0 LowerLeaflet>POPC=1.0
10365
    1AU     AUC    1   4.858   5.087   6.095
    1AU     AUC    2   5.328   4.967   5.874
    1AU     AUC    3   5.367   4.969   6.141
    1AU     AUC    4   4.816   5.318   5.813
    1AU     AUC    5   4.949   5.519   6.111
    1AU     AUC    6   5.021   5.303   5.995
    1AU     AUC    7   5.282   5.182   5.965
    1AU     AUC    8   4.842   5.103   6.099
    1AU     AUC    9   5.198   4.873   6.295
    1AU     AUC   10   4.965   5.285   6.274
    1AU     AUC   11   5.126   5.099   6.147
    1AU     AUC   12   4.859   5.078   6.082
    1AU     AUC   13   5.073   5.055   5.868
    1AU     AUC   14   5.363   4.959   5.842
    1AU     AUC   15   5.434   5.172   5.747
    1AU     AUC   16   5.385   4.998   6.146
    1AU     AUC   17   4.792   5.304   5.833
    1AU     AUC   18   4.792   5.333   5.826
    1AU     AUC   19   4.935   5.545   6.118
    1AU     AUC   20   5.032   5.299   5.994
    1AU     AUC   21   5.137   4.845   6.034
    1AU     AUC   22   5.151   4.842   6.033
    1AU     AUC   23   4.746   5.323   6.097
    1AU     AUC   24   5.167   4.863   6.303
    1AU     AUC   25   5.421   4.738   6.039
    1AU     AUC   26   4.976   5.293   6.277
    1AU     AUC   27   4.985   5.282   6.262
    1AU     AUC   28   5.116   5.091   6.162
    1AU     AUC   29   5.067   4.816   5.735
    1AU     AUC   30   5.063   5.040   5.861
    1AU     AUC   31   5.057   5.050   5.878
    1AU     AUC   32   5.404   5.133   6.205
    1AU     AUC   33   4.973   5.035   6.356
    1AU     AUC   34   5.320   4.931   5.845
    1AU     AUC   35   5.349   4.932   5.859
    1AU     AUC   36   4.943   5.293   6.280
    1AU     AUC   37   5.056   5.529   6.154
    1AU     AUC   38   4.918   4.881   5.678
    1AU     AUC   39   5.047   5.059   5.882
    1AU     AUC   40   5.306   5.179   5.956
    1AU     AUC   41   5.292   5.210   5.950
    1AU     AUC   42   4.918   5.282   5.900
    1AU     AUC   43   5.027   5.510   6.113
    1AU     AUC   44   5.555   5.074   5.955
    1AU     AUC   45   5.389   4.949   6.136
    1AU     AUC   46   4.715   5.287   5.722
    1AU     AUC   47   4.769   5.387   6.102
    1AU     AUC   48   5.127   5.087   6.146
    1AU     AUC   49   5.118   5.073   6.141
    1AU     AUC   50   4.768   5.202   6.404
    1AU     AUC   51   5.188   4.876   6.319
    1AU     AUC   52   5.019   5.277   5.978
    1AU     AUC   53   5.145   4.831   6.030
    1AU     AUC   54   4.943   4.864   5.701
    1AU     AUC   55   5.151   4.796   5.759
    1AU    AUSL   56   5.454   5.200   6.205
    1AU    AUSL   57   5.466   5.248   6.472
    1AU     AUL   58   5.472   4.763   6.314
    1AU       S   59   5.848   5.511   6.691
    1AU     LIG   60   5.581   5.380   7.291
    1AU     LIG   61   5.224   5.205   7.688
    1AU     LIG   62   4.712   5.052   7.568
    1AU       S   63   6.137   4.656   6.075
    1AU     LIG   64   6.342   5.286   6.023
    1AU     LIG   65   6.169   5.666   5.454
    1AU     LIG   66   5.768   5.882   5.132
    1AU    AUSL   67   5.252   5.472   5.949
    1AU    AUSL   68   5.280   5.594   6.199
    1AU     AUL   69   5.379   5.467   5.746
    1AU       S   70   5.984   4.554   5.695
    1AU     LIG   71   5.802   4.167   5.099
    1AU     LIG   72   5.483   4.043   4.754
    1AU     LIG   73   5.079   3.791   4.665
    1AU       S   74   5.419   5.046   6.957
    1AU     LIG   75   4.933   5.512   7.483
    1AU     LIG   76   4.457   5.493   7.623
    1AU     LIG   77   4.089   5.190   7.614
    1AU    AUSL   78   4.962   5.027   6.371
    1AU    AUSL   79   4.789   5.045   5.831
    1AU     AUL   80   4.778   5.041   5.831
    1AU       S   81   5.633   4.267   5.726
    1AU     LIG   82   5.322   4.290   5.176
    1AU     LIG   83   5.007   4.322   4.767
    1AU     LIG   84   4.647   4.684   4.670
    1AU       S   85   4.737   5.082   5.080
    1AU     LIG   86   5.167   5.559   4.984
    1AU     LIG   87   5.654   5.597   4.750
    1AU     LIG   88   6.037   5.897   4.714
    1AU    AUSL   89   5.459   4.921   5.633
    1AU    AUSL   90   5.238   4.623   6.198
    1AU     AUL   91   5.663   4.613   6.023
    1AU       S   92   5.808   5.350   5.338
    1AU     LIG   93   6.071   5.682   5.917
    1AU     LIG   94   6.160   5.965   6.414
    1AU     LIG   95   5.812   6.302   6.559
    1AU       S   96   4.892   4.430   6.763
    1AU     LIG   97   4.242   5.015   6.757
    1AU     LIG   98   3.838   5.680   6.607
    1AU     LIG   99   3.833   6.123   6.460
    1AU    AUSL  100   4.958   5.140   5.619
    1AU    AUSL  101   5.238   5.336   6.173
    1AU     AUL  102   4.951   5.153   5.637
    1AU       S  103   4.880   4.141   5.897
    1AU     LIG  104   5.482   3.839   6.305
    1AU     LIG  105   5.696   3.945   6.680
    1AU     LIG  106   5.899   4.351   6.792
    1AU       S  107   5.716   5.036   5.220
    1AU     LIG  108   6.156   4.418   5.291
    1AU     LIG  109   5.855   3.880   5.479
    1AU     LIG  110   5.497   3.520   5.444
    1AU    AUSL  111   5.046   4.951   5.451
    1AU    AUSL  112   4.696   4.763   5.795
    1AU     AUL  113   4.647   4.823   5.743
    1AU       S  114   4.738   4.217   6.402
    1AU     LIG  115   4.438   4.583   6.729
    1AU     LIG  116   4.378   5.200   7.180
    1AU     LIG  117   4.039   5.543   7.262
    1AU       S  118   5.637   5.389   5.197
    1AU     LIG  119   5.703   5.860   5.600
    1AU     LIG  120   5.472   6.263   5.769
    1AU     LIG  121   5.227   6.481   6.197
    1AU    AUSL  122   5.119   5.502   6.398
    1AU    AUSL  123   5.231   5.332   6.612
    1AU     AUL  124   5.424   5.540   6.170
    1AU       S  125   5.452   4.912   6.959
    1AU     LIG  126   5.128   4.775   7.502
    1AU     LIG  127   4.708   4.492   7.651
    1AU     LIG  128   4.284   4.236   7.503
    1AU       S  129   4.840   4.859   6.979
    1AU     LIG  130   4.597   4.465   7.167
    1AU     LIG  131   4.466   4.088   6.825
    1AU     LIG  132   4.160   3.777   6.663
    1AU    AUSL  133   4.891   4.844   5.955
    1AU    AUSL  134   4.910   5.688   6.330
    1AU     AUL  135   5.147   5.457   6.398
    1AU       S  136   4.718   6.064   6.466
    1AU     LIG  137   4.697   6.531   6.163
    1AU     LIG  138   4.641   6.644   5.661
    1AU     LIG  139   4.391   6.624   5.235
    1AU       S  140   5.172   4.221   6.475
    1AU     LIG  141   4.690   3.770   6.511
    1AU     LIG  142   4.424   3.468   6.370
    1AU     LIG  143   4.449   3.087   6.504
    1AU    AUSL  144   4.986   4.628   6.088
    1AU    AUSL  145   5.182   4.588   5.911
    1AU     AUL  146   4.987   4.578   6.097
    1AU       S  147   5.383   4.366   6.815
    1AU     LIG  148   5.361   3.997   7.051
    1AU     LIG  149   5.389   3.958   7.483
    1AU     LIG  150   5.788   4.072   7.684
    1AU       S  151   5.159   6.027   6.044
    1AU     LIG  152   5.563   5.863   6.600
    1AU     LIG  153   5.870   5.182   6.979
    1AU     LIG  154   5.596   4.919   7.434
    1AU    AUSL  155   5.209   5.181   6.388
    1AU    AUSL  156   4.574   5.172   6.227
    1AU     AUL  157   5.194   5.171   6.405
    1AU       S  158   4.111   5.046   5.911
    1AU     LIG  159   3.973   4.640   6.667
    1AU     LIG  160   4.185   4.781   7.204
    1AU     LIG  161   4.237   4.712   7.657
    1AU       S  162   5.382   4.473   6.855
    1AU     LIG  163   5.901   4.717   7.126
    1AU     LIG  164   6.048   5.201   7.429
    1AU     LIG  165   5.907   5.686   7.581
    1AU    AUSL  166   5.490   5.340   5.964
    1AU    AUSL  167   5.644   4.867   6.122
    1AU     AUL  168   5.536   5.354   5.992
    1AU       S  169   5.594   4.310   6.385
    1AU     LIG  170   5.703   4.554   5.343
    1AU     LIG  171   5.709   5.015   4.764
    1AU     LIG  172   5.855   5.264   4.398
    1AU       S  173   5.299   5.115   5.043
    1AU     LIG  174   5.309   5.278   4.603
    1AU     LIG  175   5.235   5.746   4.518
    1AU     LIG  176   5.563   6.079   4.573
    1AU    AUSL  177   5.305   5.249   5.506
    1AU    AUSL  178   5.610   4.826   5.843
    1AU     AUL  179   5.295   4.816   5.454
    1AU       S  180   5.278   4.970   4.980
    1AU     LIG  181   5.524   4.573   4.839
    1AU     LIG  182   5.384   4.475   4.461
    1AU     LIG  183   5.094   4.827   4.484
    1AU       S  184   6.113   4.923   5.446
    1AU     LIG  185   6.061   4.742   4.947
    1AU     LIG  186   5.872   4.661   4.473
    1AU     LIG  187   5.531   4.914   4.225
    1AU    AUSL  188   5.467   5.189   5.720
    1AU    AUSL  189   5.162   5.278   5.747
    1AU     AUL  190   5.160   5.299   5.733
    1AU       S  191   4.835   5.184   5.057
    1AU     LIG  192   4.427   5.225   4.736
    1AU     LIG  193   3.974   5.380   4.766
    1AU     LIG  194   3.859   5.655   5.166
    1AU       S  195   5.056   4.727   5.014
    1AU     LIG  196   4.372   4.112   5.508
    1AU     LIG  197   3.976   4.095   5.964
    1AU     LIG  198   3.797   4.152   6.478
    1AU    AUSL  199   4.687   5.642   6.166
    1AU    AUSL  200   4.753   5.467   6.366
    1AU     AUL  201   4.539   5.361   6.435
    1AU       S  202   4.659   4.927   6.931
    1AU     LIG  203   4.139   4.362   7.025
    1AU     LIG  204   3.858   4.024   7.084
    1AU     LIG  205   3.433   3.788   7.108
    1AU       S  206   4.103   5.772   6.171
    1AU     LIG  207   3.771   5.224   6.695
    1AU     LIG  208   3.734   4.915   7.050
    1AU     LIG  209   3.788   4.532   7.376
    1AU    AUSL  210   4.691   5.041   5.578
    1AU    AUSL  211   4.994   5.401   5.548
    1AU     AUL  212   4.531   5.388   5.914
    1AU       S  213   4.002   5.250   5.521
    1AU     LIG  214   4.113   4.949   5.012
    1AU     LIG  215   4.129   4.531   4.820
    1AU     LIG  216   4.014   4.110   4.616
    1AU       S  217   4.345   5.291   5.239
    1AU     LIG  218   3.720   5.186   5.152
    1AU     LIG  219   3.394   5.517   5.161
    1AU     LIG  220   3.493   6.009   5.198
    1AU    AUSL  221   4.904   5.763   5.770
    1AU    AUSL  222   4.522   5.209   5.715
    1AU     AUL  223   4.541   5.505   5.678
    1AU       S  224   4.070   5.678   5.610
    1AU     LIG  225   4.268   5.733   4.924
    1AU     LIG  226   4.717   5.606   4.600
    1AU     LIG  227   4.996   5.365   4.246
    1AU       S  228   4.449   5.874   5.417
    1AU     LIG  229   4.910   5.982   4.877
    1AU     LIG  230   5.313   6.209   4.998
    1AU     LIG  231   5.646   6.359   5.301
    1AU    AUSL  232   5.823   4.982   5.954
    1AU    AUSL  233   5.744   5.163   6.142
    1AU     AUL  234   5.697   5.021   5.712
    1AU       S  235   6.229   4.963   5.700
    1AU     LIG  236   6.617   4.952   5.399
    1AU     LIG  237   7.003   5.153   5.482
    1AU     LIG  238   6.843   5.135   5.901
    1AU       S  239   6.091   5.218   6.476
    1AU     LIG  240   6.558   5.085   6.432
    1AU     LIG  241   6.825   5.421   6.311
    1AU     LIG  242   6.543   5.736   6.165
    1AU    AUSL  243   5.744   5.250   5.850
    1AU    AUSL  244   5.568   5.068   5.963
    1AU     AUL  245   5.646   5.392   6.241
    1AU       S  246   6.174   5.201   5.595
    1AU     LIG  247   6.589   5.450   5.608
    1AU     LIG  248   6.940   5.660   5.849
    1AU     LIG  249   7.031   5.923   6.230
    1AU       S  250   4.837   4.148   5.930
    1AU     LIG  251   4.221   4.361   6.333
    1AU     LIG  252   3.558   4.748   6.525
    1AU     LIG  253   3.302   5.191   6.490
    1AU    AUSL  254   4.716   5.584   5.897
    1AU    AUSL  255   4.797   5.550   5.635
    1AU     AUL  256   4.491   5.653   5.937
    1AU       S  257   4.612   6.137   5.904
    1AU     LIG  258   3.937   6.162   5.956
    1AU     LIG  259   3.602   5.830   5.677
    1AU     LIG  260   3.281   5.485   5.677
    1AU       S  261   4.093   5.791   5.703
    1AU     LIG  262   4.223   6.353   5.640
    1AU     LIG  263   3.910   6.555   5.382
    1AU     LIG  264   3.997   6.942   5.272
    1AU    AUSL  265   4.490   5.452   6.171
    1AU    AUSL  266   4.733   5.355   6.113
    1AU     AUL  267   4.759   5.588   5.913
    1AU       S  268   4.418   5.842   6.535
    1AU     LIG  269   4.022   5.336   6.332
    1AU     LIG  270   3.683   5.015   6.138
    1AU     LIG  271   3.454   4.540   6.113
    1AU       S  272   3.944   5.467   5.896
    1AU     LIG  273   4.012   4.596   5.952
    1AU     LIG  274   4.408   3.913   6.071
    1AU     LIG  275   4.765   3.454   6.028
    1AU    AUSL  276   5.017   4.659   6.359
    1AU    AUSL  277   5.387   4.998   6.436
    1AU     AUL  278   5.393   4.966   6.483
    1AU       S  279   5.036   4.762   7.026
    1AU     LIG  280   5.548   4.412   7.292
    1AU     LIG  281   5.898   3.994   7.142
    1AU     LIG  282   6.177   3.778   6.724
    1AU       S  283   5.288   4.170   6.044
    1AU     LIG  284   5.874   4.028   6.063
    1AU     LIG  285   6.247   4.020   5.740
    1AU     LIG  286   6.327   3.864   5.286
    1AU    AUSL  287   5.209   5.036   5.632
    1AU    AUSL  288   4.916   4.612   5.826
    1AU     AUL  289   5.054   4.681   5.478
    1AU       S  290   4.787   4.231   5.453
    1AU     LIG  291   4.215   4.091   5.078
    1AU     LIG  292   3.750   4.151   5.050
    1AU     LIG  293   3.328   4.007   4.862
    1AU       S  294   4.327   4.570   5.456
    1AU     LIG  295   3.782   4.665   5.207
    1AU     LIG  296   3.443   4.361   5.396
    1AU     LIG  297   3.508   4.155   5.802
    1AU    AUSL  298   4.647   4.893   6.027
    1AU    AUSL  299   4.697   4.949   6.283
    1AU     AUL  300   4.657   4.899   6.108
    1AU       S  301   4.555   4.857   5.169
    1AU     LIG  302   3.942   4.354   5.510
    1AU     LIG  303   3.609   4.729   5.685
    1AU     LIG  304   3.224   4.972   5.913
    1AU       S  305   4.423   4.341   5.896
    1AU     LIG  306   4.159   4.864   6.323
    1AU     LIG  307   4.206   5.469   6.797
    1AU     LIG  308   4.125   5.933   6.931
    1AU    AUSL  309   4.990   5.202   6.580
    1AU    AUSL  310   5.630   5.021   6.341
    1AU     AUL  311   5.406   5.388   6.400
    1AU       S  312   4.821   5.355   7.054
    1AU     LIG  313   4.527   5.687   7.171
    1AU     LIG  314   4.530   6.150   7.147
    1AU     LIG  315   4.676   6.437   6.812
    1AU       S  316   6.053   5.480   6.477
    1AU     LIG  317   5.764   5.991   6.155
    1AU     LIG  318   5.729   6.515   6.098
    1AU     LIG  319   5.368   6.783   5.828
    1AU    AUSL  320   4.742   5.153   6.456
    1AU    AUSL  321   4.913   5.519   6.576
    1AU     AUL  322   4.945   5.348   6.555
    1AU       S  323   4.991   5.316   7.066
    1AU     LIG  324   5.385   5.721   7.032
    1AU     LIG  325   5.857   5.979   6.990
    1AU     LIG  326   6.215   6.324   6.848
    1AU       S  327   4.725   5.873   6.769
    1AU     LIG  328   4.987   5.922   7.220
    1AU     LIG  329   5.371   5.709   7.585
    1AU     LIG  330   5.687   5.295   7.786
    1AU    AUSL  331   5.256   4.708   6.490
    1AU    AUSL  332   4.728   4.644   6.037
    1AU     AUL  333   4.741   4.664   6.261
    1AU       S  334   5.028   3.837   6.202
    1AU     LIG  335   5.198   3.659   6.630
    1AU     LIG  336   5.595   3.452   6.696
    1AU     LIG  337   5.991   3.334   6.912
    1AU       S  338   5.080   5.157   7.219
    1AU     LIG  339   5.061   4.374   7.284
    1AU     LIG  340   4.736   4.014   7.380
    1AU     LIG  341   4.486   3.663   7.113
    1AU    AUSL  342   4.594   5.144   5.974
    1AU    AUSL  343   5.133   4.952   6.563
    1AU     AUL  344   4.830   4.814   6.465
    1AU       S  345   4.205   4.755   5.529
    1AU     LIG  346   4.564   4.406   5.074
    1AU     LIG  347   4.795   3.974   5.056
    1AU     LIG  348   4.872   3.498   5.084
    1AU       S  349   4.928   4.364   6.819
    1AU     LIG  350   4.900   3.899   6.932
    1AU     LIG  351   4.829   3.389   6.801
    1AU     LIG  352   5.137   3.130   6.500
    1AU    AUSL  353   4.924   4.848   6.196
    1AU    AUSL  354   5.015   5.512   5.799
    1AU     AUL  355   5.011   5.524   5.839
    1AU       S  356   4.243   4.870   5.493
    1AU     LIG  357   4.699   5.613   5.111
    1AU     LIG  358   4.951   6.074   5.336
    1AU     LIG  359   5.142   6.488   5.452
    1AU       S  360   4.326   5.437   5.275
    1AU     LIG  361   4.491   6.130   5.040
    1AU     LIG  362   4.831   6.485   5.047
    1AU     LIG  363   4.881   6.907   5.287
    1AU    AUSL  364   5.119   4.498   5.665
    1AU    AUSL  365   4.732   5.300   5.553
    1AU     AUL  366   4.794   4.679   5.555
    1AU       S  367   4.654   6.147   5.708
    1AU     LIG  368   4.068   6.096   5.281
    1AU     LIG  369   3.866   6.064   4.850
    1AU     LIG  370   3.561   5.740   4.705
    1AU       S  371   5.159   3.756   5.897
    1AU     LIG  372   4.763   3.740   5.617
    1AU     LIG  373   4.455   3.676   5.301
    1AU     LIG  374   4.444   3.715   4.835
    1AU    AUSL  375   5.405   4.705   6.002
    1AU    AUSL  376   5.202   4.762   5.704
    1AU     AUL  377   5.403   4.674   5.747
    1AU       S  378   5.478   3.833   5.845
    1AU     LIG  379   5.772   3.436   5.832
    1AU     LIG  380   5.559   3.038   5.564
    1AU     LIG  381   5.582   2.725   5.257
    1AU       S  382   5.185   4.057   5.561
    1AU     LIG  383   5.260   3.813   5.149
    1AU     LIG  384   5.560   3.526   4.926
    1AU     LIG  385   5.867   3.384   4.590
    2POPC   NC3  386   3.492   1.419   8.088
    2POPC   PO4  387   3.092   0.828   8.220
    2POPC   GL1  388   3.297   0.881   7.772
    2POPC   GL2  389   3.517   1.169   7.650
    2POPC   C1A  390   3.277   0.893   7.289
    2POPC   D2A  391   3.141   0.935   6.842
    2POPC   C3A  392   3.401   0.984   6.438
    2POPC   C4A  393   3.314   0.920   5.932
    2POPC   C1B  394   3.489   1.371   7.230
    2POPC   C2B  395   3.457   1.399   6.770
    2POPC   C3B  396   3.702   1.409   6.407
    2POPC   C4B  397   3.741   1.159   6.070
    3POPC   NC3  398   7.263   0.358   8.114
    3POPC   PO4  399   7.834   9.959   7.970
    3POPC   GL1  400   7.525   0.196   7.709
    3POPC   GL2  401   7.404   0.568   7.669
    3POPC   C1A  402   7.385   0.156   7.311
    3POPC   D2A  403   7.600   0.303   6.947
    3POPC   C3A  404   7.418   0.356   6.554
    3POPC   C4A  405   7.403   0.137   6.165
    3POPC   C1B  406   7.192   0.633   7.287
    3POPC   C2B  407   7.288   0.753   6.882
    3POPC   C3B  408   7.151   0.855   6.469
    3POPC   C4B  409   7.286   0.654   6.141
    4POPC   NC3  410   1.133   1.415   8.119
    4POPC   PO4  411   0.764   0.811   8.043
    4POPC   GL1  412   0.893   1.128   7.743
    4POPC   GL2  413   1.216   0.991   7.771
    4POPC   C1A  414   1.153   1.304   7.370
    4POPC   D2A  415   1.400   1.414   6.973
    4POPC   C3A  416   1.236   1.320   6.553
    4POPC   C4A  417   1.031   1.445   6.148
    4POPC   C1B  418   1.360   0.816   7.404
    4POPC   C2B  419   1.294   0.903   7.011
    4POPC   C3B  420   1.498   0.774   6.670
    4POPC   C4B  421   1.381   0.920   6.291
    5POPC   NC3  422   0.675   5.092   8.081
    5POPC   PO4  423   0.168   4.600   7.919
    5POPC   GL1  424   0.531   4.756   7.643
    5POPC   GL2  425   0.637   5.104   7.593
    5POPC   C1A  426   0.722   4.837   7.189
    5POPC   D2A  427   0.537   4.983   6.782
    5POPC   C3A  428   0.726   4.916   6.378
    5POPC   C4A  429   0.688   4.892   5.941
    5POPC   C1B  430   0.362   5.200   7.266
    5POPC   C2B  431   0.046   5.378   7.035
    5POPC   C3B  432   0.088   5.276   6.620
    5POPC   C4B  433   0.246   5.047   6.249
    6POPC   NC3  434   6.259   7.527   8.579
    6POPC   PO4  435   5.730   7.706   8.101
    6POPC   GL1  436   5.646   7.971   7.679
    6POPC   GL2  437   5.692   8.329   7.741
    6POPC   C1A  438   5.754   7.969   7.218
    6POPC   D2A  439   5.530   7.930   6.810
    6POPC   C3A  440   5.820   7.847   6.459
    6POPC   C4A  441   6.227   7.621   6.459
    6POPC   C1B  442   5.522   8.411   7.336
    6POPC   C2B  443   5.703   8.386   6.916
    6POPC   C3B  444   5.647   8.335   6.462
    6POPC   C4B  445   5.666   8.360   5.994
    7POPC   NC3  446   0.327   8.162   8.153
    7POPC   PO4  447   0.842   7.705   8.035
    7POPC   GL1  448   0.460   7.896   7.741
    7POPC   GL2  449   0.398   8.297   7.672
    7POPC   C1A  450   0.178   7.913   7.365
    7POPC   D2A  451   0.379   7.863   6.954
    7POPC   C3A  452   0.154   7.985   6.577
    7POPC   C4A  453   0.150   7.830   6.154
    7POPC   C1B  454   0.577   8.232   7.251
    7POPC   C2B  455   0.480   8.333   6.798
    7POPC   C3B  456   0.610   8.177   6.388
    7POPC   C4B  457   0.895   8.332   6.027
    8POPC   NC3  458   8.499   6.386   8.125
    8POPC   PO4  459   9.190   6.287   8.308
    8POPC   GL1  460   8.975   6.425   7.914
    8POPC   GL2  461   9.060   6.718   7.731
    8POPC   C1A  462   8.777   6.374   7.477
    8POPC   D2A  463   8.715   6.452   7.022
    8POPC   C3A  464   8.714   6.528   6.569
    8POPC   C4A  465   9.011   6.379   6.292
    8POPC   C1B  466   8.908   6.863   7.282
    8POPC   C2B  467   9.100   7.041   6.877
    8POPC   C3B  468   8.938   6.979   6.445
    8POPC   C4B  469   8.685   6.773   6.105
    9POPC   NC3  470   2.577   6.288   8.018
    9POPC   PO4  471   2.666   6.907   8.077
    9POPC   GL1  472   2.571   6.686   7.678
    9POPC   GL2  473   2.867   6.469   7.625
    9POPC   C1A  474   2.488   6.664   7.234
    9POPC   D2A  475   2.551   6.536   6.836
    9POPC   C3A  476   2.429   6.758   6.507
    9POPC   C4A  477   2.666   6.712   6.108
    9POPC   C1B  478   2.994   6.635   7.202
    9POPC   C2B  479   3.017   6.733   6.745
    9POPC   C3B  480   3.130   6.707   6.304
    9POPC   C4B  481   3.057   6.424   5.936
   10POPC   NC3  482   7.519   9.608   7.946
   10POPC   PO4  483   6.945   9.937   8.096
   10POPC   GL1  484   7.121   9.834   7.670
   10POPC   GL2  485   7.175   9.457   7.599
   10POPC   C1A  486   7.017   9.782   7.230
   10POPC   D2A  487   7.135   0.045   6.871
   10POPC   C3A  488   7.105   9.889   6.493
   10POPC   C4A  489   6.849   9.996   6.158
   10POPC   C1B  490   7.485   9.616   7.290
   10POPC   C2B  491   7.333   9.557   6.869
   10POPC   C3B  492   7.466   9.512   6.454
   10POPC   C4B  493   7.649   9.672   6.047
   11POPC   NC3  494   7.938   4.812   8.039
   11POPC   PO4  495   7.984   4.172   8.313
   11POPC   GL1  496   8.122   4.327   7.856
   11POPC   GL2  497   8.453   4.370   7.762
   11POPC   C1A  498   8.123   4.223   7.368
   11POPC   D2A  499   8.240   4.019   6.949
   11POPC   C3A  500   7.976   4.116   6.586
   11POPC   C4A  501   7.822   4.180   6.165
   11POPC   C1B  502   8.534   4.535   7.340
   11POPC   C2B  503   8.648   4.363   6.931
   11POPC   C3B  504   8.464   4.364   6.521
   11POPC   C4B  505   8.299   4.467   6.129
   12POPC   NC3  506   3.329   2.087   8.102
   12POPC   PO4  507   3.775   2.560   8.147
   12POPC   GL1  508   3.650   2.276   7.764
   12POPC   GL2  509   3.543   1.904   7.683
   12POPC   C1A  510   3.513   2.297   7.345
   12POPC   D2A  511   3.449   2.510   6.954
   12POPC   C3A  512   3.339   2.241   6.630
   12POPC   C4A  513   3.339   2.208   6.166
   12POPC   C1B  514   3.767   1.793   7.304
   12POPC   C2B  515   3.868   1.729   6.851
   12POPC   C3B  516   3.681   1.897   6.458
   12POPC   C4B  517   3.248   1.769   6.436
   13POPC   NC3  518   9.179   5.945   8.002
   13POPC   PO4  519   9.479   5.347   8.125
   13POPC   GL1  520   9.120   5.446   7.867
   13POPC   GL2  521   9.360   5.635   7.647
   13POPC   C1A  522   8.889   5.494   7.461
   13POPC   D2A  523   9.050   5.309   7.071
   13POPC   C3A  524   9.032   5.605   6.748
   13POPC   C4A  525   9.002   5.769   6.327
   13POPC   C1B  526   9.222   5.799   7.243
   13POPC   C2B  527   8.832   5.938   7.099
   13POPC   C3B  528   8.766   6.045   6.688
   13POPC   C4B  529   8.574   6.065   6.297
   14POPC   NC3  530   2.002   4.425   8.267
   14POPC   PO4  531   1.395   4.244   7.992
   14POPC   GL1  532   1.747   4.315   7.732
   14POPC   GL2  533   1.933   4.610   7.767
   14POPC   C1A  534   1.741   4.388   7.265
   14POPC   D2A  535   1.725   4.143   6.859
   14POPC   C3A  536   1.791   4.412   6.500
   14POPC   C4A  537   1.807   4.216   6.087
   14POPC   C1B  538   2.201   4.330   7.497
   14POPC   C2B  539   2.203   4.164   7.055
   14POPC   C3B  540   2.171   4.074   6.581
   14POPC   C4B  541   2.260   4.404   6.239
   15POPC   NC3  542   4.331   9.062   8.067
   15POPC   PO4  543   3.878   8.534   8.140
   15POPC   GL1  544   3.870   8.760   7.688
   15POPC   GL2  545   4.071   9.059   7.638
   15POPC   C1A  546   3.827   8.958   7.217
   15POPC   D2A  547   3.986   8.772   6.815
   15POPC   C3A  548   4.113   9.043   6.473
   15POPC   C4A  549   4.169   9.215   6.005
   15POPC   C1B  550   4.322   8.860   7.257
   15POPC   C2B  551   4.532   8.597   6.986
   15POPC   C3B  552   4.566   8.838   6.629
   15POPC   C4B  553   4.458   8.809   6.197
   16POPC   NC3  554   0.386   1.136   7.893
   16POPC   PO4  555   0.711   1.658   8.033
   16POPC   GL1  556   0.535   1.546   7.630
   16POPC   GL2  557   0.196   1.419   7.513
   16POPC   C1A  558   0.651   1.278   7.281
   16POPC   D2A  559   0.905   1.211   6.919
   16POPC   C3A  560   0.740   1.145   6.494
   16POPC   C4A  561   0.519   1.474   6.288
   16POPC   C1B  562   0.221   0.998   7.273
   16POPC   C2B  563   0.384   1.098   6.871
   16POPC   C3B  564   0.197   1.142   6.486
   16POPC   C4B  565   0.211   0.991   6.079
   17POPC   NC3  566   7.928   5.745   7.992
   17POPC   PO4  567   8.590   5.863   8.005
   17POPC   GL1  568   8.345   5.741   7.647
   17POPC   GL2  569   8.155   6.070   7.657
   17POPC   C1A  570   8.446   5.612   7.200
   17POPC   D2A  571   8.482   5.618   6.739
   17POPC   C3A  572   8.119   5.459   6.480
   17POPC   C4A  573   7.858   5.557   6.110
   17POPC   C1B  574   8.362   6.136   7.246
   17POPC   C2B  575   8.272   6.092   6.786
   17POPC   C3B  576   8.054   6.038   6.375
   17POPC   C4B  577   7.855   6.147   5.957
   18POPC   NC3  578   5.741   0.445   8.205
   18POPC   PO4  579   6.214   9.951   8.249
   18POPC   GL1  580   6.036   0.319   7.821
   18POPC   GL2  581   5.666   0.502   7.722
   18POPC   C1A  582   5.897   0.295   7.342
   18POPC   D2A  583   6.023   0.025   7.017
   18POPC   C3A  584   6.044   0.190   6.620
   18POPC   C4A  585   5.934   0.032   6.268
   18POPC   C1B  586   5.565   0.700   7.322
   18POPC   C2B  587   5.788   0.686   6.930
   18POPC   C3B  588   5.660   0.514   6.510
   18POPC   C4B  589   5.908   0.557   6.171
   19POPC   NC3  590   9.482   6.563   8.068
   19POPC   PO4  591   0.172   6.252   8.121
   19POPC   GL1  592   9.976   6.558   7.756
   19POPC   GL2  593   9.733   6.751   7.689
   19POPC   C1A  594   9.833   6.580   7.241
   19POPC   D2A  595   9.803   6.438   6.787
   19POPC   C3A  596   9.850   6.594   6.329
   19POPC   C4A  597   9.930   6.375   5.828
   19POPC   C1B  598   9.405   6.826   7.380
   19POPC   C2B  599   9.274   6.574   7.016
   19POPC   C3B  600   9.359   6.633   6.577
   19POPC   C4B  601   9.378   6.889   6.227
   20POPC   NC3  602   9.608   0.959   8.411
   20POPC   PO4  603   9.991   1.383   7.989
   20POPC   GL1  604   9.719   1.286   7.669
   20POPC   GL2  605   9.403   1.318   7.811
   20POPC   C1A  606   9.768   1.238   7.236
   20POPC   D2A  607   9.857   1.000   6.861
   20POPC   C3A  608   9.694   1.128   6.442
   20POPC   C4A  609   9.743   0.808   6.140
   20POPC   C1B  610   9.283   1.196   7.383
   20POPC   C2B  611   9.346   1.170   6.910
   20POPC   C3B  612   9.380   1.511   6.580
   20POPC   C4B  613   9.478   1.547   6.133
   21POPC   NC3  614   1.913   8.073   8.012
   21POPC   PO4  615   2.357   7.552   8.058
   21POPC   GL1  616   2.195   7.781   7.658
   21POPC   GL2  617   1.886   8.008   7.518
   21POPC   C1A  618   2.282   7.946   7.223
   21POPC   D2A  619   2.077   7.897   6.834
   21POPC   C3A  620   2.373   7.921   6.473
   21POPC   C4A  621   2.475   7.994   6.032
   21POPC   C1B  622   1.575   8.301   7.338
   21POPC   C2B  623   1.460   8.358   6.894
   21POPC   C3B  624   1.723   8.168   6.569
   21POPC   C4B  625   2.017   8.198   6.239
   22POPC   NC3  626   4.147   1.515   8.137
   22POPC   PO4  627   4.693   1.129   8.312
   22POPC   GL1  628   4.582   1.373   7.876
   22POPC   GL2  629   4.266   1.210   7.736
   22POPC   C1A  630   4.612   1.304   7.350
   22POPC   D2A  631   4.385   1.163   6.920
   22POPC   C3A  632   4.553   0.964   6.493
   22POPC   C4A  633   4.592   1.170   6.033
   22POPC   C1B  634   3.980   1.242   7.388
   22POPC   C2B  635   3.854   1.129   6.957
   22POPC   C3B  636   3.946   0.977   6.552
   22POPC   C4B  637   4.177   1.234   6.293
   23POPC   NC3  638   7.691   6.987   8.036
   23POPC   PO4  639   8.288   7.467   8.069
   23POPC   GL1  640   7.986   7.299   7.770
   23POPC   GL2  641   8.216   7.292   7.588
   23POPC   C1A  642   7.875   7.074   7.323
   23POPC   D2A  643   8.121   7.125   6.915
   23POPC   C3A  644   7.929   7.111   6.505
   23POPC   C4A  645   7.681   7.014   6.153
   23POPC   C1B  646   8.195   7.543   7.234
   23POPC   C2B  647   8.380   7.660   6.857
   23POPC   C3B  648   8.298   7.622   6.428
   23POPC   C4B  649   8.261   7.411   6.029
   24POPC   NC3  650   9.205   3.494   7.993
   24POPC   PO4  651   8.735   3.964   7.990
   24POPC   GL1  652   8.870   3.684   7.659
   24POPC   GL2  653   8.822   3.289   7.737
   24POPC   C1A  654   9.131   3.762   7.295
   24POPC   D2A  655   9.332   3.603   6.915
   24POPC   C3A  656   9.090   3.737   6.566
   24POPC   C4A  657   8.861   3.594   6.244
   24POPC   C1B  658   9.039   3.270   7.329
   24POPC   C2B  659   8.901   3.335   6.903
   24POPC   C3B  660   9.002   3.181   6.497
   24POPC   C4B  661   8.764   3.116   6.082
   25POPC   NC3  662   0.224   1.777   8.065
   25POPC   PO4  663   0.464   2.225   8.414
   25POPC   GL1  664   0.417   2.150   7.819
   25POPC   GL2  665   0.690   2.038   7.636
   25POPC   C1A  666   0.194   2.075   7.403
   25POPC   D2A  667   9.933   2.181   7.023
   25POPC   C3A  668   0.099   2.021   6.651
   25POPC   C4A  669   0.159   2.056   6.216
   25POPC   C1B  670   0.628   1.861   7.225
   25POPC   C2B  671   0.588   2.075   6.825
   25POPC   C3B  672   0.645   2.005   6.385
   25POPC   C4B  673   0.534   1.843   5.955
   26POPC   NC3  674   9.854   4.334   8.123
   26POPC   PO4  675   9.372   4.715   7.817
   26POPC   GL1  676   9.720   4.499   7.629
   26POPC   GL2  677   9.753   4.099   7.674
   26POPC   C1A  678   9.659   4.613   7.184
   26POPC   D2A  679   9.385   4.592   6.828
   26POPC   C3A  680   9.537   4.479   6.424
   26POPC   C4A  681   9.528   4.696   6.022
   26POPC   C1B  682   9.888   4.181   7.254
   26POPC   C2B  683   9.930   4.361   6.836
   26POPC   C3B  684   0.014   4.173   6.466
   26POPC   C4B  685   9.943   3.826   6.204
   27POPC   NC3  686   7.294   0.989   8.059
   27POPC   PO4  687   7.694   1.460   7.732
   27POPC   GL1  688   7.262   1.388   7.609
   27POPC   GL2  689   7.133   1.046   7.595
   27POPC   C1A  690   7.163   1.314   7.169
   27POPC   D2A  691   7.375   1.254   6.764
   27POPC   C3A  692   7.096   1.373   6.444
   27POPC   C4A  693   6.987   1.263   6.023
   27POPC   C1B  694   7.541   0.986   7.334
   27POPC   C2B  695   7.768   0.949   6.928
   27POPC   C3B  696   7.650   0.878   6.503
   27POPC   C4B  697   7.466   1.146   6.161
   28POPC   NC3  698   9.235   4.963   8.179
   28POPC   PO4  699   8.584   4.914   8.016
   28POPC   GL1  700   8.878   4.759   7.666
   28POPC   GL2  701   9.088   5.037   7.547
   28POPC   C1A  702   9.021   4.657   7.201
   28POPC   D2A  703   8.889   4.782   6.748
   28POPC   C3A  704   9.114   4.817   6.334
   28POPC   C4A  705   9.084   4.845   5.849
   28POPC   C1B  706   8.661   5.052   7.335
   28POPC   C2B  707   8.567   5.148   6.935
   28POPC   C3B  708   8.752   5.235   6.526
   28POPC   C4B  709   8.557   5.512   6.239
   29POPC   NC3  710   6.005   8.840   8.191
   29POPC   PO4  711   5.459   9.250   8.128
   29POPC   GL1  712   5.728   9.208   7.765
   29POPC   GL2  713   5.833   8.854   7.696
   29POPC   C1A  714   5.764   9.200   7.322
   29POPC   D2A  715   5.976   9.117   6.940
   29POPC   C3A  716   5.745   9.202   6.565
   29POPC   C4A  717   5.430   9.155   6.245
   29POPC   C1B  718   5.979   8.651   7.317
   29POPC   C2B  719   6.186   8.626   6.928
   29POPC   C3B  720   5.928   8.724   6.622
   29POPC   C4B  721   5.774   8.789   6.256
   30POPC   NC3  722   5.009   8.897   8.125
   30POPC   PO4  723   4.431   8.676   7.845
   30POPC   GL1  724   4.838   8.746   7.636
   30POPC   GL2  725   4.932   9.124   7.649
   30POPC   C1A  726   4.931   8.840   7.202
   30POPC   D2A  727   4.738   9.201   7.037
   30POPC   C3A  728   4.876   9.254   6.663
   30POPC   C4A  729   4.959   8.975   6.349
   30POPC   C1B  730   5.348   8.925   7.482
   30POPC   C2B  731   5.535   8.834   7.049
   30POPC   C3B  732   5.395   8.796   6.624
   30POPC   C4B  733   5.296   8.637   6.203
   31POPC   NC3  734   5.900   9.671   8.016
   31POPC   PO4  735   5.380   0.083   8.146
   31POPC   GL1  736   5.634   9.992   7.721
   31POPC   GL2  737   5.780   9.692   7.515
   31POPC   C1A  738   5.455   0.020   7.292
   31POPC   D2A  739   5.556   0.229   6.924
   31POPC   C3A  740   5.505   9.991   6.546
   31POPC   C4A  741   5.577   9.647   6.257
   31POPC   C1B  742   6.113   9.549   7.195
   31POPC   C2B  743   6.257   9.560   6.777
   31POPC   C3B  744   6.058   9.542   6.356
   31POPC   C4B  745   5.927   9.228   6.044
   32POPC   NC3  746   7.143   2.446   8.104
   32POPC   PO4  747   7.216   3.114   8.100
   32POPC   GL1  748   7.280   2.819   7.765
   32POPC   GL2  749   7.587   2.978   7.656
   32POPC   C1A  750   7.081   2.610   7.408
   32POPC   D2A  751   7.262   2.737   7.015
   32POPC   C3A  752   7.088   2.689   6.607
   32POPC   C4A  753   7.118   3.022   6.295
   32POPC   C1B  754   7.802   2.758   7.320
   32POPC   C2B  755   7.754   2.617   6.908
   32POPC   C3B  756   7.602   2.824   6.526
   32POPC   C4B  757   7.597   2.895   6.057
   33POPC   NC3  758   8.975   9.282   8.252
   33POPC   PO4  759   9.202   8.590   8.141
   33POPC   GL1  760   9.038   8.851   7.792
   33POPC   GL2  761   8.667   8.851   7.914
   33POPC   C1A  762   9.112   8.972   7.324
   33POPC   D2A  763   9.174   8.761   6.934
   33POPC   C3A  764   9.143   9.036   6.602
   33POPC   C4A  765   8.967   8.993   6.244
   33POPC   C1B  766   8.635   8.833   7.460
   33POPC   C2B  767   8.690   8.918   7.011
   33POPC   C3B  768   8.706   8.739   6.608
   33POPC   C4B  769   8.463   8.658   6.227
   34POPC   NC3  770   5.042   0.391   8.034
   34POPC   PO4  771   4.642   0.888   7.828
   34POPC   GL1  772   4.875   0.595   7.589
   34POPC   GL2  773   4.733   0.249   7.583
   34POPC   C1A  774   5.097   0.482   7.215
   34POPC   D2A  775   5.281   0.654   6.853
   34POPC   C3A  776   5.112   0.542   6.457
   34POPC   C4A  777   5.126   0.511   6.007
   34POPC   C1B  778   4.751   0.097   7.148
   34POPC   C2B  779   5.063   0.145   6.780
   34POPC   C3B  780   5.057   0.062   6.289
   34POPC   C4B  781   4.872   0.092   5.842
   35POPC   NC3  782   0.288   6.775   8.135
   35POPC   PO4  783   0.835   6.598   8.103
   35POPC   GL1  784   0.802   6.409   7.709
   35POPC   GL2  785   0.473   6.448   7.744
   35POPC   C1A  786   0.782   6.593   7.310
   35POPC   D2A  787   0.735   6.876   6.966
   35POPC   C3A  788   0.770   6.622   6.599
   35POPC   C4A  789   0.632   6.713   6.199
   35POPC   C1B  790   0.297   6.485   7.374
   35POPC   C2B  791   0.431   6.409   6.958
   35POPC   C3B  792   0.280   6.491   6.575
   35POPC   C4B  793   0.246   6.304   6.203
   36POPC   NC3  794   7.576   8.610   7.922
   36POPC   PO4  795   7.808   9.243   8.015
   36POPC   GL1  796   7.523   9.079   7.710
   36POPC   GL2  797   7.179   8.958   7.829
   36POPC   C1A  798   7.525   9.108   7.261
   36POPC   D2A  799   7.777   9.182   6.897
   36POPC   C3A  800   7.661   9.001   6.504
   36POPC   C4A  801   7.550   9.168   6.072
   36POPC   C1B  802   7.186   8.765   7.432
   36POPC   C2B  803   7.280   8.683   7.017
   36POPC   C3B  804   7.015   8.692   6.655
   36POPC   C4B  805   7.216   8.839   6.293
   37POPC   NC3  806   1.964   8.734   8.095
   37POPC   PO4  807   2.272   8.255   7.784
   37POPC   GL1  808   1.972   8.544   7.620
   37POPC   GL2  809   2.049   8.928   7.638
   37POPC   C1A  810   1.903   8.678   7.204
   37POPC   D2A  811   1.933   8.996   6.915
   37POPC   C3A  812   2.038   8.752   6.564
   37POPC   C4A  813   1.717   8.628   6.276
   37POPC   C1B  814   2.176   9.258   7.326
   37POPC   C2B  815   2.396   9.232   6.918
   37POPC   C3B  816   2.227   9.243   6.510
   37POPC   C4B  817   1.923   9.104   6.217
   38POPC   NC3  818   0.658   6.185   8.146
   38POPC   PO4  819   0.438   5.560   7.997
   38POPC   GL1  820   0.493   5.932   7.749
   38POPC   GL2  821   0.835   5.887   7.705
   38POPC   C1A  822   0.534   6.054   7.323
   38POPC   D2A  823   0.390   5.778   6.973
   38POPC   C3A  824   0.411   5.982   6.574
   38POPC   C4A  825   0.725   6.180   6.284
   38POPC   C1B  826   0.654   5.579   7.392
   38POPC   C2B  827   0.743   5.400   6.981
   38POPC   C3B  828   0.619   5.431   6.518
   38POPC   C4B  829   0.264   5.601   6.257
   39POPC   NC3  830   2.096   7.161   8.099
   39POPC   PO4  831   1.526   7.661   8.063
   39POPC   GL1  832   1.739   7.542   7.654
   39POPC   GL2  833   2.000   7.295   7.624
   39POPC   C1A  834   1.914   7.565   7.206
   39POPC   D2A  835   1.774   7.426   6.773
   39POPC   C3A  836   1.923   7.660   6.423
   39POPC   C4A  837   2.089   7.598   6.005
   39POPC   C1B  838   2.237   7.105   7.296
   39POPC   C2B  839   2.137   7.075   6.874
   39POPC   C3B  840   2.238   7.251   6.495
   39POPC   C4B  841   2.263   7.089   6.082
   40POPC   NC3  842   6.522   0.153   7.940
   40POPC   PO4  843   6.966   0.682   7.941
   40POPC   GL1  844   6.939   0.329   7.678
   40POPC   GL2  845   6.647   0.527   7.584
   40POPC   C1A  846   6.874   0.257   7.240
   40POPC   D2A  847   6.812   0.544   6.901
   40POPC   C3A  848   6.910   0.414   6.460
   40POPC   C4A  849   6.745   0.652   6.102
   40POPC   C1B  850   6.388   0.360   7.316
   40POPC   C2B  851   6.278   0.489   6.946
   40POPC   C3B  852   6.428   0.575   6.546
   40POPC   C4B  853   6.365   0.327   6.214
   41POPC   NC3  854   8.840   7.329   8.095
   41POPC   PO4  855   8.425   6.840   8.140
   41POPC   GL1  856   8.648   7.057   7.726
   41POPC   GL2  857   9.026   7.224   7.604
   41POPC   C1A  858   8.649   7.496   7.472
   41POPC   D2A  859   8.718   7.346   7.088
   41POPC   C3A  860   8.800   7.425   6.667
   41POPC   C4A  861   8.744   7.472   6.226
   41POPC   C1B  862   9.142   7.565   7.285
   41POPC   C2B  863   9.306   7.579   6.851
   41POPC   C3B  864   9.169   7.692   6.421
   41POPC   C4B  865   9.212   7.683   5.945
   42POPC   NC3  866   2.404   3.740   8.087
   42POPC   PO4  867   1.809   4.015   8.305
   42POPC   GL1  868   1.799   3.816   7.868
   42POPC   GL2  869   2.004   3.499   7.753
   42POPC   C1A  870   1.815   3.884   7.417
   42POPC   D2A  871   2.065   3.669   7.106
   42POPC   C3A  872   1.843   3.615   6.726
   42POPC   C4A  873   1.671   3.823   6.382
   42POPC   C1B  874   1.750   3.336   7.374
   42POPC   C2B  875   1.597   3.182   6.955
   42POPC   C3B  876   1.758   3.117   6.524
   42POPC   C4B  877   2.016   3.404   6.276
   43POPC   NC3  878   1.008   3.101   8.018
   43POPC   PO4  879   0.753   2.502   7.912
   43POPC   GL1  880   0.985   2.750   7.633
   43POPC   GL2  881   1.344   2.800   7.717
   43POPC   C1A  882   0.914   2.731   7.220
   43POPC   D2A  883   0.787   2.547   6.854
   43POPC   C3A  884   0.935   2.778   6.538
   43POPC   C4A  885   1.057   2.662   6.124
   43POPC   C1B  886   1.577   2.784   7.320
   43POPC   C2B  887   1.363   2.713   6.924
   43POPC   C3B  888   1.458   2.679   6.505
   43POPC   C4B  889   1.456   2.947   6.145
   44POPC   NC3  890   9.417   1.852   7.919
   44POPC   PO4  891   9.971   2.255   8.014
   44POPC   GL1  892   9.751   2.147   7.646
   44POPC   GL2  893   9.866   1.795   7.677
   44POPC   C1A  894   9.491   2.263   7.266
   44POPC   D2A  895   9.489   2.494   6.851
   44POPC   C3A  896   9.814   2.417   6.480
   44POPC   C4A  897   9.764   2.274   5.965
   44POPC   C1B  898   9.753   1.755   7.246
   44POPC   C2B  899   9.850   1.534   6.830
   44POPC   C3B  900   9.918   1.598   6.402
   44POPC   C4B  901   9.665   1.959   6.344
   45POPC   NC3  902   0.335   2.541   8.119
   45POPC   PO4  903   0.476   3.173   8.060
   45POPC   GL1  904   0.358   2.916   7.694
   45POPC   GL2  905   0.127   2.614   7.663
   45POPC   C1A  906   0.256   3.012   7.258
   45POPC   D2A  907   0.543   2.981   6.924
   45POPC   C3A  908   0.507   3.060   6.503
   45POPC   C4A  909   0.582   2.824   6.152
   45POPC   C1B  910   0.405   2.528   7.293
   45POPC   C2B  911   0.271   2.530   6.860
   45POPC   C3B  912   0.380   2.463   6.447
   45POPC   C4B  913   0.201   2.527   6.024
   46POPC   NC3  914   8.134   7.129   8.333
   46POPC   PO4  915   7.873   6.557   8.072
   46POPC   GL1  916   8.101   6.805   7.739
   46POPC   GL2  917   8.333   6.567   7.679
   46POPC   C1A  918   8.385   6.910   7.307
   46POPC   D2A  919   8.593   6.926   6.857
   46POPC   C3A  920   8.437   7.105   6.458
   46POPC   C4A  921   8.201   6.916   6.099
   46POPC   C1B  922   8.029   6.532   7.330
   46POPC   C2B  923   8.226   6.577   6.948
   46POPC   C3B  924   8.218   6.647   6.543
   46POPC   C4B  925   7.907   6.534   6.302
   47POPC   NC3  926   4.980   1.494   8.300
   47POPC   PO4  927   4.484   1.855   8.118
   47POPC   GL1  928   4.756   1.843   7.765
   47POPC   GL2  929   5.088   1.865   7.916
   47POPC   C1A  930   4.778   1.799   7.302
   47POPC   D2A  931   4.983   1.930   6.895
   47POPC   C3A  932   4.714   1.961   6.529
   47POPC   C4A  933   4.828   2.344   6.343
   47POPC   C1B  934   5.303   1.979   7.501
   47POPC   C2B  935   5.501   2.103   7.094
   47POPC   C3B  936   5.417   2.166   6.658
   47POPC   C4B  937   5.190   1.897   6.365
   48POPC   NC3  938   2.657   4.600   7.973
   48POPC   PO4  939   2.734   5.256   8.107
   48POPC   GL1  940   2.581   5.123   7.720
   48POPC   GL2  941   2.419   4.807   7.565
   48POPC   C1A  942   2.681   5.201   7.292
   48POPC   D2A  943   2.538   5.022   6.919
   48POPC   C3A  944   2.702   5.108   6.477
   48POPC   C4A  945   2.664   5.152   6.013
   48POPC   C1B  946   2.549   4.578   7.160
   48POPC   C2B  947   2.664   4.595   6.662
   48POPC   C3B  948   2.923   4.648   6.240
   48POPC   C4B  949   3.063   4.481   5.795
   49POPC   NC3  950   4.291   2.300   8.143
   49POPC   PO4  951   3.744   1.808   8.146
   49POPC   GL1  952   4.046   1.958   7.848
   49POPC   GL2  953   4.240   1.723   7.679
   49POPC   C1A  954   4.090   2.157   7.439
   49POPC   D2A  955   3.908   2.221   7.011
   49POPC   C3A  956   4.070   2.188   6.582
   49POPC   C4A  957   4.336   2.139   6.219
   49POPC   C1B  958   4.259   1.662   7.256
   49POPC   C2B  959   4.386   1.796   6.880
   49POPC   C3B  960   4.225   1.707   6.480
   49POPC   C4B  961   4.459   1.638   6.137
   50POPC   NC3  962   6.359   7.284   7.967
   50POPC   PO4  963   6.855   7.079   8.400
   50POPC   GL1  964   6.795   7.132   7.781
   50POPC   GL2  965   6.993   7.376   7.632
   50POPC   C1A  966   6.622   7.188   7.305
   50POPC   D2A  967   6.387   7.224   6.875
   50POPC   C3A  968   6.600   7.261   6.468
   50POPC   C4A  969   6.655   7.095   6.052
   50POPC   C1B  970   7.002   7.509   7.238
   50POPC   C2B  971   6.928   7.297   6.877
   50POPC   C3B  972   7.028   7.506   6.506
   50POPC   C4B  973   6.813   7.588   6.090
   51POPC   NC3  974   9.713   2.637   8.074
   51POPC   PO4  975   9.145   3.074   8.189
   51POPC   GL1  976   9.363   2.933   7.749
   51POPC   GL2  977   9.600   2.645   7.603
   51POPC   C1A  978   9.331   2.861   7.263
   51POPC   D2A  979   9.435   3.104   6.915
   51POPC   C3A  980   9.478   2.891   6.536
   51POPC   C4A  981   9.273   2.945   6.141
   51POPC   C1B  982   9.851   2.652   7.225
   51POPC   C2B  983   9.920   2.910   6.859
   51POPC   C3B  984   0.024   2.882   6.434
   51POPC   C4B  985   9.747   2.752   6.099
   52POPC   NC3  986   6.671   1.880   8.273
   52POPC   PO4  987   7.094   1.409   8.099
   52POPC   GL1  988   6.844   1.643   7.835
   52POPC   GL2  989   6.810   2.025   7.797
   52POPC   C1A  990   6.815   1.634   7.400
   52POPC   D2A  991   6.593   1.410   7.095
   52POPC   C3A  992   6.657   1.539   6.664
   52POPC   C4A  993   6.819   1.803   6.314
   52POPC   C1B  994   6.517   2.066   7.417
   52POPC   C2B  995   6.380   1.878   6.978
   52POPC   C3B  996   6.352   1.963   6.504
   52POPC   C4B  997   6.545   2.243   6.142
   53POPC   NC3  998   0.197   3.486   7.865
   53POPC   PO4  999   9.849   3.037   8.270
   53POPC   GL1 1000   9.855   3.084   7.796
   53POPC   GL2 1001   9.677   3.429   7.733
   53POPC   C1A 1002   9.772   3.154   7.329
   53POPC   D2A 1003   9.993   3.410   6.999
   53POPC   C3A 1004   9.748   3.431   6.618
   53POPC   C4A 1005   9.683   3.235   6.236
   53POPC   C1B 1006   9.677   3.694   7.318
   53POPC   C2B 1007   9.760   3.872   6.882
   53POPC   C3B 1008   9.548   3.963   6.509
   53POPC   C4B 1009   9.453   3.679   6.191
   54POPC   NC3 1010   6.971   8.764   8.439
   54POPC   PO4 1011   6.426   9.016   8.228
   54POPC   GL1 1012   6.391   8.898   7.772
   54POPC   GL2 1013   6.718   8.696   7.723
   54POPC   C1A 1014   6.322   9.046   7.315
   54POPC   D2A 1015   6.530   9.117   6.880
   54POPC   C3A 1016   6.267   9.099   6.518
   54POPC   C4A 1017   6.284   8.763   6.264
   54POPC   C1B 1018   6.808   9.091   7.497
   54POPC   C2B 1019   7.039   9.206   7.106
   54POPC   C3B 1020   7.058   9.191   6.641
   54POPC   C4B 1021   6.739   9.004   6.350
   55POPC   NC3 1022   9.691   0.349   7.813
   55POPC   PO4 1023   9.279   0.701   8.156
   55POPC   GL1 1024   9.507   0.805   7.712
   55POPC   GL2 1025   9.902   0.788   7.645
   55POPC   C1A 1026   9.547   0.775   7.246
   55POPC   D2A 1027   9.617   0.538   6.860
   55POPC   C3A 1028   9.393   0.733   6.539
   55POPC   C4A 1029   9.250   0.653   6.141
   55POPC   C1B 1030   9.950   0.473   7.261
   55POPC   C2B 1031   9.998   0.178   6.905
   55POPC   C3B 1032   9.982   0.398   6.509
   55POPC   C4B 1033   9.632   0.325   6.279
   56POPC   NC3 1034   0.047   5.815   7.995
   56POPC   PO4 1035   9.504   6.184   7.757
   56POPC   GL1 1036   9.954   6.087   7.572
   56POPC   GL2 1037   0.116   5.728   7.482
   56POPC   C1A 1038   0.039   6.113   7.137
   56POPC   D2A 1039   9.912   5.894   6.784
   56POPC   C3A 1040   9.564   6.053   6.526
   56POPC   C4A 1041   9.817   6.014   6.184
   56POPC   C1B 1042   9.725   5.714   7.267
   56POPC   C2B 1043   9.536   5.561   6.879
   56POPC   C3B 1044   9.686   5.558   6.447
   56POPC   C4B 1045   9.441   5.668   6.089
   57POPC   NC3 1046   8.132   9.586   8.051
   57POPC   PO4 1047   8.634   0.042   7.918
   57POPC   GL1 1048   8.260   9.886   7.632
   57POPC   GL2 1049   8.324   9.507   7.592
   57POPC   C1A 1050   7.889  10.000   7.316
   57POPC   D2A 1051   7.762   9.810   6.895
   57POPC   C3A 1052   7.818   9.942   6.464
   57POPC   C4A 1053   8.128   9.850   6.138
   57POPC   C1B 1054   8.052   9.513   7.230
   57POPC   C2B 1055   8.163   9.492   6.785
   57POPC   C3B 1056   7.961   9.420   6.375
   57POPC   C4B 1057   8.061   9.382   5.910
   58POPC   NC3 1058   3.765   7.518   8.180
   58POPC   PO4 1059   3.663   6.958   8.012
   58POPC   GL1 1060   3.744   7.298   7.703
   58POPC   GL2 1061   3.425   7.449   7.736
   58POPC   C1A 1062   3.696   7.423   7.242
   58POPC   D2A 1063   3.617   7.488   6.797
   58POPC   C3A 1064   3.455   7.159   6.549
   58POPC   C4A 1065   3.537   6.995   6.153
   58POPC   C1B 1066   3.263   7.666   7.333
   58POPC   C2B 1067   3.132   7.657   6.860
   58POPC   C3B 1068   3.309   7.649   6.417
   58POPC   C4B 1069   3.705   7.514   6.211
   59POPC   NC3 1070   8.822   2.237   7.859
   59POPC   PO4 1071   9.019   1.618   8.008
   59POPC   GL1 1072   9.049   1.625   7.561
   59POPC   GL2 1073   8.741   1.800   7.538
   59POPC   C1A 1074   9.260   1.649   7.128
   59POPC   D2A 1075   9.458   1.964   6.833
   59POPC   C3A 1076   9.183   1.996   6.461
   59POPC   C4A 1077   9.006   1.688   6.220
   59POPC   C1B 1078   9.008   2.073   7.264
   59POPC   C2B 1079   8.972   2.229   6.859
   59POPC   C3B 1080   8.679   2.056   6.565
   59POPC   C4B 1081   8.518   1.752   6.296
   60POPC   NC3 1082   6.720   1.117   8.116
   60POPC   PO4 1083   6.081   0.797   8.135
   60POPC   GL1 1084   6.374   0.916   7.772
   60POPC   GL2 1085   6.611   1.181   7.620
   60POPC   C1A 1086   6.280   0.856   7.323
   60POPC   D2A 1087   6.379   0.985   6.900
   60POPC   C3A 1088   6.087   0.943   6.586
   60POPC   C4A 1089   6.260   0.931   6.194
   60POPC   C1B 1090   6.779   0.948   7.253
   60POPC   C2B 1091   6.876   1.063   6.831
   60POPC   C3B 1092   6.679   1.062   6.438
   60POPC   C4B 1093   6.500   1.388   6.182
   61POPC   NC3 1094   0.998   4.085   7.841
   61POPC   PO4 1095   0.934   4.692   7.963
   61POPC   GL1 1096   0.981   4.513   7.564
   61POPC   GL2 1097   1.290   4.338   7.508
   61POPC   C1A 1098   0.963   4.397   7.114
   61POPC   D2A 1099   0.918   4.615   6.761
   61POPC   C3A 1100   0.900   4.444   6.402
   61POPC   C4A 1101   1.012   4.384   5.995
   61POPC   C1B 1102   1.329   4.051   7.169
   61POPC   C2B 1103   1.209   4.133   6.727
   61POPC   C3B 1104   1.357   4.226   6.332
   61POPC   C4B 1105   1.361   3.974   5.972
   62POPC   NC3 1106   7.617   3.327   8.108
   62POPC   PO4 1107   7.120   3.793   7.981
   62POPC   GL1 1108   7.442   3.620   7.738
   62POPC   GL2 1109   7.209   3.346   7.633
   62POPC   C1A 1110   7.659   3.412   7.389
   62POPC   D2A 1111   7.588   3.146   7.029
   62POPC   C3A 1112   7.627   3.331   6.617
   62POPC   C4A 1113   7.518   3.334   6.243
   62POPC   C1B 1114   7.223   3.675   7.293
   62POPC   C2B 1115   7.348   3.642   6.887
   62POPC   C3B 1116   7.122   3.467   6.546
   62POPC   C4B 1117   7.095   3.566   6.110
   63POPC   NC3 1118   1.887   2.895   8.163
   63POPC   PO4 1119   2.459   3.275   8.131
   63POPC   GL1 1120   2.319   3.032   7.747
   63POPC   GL2 1121   2.070   2.742   7.714
   63POPC   C1A 1122   2.185   3.046   7.296
   63POPC   D2A 1123   2.112   3.204   6.890
   63POPC   C3A 1124   2.257   2.978   6.529
   63POPC   C4A 1125   2.152   2.925   6.099
   63POPC   C1B 1126   2.050   2.556   7.309
   63POPC   C2B 1127   1.911   2.736   6.899
   63POPC   C3B 1128   1.980   2.549   6.503
   63POPC   C4B 1129   1.797   2.572   6.105
   64POPC   NC3 1130   8.012   7.804   7.878
   64POPC   PO4 1131   8.228   8.392   8.235
   64POPC   GL1 1132   8.344   8.458   7.770
   64POPC   GL2 1133   8.315   8.110   7.598
   64POPC   C1A 1134   8.289   8.490   7.288
   64POPC   D2A 1135   8.390   8.156   7.011
   64POPC   C3A 1136   8.396   8.326   6.633
   64POPC   C4A 1137   8.378   8.155   6.251
   64POPC   C1B 1138   7.969   8.022   7.262
   64POPC   C2B 1139   7.893   7.808   6.869
   64POPC   C3B 1140   7.942   7.996   6.489
   64POPC   C4B 1141   8.004   7.872   6.081
   65POPC   NC3 1142   4.235   9.806   8.115
   65POPC   PO4 1143   4.748   9.309   8.141
   65POPC   GL1 1144   4.456   9.459   7.780
   65POPC   GL2 1145   4.406   9.821   7.639
   65POPC   C1A 1146   4.371   9.368   7.354
   65POPC   D2A 1147   4.456   9.651   7.012
   65POPC   C3A 1148   4.396   9.435   6.608
   65POPC   C4A 1149   4.606   9.319   6.224
   65POPC   C1B 1150   4.049   9.738   7.441
   65POPC   C2B 1151   3.955   9.792   7.008
   65POPC   C3B 1152   4.202   9.910   6.615
   65POPC   C4B 1153   4.078   9.791   6.170
   66POPC   NC3 1154   2.071   1.272   8.046
   66POPC   PO4 1155   1.569   0.847   8.100
   66POPC   GL1 1156   1.759   1.007   7.735
   66POPC   GL2 1157   2.118   0.994   7.609
   66POPC   C1A 1158   1.674   1.213   7.369
   66POPC   D2A 1159   1.786   1.058   6.986
   66POPC   C3A 1160   1.746   1.206   6.568
   66POPC   C4A 1161   2.005   1.111   6.221
   66POPC   C1B 1162   2.168   1.330   7.279
   66POPC   C2B 1163   2.147   1.395   6.819
   66POPC   C3B 1164   2.071   1.609   6.427
   66POPC   C4B 1165   1.978   1.614   5.981
   67POPC   NC3 1166   7.329   4.201   7.993
   67POPC   PO4 1167   7.470   4.780   8.011
   67POPC   GL1 1168   7.669   4.506   7.695
   67POPC   GL2 1169   7.711   4.094   7.655
   67POPC   C1A 1170   7.541   4.457   7.294
   67POPC   D2A 1171   7.695   4.420   6.897
   67POPC   C3A 1172   7.487   4.341   6.530
   67POPC   C4A 1173   7.397   4.487   6.130
   67POPC   C1B 1174   7.634   3.976   7.208
   67POPC   C2B 1175   7.253   4.133   6.957
   67POPC   C3B 1176   7.117   3.991   6.543
   67POPC   C4B 1177   7.472   3.832   6.379
   68POPC   NC3 1178   2.119   5.415   8.188
   68POPC   PO4 1179   2.258   4.789   8.147
   68POPC   GL1 1180   2.078   5.092   7.810
   68POPC   GL2 1181   1.738   5.106   7.707
   68POPC   C1A 1182   2.183   5.249   7.394
   68POPC   D2A 1183   2.166   5.448   6.993
   68POPC   C3A 1184   2.193   5.197   6.616
   68POPC   C4A 1185   2.246   4.931   6.239
   68POPC   C1B 1186   1.756   4.959   7.289
   68POPC   C2B 1187   1.638   5.094   6.864
   68POPC   C3B 1188   1.754   4.981   6.444
   68POPC   C4B 1189   1.733   4.728   6.086
   69POPC   NC3 1190   7.924   2.784   7.983
   69POPC   PO4 1191   8.461   2.447   8.022
   69POPC   GL1 1192   8.373   2.704   7.683
   69POPC   GL2 1193   8.181   3.015   7.617
   69POPC   C1A 1194   8.304   2.612   7.258
   69POPC   D2A 1195   8.436   2.467   6.849
   69POPC   C3A 1196   8.128   2.622   6.560
   69POPC   C4A 1197   7.898   2.539   6.204
   69POPC   C1B 1198   8.110   3.190   7.228
   69POPC   C2B 1199   8.042   3.103   6.794
   69POPC   C3B 1200   8.018   3.113   6.361
   69POPC   C4B 1201   8.293   2.888   6.133
   70POPC   NC3 1202   1.122   7.325   8.093
   70POPC   PO4 1203   1.672   6.809   8.118
   70POPC   GL1 1204   1.518   7.084   7.684
   70POPC   GL2 1205   1.241   7.374   7.615
   70POPC   C1A 1206   1.488   7.287   7.202
   70POPC   D2A 1207   1.216   7.153   6.849
   70POPC   C3A 1208   1.381   7.271   6.427
   70POPC   C4A 1209   1.773   7.226   6.208
   70POPC   C1B 1210   0.996   7.493   7.215
   70POPC   C2B 1211   0.953   7.564   6.755
   70POPC   C3B 1212   0.856   7.229   6.433
   70POPC   C4B 1213   0.990   7.265   5.994
   71POPC   NC3 1214   0.699   9.681   8.173
   71POPC   PO4 1215   1.290   9.265   8.085
   71POPC   GL1 1216   1.337   9.437   7.677
   71POPC   GL2 1217   1.013   9.608   7.689
   71POPC   C1A 1218   1.234   9.339   7.227
   71POPC   D2A 1219   0.986   9.185   6.863
   71POPC   C3A 1220   1.089   9.417   6.486
   71POPC   C4A 1221   0.926   9.315   6.087
   71POPC   C1B 1222   1.250   9.822   7.367
   71POPC   C2B 1223   1.249   9.889   6.949
   71POPC   C3B 1224   0.950   0.025   6.685
   71POPC   C4B 1225   0.884   9.888   6.305
   72POPC   NC3 1226   6.716   6.775   8.104
   72POPC   PO4 1227   6.205   6.907   7.732
   72POPC   GL1 1228   6.574   6.729   7.532
   72POPC   GL2 1229   6.844   6.524   7.677
   72POPC   C1A 1230   6.523   6.720   7.081
   72POPC   D2A 1231   6.722   6.832   6.724
   72POPC   C3A 1232   6.474   6.731   6.379
   72POPC   C4A 1233   6.287   6.722   5.943
   72POPC   C1B 1234   6.851   6.361   7.231
   72POPC   C2B 1235   6.714   6.310   6.769
   72POPC   C3B 1236   6.590   6.231   6.317
   72POPC   C4B 1237   6.651   6.127   5.860
   73POPC   NC3 1238   7.507   6.308   7.940
   73POPC   PO4 1239   7.173   6.854   7.976
   73POPC   GL1 1240   7.214   6.847   7.581
   73POPC   GL2 1241   7.570   6.736   7.617
   73POPC   C1A 1242   7.010   6.848   7.174
   73POPC   D2A 1243   7.152   6.567   6.843
   73POPC   C3A 1244   7.006   6.513   6.396
   73POPC   C4A 1245   6.804   6.599   6.005
   73POPC   C1B 1246   7.541   6.692   7.194
   73POPC   C2B 1247   7.758   6.742   6.823
   73POPC   C3B 1248   7.488   6.675   6.488
   73POPC   C4B 1249   7.452   6.264   6.261
   74POPC   NC3 1250   6.181   2.689   8.024
   74POPC   PO4 1251   6.686   2.335   8.204
   74POPC   GL1 1252   6.713   2.572   7.806
   74POPC   GL2 1253   6.782   2.922   7.852
   74POPC   C1A 1254   6.526   2.630   7.394
   74POPC   D2A 1255   6.496   2.385   6.992
   74POPC   C3A 1256   6.392   2.488   6.555
   74POPC   C4A 1257   6.052   2.629   6.276
   74POPC   C1B 1258   6.840   3.044   7.410
   74POPC   C2B 1259   6.736   2.877   6.977
   74POPC   C3B 1260   6.643   2.944   6.530
   74POPC   C4B 1261   6.685   2.752   6.143
   75POPC   NC3 1262   3.553   0.541   8.120
   75POPC   PO4 1263   3.889   1.110   8.090
   75POPC   GL1 1264   3.887   0.817   7.727
   75POPC   GL2 1265   3.740   0.474   7.653
   75POPC   C1A 1266   3.955   0.724   7.272
   75POPC   D2A 1267   3.610   0.673   6.960
   75POPC   C3A 1268   3.682   0.532   6.570
   75POPC   C4A 1269   3.729   0.673   6.170
   75POPC   C1B 1270   3.311   0.415   7.479
   75POPC   C2B 1271   3.184   0.389   7.047
   75POPC   C3B 1272   3.237   0.259   6.626
   75POPC   C4B 1273   3.223   0.543   6.272
   76POPC   NC3 1274   2.493   2.101   8.125
   76POPC   PO4 1275   3.039   2.515   8.191
   76POPC   GL1 1276   3.077   2.349   7.719
   76POPC   GL2 1277   2.813   2.089   7.708
   76POPC   C1A 1278   3.010   2.183   7.242
   76POPC   D2A 1279   2.705   2.085   6.888
   76POPC   C3A 1280   2.840   2.108   6.447
   76POPC   C4A 1281   2.870   2.110   5.988
   76POPC   C1B 1282   2.727   1.776   7.390
   76POPC   C2B 1283   2.521   1.636   7.038
   76POPC   C3B 1284   2.576   1.649   6.579
   76POPC   C4B 1285   2.836   1.641   6.179
   77POPC   NC3 1286   1.429   4.696   7.912
   77POPC   PO4 1287   1.387   5.249   8.042
   77POPC   GL1 1288   1.173   5.052   7.665
   77POPC   GL2 1289   1.063   5.388   7.623
   77POPC   C1A 1290   1.275   4.777   7.258
   77POPC   D2A 1291   1.433   4.581   6.872
   77POPC   C3A 1292   1.316   4.736   6.451
   77POPC   C4A 1293   1.197   4.856   6.026
   77POPC   C1B 1294   1.274   5.269   7.228
   77POPC   C2B 1295   1.116   5.063   6.856
   77POPC   C3B 1296   1.120   5.222   6.453
   77POPC   C4B 1297   1.413   5.306   6.147
   78POPC   NC3 1298   8.038   0.905   8.169
   78POPC   PO4 1299   8.027   1.559   8.189
   78POPC   GL1 1300   8.122   1.230   7.801
   78POPC   GL2 1301   8.420   1.223   7.702
   78POPC   C1A 1302   8.073   1.075   7.328
   78POPC   D2A 1303   8.315   1.078   6.916
   78POPC   C3A 1304   8.163   0.886   6.509
   78POPC   C4A 1305   7.933   0.960   6.078
   78POPC   C1B 1306   8.322   1.526   7.355
   78POPC   C2B 1307   8.002   1.502   7.002
   78POPC   C3B 1308   7.904   1.339   6.577
   78POPC   C4B 1309   8.215   1.344   6.233
   79POPC   NC3 1310   1.957   0.607   8.057
   79POPC   PO4 1311   1.959   9.968   8.081
   79POPC   GL1 1312   1.802   0.200   7.713
   79POPC   GL2 1313   1.606   0.516   7.716
   79POPC   C1A 1314   1.978   0.163   7.308
   79POPC   D2A 1315   2.212   0.190   6.941
   79POPC   C3A 1316   1.938   0.191   6.587
   79POPC   C4A 1317   2.068   0.215   6.189
   79POPC   C1B 1318   1.852   0.661   7.337
   79POPC   C2B 1319   2.123   0.692   6.945
   79POPC   C3B 1320   2.005   0.702   6.518
   79POPC   C4B 1321   1.688   0.529   6.247
   80POPC   NC3 1322   5.154   9.619   8.178
   80POPC   PO4 1323   4.636   0.092   8.068
   80POPC   GL1 1324   4.861   9.786   7.816
   80POPC   GL2 1325   5.141   9.900   7.686
   80POPC   C1A 1326   4.818   9.606   7.398
   80POPC   D2A 1327   5.000   9.674   6.997
   80POPC   C3A 1328   4.776   9.761   6.618
   80POPC   C4A 1329   4.602   9.830   6.208
   80POPC   C1B 1330   5.305   9.481   7.491
   80POPC   C2B 1331   5.283   9.267   7.074
   80POPC   C3B 1332   5.323   9.473   6.657
   80POPC   C4B 1333   5.076   9.529   6.271
   81POPC   NC3 1334   1.053   8.843   8.068
   81POPC   PO4 1335   1.567   8.394   8.017
   81POPC   GL1 1336   1.539   8.850   7.795
   81POPC   GL2 1337   1.204   8.960   7.612
   81POPC   C1A 1338   1.635   9.067   7.389
   81POPC   D2A 1339   1.368   8.851   7.067
   81POPC   C3A 1340   1.364   8.820   6.611
   81POPC   C4A 1341   1.400   9.073   6.216
   81POPC   C1B 1342   1.009   8.658   7.386
   81POPC   C2B 1343   0.888   8.598   6.984
   81POPC   C3B 1344   0.731   8.765   6.630
   81POPC   C4B 1345   0.967   8.802   6.271
   82POPC   NC3 1346   9.507   8.930   8.042
   82POPC   PO4 1347   9.972   8.474   8.145
   82POPC   GL1 1348   9.894   8.701   7.769
   82POPC   GL2 1349   9.576   8.509   7.754
   82POPC   C1A 1350   0.008   8.938   7.354
   82POPC   D2A 1351   9.958   9.206   6.959
   82POPC   C3A 1352   9.869   8.999   6.548
   82POPC   C4A 1353   9.849   8.759   6.111
   82POPC   C1B 1354   9.542   8.700   7.352
   82POPC   C2B 1355   9.673   8.732   6.931
   82POPC   C3B 1356   9.475   8.694   6.465
   82POPC   C4B 1357   9.468   9.101   6.151
   83POPC   NC3 1358   2.510   5.624   7.921
   83POPC   PO4 1359   1.924   5.787   8.357
   83POPC   GL1 1360   1.778   5.841   7.858
   83POPC   GL2 1361   1.987   5.596   7.711
   83POPC   C1A 1362   1.862   5.993   7.396
   83POPC   D2A 1363   2.201   6.060   7.048
   83POPC   C3A 1364   2.159   5.831   6.649
   83POPC   C4A 1365   1.785   5.987   6.423
   83POPC   C1B 1366   1.726   5.500   7.331
   83POPC   C2B 1367   1.700   5.624   6.873
   83POPC   C3B 1368   1.825   5.485   6.443
   83POPC   C4B 1369   2.233   5.472   6.198
   84POPC   NC3 1370   7.419   5.232   8.031
   84POPC   PO4 1371   7.493   5.852   7.920
   84POPC   GL1 1372   7.675   5.453   7.617
   84POPC   GL2 1373   7.709   5.053   7.628
   84POPC   C1A 1374   7.661   5.278   7.157
   84POPC   D2A 1375   7.653   5.363   6.677
   84POPC   C3A 1376   7.354   5.480   6.306
   84POPC   C4A 1377   7.338   5.314   5.873
   84POPC   C1B 1378   7.358   4.926   7.379
   84POPC   C2B 1379   7.308   4.774   6.955
   84POPC   C3B 1380   7.526   4.857   6.590
   84POPC   C4B 1381   7.673   5.087   6.242
   85POPC   NC3 1382   1.249   6.656   8.265
   85POPC   PO4 1383   0.714   7.090   8.182
   85POPC   GL1 1384   0.977   6.942   7.756
   85POPC   GL2 1385   1.235   6.670   7.771
   85POPC   C1A 1386   1.184   6.898   7.313
   85POPC   D2A 1387   1.203   6.626   6.928
   85POPC   C3A 1388   1.236   6.775   6.494
   85POPC   C4A 1389   1.094   6.518   6.146
   85POPC   C1B 1390   1.531   6.535   7.481
   85POPC   C2B 1391   1.625   6.400   7.096
   85POPC   C3B 1392   1.634   6.417   6.666
   85POPC   C4B 1393   1.581   6.497   6.258
   86POPC   NC3 1394   0.333   8.753   8.102
   86POPC   PO4 1395   0.342   9.366   8.062
   86POPC   GL1 1396   0.719   9.169   7.800
   86POPC   GL2 1397   0.646   8.811   7.696
   86POPC   C1A 1398   0.782   9.142   7.343
   86POPC   D2A 1399   0.467   9.219   7.036
   86POPC   C3A 1400   0.382   9.156   6.621
   86POPC   C4A 1401   0.537   9.054   6.242
   86POPC   C1B 1402   0.468   8.725   7.274
   86POPC   C2B 1403   0.203   8.749   6.894
   86POPC   C3B 1404   0.253   8.673   6.445
   86POPC   C4B 1405   0.476   8.572   6.103
   87POPC   NC3 1406   0.436   7.441   8.067
   87POPC   PO4 1407   9.900   7.031   8.111
   87POPC   GL1 1408   0.115   7.142   7.744
   87POPC   GL2 1409   0.039   7.506   7.669
   87POPC   C1A 1410   0.329   6.985   7.364
   87POPC   D2A 1411   0.176   6.857   6.954
   87POPC   C3A 1412   0.383   6.994   6.573
   87POPC   C4A 1413   0.348   7.234   6.214
   87POPC   C1B 1414   0.428   7.480   7.371
   87POPC   C2B 1415   0.490   7.362   6.920
   87POPC   C3B 1416   0.504   7.610   6.515
   87POPC   C4B 1417   0.844   7.734   6.244
   88POPC   NC3 1418   8.208   0.310   7.942
   88POPC   PO4 1419   7.646   0.657   8.123
   88POPC   GL1 1420   7.880   0.737   7.716
   88POPC   GL2 1421   8.235   0.690   7.598
   88POPC   C1A 1422   7.839   0.556   7.314
   88POPC   D2A 1423   8.110   0.576   6.948
   88POPC   C3A 1424   7.948   0.420   6.593
   88POPC   C4A 1425   7.776   0.481   6.199
   88POPC   C1B 1426   8.321   0.308   7.320
   88POPC   C2B 1427   8.244   0.023   6.954
   88POPC   C3B 1428   8.344   0.068   6.534
   88POPC   C4B 1429   8.282   0.394   6.206
   89POPC   NC3 1430   5.027   1.064   7.984
   89POPC   PO4 1431   5.442   1.571   8.156
   89POPC   GL1 1432   5.389   1.515   7.675
   89POPC   GL2 1433   5.045   1.428   7.634
   89POPC   C1A 1434   5.225   1.565   7.191
   89POPC   D2A 1435   4.827   1.453   6.893
   89POPC   C3A 1436   4.883   1.476   6.433
   89POPC   C4A 1437   5.335   1.386   6.328
   89POPC   C1B 1438   5.112   1.063   7.354
   89POPC   C2B 1439   4.893   0.958   7.013
   89POPC   C3B 1440   5.043   1.033   6.611
   89POPC   C4B 1441   5.008   0.972   6.204
   90POPC   NC3 1442   5.313   7.911   8.057
   90POPC   PO4 1443   4.872   8.444   8.204
   90POPC   GL1 1444   4.814   8.244   7.780
   90POPC   GL2 1445   5.173   8.257   7.684
   90POPC   C1A 1446   4.845   8.299   7.299
   90POPC   D2A 1447   5.166   8.385   6.958
   90POPC   C3A 1448   4.961   8.497   6.580
   90POPC   C4A 1449   4.734   8.262   6.295
   90POPC   C1B 1450   5.246   7.958   7.328
   90POPC   C2B 1451   5.018   7.759   6.993
   90POPC   C3B 1452   4.917   7.851   6.593
   90POPC   C4B 1453   5.226   8.076   6.425
   91POPC   NC3 1454   9.619   7.519   8.123
   91POPC   PO4 1455   9.223   7.092   8.039
   91POPC   GL1 1456   9.556   7.206   7.730
   91POPC   GL2 1457   9.492   7.492   7.628
   91POPC   C1A 1458   9.803   7.148   7.325
   91POPC   D2A 1459   9.643   6.944   6.932
   91POPC   C3A 1460   9.563   7.192   6.589
   91POPC   C4A 1461   9.842   7.108   6.240
   91POPC   C1B 1462   9.675   7.710   7.286
   91POPC   C2B 1463   9.927   7.639   6.935
   91POPC   C3B 1464   9.987   7.504   6.527
   91POPC   C4B 1465   9.644   7.591   6.259
   92POPC   NC3 1466   7.902   1.845   7.855
   92POPC   PO4 1467   7.620   2.437   7.937
   92POPC   GL1 1468   7.970   2.377   7.633
   92POPC   GL2 1469   8.303   2.173   7.626
   92POPC   C1A 1470   7.980   2.214   7.214
   92POPC   D2A 1471   7.732   1.973   6.933
   92POPC   C3A 1472   7.716   2.219   6.571
   92POPC   C4A 1473   7.673   2.059   6.178
   92POPC   C1B 1474   8.484   2.099   7.209
   92POPC   C2B 1475   8.256   1.932   6.851
   92POPC   C3B 1476   8.042   1.828   6.478
   92POPC   C4B 1477   8.213   2.151   6.243
   93POPC   NC3 1478   1.242   8.032   8.031
   93POPC   PO4 1479   0.715   8.497   8.088
   93POPC   GL1 1480   0.911   8.249   7.683
   93POPC   GL2 1481   0.987   7.871   7.592
   93POPC   C1A 1482   1.086   8.182   7.226
   93POPC   D2A 1483   0.926   8.074   6.834
   93POPC   C3A 1484   1.065   8.362   6.542
   93POPC   C4A 1485   1.352   8.285   6.247
   93POPC   C1B 1486   1.398   7.798   7.360
   93POPC   C2B 1487   1.449   7.815   6.905
   93POPC   C3B 1488   1.365   7.798   6.449
   93POPC   C4B 1489   1.642   7.894   6.091
   94POPC   NC3 1490   0.808   2.108   8.134
   94POPC   PO4 1491   1.412   1.798   8.179
   94POPC   GL1 1492   1.150   1.862   7.802
   94POPC   GL2 1493   1.164   2.231   7.757
   94POPC   C1A 1494   1.134   1.850   7.317
   94POPC   D2A 1495   1.000   1.727   6.859
   94POPC   C3A 1496   1.235   1.823   6.450
   94POPC   C4A 1497   1.026   1.957   6.054
   94POPC   C1B 1498   1.264   2.366   7.340
   94POPC   C2B 1499   1.171   2.219   6.918
   94POPC   C3B 1500   1.081   2.295   6.492
   94POPC   C4B 1501   1.397   2.277   6.181
   95POPC   NC3 1502   8.286   3.876   8.091
   95POPC   PO4 1503   8.067   3.224   8.067
   95POPC   GL1 1504   8.015   3.525   7.756
   95POPC   GL2 1505   8.369   3.526   7.711
   95POPC   C1A 1506   8.077   3.710   7.339
   95POPC   D2A 1507   7.884   3.601   6.960
   95POPC   C3A 1508   8.067   3.619   6.574
   95POPC   C4A 1509   7.903   3.635   6.226
   95POPC   C1B 1510   8.555   3.509   7.304
   95POPC   C2B 1511   8.401   3.488   6.917
   95POPC   C3B 1512   8.487   3.341   6.507
   95POPC   C4B 1513   8.348   3.444   6.093
   96POPC   NC3 1514   8.146   8.850   8.125
   96POPC   PO4 1515   7.864   8.258   7.858
   96POPC   GL1 1516   7.927   8.694   7.587
   96POPC   GL2 1517   8.171   8.995   7.652
   96POPC   C1A 1518   7.800   8.676   7.161
   96POPC   D2A 1519   7.910   8.360   6.855
   96POPC   C3A 1520   7.948   8.521   6.429
   96POPC   C4A 1521   7.654   8.663   6.100
   96POPC   C1B 1522   8.203   9.013   7.220
   96POPC   C2B 1523   8.216   8.789   6.850
   96POPC   C3B 1524   8.255   9.021   6.515
   96POPC   C4B 1525   8.049   8.958   6.168
   97POPC   NC3 1526   3.411   8.185   8.193
   97POPC   PO4 1527   3.327   7.573   8.301
   97POPC   GL1 1528   3.621   7.886   7.863
   97POPC   GL2 1529   3.566   8.283   7.732
   97POPC   C1A 1530   3.778   7.957   7.418
   97POPC   D2A 1531   3.600   7.932   7.025
   97POPC   C3A 1532   3.803   7.984   6.644
   97POPC   C4A 1533   3.642   8.009   6.270
   97POPC   C1B 1534   3.300   8.172   7.382
   97POPC   C2B 1535   3.141   8.136   6.993
   97POPC   C3B 1536   3.297   8.158   6.599
   97POPC   C4B 1537   3.242   8.323   6.181
   98POPC   NC3 1538   2.309   9.671   8.066
   98POPC   PO4 1539   2.942   9.987   8.129
   98POPC   GL1 1540   2.888   9.683   7.765
   98POPC   GL2 1541   2.570   9.509   7.656
   98POPC   C1A 1542   2.996   9.703   7.314
   98POPC   D2A 1543   2.773   9.608   6.933
   98POPC   C3A 1544   2.805   9.813   6.557
   98POPC   C4A 1545   2.460   9.929   6.311
   98POPC   C1B 1546   2.727   9.252   7.303
   98POPC   C2B 1547   2.935   9.118   6.905
   98POPC   C3B 1548   2.949   9.324   6.527
   98POPC   C4B 1549   2.623   9.437   6.239
   99POPC   NC3 1550   3.265   9.640   8.154
   99POPC   PO4 1551   3.940   9.374   8.075
   99POPC   GL1 1552   3.699   9.691   7.827
   99POPC   GL2 1553   3.380   9.559   7.670
   99POPC   C1A 1554   3.598   9.972   7.434
   99POPC   D2A 1555   3.437   9.917   6.996
   99POPC   C3A 1556   3.697   0.016   6.608
   99POPC   C4A 1557   3.582   0.190   6.206
   99POPC   C1B 1558   3.653   9.451   7.337
   99POPC   C2B 1559   3.594   9.413   6.899
   99POPC   C3B 1560   3.379   9.610   6.560
   99POPC   C4B 1561   3.569   9.699   6.178
  100POPC   NC3 1562   8.862   4.432   8.047
  100POPC   PO4 1563   9.477   4.561   8.296
  100POPC   GL1 1564   9.294   4.233   7.855
  100POPC   GL2 1565   8.954   4.237   7.603
  100POPC   C1A 1566   9.372   4.217   7.348
  100POPC   D2A 1567   9.254   4.102   6.916
  100POPC   C3A 1568   9.040   4.297   6.554
  100POPC   C4A 1569   9.146   4.370   6.098
  100POPC   C1B 1570   8.646   4.027   7.335
  100POPC   C2B 1571   8.754   3.851   6.949
  100POPC   C3B 1572   8.575   3.862   6.564
  100POPC   C4B 1573   8.738   4.090   6.183
  101POPC   NC3 1574   7.551   1.536   8.158
  101POPC   PO4 1575   7.138   2.012   8.252
  101POPC   GL1 1576   7.316   1.886   7.820
  101POPC   GL2 1577   7.271   2.206   7.660
  101POPC   C1A 1578   7.303   1.827   7.317
  101POPC   D2A 1579   7.175   1.731   6.861
  101POPC   C3A 1580   7.491   1.708   6.517
  101POPC   C4A 1581   7.290   1.701   6.097
  101POPC   C1B 1582   7.485   2.323   7.278
  101POPC   C2B 1583   7.291   2.237   6.891
  101POPC   C3B 1584   7.211   2.145   6.474
  101POPC   C4B 1585   7.360   2.471   6.230
  102POPC   NC3 1586   1.190   0.581   8.107
  102POPC   PO4 1587   0.986   0.020   8.029
  102POPC   GL1 1588   1.247   0.166   7.732
  102POPC   GL2 1589   1.047   0.462   7.631
  102POPC   C1A 1590   1.436   0.288   7.312
  102POPC   D2A 1591   1.188   0.409   6.972
  102POPC   C3A 1592   1.380   0.288   6.589
  102POPC   C4A 1593   1.330   0.153   6.178
  102POPC   C1B 1594   0.862   0.788   7.358
  102POPC   C2B 1595   0.764   0.729   6.931
  102POPC   C3B 1596   1.001   0.706   6.581
  102POPC   C4B 1597   0.922   0.777   6.160
  103POPC   NC3 1598   1.806   2.082   8.181
  103POPC   PO4 1599   2.309   1.665   8.098
  103POPC   GL1 1600   2.318   1.880   7.690
  103POPC   GL2 1601   2.125   2.178   7.725
  103POPC   C1A 1602   2.302   2.058   7.262
  103POPC   D2A 1603   2.086   1.966   6.884
  103POPC   C3A 1604   2.290   2.093   6.534
  103POPC   C4A 1605   2.412   1.917   6.174
  103POPC   C1B 1606   1.782   2.135   7.431
  103POPC   C2B 1607   1.679   2.299   7.024
  103POPC   C3B 1608   1.643   2.167   6.605
  103POPC   C4B 1609   1.881   2.070   6.218
  104POPC   NC3 1610   7.765   8.056   8.269
  104POPC   PO4 1611   7.187   8.472   8.153
  104POPC   GL1 1612   7.270   8.193   7.772
  104POPC   GL2 1613   7.487   8.354   7.492
  104POPC   C1A 1614   7.306   7.885   7.420
  104POPC   D2A 1615   7.499   8.072   7.034
  104POPC   C3A 1616   7.430   7.925   6.581
  104POPC   C4A 1617   7.245   7.835   6.196
  104POPC   C1B 1618   7.057   8.294   7.289
  104POPC   C2B 1619   7.064   8.221   6.841
  104POPC   C3B 1620   7.436   8.421   6.589
  104POPC   C4B 1621   7.151   8.335   6.282
  105POPC   NC3 1622   3.032   7.253   8.120
  105POPC   PO4 1623   3.102   7.929   7.961
  105POPC   GL1 1624   2.822   7.614   7.737
  105POPC   GL2 1625   2.951   7.338   7.613
  105POPC   C1A 1626   2.514   7.513   7.393
  105POPC   D2A 1627   2.386   7.510   6.960
  105POPC   C3A 1628   2.680   7.541   6.623
  105POPC   C4A 1629   2.574   7.509   6.198
  105POPC   C1B 1630   2.761   7.078   7.324
  105POPC   C2B 1631   2.640   7.056   6.887
  105POPC   C3B 1632   2.785   7.089   6.443
  105POPC   C4B 1633   3.088   7.238   6.198
  106POPC   NC3 1634   3.152   5.455   8.129
  106POPC   PO4 1635   2.847   5.927   7.998
  106POPC   GL1 1636   2.692   5.964   7.603
  106POPC   GL2 1637   2.441   6.182   7.525
  106POPC   C1A 1638   2.533   5.719   7.243
  106POPC   D2A 1639   2.656   5.509   6.852
  106POPC   C3A 1640   2.660   5.627   6.425
  106POPC   C4A 1641   3.029   5.513   6.140
  106POPC   C1B 1642   2.711   6.197   7.170
  106POPC   C2B 1643   2.629   6.039   6.767
  106POPC   C3B 1644   2.635   6.259   6.396
  106POPC   C4B 1645   2.872   6.014   6.175
  107POPC   NC3 1646   0.555   4.467   8.136
  107POPC   PO4 1647   0.197   3.893   8.109
  107POPC   GL1 1648   0.472   4.092   7.786
  107POPC   GL2 1649   0.240   4.217   7.612
  107POPC   C1A 1650   0.628   4.088   7.320
  107POPC   D2A 1651   0.792   3.928   6.943
  107POPC   C3A 1652   0.589   4.098   6.597
  107POPC   C4A 1653   0.423   3.987   6.239
  107POPC   C1B 1654   0.301   4.488   7.281
  107POPC   C2B 1655   0.453   4.472   6.904
  107POPC   C3B 1656   0.308   4.598   6.513
  107POPC   C4B 1657   0.001   4.591   6.162
  108POPC   NC3 1658   7.117   7.309   8.115
  108POPC   PO4 1659   7.711   7.539   8.164
  108POPC   GL1 1660   7.551   7.581   7.753
  108POPC   GL2 1661   7.483   7.264   7.671
  108POPC   C1A 1662   7.684   7.576   7.295
  108POPC   D2A 1663   7.403   7.556   6.911
  108POPC   C3A 1664   7.523   7.420   6.465
  108POPC   C4A 1665   7.650   7.509   6.019
  108POPC   C1B 1666   7.380   7.177   7.250
  108POPC   C2B 1667   7.359   7.047   6.824
  108POPC   C3B 1668   7.112   7.010   6.458
  108POPC   C4B 1669   7.162   7.199   6.101
  109POPC   NC3 1670   6.578   9.659   8.228
  109POPC   PO4 1671   6.216   9.862   7.738
  109POPC   GL1 1672   6.585   9.892   7.515
  109POPC   GL2 1673   6.675   9.581   7.683
  109POPC   C1A 1674   6.521   9.936   7.081
  109POPC   D2A 1675   6.605   0.106   6.723
  109POPC   C3A 1676   6.427   9.881   6.424
  109POPC   C4A 1677   6.308   9.845   6.004
  109POPC   C1B 1678   6.617   9.472   7.229
  109POPC   C2B 1679   6.788   9.598   6.810
  109POPC   C3B 1680   6.775   9.521   6.381
  109POPC   C4B 1681   6.479   9.389   6.144
  110POPC   NC3 1682   3.784   2.984   7.968
  110POPC   PO4 1683   4.375   2.757   8.095
  110POPC   GL1 1684   4.323   2.557   7.687
  110POPC   GL2 1685   3.998   2.623   7.654
  110POPC   C1A 1686   4.347   2.523   7.198
  110POPC   D2A 1687   4.491   2.360   6.779
  110POPC   C3A 1688   4.403   2.609   6.383
  110POPC   C4A 1689   4.746   2.848   6.137
  110POPC   C1B 1690   3.862   2.684   7.220
  110POPC   C2B 1691   3.984   2.676   6.752
  110POPC   C3B 1692   3.980   2.935   6.351
  110POPC   C4B 1693   3.967   3.400   6.185
  111POPC   NC3 1694   1.600   9.665   8.055
  111POPC   PO4 1695   2.211   9.217   8.049
  111POPC   GL1 1696   1.939   9.444   7.736
  111POPC   GL2 1697   2.094   9.756   7.615
  111POPC   C1A 1698   1.723   9.581   7.321
  111POPC   D2A 1699   1.764   9.856   6.933
  111POPC   C3A 1700   1.542   9.803   6.497
  111POPC   C4A 1701   1.727   9.862   6.039
  111POPC   C1B 1702   2.351   9.746   7.231
  111POPC   C2B 1703   2.282   9.714   6.779
  111POPC   C3B 1704   2.030   9.697   6.417
  111POPC   C4B 1705   2.162   9.525   6.022
  112POPC   NC3 1706   9.495   8.212   8.183
  112POPC   PO4 1707   0.018   7.781   8.121
  112POPC   GL1 1708   9.922   8.095   7.798
  112POPC   GL2 1709   9.607   7.967   7.756
  112POPC   C1A 1710   9.952   8.364   7.400
  112POPC   D2A 1711   9.884   8.173   6.999
  112POPC   C3A 1712   9.872   8.401   6.619
  112POPC   C4A 1713   9.861   8.250   6.214
  112POPC   C1B 1714   9.464   8.169   7.393
  112POPC   C2B 1715   9.350   8.092   6.987
  112POPC   C3B 1716   9.544   8.004   6.588
  112POPC   C4B 1717   9.359   8.131   6.187
  113POPC   NC3 1718   0.056   9.703   7.963
  113POPC   PO4 1719   0.497   0.067   8.357
  113POPC   GL1 1720   0.492   9.949   7.814
  113POPC   GL2 1721   0.498   9.626   7.653
  113POPC   C1A 1722   0.754  -0.000   7.410
  113POPC   D2A 1723   0.807   9.639   7.115
  113POPC   C3A 1724   0.650   9.596   6.685
  113POPC   C4A 1725   0.478   9.585   6.260
  113POPC   C1B 1726   0.193   9.522   7.341
  113POPC   C2B 1727   0.212   9.679   6.931
  113POPC   C3B 1728   0.041   9.533   6.552
  113POPC   C4B 1729   0.095   9.249   6.189
  114POPC   NC3 1730   3.655   8.980   8.099
  114POPC   PO4 1731   3.126   8.543   8.162
  114POPC   GL1 1732   3.308   8.730   7.756
  114POPC   GL2 1733   3.456   9.056   7.643
  114POPC   C1A 1734   3.471   8.634   7.329
  114POPC   D2A 1735   3.599   8.431   6.922
  114POPC   C3A 1736   3.596   8.597   6.474
  114POPC   C4A 1737   3.446   8.789   6.072
  114POPC   C1B 1738   3.299   9.105   7.249
  114POPC   C2B 1739   3.437   8.928   6.861
  114POPC   C3B 1740   3.413   9.099   6.474
  114POPC   C4B 1741   3.725   9.222   6.222
  115POPC   NC3 1742   3.411   2.715   8.375
  115POPC   PO4 1743   3.450   3.304   8.033
  115POPC   GL1 1744   3.243   2.917   7.763
  115POPC   GL2 1745   3.499   2.751   7.586
  115POPC   C1A 1746   3.086   2.680   7.313
  115POPC   D2A 1747   2.925   2.559   6.868
  115POPC   C3A 1748   3.060   2.588   6.401
  115POPC   C4A 1749   3.093   2.595   5.920
  115POPC   C1B 1750   3.438   2.990   7.146
  115POPC   C2B 1751   3.345   2.955   6.660
  115POPC   C3B 1752   3.521   3.164   6.259
  115POPC   C4B 1753   3.801   3.035   5.875
  116POPC   NC3 1754   3.235   3.712   8.065
  116POPC   PO4 1755   2.685   4.120   8.018
  116POPC   GL1 1756   2.813   3.700   7.754
  116POPC   GL2 1757   2.807   3.304   7.776
  116POPC   C1A 1758   2.972   3.498   7.335
  116POPC   D2A 1759   3.009   3.256   6.934
  116POPC   C3A 1760   2.957   3.479   6.492
  116POPC   C4A 1761   3.173   3.544   6.052
  116POPC   C1B 1762   2.464   3.453   7.464
  116POPC   C2B 1763   2.535   3.453   7.020
  116POPC   C3B 1764   2.430   3.476   6.583
  116POPC   C4B 1765   2.546   3.264   6.208
  117POPC   NC3 1766   5.689   1.987   8.112
  117POPC   PO4 1767   6.257   1.565   8.098
  117POPC   GL1 1768   5.907   1.660   7.776
  117POPC   GL2 1769   5.964   2.033   7.678
  117POPC   C1A 1770   5.760   1.710   7.318
  117POPC   D2A 1771   5.877   1.838   6.865
  117POPC   C3A 1772   5.682   1.727   6.478
  117POPC   C4A 1773   5.787   1.744   6.036
  117POPC   C1B 1774   6.036   2.174   7.246
  117POPC   C2B 1775   5.996   2.327   6.840
  117POPC   C3B 1776   5.891   2.190   6.453
  117POPC   C4B 1777   5.564   2.174   6.158
  118POPC   NC3 1778   2.705   2.868   8.153
  118POPC   PO4 1779   2.143   2.442   8.154
  118POPC   GL1 1780   2.515   2.507   7.789
  118POPC   GL2 1781   2.756   2.760   7.681
  118POPC   C1A 1782   2.579   2.493   7.299
  118POPC   D2A 1783   2.343   2.454   6.901
  118POPC   C3A 1784   2.542   2.538   6.518
  118POPC   C4A 1785   2.641   2.755   6.137
  118POPC   C1B 1786   2.703   3.021   7.334
  118POPC   C2B 1787   2.564   2.931   6.940
  118POPC   C3B 1788   2.777   2.990   6.573
  118POPC   C4B 1789   3.033   3.059   6.219
  119POPC   NC3 1790   2.753   1.137   8.062
  119POPC   PO4 1791   3.109   1.695   7.998
  119POPC   GL1 1792   2.929   1.401   7.673
  119POPC   GL2 1793   2.521   1.382   7.685
  119POPC   C1A 1794   2.982   1.342   7.235
  119POPC   D2A 1795   3.001   1.601   6.877
  119POPC   C3A 1796   2.980   1.316   6.537
  119POPC   C4A 1797   2.896   0.960   6.275
  119POPC   C1B 1798   2.586   1.058   7.371
  119POPC   C2B 1799   2.630   1.147   6.905
  119POPC   C3B 1800   2.458   1.155   6.483
  119POPC   C4B 1801   2.419   1.376   6.098
  120POPC   NC3 1802   1.496   5.645   8.221
  120POPC   PO4 1803   1.195   6.202   8.149
  120POPC   GL1 1804   1.275   6.156   7.720
  120POPC   GL2 1805   1.345   5.824   7.604
  120POPC   C1A 1806   1.158   6.240   7.293
  120POPC   D2A 1807   1.332   6.052   6.896
  120POPC   C3A 1808   1.208   6.184   6.502
  120POPC   C4A 1809   1.392   6.059   6.103
  120POPC   C1B 1810   1.100   5.741   7.234
  120POPC   C2B 1811   1.197   5.570   6.831
  120POPC   C3B 1812   1.358   5.691   6.475
  120POPC   C4B 1813   1.008   5.749   6.264
  121POPC   NC3 1814   4.518   7.326   8.219
  121POPC   PO4 1815   5.108   7.485   8.051
  121POPC   GL1 1816   4.710   7.647   7.784
  121POPC   GL2 1817   4.385   7.448   7.744
  121POPC   C1A 1818   4.620   7.653   7.297
  121POPC   D2A 1819   4.528   7.539   6.829
  121POPC   C3A 1820   4.658   7.465   6.370
  121POPC   C4A 1821   4.706   7.386   5.898
  121POPC   C1B 1822   4.128   7.598   7.429
  121POPC   C2B 1823   4.089   7.753   7.002
  121POPC   C3B 1824   4.068   7.531   6.588
  121POPC   C4B 1825   3.983   7.114   6.372
  122POPC   NC3 1826   1.641   6.320   8.058
  122POPC   PO4 1827   2.225   5.988   7.979
  122POPC   GL1 1828   2.034   6.370   7.749
  122POPC   GL2 1829   1.987   6.772   7.706
  122POPC   C1A 1830   2.055   6.459   7.330
  122POPC   D2A 1831   2.059   6.585   6.912
  122POPC   C3A 1832   2.142   6.334   6.560
  122POPC   C4A 1833   2.231   6.469   6.149
  122POPC   C1B 1834   1.790   6.895   7.266
  122POPC   C2B 1835   1.660   6.904   6.819
  122POPC   C3B 1836   1.925   6.811   6.442
  122POPC   C4B 1837   1.878   6.766   5.960
  123POPC   NC3 1838   4.400   8.314   8.119
  123POPC   PO4 1839   4.207   7.667   8.183
  123POPC   GL1 1840   4.205   7.946   7.787
  123POPC   GL2 1841   4.074   8.283   7.728
  123POPC   C1A 1842   4.344   8.078   7.342
  123POPC   D2A 1843   4.565   8.054   6.912
  123POPC   C3A 1844   4.385   7.914   6.477
  123POPC   C4A 1845   4.548   7.876   6.035
  123POPC   C1B 1846   3.970   8.441   7.308
  123POPC   C2B 1847   4.109   8.284   6.931
  123POPC   C3B 1848   4.303   8.408   6.568
  123POPC   C4B 1849   4.018   8.338   6.319
  124POPC   NC3 1850   0.668   0.350   8.028
  124POPC   PO4 1851   0.017   0.149   8.065
  124POPC   GL1 1852   0.198   0.339   7.700
  124POPC   GL2 1853   0.429   0.652   7.675
  124POPC   C1A 1854   0.250   0.046   7.338
  124POPC   D2A 1855   0.521   0.104   6.954
  124POPC   C3A 1856   0.365   0.014   6.545
  124POPC   C4A 1857   0.022   9.957   6.278
  124POPC   C1B 1858   0.449   0.510   7.271
  124POPC   C2B 1859   0.258   0.617   6.879
  124POPC   C3B 1860   0.447   0.684   6.485
  124POPC   C4B 1861   0.705   0.355   6.358
  125POPC   NC3 1862   5.926   1.235   8.104
  125POPC   PO4 1863   5.383   0.756   8.066
  125POPC   GL1 1864   5.552   1.038   7.758
  125POPC   GL2 1865   5.885   0.963   7.668
  125POPC   C1A 1866   5.614   1.213   7.322
  125POPC   D2A 1867   5.405   1.168   6.936
  125POPC   C3A 1868   5.578   1.014   6.583
  125POPC   C4A 1869   5.505   0.899   6.176
  125POPC   C1B 1870   6.111   1.314   7.449
  125POPC   C2B 1871   6.084   1.398   7.011
  125POPC   C3B 1872   6.141   1.466   6.567
  125POPC   C4B 1873   5.875   1.282   6.246
  126POPC   NC3 1874   4.281   0.805   8.108
  126POPC   PO4 1875   3.865   0.254   8.353
  126POPC   GL1 1876   4.159   0.252   7.856
  126POPC   GL2 1877   4.312   0.548   7.659
  126POPC   C1A 1878   4.228   0.195   7.336
  126POPC   D2A 1879   3.993   0.308   6.961
  126POPC   C3A 1880   4.200   0.530   6.640
  126POPC   C4A 1881   4.105   0.298   6.294
  126POPC   C1B 1882   4.502   0.637   7.225
  126POPC   C2B 1883   4.705   0.518   6.845
  126POPC   C3B 1884   4.616   0.242   6.538
  126POPC   C4B 1885   4.648   0.416   6.180
  127POPC   NC3 1886   9.750   4.891   8.029
  127POPC   PO4 1887   0.378   4.847   8.346
  127POPC   GL1 1888   0.197   5.094   7.876
  127POPC   GL2 1889   9.912   5.342   7.794
  127POPC   C1A 1890   9.986   4.934   7.423
  127POPC   D2A 1891   0.092   4.846   6.983
  127POPC   C3A 1892   9.832   4.826   6.644
  127POPC   C4A 1893   9.720   5.066   6.316
  127POPC   C1B 1894   9.597   5.248   7.448
  127POPC   C2B 1895   9.611   5.088   7.043
  127POPC   C3B 1896   9.360   5.086   6.705
  127POPC   C4B 1897   9.244   5.309   6.387
  128POPC   NC3 1898   9.699   9.965   8.349
  128POPC   PO4 1899   9.372   9.385   8.066
  128POPC   GL1 1900   9.614   9.575   7.761
  128POPC   GL2 1901   9.870   9.289   7.734
  128POPC   C1A 1902   9.757   9.809   7.380
  128POPC   D2A 1903   9.712   9.670   6.964
  128POPC   C3A 1904   9.630   9.921   6.612
  128POPC   C4A 1905   9.310   9.792   6.337
  128POPC   C1B 1906   9.596   9.243   7.373
  128POPC   C2B 1907   9.449   9.211   6.971
  128POPC   C3B 1908   9.531   9.393   6.566
  128POPC   C4B 1909   9.704   9.558   6.158
  129POPC   NC3 1910   2.631   7.998   7.984
  129POPC   PO4 1911   2.348   8.531   8.265
  129POPC   GL1 1912   2.679   8.505   7.738
  129POPC   GL2 1913   2.874   8.234   7.623
  129POPC   C1A 1914   2.630   8.374   7.213
  129POPC   D2A 1915   2.310   8.341   6.821
  129POPC   C3A 1916   2.419   8.472   6.374
  129POPC   C4A 1917   2.781   8.529   6.128
  129POPC   C1B 1918   2.811   7.907   7.308
  129POPC   C2B 1919   2.668   7.964   6.901
  129POPC   C3B 1920   2.796   8.224   6.592
  129POPC   C4B 1921   2.912   7.937   6.290
  130POPC   NC3 1922   9.038   9.779   7.874
  130POPC   PO4 1923   8.537   9.335   8.119
  130POPC   GL1 1924   8.793   9.319   7.737
  130POPC   GL2 1925   9.147   9.357   7.621
  130POPC   C1A 1926   8.737   9.346   7.304
  130POPC   D2A 1927   8.965   9.379   6.929
  130POPC   C3A 1928   8.693   9.282   6.591
  130POPC   C4A 1929   8.450   9.564   6.372
  130POPC   C1B 1930   9.278   9.641   7.267
  130POPC   C2B 1931   9.182   9.897   6.894
  130POPC   C3B 1932   8.869   9.792   6.586
  130POPC   C4B 1933   8.913   9.525   6.174
  131POPC   NC3 1934   8.736   2.810   8.117
  131POPC   PO4 1935   9.270   2.309   7.903
  131POPC   GL1 1936   9.099   2.509   7.544
  131POPC   GL2 1937   8.890   2.779   7.641
  131POPC   C1A 1938   8.833   2.578   7.191
  131POPC   D2A 1939   8.995   2.816   6.870
  131POPC   C3A 1940   9.057   2.596   6.505
  131POPC   C4A 1941   9.359   2.424   6.248
  131POPC   C1B 1942   8.615   3.008   7.357
  131POPC   C2B 1943   8.513   2.989   6.941
  131POPC   C3B 1944   8.602   2.855   6.539
  131POPC   C4B 1945   8.570   2.488   6.343
  132POPC   NC3 1946   2.723   8.767   8.152
  132POPC   PO4 1947   3.223   9.199   8.076
  132POPC   GL1 1948   2.931   9.094   7.738
  132POPC   GL2 1949   2.559   9.003   7.722
  132POPC   C1A 1950   2.928   8.785   7.385
  132POPC   D2A 1951   3.069   8.616   6.992
  132POPC   C3A 1952   3.076   8.705   6.533
  132POPC   C4A 1953   2.998   8.996   6.154
  132POPC   C1B 1954   2.419   8.819   7.305
  132POPC   C2B 1955   2.584   8.755   6.877
  132POPC   C3B 1956   2.619   8.931   6.492
  132POPC   C4B 1957   2.437   8.991   6.094
  133POPC   NC3 1958   2.819   0.438   8.150
  133POPC   PO4 1959   2.341   0.892   8.057
  133POPC   GL1 1960   2.448   0.598   7.772
  133POPC   GL2 1961   2.819   0.628   7.648
  133POPC   C1A 1962   2.398   0.551   7.348
  133POPC   D2A 1963   2.743   0.669   7.081
  133POPC   C3A 1964   2.596   0.684   6.680
  133POPC   C4A 1965   2.457   0.671   6.281
  133POPC   C1B 1966   2.801   0.229   7.354
  133POPC   C2B 1967   2.728   0.196   6.872
  133POPC   C3B 1968   2.790   0.300   6.390
  133POPC   C4B 1969   3.014   0.157   5.996
  134POPC   NC3 1970   5.793   3.101   8.239
  134POPC   PO4 1971   5.787   2.446   8.053
  134POPC   GL1 1972   5.774   2.798   7.752
  134POPC   GL2 1973   6.018   2.577   7.558
  134POPC   C1A 1974   5.903   3.019   7.362
  134POPC   D2A 1975   6.140   2.750   7.081
  134POPC   C3A 1976   6.151   2.894   6.713
  134POPC   C4A 1977   5.831   3.062   6.472
  134POPC   C1B 1978   5.689   2.566   7.223
  134POPC   C2B 1979   5.631   2.667   6.761
  134POPC   C3B 1980   5.500   2.658   6.314
  134POPC   C4B 1981   5.251   2.870   5.973
  135POPC   NC3 1982   8.560   5.384   8.008
  135POPC   PO4 1983   7.885   5.281   8.058
  135POPC   GL1 1984   8.182   5.200   7.721
  135POPC   GL2 1985   8.242   4.841   7.639
  135POPC   C1A 1986   8.163   5.198   7.275
  135POPC   D2A 1987   8.036   5.052   6.858
  135POPC   C3A 1988   8.336   4.922   6.544
  135POPC   C4A 1989   8.165   5.030   6.182
  135POPC   C1B 1990   8.001   4.712   7.285
  135POPC   C2B 1991   8.165   4.559   6.882
  135POPC   C3B 1992   7.941   4.613   6.451
  135POPC   C4B 1993   7.840   4.683   5.983
  136POPC   NC3 1994   6.792   8.246   8.012
  136POPC   PO4 1995   6.721   7.595   8.031
  136POPC   GL1 1996   6.813   7.881   7.628
  136POPC   GL2 1997   6.595   8.206   7.550
  136POPC   C1A 1998   6.718   7.918   7.165
  136POPC   D2A 1999   6.619   7.696   6.806
  136POPC   C3A 2000   6.758   7.930   6.468
  136POPC   C4A 2001   6.450   7.955   6.173
  136POPC   C1B 2002   6.235   8.176   7.244
  136POPC   C2B 2003   6.093   8.067   6.825
  136POPC   C3B 2004   6.167   8.280   6.450
  136POPC   C4B 2005   6.614   8.415   6.443
  137POPC   NC3 2006   8.874   0.447   8.054
  137POPC   PO4 2007   9.423   0.008   7.984
  137POPC   GL1 2008   9.213   0.309   7.682
  137POPC   GL2 2009   8.880   0.323   7.565
  137POPC   C1A 2010   9.304   0.305   7.236
  137POPC   D2A 2011   9.103   0.455   6.862
  137POPC   C3A 2012   9.166   0.251   6.475
  137POPC   C4A 2013   9.227   0.160   6.022
  137POPC   C1B 2014   8.796   0.157   7.175
  137POPC   C2B 2015   8.590   0.398   6.873
  137POPC   C3B 2016   8.699   0.444   6.484
  137POPC   C4B 2017   8.789   0.477   6.071
  138POPC   NC3 2018   5.517   7.294   8.052
  138POPC   PO4 2019   6.073   7.181   8.323
  138POPC   GL1 2020   5.916   7.312   7.776
  138POPC   GL2 2021   6.017   7.632   7.675
  138POPC   C1A 2022   6.073   7.346   7.280
  138POPC   D2A 2023   5.947   7.575   6.905
  138POPC   C3A 2024   5.863   7.288   6.562
  138POPC   C4A 2025   6.170   7.129   6.246
  138POPC   C1B 2026   5.607   7.523   7.392
  138POPC   C2B 2027   5.448   7.448   6.925
  138POPC   C3B 2028   5.399   7.544   6.443
  138POPC   C4B 2029   5.375   7.356   5.989
  139POPC   NC3 2030   0.367   3.511   8.364
  139POPC   PO4 2031   0.944   3.698   8.074
  139POPC   GL1 2032   0.819   3.462   7.729
  139POPC   GL2 2033   0.575   3.646   7.565
  139POPC   C1A 2034   0.721   3.207   7.372
  139POPC   D2A 2035   0.528   3.473   7.056
  139POPC   C3A 2036   0.756   3.479   6.692
  139POPC   C4A 2037   0.653   3.534   6.300
  139POPC   C1B 2038   0.212   3.794   7.315
  139POPC   C2B 2039   0.255   3.969   6.946
  139POPC   C3B 2040   0.245   3.692   6.617
  139POPC   C4B 2041   0.165   3.380   6.312
  140POPC   NC3 2042   8.721   8.321   8.145
  140POPC   PO4 2043   9.225   7.809   8.143
  140POPC   GL1 2044   9.085   7.890   7.728
  140POPC   GL2 2045   9.125   8.240   7.774
  140POPC   C1A 2046   8.806   7.996   7.365
  140POPC   D2A 2047   8.873   7.856   6.945
  140POPC   C3A 2048   8.712   7.924   6.549
  140POPC   C4A 2049   8.845   7.972   6.120
  140POPC   C1B 2050   9.034   8.472   7.402
  140POPC   C2B 2051   8.842   8.388   7.003
  140POPC   C3B 2052   9.045   8.312   6.612
  140POPC   C4B 2053   8.926   8.454   6.222
  141POPC   NC3 2054   6.866   3.404   8.029
  141POPC   PO4 2055   6.217   3.147   8.090
  141POPC   GL1 2056   6.323   3.047   7.660
  141POPC   GL2 2057   6.520   3.355   7.655
  141POPC   C1A 2058   6.377   3.164   7.211
  141POPC   D2A 2059   6.519   3.344   6.826
  141POPC   C3A 2060   6.290   3.310   6.457
  141POPC   C4A 2061   6.255   3.067   6.074
  141POPC   C1B 2062   6.736   3.533   7.280
  141POPC   C2B 2063   6.823   3.742   6.873
  141POPC   C3B 2064   6.669   3.688   6.412
  141POPC   C4B 2065   6.672   3.791   5.938
  142POPC   NC3 2066   1.412   3.788   8.208
  142POPC   PO4 2067   1.473   3.112   8.121
  142POPC   GL1 2068   1.360   3.347   7.730
  142POPC   GL2 2069   1.310   3.712   7.684
  142POPC   C1A 2070   1.238   3.165   7.338
  142POPC   D2A 2071   1.038   3.134   6.946
  142POPC   C3A 2072   1.243   3.185   6.566
  142POPC   C4A 2073   0.999   3.175   6.209
  142POPC   C1B 2074   1.048   3.637   7.298
  142POPC   C2B 2075   1.245   3.607   6.883
  142POPC   C3B 2076   1.167   3.688   6.451
  142POPC   C4B 2077   0.928   3.964   6.256
  143POPC   NC3 2078   8.714   1.295   8.114
  143POPC   PO4 2079   8.454   0.710   8.056
  143POPC   GL1 2080   8.720   0.819   7.690
  143POPC   GL2 2081   9.020   0.953   7.758
  143POPC   C1A 2082   8.767   1.188   7.348
  143POPC   D2A 2083   8.719   1.501   6.999
  143POPC   C3A 2084   8.634   1.327   6.567
  143POPC   C4A 2085   8.702   1.308   6.101
  143POPC   C1B 2086   9.035   0.750   7.305
  143POPC   C2B 2087   8.826   0.887   6.894
  143POPC   C3B 2088   8.892   0.905   6.433
  143POPC   C4B 2089   9.193   1.152   6.240
  144POPC   NC3 2090   1.948   3.843   3.819
  144POPC   PO4 2091   1.977   3.118   3.978
  144POPC   GL1 2092   2.045   3.480   4.227
  144POPC   GL2 2093   1.700   3.615   4.277
  144POPC   C1A 2094   2.285   3.473   4.628
  144POPC   D2A 2095   2.424   3.598   5.047
  144POPC   C3A 2096   2.345   3.338   5.386
  144POPC   C4A 2097   2.258   3.394   5.822
  144POPC   C1B 2098   1.836   3.693   4.716
  144POPC   C2B 2099   1.932   3.413   5.065
  144POPC   C3B 2100   1.872   3.509   5.494
  144POPC   C4B 2101   1.816   3.703   5.898
  145POPC   NC3 2102   2.535   2.045   3.954
  145POPC   PO4 2103   2.552   1.362   3.737
  145POPC   GL1 2104   2.397   1.543   4.167
  145POPC   GL2 2105   2.689   1.751   4.333
  145POPC   C1A 2106   2.303   1.706   4.619
  145POPC   D2A 2107   2.641   1.637   4.912
  145POPC   C3A 2108   2.621   1.597   5.337
  145POPC   C4A 2109   2.548   1.710   5.738
  145POPC   C1B 2110   2.927   1.977   4.654
  145POPC   C2B 2111   3.026   1.957   5.087
  145POPC   C3B 2112   2.912   1.992   5.489
  145POPC   C4B 2113   3.084   1.678   5.724
  146POPC   NC3 2114   7.369   7.019   3.870
  146POPC   PO4 2115   7.696   6.598   4.131
  146POPC   GL1 2116   7.433   6.716   4.401
  146POPC   GL2 2117   7.112   6.902   4.303
  146POPC   C1A 2118   7.427   6.613   4.834
  146POPC   D2A 2119   7.304   6.816   5.209
  146POPC   C3A 2120   7.423   6.620   5.584
  146POPC   C4A 2121   7.312   6.705   6.011
  146POPC   C1B 2122   6.984   6.550   4.573
  146POPC   C2B 2123   6.975   6.437   5.033
  146POPC   C3B 2124   6.944   6.445   5.503
  146POPC   C4B 2125   7.154   6.243   5.850
  147POPC   NC3 2126   5.663   9.228   4.069
  147POPC   PO4 2127   5.421   8.611   3.990
  147POPC   GL1 2128   5.693   8.745   4.317
  147POPC   GL2 2129   5.988   8.889   4.445
  147POPC   C1A 2130   5.610   8.837   4.754
  147POPC   D2A 2131   5.843   9.046   5.055
  147POPC   C3A 2132   5.741   8.786   5.406
  147POPC   C4A 2133   5.536   8.858   5.804
  147POPC   C1B 2134   6.074   8.594   4.740
  147POPC   C2B 2135   6.202   8.679   5.104
  147POPC   C3B 2136   6.259   8.681   5.499
  147POPC   C4B 2137   6.020   8.750   5.828
  148POPC   NC3 2138   0.979   5.133   3.840
  148POPC   PO4 2139   1.567   5.327   4.008
  148POPC   GL1 2140   1.152   5.315   4.293
  148POPC   GL2 2141   1.218   4.984   4.417
  148POPC   C1A 2142   0.896   5.236   4.730
  148POPC   D2A 2143   0.977   5.014   5.147
  148POPC   C3A 2144   1.027   5.108   5.592
  148POPC   C4A 2145   0.916   5.323   5.990
  148POPC   C1B 2146   1.379   5.108   4.827
  148POPC   C2B 2147   1.482   5.015   5.260
  148POPC   C3B 2148   1.552   5.060   5.701
  148POPC   C4B 2149   1.869   5.209   5.987
  149POPC   NC3 2150   6.539   8.115   3.945
  149POPC   PO4 2151   6.143   8.590   4.071
  149POPC   GL1 2152   6.298   8.277   4.396
  149POPC   GL2 2153   6.435   7.911   4.411
  149POPC   C1A 2154   6.479   8.234   4.817
  149POPC   D2A 2155   6.289   8.200   5.231
  149POPC   C3A 2156   6.497   8.239   5.594
  149POPC   C4A 2157   6.327   8.377   5.950
  149POPC   C1B 2158   6.775   7.837   4.769
  149POPC   C2B 2159   6.772   8.017   5.179
  149POPC   C3B 2160   6.830   7.860   5.599
  149POPC   C4B 2161   6.849   8.120   5.954
  150POPC   NC3 2162   9.005   2.580   3.967
  150POPC   PO4 2163   8.798   3.166   3.835
  150POPC   GL1 2164   8.928   3.203   4.275
  150POPC   GL2 2165   9.069   2.876   4.384
  150POPC   C1A 2166   8.761   3.126   4.719
  150POPC   D2A 2167   8.744   2.899   5.141
  150POPC   C3A 2168   8.779   3.127   5.526
  150POPC   C4A 2169   8.380   3.118   5.701
  150POPC   C1B 2170   9.025   2.655   4.793
  150POPC   C2B 2171   8.980   2.441   5.204
  150POPC   C3B 2172   8.858   2.613   5.601
  150POPC   C4B 2173   8.909   2.632   6.015
  151POPC   NC3 2174   8.001   2.098   4.029
  151POPC   PO4 2175   8.539   2.506   4.077
  151POPC   GL1 2176   8.400   2.151   4.372
  151POPC   GL2 2177   8.073   2.087   4.522
  151POPC   C1A 2178   8.489   1.824   4.700
  151POPC   D2A 2179   8.639   1.761   5.140
  151POPC   C3A 2180   8.315   1.697   5.459
  151POPC   C4A 2181   8.211   1.769   5.895
  151POPC   C1B 2182   7.863   2.278   4.850
  151POPC   C2B 2183   8.040   2.059   5.161
  151POPC   C3B 2184   8.181   2.179   5.503
  151POPC   C4B 2185   7.975   2.229   5.817
  152POPC   NC3 2186   8.762   4.172   4.114
  152POPC   PO4 2187   9.028   4.775   3.922
  152POPC   GL1 2188   9.181   4.554   4.288
  152POPC   GL2 2189   9.155   4.230   4.386
  152POPC   C1A 2190   9.283   4.527   4.761
  152POPC   D2A 2191   9.356   4.594   5.206
  152POPC   C3A 2192   8.947   4.561   5.439
  152POPC   C4A 2193   8.717   4.486   5.840
  152POPC   C1B 2194   8.837   4.067   4.742
  152POPC   C2B 2195   8.705   3.935   5.162
  152POPC   C3B 2196   8.877   4.047   5.565
  152POPC   C4B 2197   9.107   3.900   5.904
  153POPC   NC3 2198   7.353   7.753   4.230
  153POPC   PO4 2199   7.658   7.331   3.716
  153POPC   GL1 2200   7.518   7.220   4.287
  153POPC   GL2 2201   7.601   7.491   4.591
  153POPC   C1A 2202   7.357   7.099   4.715
  153POPC   D2A 2203   7.535   7.287   5.065
  153POPC   C3A 2204   7.230   7.297   5.349
  153POPC   C4A 2205   7.448   7.124   5.696
  153POPC   C1B 2206   7.253   7.663   4.843
  153POPC   C2B 2207   7.240   7.831   5.215
  153POPC   C3B 2208   7.512   7.689   5.504
  153POPC   C4B 2209   7.209   7.569   5.774
  154POPC   NC3 2210   1.284   3.547   3.984
  154POPC   PO4 2211   0.692   3.708   3.846
  154POPC   GL1 2212   0.872   3.762   4.309
  154POPC   GL2 2213   1.166   3.534   4.459
  154POPC   C1A 2214   0.867   3.695   4.803
  154POPC   D2A 2215   1.048   3.453   5.179
  154POPC   C3A 2216   0.867   3.640   5.509
  154POPC   C4A 2217   0.965   3.613   5.912
  154POPC   C1B 2218   1.397   3.476   4.815
  154POPC   C2B 2219   1.527   3.685   5.181
  154POPC   C3B 2220   1.384   3.633   5.610
  154POPC   C4B 2221   1.416   3.457   6.077
  155POPC   NC3 2222   0.223   4.896   4.155
  155POPC   PO4 2223   0.827   4.658   3.832
  155POPC   GL1 2224   0.816   4.707   4.258
  155POPC   GL2 2225   0.687   5.022   4.325
  155POPC   C1A 2226   0.797   4.735   4.723
  155POPC   D2A 2227   0.493   4.984   5.010
  155POPC   C3A 2228   0.525   4.970   5.451
  155POPC   C4A 2229   0.274   4.699   5.731
  155POPC   C1B 2230   0.380   5.284   4.627
  155POPC   C2B 2231   0.082   5.338   5.004
  155POPC   C3B 2232   0.169   5.476   5.446
  155POPC   C4B 2233   0.382   5.310   5.823
  156POPC   NC3 2234   9.071   8.110   3.762
  156POPC   PO4 2235   8.606   7.740   3.850
  156POPC   GL1 2236   8.732   7.925   4.231
  156POPC   GL2 2237   9.064   7.874   4.232
  156POPC   C1A 2238   8.574   8.109   4.644
  156POPC   D2A 2239   8.428   8.293   5.061
  156POPC   C3A 2240   8.736   8.316   5.408
  156POPC   C4A 2241   8.590   8.332   5.828
  156POPC   C1B 2242   9.100   8.199   4.536
  156POPC   C2B 2243   9.328   8.289   4.911
  156POPC   C3B 2244   9.311   8.367   5.349
  156POPC   C4B 2245   9.109   8.247   5.755
  157POPC   NC3 2246   7.591   2.613   3.957
  157POPC   PO4 2247   6.999   2.286   3.931
  157POPC   GL1 2248   7.122   2.403   4.333
  157POPC   GL2 2249   7.216   2.742   4.320
  157POPC   C1A 2250   6.941   2.479   4.755
  157POPC   D2A 2251   6.890   2.520   5.203
  157POPC   C3A 2252   7.198   2.665   5.454
  157POPC   C4A 2253   7.146   2.781   5.865
  157POPC   C1B 2254   7.431   2.567   4.688
  157POPC   C2B 2255   7.555   2.625   5.071
  157POPC   C3B 2256   7.748   2.437   5.396
  157POPC   C4B 2257   7.551   2.482   5.774
  158POPC   NC3 2258   5.036   0.567   4.031
  158POPC   PO4 2259   5.095   9.935   3.991
  158POPC   GL1 2260   5.225   0.144   4.406
  158POPC   GL2 2261   5.265   0.528   4.487
  158POPC   C1A 2262   5.118   0.232   4.859
  158POPC   D2A 2263   5.316   0.489   5.207
  158POPC   C3A 2264   5.358   0.206   5.588
  158POPC   C4A 2265   5.516   0.198   6.062
  158POPC   C1B 2266   4.949   0.736   4.738
  158POPC   C2B 2267   4.802   0.562   5.118
  158POPC   C3B 2268   4.910   0.510   5.530
  158POPC   C4B 2269   4.712   0.746   5.814
  159POPC   NC3 2270   1.375   6.718   4.071
  159POPC   PO4 2271   0.853   6.226   3.916
  159POPC   GL1 2272   1.035   6.378   4.271
  159POPC   GL2 2273   1.353   6.353   4.476
  159POPC   C1A 2274   0.919   6.612   4.628
  159POPC   D2A 2275   0.990   6.833   5.008
  159POPC   C3A 2276   1.177   6.609   5.333
  159POPC   C4A 2277   0.964   6.699   5.710
  159POPC   C1B 2278   1.429   6.724   4.737
  159POPC   C2B 2279   1.522   6.943   5.109
  159POPC   C3B 2280   1.650   6.792   5.509
  159POPC   C4B 2281   1.445   6.441   5.750
  160POPC   NC3 2282   0.545   5.831   3.814
  160POPC   PO4 2283   0.496   5.143   3.848
  160POPC   GL1 2284   0.596   5.494   4.190
  160POPC   GL2 2285   0.289   5.676   4.272
  160POPC   C1A 2286   0.685   5.685   4.640
  160POPC   D2A 2287   0.585   5.508   5.082
  160POPC   C3A 2288   0.796   5.572   5.509
  160POPC   C4A 2289   0.648   5.748   5.921
  160POPC   C1B 2290   0.188   5.767   4.718
  160POPC   C2B 2291   0.355   6.010   5.065
  160POPC   C3B 2292   0.451   5.953   5.488
  160POPC   C4B 2293   0.187   5.929   5.845
  161POPC   NC3 2294   0.555   7.571   3.880
  161POPC   PO4 2295   0.064   7.052   3.902
  161POPC   GL1 2296   0.200   7.364   4.235
  161POPC   GL2 2297   0.548   7.287   4.287
  161POPC   C1A 2298   0.256   7.374   4.711
  161POPC   D2A 2299   0.233   7.597   5.112
  161POPC   C3A 2300   0.301   7.377   5.490
  161POPC   C4A 2301   0.530   7.544   5.864
  161POPC   C1B 2302   0.731   7.139   4.658
  161POPC   C2B 2303   0.653   7.265   5.078
  161POPC   C3B 2304   0.792   7.272   5.504
  161POPC   C4B 2305   0.580   7.029   5.801
  162POPC   NC3 2306   4.051   3.637   3.930
  162POPC   PO4 2307   4.269   4.130   4.002
  162POPC   GL1 2308   4.272   3.757   4.359
  162POPC   GL2 2309   4.458   3.448   4.304
  162POPC   C1A 2310   4.091   3.409   4.677
  162POPC   D2A 2311   4.271   3.258   5.113
  162POPC   C3A 2312   4.115   3.363   5.567
  162POPC   C4A 2313   3.780   3.650   5.769
  162POPC   C1B 2314   4.601   3.232   4.723
  162POPC   C2B 2315   4.702   2.986   5.137
  162POPC   C3B 2316   4.572   2.897   5.594
  162POPC   C4B 2317   4.315   3.061   5.964
  163POPC   NC3 2318   8.124   7.046   3.918
  163POPC   PO4 2319   7.783   7.595   4.152
  163POPC   GL1 2320   8.171   7.371   4.312
  163POPC   GL2 2321   8.415   7.590   4.442
  163POPC   C1A 2322   8.338   7.109   4.682
  163POPC   D2A 2323   8.433   6.938   5.107
  163POPC   C3A 2324   8.058   6.890   5.376
  163POPC   C4A 2325   7.941   7.148   5.723
  163POPC   C1B 2326   8.080   7.553   4.766
  163POPC   C2B 2327   8.080   7.321   5.112
  163POPC   C3B 2328   8.309   7.400   5.470
  163POPC   C4B 2329   8.003   7.647   5.642
  164POPC   NC3 2330   8.168   7.771   3.997
  164POPC   PO4 2331   7.551   8.115   3.947
  164POPC   GL1 2332   7.827   8.064   4.316
  164POPC   GL2 2333   8.144   8.246   4.251
  164POPC   C1A 2334   8.050   8.061   4.731
  164POPC   D2A 2335   8.011   7.907   5.170
  164POPC   C3A 2336   8.275   8.064   5.506
  164POPC   C4A 2337   8.447   7.847   5.843
  164POPC   C1B 2338   7.872   8.511   4.544
  164POPC   C2B 2339   7.920   8.489   5.000
  164POPC   C3B 2340   8.018   8.509   5.453
  164POPC   C4B 2341   8.071   8.404   5.931
  165POPC   NC3 2342   6.402   0.500   3.969
  165POPC   PO4 2343   6.113   1.054   4.132
  165POPC   GL1 2344   6.434   0.833   4.366
  165POPC   GL2 2345   6.691   0.575   4.369
  165POPC   C1A 2346   6.501   0.818   4.789
  165POPC   D2A 2347   6.251   0.597   5.058
  165POPC   C3A 2348   6.264   0.802   5.441
  165POPC   C4A 2349   6.296   0.617   5.807
  165POPC   C1B 2350   6.633   0.308   4.700
  165POPC   C2B 2351   6.562   0.152   5.093
  165POPC   C3B 2352   6.650   0.414   5.434
  165POPC   C4B 2353   6.568   0.197   5.778
  166POPC   NC3 2354   3.169   8.765   3.984
  166POPC   PO4 2355   3.804   8.983   4.047
  166POPC   GL1 2356   3.451   8.901   4.393
  166POPC   GL2 2357   3.353   9.198   4.599
  166POPC   C1A 2358   3.266   8.746   4.815
  166POPC   D2A 2359   3.352   9.067   5.133
  166POPC   C3A 2360   3.236   9.066   5.583
  166POPC   C4A 2361   3.345   9.315   5.927
  166POPC   C1B 2362   3.787   9.119   4.757
  166POPC   C2B 2363   3.861   8.898   5.128
  166POPC   C3B 2364   3.626   8.727   5.463
  166POPC   C4B 2365   3.726   9.034   5.732
  167POPC   NC3 2366   7.183   9.305   3.889
  167POPC   PO4 2367   6.936   9.924   3.930
  167POPC   GL1 2368   7.071   9.663   4.310
  167POPC   GL2 2369   7.416   9.571   4.289
  167POPC   C1A 2370   7.129   9.411   4.736
  167POPC   D2A 2371   7.335   9.299   5.140
  167POPC   C3A 2372   7.112   9.455   5.543
  167POPC   C4A 2373   7.156   9.532   6.036
  167POPC   C1B 2374   7.408   9.841   4.679
  167POPC   C2B 2375   7.594   9.745   5.085
  167POPC   C3B 2376   7.575   9.635   5.500
  167POPC   C4B 2377   7.325   9.909   5.729
  168POPC   NC3 2378   9.029   7.472   3.925
  168POPC   PO4 2379   8.563   7.094   4.070
  168POPC   GL1 2380   8.851   7.084   4.376
  168POPC   GL2 2381   8.913   7.413   4.403
  168POPC   C1A 2382   8.824   7.164   4.828
  168POPC   D2A 2383   8.786   7.329   5.229
  168POPC   C3A 2384   8.809   7.003   5.562
  168POPC   C4A 2385   9.032   7.141   5.956
  168POPC   C1B 2386   8.933   7.729   4.708
  168POPC   C2B 2387   8.943   7.990   5.074
  168POPC   C3B 2388   8.927   7.835   5.505
  168POPC   C4B 2389   8.763   7.487   5.720
  169POPC   NC3 2390   3.921   8.056   4.065
  169POPC   PO4 2391   3.254   7.857   3.887
  169POPC   GL1 2392   3.430   8.095   4.271
  169POPC   GL2 2393   3.623   8.431   4.273
  169POPC   C1A 2394   3.422   8.209   4.718
  169POPC   D2A 2395   3.273   8.030   5.099
  169POPC   C3A 2396   3.439   8.150   5.489
  169POPC   C4A 2397   3.373   7.912   5.868
  169POPC   C1B 2398   3.737   8.599   4.706
  169POPC   C2B 2399   3.824   8.382   5.116
  169POPC   C3B 2400   3.943   8.345   5.580
  169POPC   C4B 2401   3.678   8.359   5.910
  170POPC   NC3 2402   7.297   0.922   3.934
  170POPC   PO4 2403   7.383   1.572   3.967
  170POPC   GL1 2404   7.399   1.202   4.329
  170POPC   GL2 2405   7.733   1.244   4.517
  170POPC   C1A 2406   7.389   0.998   4.772
  170POPC   D2A 2407   7.466   1.232   5.173
  170POPC   C3A 2408   7.416   0.942   5.510
  170POPC   C4A 2409   7.045   0.825   5.723
  170POPC   C1B 2410   7.328   1.499   4.706
  170POPC   C2B 2411   7.080   1.574   5.048
  170POPC   C3B 2412   7.234   1.655   5.435
  170POPC   C4B 2413   7.457   1.413   5.707
  171POPC   NC3 2414   2.248   6.240   3.979
  171POPC   PO4 2415   1.606   6.325   4.059
  171POPC   GL1 2416   1.912   6.106   4.336
  171POPC   GL2 2417   1.902   5.749   4.310
  171POPC   C1A 2418   2.159   6.017   4.749
  171POPC   D2A 2419   2.018   5.949   5.223
  171POPC   C3A 2420   2.147   5.899   5.695
  171POPC   C4A 2421   2.271   5.967   6.159
  171POPC   C1B 2422   1.688   5.852   4.729
  171POPC   C2B 2423   1.488   5.928   5.134
  171POPC   C3B 2424   1.615   5.950   5.588
  171POPC   C4B 2425   1.755   5.705   5.978
  172POPC   NC3 2426   0.824   4.159   3.845
  172POPC   PO4 2427   1.469   3.894   3.754
  172POPC   GL1 2428   1.333   4.008   4.219
  172POPC   GL2 2429   1.036   4.237   4.301
  172POPC   C1A 2430   1.299   3.975   4.696
  172POPC   D2A 2431   1.130   3.965   5.140
  172POPC   C3A 2432   1.077   4.114   5.552
  172POPC   C4A 2433   0.683   4.033   5.797
  172POPC   C1B 2434   1.242   4.484   4.598
  172POPC   C2B 2435   1.254   4.597   5.019
  172POPC   C3B 2436   1.214   4.623   5.471
  172POPC   C4B 2437   1.451   4.446   5.790
  173POPC   NC3 2438   2.157   7.313   3.872
  173POPC   PO4 2439   2.430   6.656   3.910
  173POPC   GL1 2440   2.183   6.592   4.350
  173POPC   GL2 2441   1.815   6.624   4.406
  173POPC   C1A 2442   2.092   6.787   4.790
  173POPC   D2A 2443   2.013   7.059   5.177
  173POPC   C3A 2444   2.340   7.093   5.485
  173POPC   C4A 2445   2.339   6.729   5.725
  173POPC   C1B 2446   1.790   6.364   4.770
  173POPC   C2B 2447   1.726   6.392   5.200
  173POPC   C3B 2448   1.951   6.378   5.584
  173POPC   C4B 2449   1.858   6.208   5.967
  174POPC   NC3 2450   7.118   4.482   3.959
  174POPC   PO4 2451   7.519   4.020   4.016
  174POPC   GL1 2452   7.498   4.198   4.384
  174POPC   GL2 2453   7.740   3.975   4.493
  174POPC   C1A 2454   7.328   4.254   4.802
  174POPC   D2A 2455   7.408   4.201   5.240
  174POPC   C3A 2456   7.096   4.253   5.589
  174POPC   C4A 2457   7.133   4.060   6.017
  174POPC   C1B 2458   7.839   4.302   4.757
  174POPC   C2B 2459   7.900   4.424   5.169
  174POPC   C3B 2460   7.632   4.550   5.523
  174POPC   C4B 2461   7.561   4.182   5.744
  175POPC   NC3 2462   4.174   7.339   4.164
  175POPC   PO4 2463   3.982   6.741   4.148
  175POPC   GL1 2464   3.910   7.010   4.510
  175POPC   GL2 2465   3.923   7.394   4.611
  175POPC   C1A 2466   4.220   7.038   4.838
  175POPC   D2A 2467   4.457   7.197   5.207
  175POPC   C3A 2468   4.350   7.068   5.631
  175POPC   C4A 2469   4.407   7.002   6.081
  175POPC   C1B 2470   4.108   7.523   4.973
  175POPC   C2B 2471   4.038   7.444   5.384
  175POPC   C3B 2472   4.279   7.587   5.693
  175POPC   C4B 2473   4.223   7.490   6.111
  176POPC   NC3 2474   8.620   4.899   4.093
  176POPC   PO4 2475   8.232   5.398   3.775
  176POPC   GL1 2476   8.250   5.265   4.176
  176POPC   GL2 2477   8.080   4.935   4.185
  176POPC   C1A 2478   8.387   5.315   4.588
  176POPC   D2A 2479   8.307   5.188   4.978
  176POPC   C3A 2480   8.222   5.299   5.403
  176POPC   C4A 2481   8.302   5.359   5.834
  176POPC   C1B 2482   7.947   5.033   4.622
  176POPC   C2B 2483   7.891   4.946   5.091
  176POPC   C3B 2484   8.063   4.814   5.449
  176POPC   C4B 2485   8.303   4.806   5.759
  177POPC   NC3 2486   0.351   4.708   3.720
  177POPC   PO4 2487   0.408   4.168   4.052
  177POPC   GL1 2488   0.405   4.466   4.429
  177POPC   GL2 2489   0.564   4.185   4.529
  177POPC   C1A 2490   0.396   4.488   4.922
  177POPC   D2A 2491   0.753   4.559   5.205
  177POPC   C3A 2492   0.721   4.504   5.619
  177POPC   C4A 2493   0.517   4.442   6.073
  177POPC   C1B 2494   0.834   4.215   4.825
  177POPC   C2B 2495   0.646   4.063   5.216
  177POPC   C3B 2496   0.310   4.267   5.438
  177POPC   C4B 2497   0.136   4.172   5.855
  178POPC   NC3 2498   8.682   9.697   4.105
  178POPC   PO4 2499   9.300   9.426   3.876
  178POPC   GL1 2500   9.127   9.578   4.282
  178POPC   GL2 2501   9.104   9.946   4.392
  178POPC   C1A 2502   8.979   9.528   4.692
  178POPC   D2A 2503   9.146   9.406   5.067
  178POPC   C3A 2504   8.956   9.496   5.473
  178POPC   C4A 2505   9.034   9.212   5.795
  178POPC   C1B 2506   8.827   0.011   4.790
  178POPC   C2B 2507   8.961   9.944   5.233
  178POPC   C3B 2508   8.897   9.957   5.715
  178POPC   C4B 2509   8.707   9.999   6.157
  179POPC   NC3 2510   3.508   7.472   3.722
  179POPC   PO4 2511   4.097   7.678   3.819
  179POPC   GL1 2512   3.687   7.631   4.170
  179POPC   GL2 2513   3.588   7.346   4.255
  179POPC   C1A 2514   3.451   7.692   4.616
  179POPC   D2A 2515   3.244   7.537   5.009
  179POPC   C3A 2516   3.462   7.638   5.404
  179POPC   C4A 2517   3.400   7.404   5.830
  179POPC   C1B 2518   3.454   7.181   4.652
  179POPC   C2B 2519   3.665   7.257   5.039
  179POPC   C3B 2520   3.616   7.174   5.461
  179POPC   C4B 2521   3.897   7.202   5.834
  180POPC   NC3 2522   9.898   2.840   3.894
  180POPC   PO4 2523   0.097   3.371   4.275
  180POPC   GL1 2524   9.828   3.176   4.395
  180POPC   GL2 2525   9.558   3.007   4.306
  180POPC   C1A 2526   9.789   3.036   4.766
  180POPC   D2A 2527   9.561   3.079   5.065
  180POPC   C3A 2528   9.769   2.912   5.414
  180POPC   C4A 2529   9.588   3.086   5.754
  180POPC   C1B 2530   9.512   2.645   4.654
  180POPC   C2B 2531   9.472   2.568   5.084
  180POPC   C3B 2532   9.265   2.829   5.401
  180POPC   C4B 2533   9.366   2.604   5.772
  181POPC   NC3 2534   0.978   1.270   4.020
  181POPC   PO4 2535   0.863   0.708   3.667
  181POPC   GL1 2536   1.175   0.826   4.156
  181POPC   GL2 2537   1.451   1.019   4.371
  181POPC   C1A 2538   1.025   0.992   4.627
  181POPC   D2A 2539   1.209   1.258   4.953
  181POPC   C3A 2540   1.176   1.193   5.395
  181POPC   C4A 2541   1.194   1.084   5.826
  181POPC   C1B 2542   1.632   1.391   4.723
  181POPC   C2B 2543   1.618   1.528   5.189
  181POPC   C3B 2544   1.611   1.380   5.640
  181POPC   C4B 2545   1.552   1.356   6.114
  182POPC   NC3 2546   2.152   1.520   3.559
  182POPC   PO4 2547   1.933   1.800   4.085
  182POPC   GL1 2548   1.898   2.031   4.444
  182POPC   GL2 2549   1.712   2.295   4.356
  182POPC   C1A 2550   1.880   1.894   4.876
  182POPC   D2A 2551   2.276   1.938   5.088
  182POPC   C3A 2552   2.369   2.130   5.431
  182POPC   C4A 2553   2.145   2.038   5.771
  182POPC   C1B 2554   1.734   2.544   4.740
  182POPC   C2B 2555   1.917   2.350   5.140
  182POPC   C3B 2556   1.806   2.004   5.393
  182POPC   C4B 2557   1.672   2.234   5.744
  183POPC   NC3 2558   7.773   1.280   4.004
  183POPC   PO4 2559   8.371   1.644   3.835
  183POPC   GL1 2560   8.174   1.615   4.291
  183POPC   GL2 2561   8.271   1.272   4.393
  183POPC   C1A 2562   8.089   1.514   4.793
  183POPC   D2A 2563   8.191   1.279   5.211
  183POPC   C3A 2564   7.984   1.329   5.672
  183POPC   C4A 2565   7.784   1.552   6.074
  183POPC   C1B 2566   8.475   1.071   4.778
  183POPC   C2B 2567   8.474   0.857   5.202
  183POPC   C3B 2568   8.459   1.091   5.644
  183POPC   C4B 2569   8.443   0.877   6.083
  184POPC   NC3 2570   8.278   8.908   3.858
  184POPC   PO4 2571   7.621   9.110   3.883
  184POPC   GL1 2572   7.956   8.995   4.240
  184POPC   GL2 2573   8.255   8.777   4.327
  184POPC   C1A 2574   8.096   9.143   4.655
  184POPC   D2A 2575   7.883   9.314   5.011
  184POPC   C3A 2576   8.032   9.212   5.413
  184POPC   C4A 2577   7.830   8.950   5.707
  184POPC   C1B 2578   8.339   8.667   4.716
  184POPC   C2B 2579   8.275   8.859   5.090
  184POPC   C3B 2580   8.474   8.738   5.426
  184POPC   C4B 2581   8.307   8.809   5.771
  185POPC   NC3 2582   8.138   9.449   3.766
  185POPC   PO4 2583   8.376   0.084   4.013
  185POPC   GL1 2584   8.225   9.756   4.297
  185POPC   GL2 2585   7.953   9.509   4.264
  185POPC   C1A 2586   8.398   9.586   4.698
  185POPC   D2A 2587   8.631   9.579   5.069
  185POPC   C3A 2588   8.514   9.788   5.431
  185POPC   C4A 2589   8.506   9.644   5.858
  185POPC   C1B 2590   7.916   9.739   4.691
  185POPC   C2B 2591   8.105   9.763   5.129
  185POPC   C3B 2592   8.036   9.783   5.597
  185POPC   C4B 2593   7.833   0.105   5.855
  186POPC   NC3 2594   5.013   2.156   3.935
  186POPC   PO4 2595   5.209   1.478   4.082
  186POPC   GL1 2596   5.099   1.693   4.418
  186POPC   GL2 2597   5.121   2.045   4.407
  186POPC   C1A 2598   4.884   1.783   4.791
  186POPC   D2A 2599   5.043   1.924   5.189
  186POPC   C3A 2600   4.889   2.066   5.584
  186POPC   C4A 2601   4.818   1.951   6.007
  186POPC   C1B 2602   5.012   2.293   4.782
  186POPC   C2B 2603   4.888   2.454   5.179
  186POPC   C3B 2604   5.127   2.538   5.551
  186POPC   C4B 2605   5.146   2.352   5.950
  187POPC   NC3 2606   3.404   2.905   3.902
  187POPC   PO4 2607   4.045   3.180   4.021
  187POPC   GL1 2608   3.794   2.975   4.371
  187POPC   GL2 2609   3.486   2.742   4.398
  187POPC   C1A 2610   3.565   3.057   4.781
  187POPC   D2A 2611   3.263   2.758   4.982
  187POPC   C3A 2612   3.218   2.822   5.433
  187POPC   C4A 2613   3.308   3.050   5.802
  187POPC   C1B 2614   3.740   2.580   4.790
  187POPC   C2B 2615   3.628   2.536   5.267
  187POPC   C3B 2616   3.598   2.566   5.738
  187POPC   C4B 2617   3.557   2.664   6.191
  188POPC   NC3 2618   2.854   8.094   3.813
  188POPC   PO4 2619   2.254   7.853   3.937
  188POPC   GL1 2620   2.547   8.042   4.275
  188POPC   GL2 2621   2.890   8.242   4.286
  188POPC   C1A 2622   2.456   8.136   4.721
  188POPC   D2A 2623   2.217   8.035   5.110
  188POPC   C3A 2624   2.460   8.044   5.472
  188POPC   C4A 2625   2.512   8.407   5.712
  188POPC   C1B 2626   2.957   8.017   4.640
  188POPC   C2B 2627   2.892   8.327   4.962
  188POPC   C3B 2628   2.910   8.242   5.397
  188POPC   C4B 2629   2.919   8.124   5.815
  189POPC   NC3 2630   9.308   5.083   4.106
  189POPC   PO4 2631   9.959   5.279   4.098
  189POPC   GL1 2632   9.732   5.042   4.384
  189POPC   GL2 2633   9.659   4.714   4.301
  189POPC   C1A 2634   9.551   4.960   4.785
  189POPC   D2A 2635   9.599   5.135   5.156
  189POPC   C3A 2636   9.496   4.957   5.553
  189POPC   C4A 2637   9.442   5.194   5.925
  189POPC   C1B 2638   9.925   4.636   4.676
  189POPC   C2B 2639   9.904   4.610   5.123
  189POPC   C3B 2640   0.005   4.964   5.399
  189POPC   C4B 2641   9.919   5.028   5.841
  190POPC   NC3 2642   8.730   1.294   3.839
  190POPC   PO4 2643   9.357   1.505   3.929
  190POPC   GL1 2644   9.008   1.354   4.254
  190POPC   GL2 2645   8.734   1.050   4.274
  190POPC   C1A 2646   8.842   1.421   4.660
  190POPC   D2A 2647   9.073   1.493   5.032
  190POPC   C3A 2648   8.869   1.370   5.414
  190POPC   C4A 2649   9.118   1.405   5.794
  190POPC   C1B 2650   8.948   0.902   4.590
  190POPC   C2B 2651   8.953   0.995   5.008
  190POPC   C3B 2652   8.938   0.877   5.423
  190POPC   C4B 2653   8.905   0.924   5.860
  191POPC   NC3 2654   0.788   2.705   4.193
  191POPC   PO4 2655   1.384   2.420   4.003
  191POPC   GL1 2656   1.289   2.629   4.361
  191POPC   GL2 2657   1.288   2.953   4.177
  191POPC   C1A 2658   1.065   2.795   4.759
  191POPC   D2A 2659   0.969   2.919   5.201
  191POPC   C3A 2660   1.248   2.708   5.414
  191POPC   C4A 2661   1.578   2.737   5.683
  191POPC   C1B 2662   1.510   3.041   4.559
  191POPC   C2B 2663   1.470   3.001   5.004
  191POPC   C3B 2664   1.482   3.177   5.400
  191POPC   C4B 2665   1.155   3.162   5.715
  192POPC   NC3 2666   1.909   9.772   3.833
  192POPC   PO4 2667   1.347   9.700   4.126
  192POPC   GL1 2668   1.771   9.618   4.289
  192POPC   GL2 2669   2.102   9.815   4.296
  192POPC   C1A 2670   1.814   9.418   4.676
  192POPC   D2A 2671   1.927   9.506   5.093
  192POPC   C3A 2672   1.864   9.560   5.538
  192POPC   C4A 2673   1.653   9.378   5.878
  192POPC   C1B 2674   2.222   9.710   4.707
  192POPC   C2B 2675   2.383   9.906   5.046
  192POPC   C3B 2676   2.230   0.105   5.389
  192POPC   C4B 2677   2.152   9.959   5.767
  193POPC   NC3 2678   7.953   6.219   4.138
  193POPC   PO4 2679   8.357   6.646   3.783
  193POPC   GL1 2680   8.227   6.682   4.260
  193POPC   GL2 2681   7.950   6.930   4.400
  193POPC   C1A 2682   8.264   6.590   4.729
  193POPC   D2A 2683   8.389   6.437   5.182
  193POPC   C3A 2684   8.396   6.618   5.636
  193POPC   C4A 2685   8.298   6.405   6.033
  193POPC   C1B 2686   7.861   6.912   4.841
  193POPC   C2B 2687   7.876   6.513   5.077
  193POPC   C3B 2688   7.954   6.368   5.492
  193POPC   C4B 2689   7.869   6.649   5.820
  194POPC   NC3 2690   7.770   5.376   3.868
  194POPC   PO4 2691   7.479   4.750   3.892
  194POPC   GL1 2692   7.595   4.698   4.329
  194POPC   GL2 2693   7.235   4.665   4.423
  194POPC   C1A 2694   7.560   4.726   4.794
  194POPC   D2A 2695   7.390   5.069   5.056
  194POPC   C3A 2696   7.541   5.053   5.472
  194POPC   C4A 2697   7.846   5.160   5.768
  194POPC   C1B 2698   7.056   4.711   4.861
  194POPC   C2B 2699   7.177   4.681   5.309
  194POPC   C3B 2700   7.215   4.783   5.766
  194POPC   C4B 2701   7.182   4.957   6.219
  195POPC   NC3 2702   3.523   1.924   4.055
  195POPC   PO4 2703   3.701   2.528   3.959
  195POPC   GL1 2704   3.681   2.277   4.379
  195POPC   GL2 2705   3.296   2.244   4.388
  195POPC   C1A 2706   3.766   1.946   4.719
  195POPC   D2A 2707   3.954   1.722   5.099
  195POPC   C3A 2708   3.819   1.763   5.553
  195POPC   C4A 2709   3.982   1.610   5.968
  195POPC   C1B 2710   3.360   2.253   4.834
  195POPC   C2B 2711   3.535   2.052   5.204
  195POPC   C3B 2712   3.423   2.077   5.647
  195POPC   C4B 2713   3.509   1.777   5.984
  196POPC   NC3 2714   4.755   1.421   4.059
  196POPC   PO4 2715   4.018   1.579   3.950
  196POPC   GL1 2716   4.166   1.420   4.360
  196POPC   GL2 2717   4.109   1.090   4.285
  196POPC   C1A 2718   4.077   1.250   4.813
  196POPC   D2A 2719   3.987   1.228   5.281
  196POPC   C3A 2720   4.251   1.522   5.490
  196POPC   C4A 2721   4.645   1.580   5.667
  196POPC   C1B 2722   4.490   1.035   4.577
  196POPC   C2B 2723   4.539   0.992   5.032
  196POPC   C3B 2724   4.514   1.086   5.480
  196POPC   C4B 2725   4.155   1.134   5.779
  197POPC   NC3 2726   7.391   7.707   3.756
  197POPC   PO4 2727   6.912   7.950   4.144
  197POPC   GL1 2728   7.100   8.113   4.483
  197POPC   GL2 2729   7.375   8.338   4.393
  197POPC   C1A 2730   7.016   8.356   4.819
  197POPC   D2A 2731   7.209   8.554   5.150
  197POPC   C3A 2732   7.084   8.299   5.464
  197POPC   C4A 2733   7.291   8.076   5.744
  197POPC   C1B 2734   7.525   8.150   4.801
  197POPC   C2B 2735   7.593   8.188   5.258
  197POPC   C3B 2736   7.775   8.105   5.669
  197POPC   C4B 2737   7.616   8.174   6.127
  198POPC   NC3 2738   8.679   3.608   3.802
  198POPC   PO4 2739   9.228   3.853   4.062
  198POPC   GL1 2740   9.029   3.711   4.390
  198POPC   GL2 2741   8.686   3.690   4.314
  198POPC   C1A 2742   9.011   3.576   4.803
  198POPC   D2A 2743   9.079   3.281   5.122
  198POPC   C3A 2744   9.121   3.542   5.470
  198POPC   C4A 2745   9.181   3.381   5.882
  198POPC   C1B 2746   8.516   3.618   4.712
  198POPC   C2B 2747   8.580   3.422   5.103
  198POPC   C3B 2748   8.455   3.568   5.476
  198POPC   C4B 2749   8.712   3.591   5.778
  199POPC   NC3 2750   1.880   9.105   3.889
  199POPC   PO4 2751   2.364   9.502   3.970
  199POPC   GL1 2752   2.183   9.308   4.340
  199POPC   GL2 2753   2.128   8.955   4.320
  199POPC   C1A 2754   2.292   9.177   4.762
  199POPC   D2A 2755   2.123   8.877   5.044
  199POPC   C3A 2756   1.939   9.037   5.369
  199POPC   C4A 2757   2.092   9.113   5.738
  199POPC   C1B 2758   1.805   8.899   4.644
  199POPC   C2B 2759   1.577   8.831   5.027
  199POPC   C3B 2760   1.545   8.702   5.456
  199POPC   C4B 2761   1.682   8.869   5.819
  200POPC   NC3 2762   7.944   0.371   4.100
  200POPC   PO4 2763   7.729   0.880   3.776
  200POPC   GL1 2764   8.038   0.869   4.169
  200POPC   GL2 2765   8.347   0.632   4.271
  200POPC   C1A 2766   8.053   0.820   4.637
  200POPC   D2A 2767   7.857   0.941   5.015
  200POPC   C3A 2768   7.867   0.649   5.363
  200POPC   C4A 2769   8.049   0.570   5.775
  200POPC   C1B 2770   8.256   0.263   4.628
  200POPC   C2B 2771   8.376   0.195   5.036
  200POPC   C3B 2772   8.179   0.228   5.413
  200POPC   C4B 2773   8.369   0.133   5.793
  201POPC   NC3 2774   8.955   9.223   3.634
  201POPC   PO4 2775   8.433   9.296   4.083
  201POPC   GL1 2776   8.735   9.211   4.362
  201POPC   GL2 2777   9.068   9.080   4.204
  201POPC   C1A 2778   8.621   9.126   4.795
  201POPC   D2A 2779   8.760   9.099   5.216
  201POPC   C3A 2780   8.531   9.225   5.587
  201POPC   C4A 2781   8.524   9.166   6.063
  201POPC   C1B 2782   9.112   9.028   4.674
  201POPC   C2B 2783   9.062   8.729   5.033
  201POPC   C3B 2784   9.048   8.772   5.488
  201POPC   C4B 2785   8.801   8.773   5.830
  202POPC   NC3 2786   7.716   3.616   4.074
  202POPC   PO4 2787   7.728   3.050   3.853
  202POPC   GL1 2788   7.560   3.155   4.277
  202POPC   GL2 2789   7.305   3.439   4.309
  202POPC   C1A 2790   7.332   3.092   4.675
  202POPC   D2A 2791   7.133   2.952   5.028
  202POPC   C3A 2792   7.230   3.238   5.351
  202POPC   C4A 2793   7.336   3.246   5.779
  202POPC   C1B 2794   7.282   3.737   4.666
  202POPC   C2B 2795   7.198   3.733   5.124
  202POPC   C3B 2796   7.217   3.741   5.583
  202POPC   C4B 2797   7.533   3.703   5.891
  203POPC   NC3 2798   5.813   0.143   3.565
  203POPC   PO4 2799   5.510   0.525   4.058
  203POPC   GL1 2800   5.923   0.450   4.225
  203POPC   GL2 2801   5.935   0.714   4.441
  203POPC   C1A 2802   6.141   0.300   4.633
  203POPC   D2A 2803   6.061   0.063   5.029
  203POPC   C3A 2804   6.166   0.246   5.424
  203POPC   C4A 2805   5.978   0.219   5.803
  203POPC   C1B 2806   5.702   0.578   4.746
  203POPC   C2B 2807   5.756   0.756   5.092
  203POPC   C3B 2808   5.796   0.584   5.460
  203POPC   C4B 2809   5.564   0.609   5.779
  204POPC   NC3 2810   4.439   7.952   3.707
  204POPC   PO4 2811   4.144   7.754   4.331
  204POPC   GL1 2812   3.865   7.961   4.564
  204POPC   GL2 2813   4.047   8.249   4.527
  204POPC   C1A 2814   3.749   7.886   4.981
  204POPC   D2A 2815   4.029   7.937   5.296
  204POPC   C3A 2816   3.842   7.845   5.679
  204POPC   C4A 2817   4.057   7.958   6.004
  204POPC   C1B 2818   4.458   8.197   4.721
  204POPC   C2B 2819   4.582   8.260   5.147
  204POPC   C3B 2820   4.439   8.137   5.573
  204POPC   C4B 2821   4.360   8.378   5.941
  205POPC   NC3 2822   5.757   8.285   4.041
  205POPC   PO4 2823   6.165   7.774   3.955
  205POPC   GL1 2824   5.911   7.921   4.378
  205POPC   GL2 2825   5.725   8.279   4.519
  205POPC   C1A 2826   6.017   8.079   4.826
  205POPC   D2A 2827   5.787   8.337   5.133
  205POPC   C3A 2828   5.935   8.265   5.578
  205POPC   C4A 2829   6.009   7.969   5.936
  205POPC   C1B 2830   5.518   7.951   4.749
  205POPC   C2B 2831   5.374   7.988   5.170
  205POPC   C3B 2832   5.479   8.012   5.610
  205POPC   C4B 2833   5.516   7.867   6.039
  206POPC   NC3 2834   9.625   9.167   4.072
  206POPC   PO4 2835   0.025   8.671   3.916
  206POPC   GL1 2836   9.977   8.905   4.293
  206POPC   GL2 2837   9.704   8.704   4.354
  206POPC   C1A 2838   9.932   9.067   4.722
  206POPC   D2A 2839   0.222   9.125   5.065
  206POPC   C3A 2840   0.116   9.336   5.439
  206POPC   C4A 2841   9.834   9.240   5.770
  206POPC   C1B 2842   9.528   8.752   4.759
  206POPC   C2B 2843   9.551   8.823   5.209
  206POPC   C3B 2844   9.542   8.839   5.651
  206POPC   C4B 2845   9.291   8.676   5.972
  207POPC   NC3 2846   2.872   1.344   4.085
  207POPC   PO4 2847   2.284   1.032   4.026
  207POPC   GL1 2848   2.610   0.992   4.353
  207POPC   GL2 2849   2.716   1.283   4.550
  207POPC   C1A 2850   2.576   0.872   4.822
  207POPC   D2A 2851   2.723   1.141   5.102
  207POPC   C3A 2852   2.486   1.117   5.456
  207POPC   C4A 2853   2.491   0.929   5.858
  207POPC   C1B 2854   3.066   1.399   4.777
  207POPC   C2B 2855   3.234   1.124   5.058
  207POPC   C3B 2856   3.101   1.157   5.481
  207POPC   C4B 2857   2.860   1.247   5.837
  208POPC   NC3 2858   6.396   9.010   4.169
  208POPC   PO4 2859   6.947   8.906   3.853
  208POPC   GL1 2860   6.790   8.773   4.345
  208POPC   GL2 2861   6.698   9.130   4.581
  208POPC   C1A 2862   6.615   8.706   4.790
  208POPC   D2A 2863   6.687   8.520   5.193
  208POPC   C3A 2864   6.765   8.686   5.580
  208POPC   C4A 2865   6.766   8.619   6.020
  208POPC   C1B 2866   6.322   9.159   4.835
  208POPC   C2B 2867   6.365   9.146   5.255
  208POPC   C3B 2868   6.660   9.197   5.539
  208POPC   C4B 2869   6.471   8.991   5.861
  209POPC   NC3 2870   2.941   5.742   4.053
  209POPC   PO4 2871   2.283   5.762   3.952
  209POPC   GL1 2872   2.460   5.888   4.328
  209POPC   GL2 2873   2.797   6.061   4.425
  209POPC   C1A 2874   2.577   5.736   4.732
  209POPC   D2A 2875   2.609   6.030   5.064
  209POPC   C3A 2876   2.582   5.823   5.476
  209POPC   C4A 2877   2.610   5.681   5.897
  209POPC   C1B 2878   3.061   5.923   4.801
  209POPC   C2B 2879   3.030   5.832   5.266
  209POPC   C3B 2880   3.063   5.949   5.712
  209POPC   C4B 2881   3.365   5.970   6.092
  210POPC   NC3 2882   1.233   7.457   3.907
  210POPC   PO4 2883   0.936   6.856   4.002
  210POPC   GL1 2884   1.120   7.135   4.299
  210POPC   GL2 2885   1.006   7.501   4.358
  210POPC   C1A 2886   1.238   7.192   4.721
  210POPC   D2A 2887   1.154   7.300   5.152
  210POPC   C3A 2888   1.262   7.098   5.558
  210POPC   C4A 2889   1.388   6.925   5.981
  210POPC   C1B 2890   0.938   7.627   4.787
  210POPC   C2B 2891   1.186   7.810   5.137
  210POPC   C3B 2892   1.231   7.630   5.532
  210POPC   C4B 2893   1.459   7.461   5.885
  211POPC   NC3 2894   2.123   7.640   4.324
  211POPC   PO4 2895   1.678   7.314   3.928
  211POPC   GL1 2896   1.857   7.117   4.278
  211POPC   GL2 2897   2.200   7.097   4.365
  211POPC   C1A 2898   1.767   7.170   4.703
  211POPC   D2A 2899   1.578   7.486   4.949
  211POPC   C3A 2900   1.652   7.387   5.369
  211POPC   C4A 2901   1.890   7.215   5.706
  211POPC   C1B 2902   2.283   7.269   4.794
  211POPC   C2B 2903   2.068   7.553   5.045
  211POPC   C3B 2904   2.142   7.608   5.458
  211POPC   C4B 2905   2.501   7.574   5.687
  212POPC   NC3 2906   9.479   1.951   3.923
  212POPC   PO4 2907   9.526   2.588   4.032
  212POPC   GL1 2908   9.550   2.223   4.364
  212POPC   GL2 2909   9.774   1.894   4.354
  212POPC   C1A 2910   9.671   2.126   4.812
  212POPC   D2A 2911   9.813   2.162   5.242
  212POPC   C3A 2912   9.476   2.153   5.531
  212POPC   C4A 2913   9.305   2.000   5.933
  212POPC   C1B 2914   9.657   1.614   4.725
  212POPC   C2B 2915   9.537   1.648   5.184
  212POPC   C3B 2916   9.564   1.639   5.621
  212POPC   C4B 2917   9.873   1.775   5.911
  213POPC   NC3 2918   2.022   5.355   3.983
  213POPC   PO4 2919   2.462   4.884   4.050
  213POPC   GL1 2920   2.179   5.067   4.391
  213POPC   GL2 2921   1.802   5.048   4.359
  213POPC   C1A 2922   1.974   5.399   4.696
  213POPC   D2A 2923   1.678   5.460   5.069
  213POPC   C3A 2924   1.854   5.479   5.507
  213POPC   C4A 2925   2.262   5.363   5.698
  213POPC   C1B 2926   1.685   4.743   4.662
  213POPC   C2B 2927   1.826   4.637   5.065
  213POPC   C3B 2928   1.798   4.648   5.490
  213POPC   C4B 2929   2.110   4.843   5.750
  214POPC   NC3 2930   1.325   8.437   4.083
  214POPC   PO4 2931   0.931   7.856   3.965
  214POPC   GL1 2932   1.112   8.040   4.341
  214POPC   GL2 2933   1.503   8.069   4.377
  214POPC   C1A 2934   1.014   8.140   4.774
  214POPC   D2A 2935   0.714   7.988   5.130
  214POPC   C3A 2936   0.901   8.066   5.542
  214POPC   C4A 2937   1.173   7.935   5.915
  214POPC   C1B 2938   1.502   8.398   4.720
  214POPC   C2B 2939   1.303   8.363   5.133
  214POPC   C3B 2940   1.397   8.214   5.536
  214POPC   C4B 2941   1.675   8.348   5.849
  215POPC   NC3 2942   5.199   8.685   3.594
  215POPC   PO4 2943   4.803   8.979   4.019
  215POPC   GL1 2944   4.900   8.831   4.420
  215POPC   GL2 2945   5.204   8.742   4.437
  215POPC   C1A 2946   4.802   8.591   4.778
  215POPC   D2A 2947   4.732   8.787   5.154
  215POPC   C3A 2948   4.716   8.589   5.552
  215POPC   C4A 2949   4.851   8.626   5.957
  215POPC   C1B 2950   5.219   9.158   4.631
  215POPC   C2B 2951   5.091   9.192   5.062
  215POPC   C3B 2952   5.123   8.973   5.459
  215POPC   C4B 2953   5.086   9.069   5.881
  216POPC   NC3 2954   2.881   6.625   3.907
  216POPC   PO4 2955   3.330   7.092   3.939
  216POPC   GL1 2956   3.189   6.842   4.353
  216POPC   GL2 2957   2.899   6.568   4.433
  216POPC   C1A 2958   3.080   6.856   4.824
  216POPC   D2A 2959   2.767   6.601   5.102
  216POPC   C3A 2960   2.822   6.704   5.558
  216POPC   C4A 2961   3.163   6.909   5.800
  216POPC   C1B 2962   2.515   6.389   4.679
  216POPC   C2B 2963   2.259   6.407   5.072
  216POPC   C3B 2964   2.440   6.316   5.449
  216POPC   C4B 2965   2.579   6.243   5.840
  217POPC   NC3 2966   2.872   3.748   3.487
  217POPC   PO4 2967   2.860   4.128   4.071
  217POPC   GL1 2968   2.704   4.297   4.482
  217POPC   GL2 2969   2.529   4.629   4.510
  217POPC   C1A 2970   2.850   4.219   4.896
  217POPC   D2A 2971   2.959   4.250   5.333
  217POPC   C3A 2972   3.073   3.957   5.667
  217POPC   C4A 2973   3.037   4.070   6.116
  217POPC   C1B 2974   2.409   4.463   4.949
  217POPC   C2B 2975   2.481   4.112   5.262
  217POPC   C3B 2976   2.613   4.179   5.718
  217POPC   C4B 2977   2.560   4.621   5.883
  218POPC   NC3 2978   3.095   7.494   4.136
  218POPC   PO4 2979   2.497   7.460   4.155
  218POPC   GL1 2980   2.714   7.285   4.426
  218POPC   GL2 2981   2.689   6.980   4.241
  218POPC   C1A 2982   2.782   7.518   4.787
  218POPC   D2A 2983   2.745   7.842   5.090
  218POPC   C3A 2984   2.968   7.743   5.464
  218POPC   C4A 2985   2.956   7.618   5.891
  218POPC   C1B 2986   2.588   6.887   4.688
  218POPC   C2B 2987   2.683   7.109   5.086
  218POPC   C3B 2988   2.889   7.227   5.471
  218POPC   C4B 2989   2.716   7.145   5.863
  219POPC   NC3 2990   2.491   4.425   4.037
  219POPC   PO4 2991   1.870   4.090   4.189
  219POPC   GL1 2992   2.207   4.171   4.407
  219POPC   GL2 2993   2.067   4.428   4.586
  219POPC   C1A 2994   2.242   4.005   4.811
  219POPC   D2A 2995   2.006   3.913   5.186
  219POPC   C3A 2996   2.222   3.848   5.605
  219POPC   C4A 2997   2.234   3.910   6.075
  219POPC   C1B 2998   1.732   4.208   4.822
  219POPC   C2B 2999   1.550   4.221   5.239
  219POPC   C3B 3000   1.751   4.096   5.589
  219POPC   C4B 3001   2.132   4.329   5.725
  220POPC   NC3 3002   5.549   9.982   4.024
  220POPC   PO4 3003   6.207   0.095   3.865
  220POPC   GL1 3004   6.016   9.938   4.301
  220POPC   GL2 3005   5.764   9.686   4.367
  220POPC   C1A 3006   5.684   0.077   4.663
  220POPC   D2A 3007   5.525   0.021   5.095
  220POPC   C3A 3008   5.774   9.886   5.442
  220POPC   C4A 3009   5.841   9.723   5.842
  220POPC   C1B 3010   5.901   9.625   4.794
  220POPC   C2B 3011   6.039   9.524   5.192
  220POPC   C3B 3012   5.811   9.290   5.515
  220POPC   C4B 3013   5.481   9.362   5.781
  221POPC   NC3 3014   9.595   4.129   4.025
  221POPC   PO4 3015   9.998   4.535   3.967
  221POPC   GL1 3016   9.968   4.259   4.329
  221POPC   GL2 3017   9.642   4.237   4.511
  221POPC   C1A 3018   0.048   4.155   4.779
  221POPC   D2A 3019   9.744   4.022   5.067
  221POPC   C3A 3020   9.813   4.145   5.455
  221POPC   C4A 3021   9.806   4.538   5.640
  221POPC   C1B 3022   9.347   3.995   4.766
  221POPC   C2B 3023   9.239   4.050   5.214
  221POPC   C3B 3024   9.347   4.274   5.629
  221POPC   C4B 3025   9.626   4.183   6.005
  222POPC   NC3 3026   9.373   3.386   4.008
  222POPC   PO4 3027   9.959   3.312   3.794
  222POPC   GL1 3028   9.736   3.668   4.170
  222POPC   GL2 3029   9.905   3.781   4.477
  222POPC   C1A 3030   9.499   3.518   4.608
  222POPC   D2A 3031   9.458   3.595   5.049
  222POPC   C3A 3032   9.652   3.475   5.390
  222POPC   C4A 3033   9.539   3.782   5.685
  222POPC   C1B 3034   9.929   3.523   4.870
  222POPC   C2B 3035   0.080   3.227   5.142
  222POPC   C3B 3036   0.116   3.302   5.538
  222POPC   C4B 3037   9.890   3.476   5.855
  223POPC   NC3 3038   1.223   0.155   4.106
  223POPC   PO4 3039   0.721   0.648   4.179
  223POPC   GL1 3040   1.080   0.445   4.501
  223POPC   GL2 3041   1.454   0.469   4.438
  223POPC   C1A 3042   1.365   0.241   4.874
  223POPC   D2A 3043   1.158   0.223   5.241
  223POPC   C3A 3044   1.269   0.137   5.647
  223POPC   C4A 3045   0.911   0.251   5.904
  223POPC   C1B 3046   1.424   0.732   4.778
  223POPC   C2B 3047   1.175   0.738   5.110
  223POPC   C3B 3048   1.293   0.672   5.508
  223POPC   C4B 3049   1.306   0.576   5.913
  224POPC   NC3 3050   8.117   2.929   3.643
  224POPC   PO4 3051   8.312   3.452   4.029
  224POPC   GL1 3052   8.075   3.262   4.340
  224POPC   GL2 3053   8.072   3.587   4.465
  224POPC   C1A 3054   8.189   3.214   4.792
  224POPC   D2A 3055   8.085   3.533   5.090
  224POPC   C3A 3056   7.974   3.338   5.455
  224POPC   C4A 3057   7.894   3.260   5.879
  224POPC   C1B 3058   7.731   3.492   4.710
  224POPC   C2B 3059   7.684   3.842   4.989
  224POPC   C3B 3060   7.719   3.808   5.418
  224POPC   C4B 3061   8.017   3.754   5.754
  225POPC   NC3 3062   6.561   9.657   3.967
  225POPC   PO4 3063   6.072   9.330   4.233
  225POPC   GL1 3064   6.399   9.555   4.440
  225POPC   GL2 3065   6.556   9.921   4.387
  225POPC   C1A 3066   6.407   9.713   4.834
  225POPC   D2A 3067   6.612   9.625   5.185
  225POPC   C3A 3068   6.365   9.789   5.484
  225POPC   C4A 3069   6.244   9.441   5.701
  225POPC   C1B 3070   6.882   9.866   4.728
  225POPC   C2B 3071   7.090   9.805   5.118
  225POPC   C3B 3072   6.891   9.941   5.479
  225POPC   C4B 3073   6.731   9.662   5.799
  226POPC   NC3 3074   9.888   5.761   3.949
  226POPC   PO4 3075   9.231   5.428   3.791
  226POPC   GL1 3076   9.494   5.528   4.199
  226POPC   GL2 3077   9.458   5.840   4.284
  226POPC   C1A 3078   9.612   5.474   4.672
  226POPC   D2A 3079   9.636   5.662   5.116
  226POPC   C3A 3080   9.654   5.463   5.537
  226POPC   C4A 3081   9.891   5.518   5.927
  226POPC   C1B 3082   9.490   5.982   4.715
  226POPC   C2B 3083   9.862   6.095   4.949
  226POPC   C3B 3084   9.935   6.016   5.391
  226POPC   C4B 3085   9.644   5.942   5.712
  227POPC   NC3 3086   8.939   5.734   4.044
  227POPC   PO4 3087   9.219   6.350   3.943
  227POPC   GL1 3088   9.061   6.130   4.375
  227POPC   GL2 3089   8.828   5.861   4.498
  227POPC   C1A 3090   9.025   6.147   4.847
  227POPC   D2A 3091   9.123   5.794   5.127
  227POPC   C3A 3092   9.091   5.951   5.526
  227POPC   C4A 3093   9.179   6.054   5.926
  227POPC   C1B 3094   8.744   5.595   4.820
  227POPC   C2B 3095   8.716   5.411   5.197
  227POPC   C3B 3096   8.630   5.607   5.544
  227POPC   C4B 3097   8.752   5.806   5.878
  228POPC   NC3 3098   8.458   2.995   4.114
  228POPC   PO4 3099   8.042   2.512   3.820
  228POPC   GL1 3100   8.078   2.631   4.240
  228POPC   GL2 3101   7.820   2.509   4.387
  228POPC   C1A 3102   8.236   2.601   4.686
  228POPC   D2A 3103   8.076   2.737   5.103
  228POPC   C3A 3104   8.380   2.649   5.429
  228POPC   C4A 3105   8.424   2.476   5.855
  228POPC   C1B 3106   7.813   2.902   4.649
  228POPC   C2B 3107   7.693   3.116   5.063
  228POPC   C3B 3108   7.652   2.939   5.496
  228POPC   C4B 3109   7.988   2.756   5.741
  229POPC   NC3 3110   5.899   2.854   4.001
  229POPC   PO4 3111   5.336   3.100   4.164
  229POPC   GL1 3112   5.621   2.890   4.435
  229POPC   GL2 3113   5.612   2.547   4.345
  229POPC   C1A 3114   5.806   2.947   4.851
  229POPC   D2A 3115   6.125   2.900   5.153
  229POPC   C3A 3116   6.059   2.987   5.595
  229POPC   C4A 3117   5.783   2.955   5.991
  229POPC   C1B 3118   5.755   2.418   4.727
  229POPC   C2B 3119   5.971   2.425   5.076
  229POPC   C3B 3120   5.917   2.430   5.504
  229POPC   C4B 3121   5.611   2.535   5.796
  230POPC   NC3 3122   1.282   6.053   3.914
  230POPC   PO4 3123   0.955   5.607   3.813
  230POPC   GL1 3124   1.000   5.824   4.256
  230POPC   GL2 3125   1.373   5.826   4.341
  230POPC   C1A 3126   1.023   6.055   4.680
  230POPC   D2A 3127   0.861   5.956   5.085
  230POPC   C3A 3128   1.096   6.008   5.450
  230POPC   C4A 3129   0.982   6.124   5.835
  230POPC   C1B 3130   1.248   5.601   4.703
  230POPC   C2B 3131   1.136   5.508   5.104
  230POPC   C3B 3132   1.338   5.499   5.465
  230POPC   C4B 3133   1.250   5.666   5.826
  231POPC   NC3 3134   4.964   8.513   4.043
  231POPC   PO4 3135   5.445   7.926   4.069
  231POPC   GL1 3136   5.253   8.233   4.357
  231POPC   GL2 3137   4.887   8.224   4.430
  231POPC   C1A 3138   5.309   8.414   4.804
  231POPC   D2A 3139   5.079   8.414   5.203
  231POPC   C3A 3140   5.245   8.479   5.617
  231POPC   C4A 3141   5.151   8.221   5.959
  231POPC   C1B 3142   4.961   8.046   4.831
  231POPC   C2B 3143   4.872   7.852   5.234
  231POPC   C3B 3144   4.913   7.881   5.674
  231POPC   C4B 3145   5.029   7.731   6.102
  232POPC   NC3 3146   7.082   1.888   3.697
  232POPC   PO4 3147   7.552   2.149   4.110
  232POPC   GL1 3148   7.549   2.073   4.484
  232POPC   GL2 3149   7.677   1.744   4.415
  232POPC   C1A 3150   7.270   2.083   4.822
  232POPC   D2A 3151   7.364   2.143   5.230
  232POPC   C3A 3152   7.047   2.134   5.522
  232POPC   C4A 3153   7.046   2.146   5.982
  232POPC   C1B 3154   7.684   1.798   4.884
  232POPC   C2B 3155   7.800   1.608   5.249
  232POPC   C3B 3156   7.802   1.803   5.595
  232POPC   C4B 3157   7.480   1.994   5.726
  233POPC   NC3 3158   0.459   0.913   3.902
  233POPC   PO4 3159   0.658   1.610   3.913
  233POPC   GL1 3160   0.519   1.287   4.268
  233POPC   GL2 3161   0.184   1.165   4.286
  233POPC   C1A 3162   0.506   1.045   4.691
  233POPC   D2A 3163   0.764   1.041   5.095
  233POPC   C3A 3164   0.771   0.871   5.538
  233POPC   C4A 3165   0.677   1.134   5.910
  233POPC   C1B 3166   0.161   1.423   4.659
  233POPC   C2B 3167   0.438   1.433   5.020
  233POPC   C3B 3168   0.442   1.288   5.447
  233POPC   C4B 3169   0.266   1.437   5.835
  234POPC   NC3 3170   3.055   3.712   3.981
  234POPC   PO4 3171   2.463   3.928   3.647
  234POPC   GL1 3172   2.469   3.798   4.142
  234POPC   GL2 3173   2.599   3.449   4.205
  234POPC   C1A 3174   2.671   3.811   4.623
  234POPC   D2A 3175   2.908   3.747   5.073
  234POPC   C3A 3176   2.692   3.689   5.490
  234POPC   C4A 3177   2.683   3.713   5.956
  234POPC   C1B 3178   2.827   3.333   4.631
  234POPC   C2B 3179   3.069   3.243   5.023
  234POPC   C3B 3180   3.100   3.375   5.456
  234POPC   C4B 3181   2.832   3.261   5.789
  235POPC   NC3 3182   0.446   3.265   3.986
  235POPC   PO4 3183   0.508   2.566   3.849
  235POPC   GL1 3184   0.272   2.869   4.237
  235POPC   GL2 3185   9.976   2.682   4.406
  235POPC   C1A 3186   0.292   2.986   4.726
  235POPC   D2A 3187   0.455   2.848   5.131
  235POPC   C3A 3188   0.276   2.805   5.566
  235POPC   C4A 3189   0.147   3.030   5.953
  235POPC   C1B 3190   9.985   2.554   4.876
  235POPC   C2B 3191   0.300   2.333   5.151
  235POPC   C3B 3192   0.663   2.469   5.410
  235POPC   C4B 3193   0.808   2.777   5.688
  236POPC   NC3 3194   1.871   1.317   4.125
  236POPC   PO4 3195   1.669   0.642   4.034
  236POPC   GL1 3196   1.911   0.846   4.380
  236POPC   GL2 3197   2.206   0.741   4.492
  236POPC   C1A 3198   1.863   0.960   4.830
  236POPC   D2A 3199   1.621   1.004   5.184
  236POPC   C3A 3200   1.796   0.792   5.512
  236POPC   C4A 3201   1.672   0.914   5.888
  236POPC   C1B 3202   2.241   1.208   4.653
  236POPC   C2B 3203   2.147   1.443   5.034
  236POPC   C3B 3204   2.105   1.553   5.465
  236POPC   C4B 3205   2.072   1.184   5.731
  237POPC   NC3 3206   2.729   9.818   3.932
  237POPC   PO4 3207   3.106   9.219   4.140
  237POPC   GL1 3208   2.911   9.459   4.498
  237POPC   GL2 3209   2.617   9.643   4.407
  237POPC   C1A 3210   2.688   9.514   4.930
  237POPC   D2A 3211   2.374   9.348   5.249
  237POPC   C3A 3212   2.517   9.332   5.659
  237POPC   C4A 3213   2.871   9.352   5.798
  237POPC   C1B 3214   2.864   9.931   4.681
  237POPC   C2B 3215   2.902   9.960   5.122
  237POPC   C3B 3216   2.684   9.750   5.434
  237POPC   C4B 3217   2.639   9.805   5.862
  238POPC   NC3 3218   7.779   4.394   3.944
  238POPC   PO4 3219   8.424   4.446   4.014
  238POPC   GL1 3220   8.129   4.433   4.350
  238POPC   GL2 3221   8.255   4.094   4.444
  238POPC   C1A 3222   8.246   4.615   4.766
  238POPC   D2A 3223   8.578   4.445   5.032
  238POPC   C3A 3224   8.424   4.424   5.434
  238POPC   C4A 3225   8.052   4.329   5.692
  238POPC   C1B 3226   8.231   4.009   4.894
  238POPC   C2B 3227   8.203   3.986   5.333
  238POPC   C3B 3228   8.430   4.021   5.766
  238POPC   C4B 3229   8.268   3.957   6.177
  239POPC   NC3 3230   9.573   6.633   3.964
  239POPC   PO4 3231   9.911   6.122   4.237
  239POPC   GL1 3232   9.648   6.455   4.441
  239POPC   GL2 3233   9.801   6.814   4.366
  239POPC   C1A 3234   9.520   6.483   4.876
  239POPC   D2A 3235   9.441   6.196   5.220
  239POPC   C3A 3236   9.456   6.396   5.609
  239POPC   C4A 3237   9.482   6.393   6.087
  239POPC   C1B 3238   9.697   6.967   4.749
  239POPC   C2B 3239   9.716   6.892   5.171
  239POPC   C3B 3240   9.852   7.029   5.553
  239POPC   C4B 3241   9.691   6.803   5.860
  240POPC   NC3 3242   5.651   0.974   4.098
  240POPC   PO4 3243   5.959   1.456   3.700
  240POPC   GL1 3244   5.866   1.475   4.226
  240POPC   GL2 3245   5.564   1.380   4.385
  240POPC   C1A 3246   5.902   1.251   4.706
  240POPC   D2A 3247   6.107   1.150   5.090
  240POPC   C3A 3248   5.834   1.113   5.451
  240POPC   C4A 3249   5.909   0.953   5.841
  240POPC   C1B 3250   5.421   1.495   4.771
  240POPC   C2B 3251   5.672   1.483   5.124
  240POPC   C3B 3252   5.629   1.584   5.541
  240POPC   C4B 3253   5.533   1.316   5.861
  241POPC   NC3 3254   2.126   0.609   3.970
  241POPC   PO4 3255   1.706   0.171   3.625
  241POPC   GL1 3256   1.723   0.135   4.129
  241POPC   GL2 3257   1.956   0.318   4.329
  241POPC   C1A 3258   1.720   9.996   4.599
  241POPC   D2A 3259   1.873   0.014   5.013
  241POPC   C3A 3260   1.686   0.307   5.313
  241POPC   C4A 3261   1.741   0.322   5.770
  241POPC   C1B 3262   1.866   0.458   4.760
  241POPC   C2B 3263   2.110   0.603   5.118
  241POPC   C3B 3264   2.290   0.594   5.532
  241POPC   C4B 3265   2.090   0.652   5.940
  242POPC   NC3 3266   6.423   3.235   3.449
  242POPC   PO4 3267   6.266   3.445   4.036
  242POPC   GL1 3268   6.462   3.275   4.429
  242POPC   GL2 3269   6.834   3.190   4.360
  242POPC   C1A 3270   6.321   3.284   4.876
  242POPC   D2A 3271   6.053   3.404   5.259
  242POPC   C3A 3272   6.300   3.458   5.655
  242POPC   C4A 3273   6.207   3.615   6.072
  242POPC   C1B 3274   6.897   3.382   4.802
  242POPC   C2B 3275   6.750   3.491   5.238
  242POPC   C3B 3276   6.840   3.385   5.673
  242POPC   C4B 3277   6.701   3.270   6.095
  243POPC   NC3 3278   3.509   0.436   3.831
  243POPC   PO4 3279   3.191   1.018   3.982
  243POPC   GL1 3280   3.414   0.716   4.274
  243POPC   GL2 3281   3.625   0.410   4.302
  243POPC   C1A 3282   3.419   0.550   4.729
  243POPC   D2A 3283   3.359   0.148   4.970
  243POPC   C3A 3284   3.245   0.229   5.420
  243POPC   C4A 3285   3.395   0.446   5.790
  243POPC   C1B 3286   3.828   0.254   4.657
  243POPC   C2B 3287   3.786   0.424   5.055
  243POPC   C3B 3288   3.781   0.330   5.440
  243POPC   C4B 3289   3.913   0.345   5.836
  244POPC   NC3 3290   8.569   2.070   3.885
  244POPC   PO4 3291   9.160   2.224   3.737
  244POPC   GL1 3292   9.022   2.125   4.204
  244POPC   GL2 3293   8.821   1.827   4.275
  244POPC   C1A 3294   8.834   2.197   4.673
  244POPC   D2A 3295   8.518   2.264   5.061
  244POPC   C3A 3296   8.678   2.148   5.522
  244POPC   C4A 3297   8.790   2.137   6.019
  244POPC   C1B 3298   9.184   1.822   4.604
  244POPC   C2B 3299   9.202   2.002   5.045
  244POPC   C3B 3300   9.079   1.830   5.472
  244POPC   C4B 3301   8.715   1.704   5.775
  245POPC   NC3 3302   0.351   9.848   4.043
  245POPC   PO4 3303   0.751   9.358   3.870
  245POPC   GL1 3304   0.581   9.427   4.288
  245POPC   GL2 3305   0.320   9.259   4.468
  245POPC   C1A 3306   0.638   9.547   4.744
  245POPC   D2A 3307   0.521   9.566   5.168
  245POPC   C3A 3308   0.805   9.388   5.479
  245POPC   C4A 3309   0.501   9.329   5.802
  245POPC   C1B 3310   0.132   9.553   4.811
  245POPC   C2B 3311   0.101   9.867   5.142
  245POPC   C3B 3312   0.298   9.826   5.546
  245POPC   C4B 3313   0.130   9.660   5.890
  246POPC   NC3 3314   7.334   8.720   3.977
  246POPC   PO4 3315   6.787   9.294   4.133
  246POPC   GL1 3316   7.156   9.100   4.342
  246POPC   GL2 3317   7.478   9.070   4.384
  246POPC   C1A 3318   7.125   8.876   4.738
  246POPC   D2A 3319   6.908   8.988   5.122
  246POPC   C3A 3320   7.177   8.954   5.492
  246POPC   C4A 3321   7.004   9.066   5.898
  246POPC   C1B 3322   7.640   8.909   4.786
  246POPC   C2B 3323   7.646   8.854   5.237
  246POPC   C3B 3324   7.526   8.568   5.580
  246POPC   C4B 3325   7.225   8.582   5.852
  247POPC   NC3 3326   5.723   7.568   3.979
  247POPC   PO4 3327   6.152   7.053   4.010
  247POPC   GL1 3328   6.078   7.415   4.337
  247POPC   GL2 3329   5.753   7.336   4.438
  247POPC   C1A 3330   5.921   7.602   4.810
  247POPC   D2A 3331   5.870   7.828   5.247
  247POPC   C3A 3332   5.807   7.594   5.647
  247POPC   C4A 3333   5.857   7.496   6.091
  247POPC   C1B 3334   6.048   7.123   4.763
  247POPC   C2B 3335   6.153   7.300   5.208
  247POPC   C3B 3336   6.118   7.170   5.660
  247POPC   C4B 3337   5.797   7.012   5.937
  248POPC   NC3 3338   2.719   0.930   3.848
  248POPC   PO4 3339   2.588   0.262   3.928
  248POPC   GL1 3340   2.897   0.573   4.185
  248POPC   GL2 3341   3.094   0.325   4.392
  248POPC   C1A 3342   3.022   0.827   4.600
  248POPC   D2A 3343   3.036   0.639   5.045
  248POPC   C3A 3344   2.829   0.733   5.439
  248POPC   C4A 3345   2.895   0.634   5.876
  248POPC   C1B 3346   2.705   0.412   4.655
  248POPC   C2B 3347   2.588   0.387   5.110
  248POPC   C3B 3348   2.712   0.248   5.541
  248POPC   C4B 3349   2.505   0.303   5.934
  249POPC   NC3 3350   8.804   6.710   3.949
  249POPC   PO4 3351   8.561   6.095   4.116
  249POPC   GL1 3352   8.699   6.483   4.392
  249POPC   GL2 3353   9.088   6.631   4.362
  249POPC   C1A 3354   8.771   6.625   4.814
  249POPC   D2A 3355   9.073   6.573   5.147
  249POPC   C3A 3356   8.857   6.427   5.472
  249POPC   C4A 3357   8.753   6.309   5.867
  249POPC   C1B 3358   9.210   6.855   4.712
  249POPC   C2B 3359   9.232   7.054   5.132
  249POPC   C3B 3360   9.312   6.895   5.534
  249POPC   C4B 3361   9.114   6.658   5.858
  250POPC   NC3 3362   4.818   9.539   3.949
  250POPC   PO4 3363   5.493   9.563   3.815
  250POPC   GL1 3364   5.295   9.538   4.257
  250POPC   GL2 3365   4.998   9.644   4.401
  250POPC   C1A 3366   5.381   9.646   4.721
  250POPC   D2A 3367   5.514   9.494   5.132
  250POPC   C3A 3368   5.269   9.694   5.447
  250POPC   C4A 3369   5.276   9.802   5.883
  250POPC   C1B 3370   4.771   9.429   4.705
  250POPC   C2B 3371   4.853   9.650   5.070
  250POPC   C3B 3372   4.754   9.753   5.464
  250POPC   C4B 3373   4.859   9.523   5.815
  251POPC   NC3 3374   7.156   1.917   4.201
  251POPC   PO4 3375   6.579   1.894   3.854
  251POPC   GL1 3376   6.620   1.830   4.267
  251POPC   GL2 3377   6.299   1.728   4.389
  251POPC   C1A 3378   6.748   1.752   4.695
  251POPC   D2A 3379   6.810   2.030   5.045
  251POPC   C3A 3380   6.731   1.770   5.381
  251POPC   C4A 3381   6.820   1.703   5.808
  251POPC   C1B 3382   6.328   2.065   4.724
  251POPC   C2B 3383   6.322   2.071   5.203
  251POPC   C3B 3384   6.456   2.099   5.649
  251POPC   C4B 3385   6.336   1.813   5.990
  252POPC   NC3 3386   1.557   2.008   3.899
  252POPC   PO4 3387   1.401   1.426   4.108
  252POPC   GL1 3388   1.462   1.769   4.392
  252POPC   GL2 3389   1.250   2.045   4.329
  252POPC   C1A 3390   1.337   1.836   4.852
  252POPC   D2A 3391   1.051   1.684   5.209
  252POPC   C3A 3392   1.186   1.667   5.650
  252POPC   C4A 3393   1.499   1.818   5.950
  252POPC   C1B 3394   1.064   2.257   4.661
  252POPC   C2B 3395   0.976   2.187   5.081
  252POPC   C3B 3396   1.273   2.135   5.398
  252POPC   C4B 3397   1.163   2.347   5.749
  253POPC   NC3 3398   0.308   3.731   4.095
  253POPC   PO4 3399   0.906   3.291   4.116
  253POPC   GL1 3400   0.703   3.161   4.429
  253POPC   GL2 3401   0.525   3.452   4.494
  253POPC   C1A 3402   0.747   3.197   4.847
  253POPC   D2A 3403   0.539   3.440   5.132
  253POPC   C3A 3404   0.608   3.208   5.467
  253POPC   C4A 3405   0.630   3.226   5.871
  253POPC   C1B 3406   0.370   3.771   4.766
  253POPC   C2B 3407   0.193   3.829   5.168
  253POPC   C3B 3408   0.349   3.755   5.527
  253POPC   C4B 3409   0.357   3.635   5.904
  254POPC   NC3 3410   3.890   9.736   3.634
  254POPC   PO4 3411   4.362   9.425   3.859
  254POPC   GL1 3412   4.402   9.368   4.290
  254POPC   GL2 3413   4.491   9.706   4.354
  254POPC   C1A 3414   4.236   9.456   4.727
  254POPC   D2A 3415   4.339   9.590   5.164
  254POPC   C3A 3416   4.109   9.317   5.473
  254POPC   C4A 3417   3.821   9.520   5.771
  254POPC   C1B 3418   4.258   9.965   4.668
  254POPC   C2B 3419   4.053   0.003   5.082
  254POPC   C3B 3420   4.075   9.888   5.518
  254POPC   C4B 3421   4.366   9.629   5.776
  255POPC   NC3 3422   2.644   9.182   4.165
  255POPC   PO4 3423   2.701   8.544   3.914
  255POPC   GL1 3424   2.576   8.667   4.314
  255POPC   GL2 3425   2.906   8.802   4.429
  255POPC   C1A 3426   2.522   8.663   4.763
  255POPC   D2A 3427   2.442   8.495   5.175
  255POPC   C3A 3428   2.440   8.843   5.456
  255POPC   C4A 3429   2.762   8.867   5.731
  255POPC   C1B 3430   2.859   9.063   4.797
  255POPC   C2B 3431   2.829   9.097   5.226
  255POPC   C3B 3432   2.995   8.717   5.312
  255POPC   C4B 3433   3.183   8.551   5.709
  256POPC   NC3 3434   0.332   9.059   3.942
  256POPC   PO4 3435   0.931   8.677   4.094
  256POPC   GL1 3436   0.663   8.894   4.305
  256POPC   GL2 3437   0.413   8.661   4.277
  256POPC   C1A 3438   0.571   8.895   4.726
  256POPC   D2A 3439   0.732   9.119   5.035
  256POPC   C3A 3440   0.575   8.945   5.410
  256POPC   C4A 3441   0.758   8.887   5.813
  256POPC   C1B 3442   0.144   8.607   4.657
  256POPC   C2B 3443   0.251   8.620   5.097
  256POPC   C3B 3444   0.043   8.778   5.452
  256POPC   C4B 3445   0.232   8.910   5.817
  257POPC   NC3 3446   6.370   1.283   3.833
  257POPC   PO4 3447   6.806   0.757   3.913
  257POPC   GL1 3448   6.884   1.067   4.248
  257POPC   GL2 3449   6.599   1.306   4.297
  257POPC   C1A 3450   6.911   1.179   4.702
  257POPC   D2A 3451   7.001   1.033   5.139
  257POPC   C3A 3452   6.886   1.265   5.507
  257POPC   C4A 3453   6.572   1.058   5.798
  257POPC   C1B 3454   6.418   1.330   4.692
  257POPC   C2B 3455   6.585   1.366   5.092
  257POPC   C3B 3456   6.379   1.425   5.492
  257POPC   C4B 3457   6.083   1.418   5.795
  258POPC   NC3 3458   5.208   1.467   3.632
  258POPC   PO4 3459   4.799   0.955   3.919
  258POPC   GL1 3460   5.158   0.999   4.250
  258POPC   GL2 3461   4.987   1.179   4.440
  258POPC   C1A 3462   5.393   0.988   4.681
  258POPC   D2A 3463   5.359   1.087   5.105
  258POPC   C3A 3464   5.015   0.988   5.332
  258POPC   C4A 3465   5.180   0.953   5.731
  258POPC   C1B 3466   4.940   1.257   4.836
  258POPC   C2B 3467   4.812   1.452   5.194
  258POPC   C3B 3468   5.120   1.491   5.511
  258POPC   C4B 3469   5.029   1.413   5.939
  259POPC   NC3 3470   6.453   7.410   3.962
  259POPC   PO4 3471   7.095   7.386   3.993
  259POPC   GL1 3472   7.040   7.401   4.421
  259POPC   GL2 3473   6.731   7.498   4.379
  259POPC   C1A 3474   6.896   7.299   4.842
  259POPC   D2A 3475   6.776   7.521   5.210
  259POPC   C3A 3476   6.771   7.336   5.612
  259POPC   C4A 3477   6.984   6.937   5.672
  259POPC   C1B 3478   6.422   7.481   4.708
  259POPC   C2B 3479   6.347   7.743   5.055
  259POPC   C3B 3480   6.315   7.748   5.523
  259POPC   C4B 3481   6.340   7.527   5.932
  260POPC   NC3 3482   6.096   1.827   3.920
  260POPC   PO4 3483   6.058   2.413   4.074
  260POPC   GL1 3484   5.906   2.060   4.360
  260POPC   GL2 3485   5.596   1.893   4.356
  260POPC   C1A 3486   5.906   1.781   4.753
  260POPC   D2A 3487   5.807   1.958   5.183
  260POPC   C3A 3488   5.990   1.927   5.594
  260POPC   C4A 3489   6.027   2.208   5.958
  260POPC   C1B 3490   5.444   2.005   4.787
  260POPC   C2B 3491   5.410   2.268   5.150
  260POPC   C3B 3492   5.462   2.108   5.569
  260POPC   C4B 3493   5.304   1.829   5.871
  261POPC   NC3 3494   0.683   8.262   4.061
  261POPC   PO4 3495   0.173   7.829   3.913
  261POPC   GL1 3496   0.411   7.864   4.271
  261POPC   GL2 3497   0.264   8.184   4.375
  261POPC   C1A 3498   0.456   7.853   4.709
  261POPC   D2A 3499   0.215   8.104   5.029
  261POPC   C3A 3500   0.295   7.982   5.480
  261POPC   C4A 3501   0.514   8.049   5.885
  261POPC   C1B 3502   0.572   8.365   4.715
  261POPC   C2B 3503   0.738   8.492   5.134
  261POPC   C3B 3504   0.529   8.463   5.565
  261POPC   C4B 3505   0.130   8.384   5.798
  262POPC   NC3 3506   9.918   8.223   3.918
  262POPC   PO4 3507   9.396   7.790   3.808
  262POPC   GL1 3508   9.553   7.982   4.193
  262POPC   GL2 3509   9.861   7.855   4.308
  262POPC   C1A 3510   9.454   7.846   4.649
  262POPC   D2A 3511   9.673   7.910   5.056
  262POPC   C3A 3512   9.457   7.903   5.479
  262POPC   C4A 3513   9.704   7.870   5.854
  262POPC   C1B 3514   9.786   8.232   4.596
  262POPC   C2B 3515   9.806   8.411   5.006
  262POPC   C3B 3516   9.837   8.273   5.401
  262POPC   C4B 3517   9.619   8.354   5.775
  263POPC   NC3 3518   9.648   0.594   4.109
  263POPC   PO4 3519   0.061   0.125   3.798
  263POPC   GL1 3520   9.879   0.169   4.262
  263POPC   GL2 3521   9.555   0.230   4.478
  263POPC   C1A 3522   9.980   0.200   4.717
  263POPC   D2A 3523   9.786   0.314   5.115
  263POPC   C3A 3524   9.985   0.252   5.526
  263POPC   C4A 3525   0.050   0.400   5.974
  263POPC   C1B 3526   9.558   0.625   4.740
  263POPC   C2B 3527   9.363   0.705   5.113
  263POPC   C3B 3528   9.650   0.719   5.434
  263POPC   C4B 3529   9.590   0.479   5.789
  264POPC   NC3 3530   4.309   8.970   3.951
  264POPC   PO4 3531   4.563   8.355   3.876
  264POPC   GL1 3532   4.462   8.599   4.305
  264POPC   GL2 3533   4.114   8.734   4.381
  264POPC   C1A 3534   4.482   8.990   4.631
  264POPC   D2A 3535   4.340   9.092   5.059
  264POPC   C3A 3536   4.644   9.238   5.380
  264POPC   C4A 3537   4.603   9.067   5.772
  264POPC   C1B 3538   4.225   8.624   4.848
  264POPC   C2B 3539   4.263   8.624   5.295
  264POPC   C3B 3540   4.181   8.798   5.684
  264POPC   C4B 3541   3.957   8.758   6.078
  265POPC   NC3 3542   8.377   5.824   3.800
  265POPC   PO4 3543   7.765   5.826   3.953
  265POPC   GL1 3544   7.968   5.670   4.331
  265POPC   GL2 3545   8.304   5.784   4.404
  265POPC   C1A 3546   8.052   5.626   4.814
  265POPC   D2A 3547   8.202   5.779   5.231
  265POPC   C3A 3548   7.894   5.739   5.613
  265POPC   C4A 3549   7.468   5.818   5.883
  265POPC   C1B 3550   8.460   6.044   4.793
  265POPC   C2B 3551   8.660   6.011   5.212
  265POPC   C3B 3552   8.399   6.083   5.594
  265POPC   C4B 3553   8.262   5.849   5.953
  266POPC   NC3 3554   8.793   0.445   3.851
  266POPC   PO4 3555   9.360   0.249   4.025
  266POPC   GL1 3556   9.080   0.475   4.276
  266POPC   GL2 3557   8.735   0.311   4.351
  266POPC   C1A 3558   9.112   0.426   4.682
  266POPC   D2A 3559   9.322   0.172   4.944
  266POPC   C3A 3560   9.344   0.252   5.392
  266POPC   C4A 3561   9.101   0.485   5.666
  266POPC   C1B 3562   8.633   0.558   4.747
  266POPC   C2B 3563   8.866   0.462   5.115
  266POPC   C3B 3564   8.686   0.321   5.433
  266POPC   C4B 3565   8.535   0.598   5.662
  267POPC   NC3 3566   6.527   2.369   3.939
  267POPC   PO4 3567   6.230   2.873   3.676
  267POPC   GL1 3568   6.370   2.837   4.170
  267POPC   GL2 3569   6.669   2.683   4.344
  267POPC   C1A 3570   6.222   2.744   4.626
  267POPC   D2A 3571   6.454   2.511   4.947
  267POPC   C3A 3572   6.398   2.550   5.388
  267POPC   C4A 3573   6.296   2.609   5.828
  267POPC   C1B 3574   6.684   2.920   4.754
  267POPC   C2B 3575   6.632   2.998   5.193
  267POPC   C3B 3576   6.701   2.898   5.616
  267POPC   C4B 3577   6.772   2.484   5.728
  268POPC   NC3 3578   1.087   9.175   4.117
  268POPC   PO4 3579   1.592   9.433   3.724
  268POPC   GL1 3580   1.558   9.174   4.255
  268POPC   GL2 3581   1.370   8.836   4.375
  268POPC   C1A 3582   1.369   9.190   4.711
  268POPC   D2A 3583   1.223   9.315   5.093
  268POPC   C3A 3584   1.463   9.207   5.408
  268POPC   C4A 3585   1.219   9.107   5.732
  268POPC   C1B 3586   1.099   8.746   4.766
  268POPC   C2B 3587   1.098   8.835   5.221
  268POPC   C3B 3588   1.045   8.579   5.550
  268POPC   C4B 3589   1.263   8.636   5.906
  269POPC   NC3 3590   1.773   2.689   4.022
  269POPC   PO4 3591   2.407   2.489   3.938
  269POPC   GL1 3592   2.197   2.491   4.340
  269POPC   GL2 3593   2.101   2.818   4.371
  269POPC   C1A 3594   2.240   2.576   4.823
  269POPC   D2A 3595   2.357   2.639   5.281
  269POPC   C3A 3596   2.112   2.537   5.671
  269POPC   C4A 3597   2.274   2.406   6.097
  269POPC   C1B 3598   2.000   3.032   4.727
  269POPC   C2B 3599   1.940   2.891   5.141
  269POPC   C3B 3600   1.984   3.012   5.541
  269POPC   C4B 3601   1.782   3.186   5.866
  270POPC   NC3 3602   0.544   6.592   3.929
  270POPC   PO4 3603   0.160   6.075   3.710
  270POPC   GL1 3604   0.396   6.174   4.159
  270POPC   GL2 3605   0.234   6.504   4.327
  270POPC   C1A 3606   0.532   6.197   4.606
  270POPC   D2A 3607   0.537   6.502   4.966
  270POPC   C3A 3608   0.694   6.390   5.377
  270POPC   C4A 3609   0.547   6.373   5.812
  270POPC   C1B 3610   0.046   6.547   4.759
  270POPC   C2B 3611   0.054   6.495   5.217
  270POPC   C3B 3612   0.249   6.700   5.562
  270POPC   C4B 3613   0.179   6.797   6.000
  271POPC   NC3 3614   9.806   7.448   3.912
  271POPC   PO4 3615   9.268   7.003   3.988
  271POPC   GL1 3616   9.390   7.161   4.342
  271POPC   GL2 3617   9.428   7.493   4.259
  271POPC   C1A 3618   9.300   7.358   4.738
  271POPC   D2A 3619   9.260   7.593   5.109
  271POPC   C3A 3620   9.252   7.406   5.514
  271POPC   C4A 3621   9.512   7.278   5.863
  271POPC   C1B 3622   9.769   7.442   4.576
  271POPC   C2B 3623   9.755   7.398   5.034
  271POPC   C3B 3624   9.803   7.533   5.465
  271POPC   C4B 3625   9.996   7.433   5.884
  272POPC   NC3 3626   7.046   0.361   3.995
  272POPC   PO4 3627   7.571   0.641   4.219
  272POPC   GL1 3628   7.191   0.661   4.393
  272POPC   GL2 3629   7.112   0.270   4.486
  272POPC   C1A 3630   6.998   0.661   4.780
  272POPC   D2A 3631   7.033   0.306   5.032
  272POPC   C3A 3632   7.167   0.400   5.414
  272POPC   C4A 3633   7.051   0.326   5.831
  272POPC   C1B 3634   7.470   0.357   4.772
  272POPC   C2B 3635   7.822   0.205   5.003
  272POPC   C3B 3636   7.648   0.166   5.402
  272POPC   C4B 3637   7.537   0.488   5.739
  273POPC   NC3 3638   9.635   9.908   3.888
  273POPC   PO4 3639   0.032   9.407   4.080
  273POPC   GL1 3640   9.906   9.682   4.398
  273POPC   GL2 3641   9.591   9.722   4.352
  273POPC   C1A 3642   9.684   9.818   4.832
  273POPC   D2A 3643   9.473   9.771   5.223
  273POPC   C3A 3644   9.759   9.737   5.539
  273POPC   C4A 3645   9.708   9.993   5.889
  273POPC   C1B 3646   9.509   9.378   4.672
  273POPC   C2B 3647   9.680   9.313   5.103
  273POPC   C3B 3648   9.436   9.322   5.489
  273POPC   C4B 3649   9.315   9.648   5.821
  274POPC   NC3 3650   0.560   2.091   3.900
  274POPC   PO4 3651   0.473   2.455   4.414
  274POPC   GL1 3652   0.658   2.036   4.411
  274POPC   GL2 3653   0.387   1.795   4.327
  274POPC   C1A 3654   0.733   1.809   4.796
  274POPC   D2A 3655   0.557   1.880   5.227
  274POPC   C3A 3656   0.800   2.022   5.579
  274POPC   C4A 3657   0.682   2.335   5.950
  274POPC   C1B 3658   0.195   1.932   4.731
  274POPC   C2B 3659   0.026   1.717   5.075
  274POPC   C3B 3660   0.115   1.776   5.475
  274POPC   C4B 3661   0.261   2.167   5.663
  275POPC   NC3 3662   9.548   1.101   3.814
  275POPC   PO4 3663   8.963   0.875   3.843
  275POPC   GL1 3664   9.292   0.945   4.229
  275POPC   GL2 3665   9.666   1.062   4.308
  275POPC   C1A 3666   9.338   1.203   4.651
  275POPC   D2A 3667   9.595   1.165   5.011
  275POPC   C3A 3668   9.369   1.184   5.389
  275POPC   C4A 3669   9.397   0.979   5.786
  275POPC   C1B 3670   9.945   0.949   4.670
  275POPC   C2B 3671   0.101   1.046   5.092
  275POPC   C3B 3672   9.910   1.278   5.447
  275POPC   C4B 3673   9.805   1.255   5.899
  276POPC   NC3 3674   3.643   1.207   3.987
  276POPC   PO4 3675   3.115   1.725   4.072
  276POPC   GL1 3676   3.418   1.533   4.381
  276POPC   GL2 3677   3.341   1.205   4.417
  276POPC   C1A 3678   3.581   1.452   4.834
  276POPC   D2A 3679   3.415   1.562   5.271
  276POPC   C3A 3680   3.511   1.363   5.680
  276POPC   C4A 3681   3.270   1.369   6.117
  276POPC   C1B 3682   3.681   0.988   4.604
  276POPC   C2B 3683   3.691   0.911   5.011
  276POPC   C3B 3684   3.463   0.758   5.366
  276POPC   C4B 3685   3.759   0.817   5.684
  277POPC   NC3 3686   2.405   2.957   3.901
  277POPC   PO4 3687   3.049   3.225   3.948
  277POPC   GL1 3688   2.789   2.961   4.228
  277POPC   GL2 3689   2.850   2.599   4.233
  277POPC   C1A 3690   2.530   2.933   4.591
  277POPC   D2A 3691   2.743   2.805   4.955
  277POPC   C3A 3692   2.734   2.996   5.354
  277POPC   C4A 3693   2.460   2.937   5.700
  277POPC   C1B 3694   2.655   2.414   4.575
  277POPC   C2B 3695   2.650   2.293   4.996
  277POPC   C3B 3696   2.847   2.471   5.345
  277POPC   C4B 3697   2.631   2.461   5.719
  278POPC   NC3 3698   0.510   0.405   3.842
  278POPC   PO4 3699   9.961   0.890   3.910
  278POPC   GL1 3700   0.169   0.632   4.279
  278POPC   GL2 3701   0.367   0.292   4.314
  278POPC   C1A 3702   0.300   0.582   4.743
  278POPC   D2A 3703   0.441   0.647   5.177
  278POPC   C3A 3704   0.249   0.757   5.587
  278POPC   C4A 3705   0.507   0.611   5.951
  278POPC   C1B 3706   0.450   0.030   4.687
  278POPC   C2B 3707   0.558   0.122   5.124
  278POPC   C3B 3708   0.506   0.286   5.565
  278POPC   C4B 3709   0.439   0.076   6.001
  279POPC   NC3 3710   4.112   2.731   4.025
  279POPC   PO4 3711   4.584   2.305   3.973
  279POPC   GL1 3712   4.566   2.664   4.268
  279POPC   GL2 3713   4.380   2.952   4.372
  279POPC   C1A 3714   4.611   2.651   4.738
  279POPC   D2A 3715   4.347   2.616   5.110
  279POPC   C3A 3716   4.461   2.405   5.474
  279POPC   C4A 3717   4.614   2.420   5.881
  279POPC   C1B 3718   4.142   2.903   4.740
  279POPC   C2B 3719   3.922   2.914   5.143
  279POPC   C3B 3720   4.069   2.760   5.539
  279POPC   C4B 3721   4.105   2.579   5.956
  280POPC   NC3 3722   4.281   1.967   3.866
  280POPC   PO4 3723   4.866   1.754   3.753
  280POPC   GL1 3724   4.650   1.875   4.230
  280POPC   GL2 3725   4.642   2.201   4.453
  280POPC   C1A 3726   4.380   1.832   4.631
  280POPC   D2A 3727   4.531   2.129   4.964
  280POPC   C3A 3728   4.478   1.928   5.315
  280POPC   C4A 3729   4.328   1.971   5.747
  280POPC   C1B 3730   4.202   2.340   4.635
  280POPC   C2B 3731   4.017   2.236   5.069
  280POPC   C3B 3732   3.962   2.250   5.529
  280POPC   C4B 3733   3.860   2.134   5.975
  281POPC   NC3 3734   3.573   9.360   4.169
  281POPC   PO4 3735   3.534   9.964   3.801
  281POPC   GL1 3736   3.615   9.888   4.266
  281POPC   GL2 3737   3.321   9.771   4.452
  281POPC   C1A 3738   3.785   9.721   4.687
  281POPC   D2A 3739   3.806   9.526   5.092
  281POPC   C3A 3740   3.577   9.807   5.348
  281POPC   C4A 3741   3.588   9.972   5.750
  281POPC   C1B 3742   3.249   9.609   4.888
  281POPC   C2B 3743   3.132   9.517   5.315
  281POPC   C3B 3744   3.141   9.759   5.691
  281POPC   C4B 3745   3.065   9.680   6.147
  282POPC   NC3 3746   9.004   5.077   3.581
  282POPC   PO4 3747   8.889   5.292   4.186
  282POPC   GL1 3748   9.117   5.359   4.511
  282POPC   GL2 3749   9.103   4.986   4.560
  282POPC   C1A 3750   9.175   5.315   4.934
  282POPC   D2A 3751   9.086   5.058   5.267
  282POPC   C3A 3752   9.115   5.376   5.569
  282POPC   C4A 3753   8.963   5.362   5.982
  282POPC   C1B 3754   8.752   4.966   4.853
  282POPC   C2B 3755   8.580   4.902   5.282
  282POPC   C3B 3756   8.692   5.089   5.644
  282POPC   C4B 3757   8.657   4.959   6.104
  283POPC   NC3 3758   3.564   6.615   4.048
  283POPC   PO4 3759   3.065   6.193   4.020
  283POPC   GL1 3760   3.309   6.289   4.455
  283POPC   GL2 3761   3.591   6.534   4.536
  283POPC   C1A 3762   3.244   6.384   4.915
  283POPC   D2A 3763   3.111   6.323   5.360
  283POPC   C3A 3764   3.463   6.306   5.662
  283POPC   C4A 3765   3.546   6.451   6.121
  283POPC   C1B 3766   3.619   6.753   4.925
  283POPC   C2B 3767   3.415   6.733   5.330
  283POPC   C3B 3768   3.641   6.762   5.733
  283POPC   C4B 3769   4.004   6.695   5.983
  284POPC   NC3 3770   1.140   9.591   3.723
  284POPC   PO4 3771   0.782   0.062   3.991
  284POPC   GL1 3772   0.873   9.855   4.367
  284POPC   GL2 3773   1.060   9.537   4.493
  284POPC   C1A 3774   0.946   9.979   4.774
  284POPC   D2A 3775   0.982   9.754   5.128
  284POPC   C3A 3776   0.832   9.903   5.489
  284POPC   C4A 3777   0.785   9.743   5.847
  284POPC   C1B 3778   1.381   9.701   4.801
  284POPC   C2B 3779   1.477   9.780   5.242
  284POPC   C3B 3780   1.263   9.629   5.607
  284POPC   C4B 3781   1.267   9.667   6.050
  285POPC   NC3 3782   4.354   0.975   3.762
  285POPC   PO4 3783   3.816   0.771   3.911
  285POPC   GL1 3784   4.101   0.593   4.283
  285POPC   GL2 3785   4.482   0.655   4.242
  285POPC   C1A 3786   4.112   0.708   4.747
  285POPC   D2A 3787   4.282   0.524   5.143
  285POPC   C3A 3788   4.251   0.646   5.601
  285POPC   C4A 3789   4.245   0.740   6.083
  285POPC   C1B 3790   4.542   0.420   4.667
  285POPC   C2B 3791   4.586   0.107   5.036
  285POPC   C3B 3792   4.500   0.194   5.469
  285POPC   C4B 3793   4.361   0.136   5.878
  286POPC   NC3 3794   2.284   8.304   3.911
  286POPC   PO4 3795   1.718   8.692   4.024
  286POPC   GL1 3796   1.935   8.473   4.337
  286POPC   GL2 3797   2.034   8.139   4.362
  286POPC   C1A 3798   2.045   8.453   4.771
  286POPC   D2A 3799   1.837   8.399   5.153
  286POPC   C3A 3800   2.038   8.529   5.520
  286POPC   C4A 3801   2.119   8.623   5.958
  286POPC   C1B 3802   1.822   7.990   4.779
  286POPC   C2B 3803   1.678   7.914   5.197
  286POPC   C3B 3804   1.720   7.836   5.603
  286POPC   C4B 3805   2.057   8.046   5.759
  287W        W 3806   8.834   1.860   0.258
  288W        W 3807   4.607   0.966  10.787
  289W        W 3808   8.968   1.363   2.331
  290W        W 3809   0.005   7.986   1.695
  291W        W 3810   8.843   3.461   9.113
  292W        W 3811   7.134   7.408   9.524
  293W        W 3812   0.676   0.244   0.950
  294W        W 3813   3.507   7.658  11.168
  295W        W 3814   1.670   8.395   1.922
  296W        W 3815   8.535   1.719   3.347
  297W        W 3816   6.976   1.985  11.730
  298W        W 3817   2.180   0.753   8.890
  299W        W 3818   7.859   3.938   3.664
  300W        W 3819   4.599   3.683   8.887
  301W        W 3820   1.215   0.944   9.504
  302W        W 3821   5.677   6.377   2.469
  303W        W 3822   6.707   9.085  11.834
  304W        W 3823   8.706   2.692   2.486
  305W        W 3824   6.164   8.178   9.268
  306W        W 3825   4.611   6.793   9.454
  307W        W 3826   4.102   6.756   3.627
  308W        W 3827   5.152   4.659   0.944
  309W        W 3828   0.414   8.490   2.616
  310W        W 3829   7.248   6.007   1.979
  311W        W 3830   8.081   6.339  10.523
  312W        W 3831   4.469   1.866   0.418
  313W        W 3832   6.152   2.708  10.951
  314W        W 3833   2.716   3.248   3.558
  315W        W 3834   6.444   3.044  11.851
  316W        W 3835   6.997   6.939   2.784
  317W        W 3836   8.172   2.048   3.532
  318W        W 3837   5.493   0.534   1.681
  319W        W 3838   4.965   5.161  10.472
  320W        W 3839   2.728   4.681   9.504
  321W        W 3840   5.452   2.278  11.446
  322W        W 3841   2.221   9.343  10.394
  323W        W 3842   9.310   8.836   3.775
  324W        W 3843   3.656   0.514   3.319
  325W        W 3844   6.395   8.392   1.278
  326W        W 3845   8.745   4.497  11.090
  327W        W 3846   4.560   4.158  11.790
  328W        W 3847   9.502   0.697   9.536
  329W        W 3848   5.242   6.596  11.804
  330W        W 3849   8.746   2.175   3.392
  331W        W 3850   7.029   9.227   9.932
  332W        W 3851   3.320   4.634   0.907
  333W        W 3852   9.299   5.212   9.610
  334W        W 3853   5.772   7.961   3.640
  335W        W 3854   2.685   7.023   3.355
  336W        W 3855   2.631   6.623   9.568
  337W        W 3856   5.242   1.205   2.335
  338W        W 3857   1.393   2.108  10.582
  339W        W 3858   4.618   5.110   9.468
  340W        W 3859   0.429   5.928   1.695
  341W        W 3860   8.342   8.508   8.774
  342W        W 3861   6.901   2.812   0.165
  343W        W 3862   3.558   9.096   0.318
  344W        W 3863   4.099   1.832   9.462
  345W        W 3864   1.609   5.178   3.502
  346W        W 3865   0.366   3.412   2.128
  347W        W 3866   9.488   6.244   0.316
  348W        W 3867   3.116   4.740   8.671
  349W        W 3868   3.377   4.201   2.860
  350W        W 3869   2.880   0.461  11.525
  351W        W 3870   5.379   9.845   9.706
  352W        W 3871   7.986   2.408   0.540
  353W        W 3872   4.814   7.681   8.493
  354W        W 3873   4.673   0.921   0.711
  355W        W 3874   9.936   3.331  10.414
  356W        W 3875   9.364   0.635  10.035
  357W        W 3876   5.156   3.289   9.463
  358W        W 3877   7.338   3.573   9.711
  359W        W 3878   0.824   7.488   0.186
  360W        W 3879   3.076   4.141   1.789
  361W        W 3880   8.986   7.401  10.030
  362W        W 3881   0.380   0.876   8.841
  363W        W 3882   3.564   2.369  10.906
  364W        W 3883   4.547   5.171   3.084
  365W        W 3884   9.342   8.449   1.340
  366W        W 3885   1.395   3.566  11.548
  367W        W 3886   4.883   7.054   9.099
  368W        W 3887   0.155   1.095   8.413
  369W        W 3888   4.751   7.840   1.840
  370W        W 3889   9.432   9.651  11.243
  371W        W 3890   6.014   3.263   2.433
  372W        W 3891   5.550   1.732  10.779
  373W        W 3892   5.475   9.869   1.477
  374W        W 3893   2.305   4.020  11.436
  375W        W 3894   4.530   5.041   0.003
  376W        W 3895   2.649   2.167   9.272
  377W        W 3896   2.641   1.058   2.397
  378W        W 3897   6.037   8.064   1.086
  379W        W 3898   2.205   7.935  11.593
  380W        W 3899   4.589   6.180   0.280
  381W        W 3900   8.427   0.200   0.223
  382W        W 3901   3.717   3.374   2.704
  383W        W 3902   2.348   8.055   1.311
  384W        W 3903   3.972   6.374   1.312
  385W        W 3904   7.153   4.706  11.026
  386W        W 3905   9.631   2.378   9.684
  387W        W 3906   4.187   9.897   8.668
  388W        W 3907   6.914   1.461   2.728
  389W        W 3908   4.822   2.734   8.346
  390W        W 3909   3.545   8.090   9.853
  391W        W 3910   9.303   7.563   1.328
  392W        W 3911   1.159   7.336   1.479
  393W        W 3912   4.042   2.829   8.510
  394W        W 3913   2.392   1.564  11.291
  395W        W 3914   8.698   4.842   0.520
  396W        W 3915   2.565   2.698   8.749
  397W        W 3916   0.591   9.599  11.550
  398W        W 3917   7.945   9.862  11.383
  399W        W 3918   1.864   2.991   9.932
  400W        W 3919   5.256   2.682  11.205
  401W        W 3920   0.415   8.641  11.176
  402W        W 3921   5.079   5.631   8.795
  403W        W 3922   2.707   8.078   3.044
  404W        W 3923   0.412   3.229   1.105
  405W        W 3924   3.854   4.613  11.047
  406W        W 3925   1.676   0.462  10.585
  407W        W 3926   6.730   4.716   8.690
  408W        W 3927   4.800   2.404   1.080
  409W        W 3928   7.954   5.175   2.539
  410W        W 3929   4.086   6.156   0.185
  411W        W 3930   8.466   2.137   9.195
  412W        W 3931   5.968   7.303   3.586
  413W        W 3932   5.522   7.383  10.199
  414W        W 3933   2.737   6.637   9.030
  415W        W 3934   8.012   2.366   0.040
  416W        W 3935   3.292   3.177   9.485
  417W        W 3936   5.101   4.510   0.367
  418W        W 3937   8.780   1.746   1.303
  419W        W 3938   0.293   4.614   3.184
  420W        W 3939   1.911   5.368   2.706
  421W        W 3940   2.900   2.590   0.706
  422W        W 3941   3.698   4.030   8.997
  423W        W 3942   0.348   5.514   9.464
  424W        W 3943   4.186   2.782   2.671
  425W        W 3944   1.800   2.550   0.157
  426W        W 3945   5.525   0.068   9.273
  427W        W 3946   1.928   4.218   8.757
  428W        W 3947   2.759   7.636   3.325
  429W        W 3948   3.299   8.585   9.117
  430W        W 3949   6.538   5.131   8.442
  431W        W 3950   9.334   2.938   3.724
  432W        W 3951   9.807   7.793   0.704
  433W        W 3952   3.056   2.255   2.000
  434W        W 3953   0.468   7.441  11.810
  435W        W 3954   8.385   0.694   8.943
  436W        W 3955   4.949   3.565   0.331
  437W        W 3956   8.778   8.959  11.238
  438W        W 3957   4.156   9.902   3.217
  439W        W 3958   6.181   7.581   2.585
  440W        W 3959   3.571   3.666   1.212
  441W        W 3960   2.061   7.418   1.927
  442W        W 3961   6.171   1.404   1.869
  443W        W 3962   8.118   7.405   9.729
  444W        W 3963   9.647   2.859   0.854
  445W        W 3964   2.859   0.981   2.855
  446W        W 3965   8.051   5.615  11.484
  447W        W 3966   7.102   6.720   0.867
  448W        W 3967   9.181   7.423  11.504
  449W        W 3968   7.950   1.631   0.828
  450W        W 3969   6.871   9.490   0.153
  451W        W 3970   0.695   6.629   0.026
  452W        W 3971   4.253   2.092   0.878
  453W        W 3972   8.440   1.295   3.012
  454W        W 3973   2.264   8.057   2.284
  455W        W 3974   1.773   4.955   8.208
  456W        W 3975   9.949   3.681   3.375
  457W        W 3976   6.467   8.353  10.776
  458W        W 3977   4.030   6.183   0.801
  459W        W 3978   4.003   5.096   1.597
  460W        W 3979   8.493   4.661  10.109
  461W        W 3980   8.272   3.673   9.153
  462W        W 3981   3.313   2.028   0.852
  463W        W 3982   5.459   7.488  11.622
  464W        W 3983   0.852   4.595   9.126
  465W        W 3984   6.979   1.274  11.925
  466W        W 3985   0.541   4.435   0.894
  467W        W 3986   9.560   1.879   9.543
  468W        W 3987   8.973   7.054  10.436
  469W        W 3988   0.073   1.227   9.014
  470W        W 3989   5.152   3.502  11.866
  471W        W 3990   9.047   9.055   9.027
  472W        W 3991   3.235   7.386  11.493
  473W        W 3992   1.411   1.386  11.376
  474W        W 3993   1.792   6.065   3.302
  475W        W 3994   4.478   4.536   2.776
  476W        W 3995   9.412   7.704   9.966
  477W        W 3996   9.838   6.138   8.983
  478W        W 3997   6.604   2.107  10.338
  479W        W 3998   7.019   7.950  11.353
  480W        W 3999   7.548   2.612  11.963
  481W        W 4000   6.676   4.269   3.682
  482W        W 4001   7.246   5.620   2.642
  483W        W 4002   4.134   5.707   0.985
  484W        W 4003   0.534   2.720  10.760
  485W        W 4004   6.157   3.192   0.721
  486W        W 4005   8.572   1.066   0.060
  487W        W 4006   6.480   6.809   2.090
  488W        W 4007   6.609   9.802   0.888
  489W        W 4008   8.504   0.572  10.560
  490W        W 4009   0.745   8.417   8.931
  491W        W 4010   1.673   1.444   1.752
  492W        W 4011   5.530   6.655  11.316
  493W        W 4012   5.247   2.948   1.689
  494W        W 4013   6.700   9.985  10.007
  495W        W 4014   3.975   7.921   0.249
  496W        W 4015   4.140   1.766  11.593
  497W        W 4016   7.440   0.316   9.157
  498W        W 4017   6.907   4.125   9.343
  499W        W 4018   3.870   1.759   1.419
  500W        W 4019   2.314   4.591   8.659
  501W        W 4020   2.867   4.119  10.544
  502W        W 4021   5.472   5.185  11.807
  503W        W 4022   2.944   1.181  12.000
  504W        W 4023   9.521   5.098   9.159
  505W        W 4024   4.923   4.167  10.498
  506W        W 4025   4.196   1.477  10.755
  507W        W 4026   2.617   3.919   0.920
  508W        W 4027   3.749   8.801  11.958
  509W        W 4028   6.348   6.143   9.812
  510W        W 4029   9.755   4.661   3.203
  511W        W 4030   4.750   4.934   2.650
  512W        W 4031   2.965   0.783   0.377
  513W        W 4032   4.931   3.688   3.631
  514W        W 4033   8.391   3.900   1.857
  515W        W 4034   1.564   5.124   2.992
  516W        W 4035   2.984   1.399   2.250
  517W        W 4036   9.157   0.860   1.600
  518W        W 4037   2.496   5.271   0.687
  519W        W 4038   3.141   7.525   8.859
  520W        W 4039   3.305   2.089  11.894
  521W        W 4040   8.860   6.355   1.591
  522W        W 4041   0.392   5.423   1.677
  523W        W 4042   8.462   9.806  11.166
  524W        W 4043   3.274   0.973  10.883
  525W        W 4044   6.917   2.531   3.020
  526W        W 4045   4.552   5.486  10.559
  527W        W 4046   3.691   5.434   8.908
  528W        W 4047   1.342   1.791   3.485
  529W        W 4048   0.305   9.738  11.973
  530W        W 4049   5.059   2.905  10.199
  531W        W 4050   5.759   2.592   3.564
  532W        W 4051   9.519   9.771   8.868
  533W        W 4052   9.253   3.738   9.294
  534W        W 4053   7.424   7.153  11.903
  535W        W 4054   2.303   7.395   3.382
  536W        W 4055   1.268   6.463  11.428
  537W        W 4056   0.550   0.338   9.914
  538W        W 4057   1.290   5.377  11.737
  539W        W 4058   5.628   8.622   0.167
  540W        W 4059   4.166   3.904   8.305
  541W        W 4060   1.393   3.543   1.496
  542W        W 4061   1.474   8.525   3.618
  543W        W 4062   2.559   5.377   4.105
  544W        W 4063   2.706   2.652  10.766
  545W        W 4064   8.358   2.648   1.641
  546W        W 4065   6.119   6.343   1.339
  547W        W 4066   6.699   5.721   1.400
  548W        W 4067   4.983   9.581   1.768
  549W        W 4068   8.058   0.191  11.867
  550W        W 4069   7.954   9.674   0.995
  551W        W 4070   1.459   3.561  10.977
  552W        W 4071   1.687   3.310   1.938
  553W        W 4072   7.621   2.341   1.323
  554W        W 4073   7.099   5.523   2.158
  555W        W 4074   9.638   5.302   1.971
  556W        W 4075   1.697   2.768  11.694
  557W        W 4076   8.481   1.484   9.990
  558W        W 4077   3.673   8.845   2.148
  559W        W 4078   5.056   8.056   0.107
  560W        W 4079   7.630   4.598   1.323
  561W        W 4080   2.357   7.043   2.098
  562W        W 4081   7.054   0.664   0.760
  563W        W 4082   5.978   9.965  10.481
  564W        W 4083   8.018   5.156   9.091
  565W        W 4084   5.886   7.543   9.855
  566W        W 4085   0.967   9.496   1.924
  567W        W 4086   1.941   3.102   2.848
  568W        W 4087   9.478   3.400   9.712
  569W        W 4088   6.562   8.865   1.209
  570W        W 4089   7.730   6.168   2.052
  571W        W 4090   5.124   6.953   1.434
  572W        W 4091   0.417   0.830   9.843
  573W        W 4092   4.521   3.079   3.725
  574W        W 4093   1.375   6.147   2.531
  575W        W 4094   7.005   4.605   1.871
  576W        W 4095   9.569   2.950  11.047
  577W        W 4096   1.126   4.657   9.579
  578W        W 4097   0.356   9.577  11.075
  579W        W 4098   6.559   4.298   9.010
  580W        W 4099   4.315   1.133   2.438
  581W        W 4100   9.435   2.922   1.448
  582W        W 4101   9.734   9.337   1.264
  583W        W 4102   9.670   6.090  11.021
  584W        W 4103   0.229   0.458  11.767
  585W        W 4104   6.953   5.118  11.229
  586W        W 4105   4.962   2.356   2.138
  587W        W 4106   1.367   6.480   1.459
  588W        W 4107   5.786   0.189   9.914
  589W        W 4108   6.105   0.843   2.736
  590W        W 4109   5.104   3.136  11.492
  591W        W 4110   8.198   7.147  11.343
  592W        W 4111   1.693   4.526   2.729
  593W        W 4112   3.682   6.497   2.197
  594W        W 4113   2.272   2.404  11.050
  595W        W 4114   8.987   4.713   0.924
  596W        W 4115   6.454   5.248   4.085
  597W        W 4116   1.244   5.290   8.548
  598W        W 4117   3.589   7.312  10.358
  599W        W 4118   2.856   0.885   1.809
  600W        W 4119   8.440   2.239   2.517
  601W        W 4120   2.264   8.845   0.780
  602W        W 4121   9.994   6.206   1.891
  603W        W 4122   5.769   5.911   1.300
  604W        W 4123   6.951   3.817   3.290
  605W        W 4124   4.743   3.329   3.297
  606W        W 4125   4.274   2.715   1.899
  607W        W 4126   9.941   4.609  10.506
  608W        W 4127   3.288   5.541   0.891
  609W        W 4128   4.149   0.510   8.692
  610W        W 4129   0.317   4.159   2.906
  611W        W 4130   0.777   4.266  11.726
  612W        W 4131   1.658   2.289  11.436
  613W        W 4132   1.214   8.035  11.240
  614W        W 4133   4.009   0.283  10.906
  615W        W 4134   5.598   7.881   2.844
  616W        W 4135   0.193   0.029   2.245
  617W        W 4136   1.309   1.221   2.031
  618W        W 4137   2.150   3.724  10.415
  619W        W 4138   8.429   2.869   2.094
  620W        W 4139   5.506   5.681   3.273
  621W        W 4140   8.344   8.520  10.639
  622W        W 4141   6.458   2.564   3.331
  623W        W 4142   9.907   5.709   1.004
  624W        W 4143   6.681   1.753  11.064
  625W        W 4144   5.299   2.022   1.965
  626W        W 4145   5.876   6.026   9.938
  627W        W 4146   7.613   8.271   9.407
  628W        W 4147   2.311   5.857   9.237
  629W        W 4148   7.270   0.750  11.782
  630W        W 4149   4.942   4.056   2.006
  631W        W 4150   3.803   5.512   0.131
  632W        W 4151   7.847   4.974   2.989
  633W        W 4152   7.215   0.007  10.963
  634W        W 4153   6.107   6.883   3.197
  635W        W 4154   5.000   7.424  10.320
  636W        W 4155   0.735   7.394   0.695
  637W        W 4156   9.442   9.971  10.824
  638W        W 4157   7.984   1.191  10.108
  639W        W 4158   5.187   6.693   3.691
  640W        W 4159   4.742   3.784   9.882
  641W        W 4160   5.273   5.314   0.892
  642W        W 4161   7.440   1.263  11.038
  643W        W 4162   2.116   7.997   0.455
  644W        W 4163   9.839   1.498  10.493
  645W        W 4164   5.296   0.979   1.875
  646W        W 4165   2.896   8.355  10.839
  647W        W 4166   6.070   8.542  10.411
  648W        W 4167   9.968   9.364   9.558
  649W        W 4168   9.354   6.052   0.771
  650W        W 4169   7.042   0.919   1.211
  651W        W 4170   4.690   4.617   1.228
  652W        W 4171   8.320   2.078   3.027
  653W        W 4172   9.468   8.487   9.771
  654W        W 4173   1.760   3.689   0.249
  655W        W 4174   7.193   3.547  11.959
  656W        W 4175   6.965   0.408   0.320
  657W        W 4176   4.189   3.528  11.956
  658W        W 4177   9.298   3.504   0.316
  659W        W 4178   8.814   6.629   9.186
  660W        W 4179   3.668   5.443   1.252
  661W        W 4180   2.898   9.378   3.285
  662W        W 4181   9.727   1.866   9.023
  663W        W 4182   2.344   7.647  11.051
  664W        W 4183   6.986   5.024   4.087
  665W        W 4184   5.525   9.470   1.154
  666W        W 4185   9.171   3.259   1.780
  667W        W 4186   4.621   5.930   3.173
  668W        W 4187   0.319   7.097   9.750
  669W        W 4188   1.943   6.394   1.729
  670W        W 4189   2.044   0.381  10.966
  671W        W 4190   2.729   0.412   1.159
  672W        W 4191   3.830   2.895  11.252
  673W        W 4192   5.770   9.069   9.251
  674W        W 4193   5.538   7.179   0.421
  675W        W 4194   8.076   6.632  11.918
  676W        W 4195   6.081   7.570  10.332
  677W        W 4196   7.614   6.087   0.319
  678W        W 4197   3.057   1.327   3.614
  679W        W 4198   6.574   1.516   0.936
  680W        W 4199   3.630   3.333   3.752
  681W        W 4200   9.437   5.273   1.456
  682W        W 4201   3.620   0.704   1.343
  683W        W 4202   5.012   2.346   1.598
  684W        W 4203   5.678   7.137   3.141
  685W        W 4204   9.877   0.848  11.768
  686W        W 4205   5.241   7.504   0.102
  687W        W 4206   6.590   5.570   9.254
  688W        W 4207   2.294   9.117   0.327
  689W        W 4208   2.135   5.504  11.642
  690W        W 4209   8.810   9.071   2.827
  691W        W 4210   6.810   4.480  10.014
  692W        W 4211   4.030   9.308   2.806
  693W        W 4212   8.418   8.439   3.274
  694W        W 4213   2.223   7.538   2.394
  695W        W 4214   6.444   2.184  10.968
  696W        W 4215   4.243   1.431  10.240
  697W        W 4216   6.470   1.613   2.946
  698W        W 4217   4.667   0.747   1.187
  699W        W 4218   4.139   9.884   1.446
  700W        W 4219   5.446   7.037  11.932
  701W        W 4220   5.151   2.736  10.698
  702W        W 4221   0.068   9.541  11.544
  703W        W 4222   7.957   5.076   0.016
  704W        W 4223   4.267   5.096   2.647
  705W        W 4224   4.470   6.668   3.152
  706W        W 4225   3.906   3.927  10.327
  707W        W 4226   3.952   4.538   4.136
  708W        W 4227   0.833   9.902   9.734
  709W        W 4228   9.377   1.353   0.299
  710W        W 4229   9.793   3.769   0.665
  711W        W 4230   2.775   0.015  10.501
  712W        W 4231   3.117   4.894   8.176
  713W        W 4232   9.920   7.072   9.000
  714W        W 4233   2.409   8.357   9.059
  715W        W 4234   8.777   7.931   3.393
  716W        W 4235   4.212   3.848  11.568
  717W        W 4236   9.406   6.997  10.702
  718W        W 4237   5.667   6.448   1.107
  719W        W 4238   3.374   5.400   0.389
  720W        W 4239   5.637   7.831  10.431
  721W        W 4240   9.002   7.433   2.373
  722W        W 4241   8.640   4.813   3.062
  723W        W 4242   9.799   1.399   3.028
  724W        W 4243   2.780   1.464  11.614
  725W        W 4244   7.725   3.170   3.311
  726W        W 4245   5.053   5.481   3.135
  727W        W 4246   4.438   0.103   2.409
  728W        W 4247   9.548   0.238   9.760
  729W        W 4248   9.748   2.420  10.858
  730W        W 4249   7.645   5.305  11.671
  731W        W 4250   3.126   6.916   1.201
  732W        W 4251   8.863   6.226   0.833
  733W        W 4252   5.122   2.036   1.188
  734W        W 4253   4.228   5.752   3.444
  735W        W 4254   6.705   1.210   3.150
  736W        W 4255   3.829   4.607   0.046
  737W        W 4256   8.459   3.743   2.358
  738W        W 4257   8.148   5.916   1.188
  739W        W 4258   4.487   2.580   1.449
  740W        W 4259   7.166   7.238   0.823
  741W        W 4260   3.870   3.672   9.868
  742W        W 4261   8.897   4.578   0.070
  743W        W 4262   3.557   7.859  10.319
  744W        W 4263   4.033   8.256   1.537
  745W        W 4264   8.980   8.345   2.108
  746W        W 4265   7.532   8.921  10.523
  747W        W 4266   9.071   4.184   0.857
  748W        W 4267   0.319   2.971   3.596
  749W        W 4268   4.766   2.751  11.365
  750W        W 4269   1.783   0.730   2.218
  751W        W 4270   7.798   1.257  10.628
  752W        W 4271   2.825   3.311   3.037
  753W        W 4272   4.142   0.927  11.010
  754W        W 4273   2.804   7.994   1.642
  755W        W 4274   3.621   4.464   9.316
  756W        W 4275   7.514   4.449   3.108
  757W        W 4276   7.887   4.644   0.325
  758W        W 4277   9.867   7.637   2.048
  759W        W 4278   8.385   4.565  11.484
  760W        W 4279   1.508   0.530   9.368
  761W        W 4280   5.164   2.732   2.707
  762W        W 4281   8.738   6.111  11.972
  763W        W 4282   0.072   5.643   9.046
  764W        W 4283   8.956   7.074   9.447
  765W        W 4284   3.335   9.252   1.365
  766W        W 4285   0.471   6.633   9.889
  767W        W 4286   4.599   5.748   2.226
  768W        W 4287   7.900   1.861   1.357
  769W        W 4288   3.227   3.572  11.925
  770W        W 4289   7.037   6.376   8.212
  771W        W 4290   2.337   2.133  10.094
  772W        W 4291   7.010   6.392   8.736
  773W        W 4292   5.042   9.907   9.288
  774W        W 4293   2.315   1.896  10.891
  775W        W 4294   8.859   6.178  10.608
  776W        W 4295   7.402   3.129   2.635
  777W        W 4296   5.197   3.882  10.134
  778W        W 4297   2.621   7.998  11.293
  779W        W 4298   5.926   2.244  11.009
  780W        W 4299   9.097   9.205  11.583
  781W        W 4300   7.203   6.540   3.963
  782W        W 4301   8.469   7.897  11.040
  783W        W 4302   9.935   1.220  10.075
  784W        W 4303   1.657   3.767   0.752
  785W        W 4304   0.975   8.814   3.498
  786W        W 4305   2.022   3.428   3.251
  787W        W 4306   9.539   8.082   2.011
  788W        W 4307   9.352   4.791  11.867
  789W        W 4308   3.109   3.709   0.896
  790W        W 4309   2.241   3.761   1.755
  791W        W 4310   8.364   8.749   0.267
  792W        W 4311   5.181   8.728  10.937
  793W        W 4312   6.173   9.893   0.376
  794W        W 4313   5.871   1.639   8.449
  795W        W 4314   2.767   4.393   2.144
  796W        W 4315   2.785   2.109   0.928
  797W        W 4316   0.329   6.095   3.194
  798W        W 4317   6.559   9.279   2.364
  799W        W 4318   9.607   7.503  11.787
  800W        W 4319   4.158   8.922   8.868
  801W        W 4320   2.917   0.416   9.326
  802W        W 4321   8.736   6.421  11.242
  803W        W 4322   2.731   3.630  10.563
  804W        W 4323   5.473   0.871  11.052
  805W        W 4324   5.643   1.696   2.328
  806W        W 4325   5.163   8.885  10.464
  807W        W 4326   1.408   0.260   8.933
  808W        W 4327   5.960   8.057   3.169
  809W        W 4328   6.976   2.559   9.851
  810W        W 4329   3.516   4.642   3.872
  811W        W 4330   3.866   1.353   8.771
  812W        W 4331   9.883   6.850   9.958
  813W        W 4332   3.945   8.033   8.993
  814W        W 4333   6.831   2.819  10.248
  815W        W 4334   1.794   5.660   9.507
  816W        W 4335   8.849   0.919   8.900
  817W        W 4336   0.477   1.690   9.849
  818W        W 4337   3.332   8.473  10.600
  819W        W 4338   4.757   7.529   2.325
  820W        W 4339   3.848   9.797  11.898
  821W        W 4340   2.708   3.692   0.056
  822W        W 4341   5.065   6.373   0.220
  823W        W 4342   3.524   0.628   2.311
  824W        W 4343   5.195   5.697   1.198
  825W        W 4344   8.346   4.247   2.330
  826W        W 4345   6.693   8.485   1.788
  827W        W 4346   3.367   9.326   8.554
  828W        W 4347   7.205   1.976   1.465
  829W        W 4348   3.748   9.014   1.641
  830W        W 4349   8.971   9.862  10.958
  831W        W 4350   3.145   8.334   3.151
  832W        W 4351  10.000   1.724   2.668
  833W        W 4352   6.758   5.990   8.929
  834W        W 4353   0.305   0.018  11.520
  835W        W 4354   4.863   1.821   1.779
  836W        W 4355   6.561   8.743  10.462
  837W        W 4356   1.177   0.378  10.737
  838W        W 4357   6.414   2.790  10.537
  839W        W 4358   2.797   9.235  10.643
  840W        W 4359   6.209   3.712   0.762
  841W        W 4360   0.429   1.358  11.267
  842W        W 4361   4.524   9.203   2.766
  843W        W 4362   6.397   9.303   2.845
  844W        W 4363   5.874   4.612  10.438
  845W        W 4364   9.627   1.760   0.094
  846W        W 4365   6.127   9.045  11.169
  847W        W 4366   2.221   3.842   8.966
  848W        W 4367   7.592   2.584  11.455
  849W        W 4368   2.712   6.860   2.869
  850W        W 4369   1.363   3.894   9.260
  851W        W 4370   0.861   2.919  11.514
  852W        W 4371   2.149   0.988   0.851
  853W        W 4372   6.161   5.949   1.677
  854W        W 4373   0.633   2.853   9.511
  855W        W 4374   4.217   2.769   9.466
  856W        W 4375   9.454   0.613   3.659
  857W        W 4376   7.959   7.373   0.415
  858W        W 4377   9.422   8.597  10.290
  859W        W 4378   5.261   5.490   0.210
  860W        W 4379   2.806   3.316   9.597
  861W        W 4380   8.694   3.468   3.319
  862W        W 4381   8.314   1.975   1.713
  863W        W 4382   3.924   8.535   3.836
  864W        W 4383   8.314   3.245  11.484
  865W        W 4384   9.554   3.010   0.270
  866W        W 4385   3.979   2.353  11.278
  867W        W 4386   8.024   6.010   9.557
  868W        W 4387   3.470   4.260   4.213
  869W        W 4388   7.404   4.797   0.407
  870W        W 4389   5.210   2.298   0.185
  871W        W 4390   3.828   7.869   9.491
  872W        W 4391   7.764   1.642  10.278
  873W        W 4392   0.955   9.265   9.523
  874W        W 4393   5.148   5.960   8.107
  875W        W 4394   9.469   1.555   9.951
  876W        W 4395   6.550   2.410   0.923
  877W        W 4396   7.060   6.547   1.355
  878W        W 4397   7.566   3.720   1.964
  879W        W 4398   9.077   9.785  10.428
  880W        W 4399   9.919   4.738   0.884
  881W        W 4400   2.174   9.601   2.153
  882W        W 4401   0.355   4.542   1.761
  883W        W 4402   7.284   2.186   3.209
  884W        W 4403   2.185   3.039  11.462
  885W        W 4404   7.833   3.635   9.506
  886W        W 4405   1.295   9.448   2.702
  887W        W 4406   6.339   6.142   4.116
  888W        W 4407   8.638   5.092  10.384
  889W        W 4408   9.026   4.292  10.640
  890W        W 4409   4.531   7.668  11.375
  891W        W 4410   6.476   1.177   2.699
  892W        W 4411   7.976   0.189   0.972
  893W        W 4412   8.363   3.660  10.197
  894W        W 4413   8.970   4.717  10.299
  895W        W 4414   3.177   6.677  10.915
  896W        W 4415   6.446   7.080   3.538
  897W        W 4416   9.269   2.574  10.825
  898W        W 4417   9.914   9.795   9.247
  899W        W 4418   0.677   4.644  10.891
  900W        W 4419   4.178   4.280  10.572
  901W        W 4420   4.717   2.314   9.019
  902W        W 4421   0.251   3.948   2.136
  903W        W 4422   7.100   2.794  10.704
  904W        W 4423   1.759   6.167   1.284
  905W        W 4424   0.208   5.557   8.465
  906W        W 4425   2.449   3.204   0.244
  907W        W 4426   4.798   6.618   1.984
  908W        W 4427   1.508   8.559   2.809
  909W        W 4428   5.177   0.939   3.348
  910W        W 4429   0.798   7.981   0.019
  911W        W 4430   9.293   7.553   2.804
  912W        W 4431   6.549   7.090   3.007
  913W        W 4432   5.019   3.990  11.973
  914W        W 4433   3.043   7.431   2.950
  915W        W 4434   6.972   3.038   2.892
  916W        W 4435   7.582   1.235   0.521
  917W        W 4436   7.684   9.967   0.357
  918W        W 4437   3.213   7.901   2.870
  919W        W 4438   4.233   6.812   1.422
  920W        W 4439   6.098   3.351   9.127
  921W        W 4440   2.607   8.716   2.410
  922W        W 4441   0.937   7.604  11.680
  923W        W 4442   5.050   8.912   9.053
  924W        W 4443   0.978   5.518  10.867
  925W        W 4444   4.426   4.074   2.001
  926W        W 4445   6.085   5.139   9.308
  927W        W 4446   3.820   9.929   1.026
  928W        W 4447   5.632   0.589   0.718
  929W        W 4448   0.620   7.515  10.861
  930W        W 4449   6.684   9.913   0.395
  931W        W 4450   6.729   0.312   3.622
  932W        W 4451   6.210   4.223   8.208
  933W        W 4452   6.492   4.617   0.472
  934W        W 4453   0.512   3.547  11.763
  935W        W 4454   2.623   0.753   0.783
  936W        W 4455   1.983   2.662   9.546
  937W        W 4456   0.184   0.566  10.748
  938W        W 4457   3.361   2.150   3.508
  939W        W 4458   5.744   2.064  10.437
  940W        W 4459   9.970   2.160  11.473
  941W        W 4460   9.777   1.412   8.637
  942W        W 4461   3.302   3.672  11.091
  943W        W 4462   1.241   3.788   1.950
  944W        W 4463   4.712   2.822   0.806
  945W        W 4464   5.011   9.801   1.296
  946W        W 4465   3.988   3.388  10.432
  947W        W 4466   2.587   3.340  11.636
  948W        W 4467   0.045   6.594   8.863
  949W        W 4468   3.304   1.358   9.901
  950W        W 4469   5.309   6.433   0.697
  951W        W 4470   9.354   2.612  11.368
  952W        W 4471   9.638   7.019   3.624
  953W        W 4472   1.691   2.195   2.398
  954W        W 4473   3.298   3.050   2.395
  955W        W 4474   5.782   1.815   2.829
  956W        W 4475   0.328   0.950   3.381
  957W        W 4476   4.722   5.498   2.720
  958W        W 4477   4.363   7.694   1.097
  959W        W 4478   6.213   7.249  11.386
  960W        W 4479   8.658   2.404   9.617
  961W        W 4480   1.397   9.338   9.795
  962W        W 4481   4.958   9.367  10.498
  963W        W 4482   5.835   0.907   1.760
  964W        W 4483   6.530   3.755   3.614
  965W        W 4484   2.642   0.839  10.624
  966W        W 4485   1.847   7.055   0.917
  967W        W 4486   3.108   7.068   2.604
  968W        W 4487   9.847   4.364   1.268
  969W        W 4488   8.497   4.641   1.422
  970W        W 4489   2.244   1.267  10.909
  971W        W 4490   5.848   5.035   1.341
  972W        W 4491   7.499   6.319   1.621
  973W        W 4492   0.728   5.789   3.188
  974W        W 4493   2.897   0.663  11.034
  975W        W 4494   4.142   1.362   1.625
  976W        W 4495   7.337   6.167   9.532
  977W        W 4496   9.026   6.225   2.704
  978W        W 4497   0.524   7.602   3.190
  979W        W 4498   9.785   0.307   2.174
  980W        W 4499   1.970   9.914   0.004
  981W        W 4500   2.223   5.104   1.862
  982W        W 4501   9.180   7.210   3.539
  983W        W 4502   5.750   6.705   2.844
  984W        W 4503   1.759   2.236   1.447
  985W        W 4504   1.652   5.188   1.110
  986W        W 4505   7.417   3.040  11.568
  987W        W 4506   9.409   5.724   1.169
  988W        W 4507   0.856   7.911   8.866
  989W        W 4508   1.768   5.187  11.781
  990W        W 4509   3.233   8.250   0.465
  991W        W 4510   3.040   7.876  11.024
  992W        W 4511   9.562   5.009  10.461
  993W        W 4512   1.858   8.185   2.916
  994W        W 4513   6.090   1.416   2.389
  995W        W 4514   3.342   3.880  11.533
  996W        W 4515   8.867   3.277  10.462
  997W        W 4516   2.902   2.845   3.261
  998W        W 4517   3.081   9.483   2.217
  999W        W 4518   2.776   1.220  10.956
 1000W        W 4519   1.302   3.329   9.288
 1001W        W 4520   7.034   7.947   0.251
 1002W        W 4521   2.400   8.953  11.360
 1003W        W 4522   3.050   6.580   9.888
 1004W        W 4523   6.669   1.284   1.767
 1005W        W 4524   6.991   4.247   2.248
 1006W        W 4525   9.877   8.278   0.847
 1007W        W 4526   5.046   3.702   8.637
 1008W        W 4527   2.102   1.770   0.384
 1009W        W 4528   4.287   8.432   8.916
 1010W        W 4529   7.843   1.696   3.712
 1011W        W 4530   0.615   0.732   1.189
 1012W        W 4531   6.022   8.538   8.932
 1013W        W 4532   3.105   8.554   2.644
 1014W        W 4533   3.014   1.880   0.465
 1015W        W 4534   9.351   7.939   0.037
 1016W        W 4535   9.979   8.431  11.557
 1017W        W 4536   5.671   8.096   1.844
 1018W        W 4537   1.273   4.038  11.464
 1019W        W 4538   9.116   5.210  10.305
 1020W        W 4539   1.315   0.228   2.576
 1021W        W 4540   2.380   6.659   1.766
 1022W        W 4541   4.172   1.865  11.104
 1023W        W 4542   4.001   7.968   3.411
 1024W        W 4543   8.453   1.186   0.544
 1025W        W 4544   9.821   4.578  11.833
 1026W        W 4545   5.689   0.750  11.934
 1027W        W 4546   3.987   4.973   8.795
 1028W        W 4547   6.518   4.658   2.883
 1029W        W 4548   5.982   5.281   3.843
 1030W        W 4549   8.929   6.468   9.677
 1031W        W 4550   9.043   8.553  11.014
 1032W        W 4551   2.715   2.725   0.225
 1033W        W 4552   9.480   4.758   2.762
 1034W        W 4553   8.633   6.045   1.257
 1035W        W 4554   3.057   6.886  11.467
 1036W        W 4555   8.082   2.840   3.106
 1037W        W 4556   2.184   4.528   1.328
 1038W        W 4557   5.535   3.205   0.058
 1039W        W 4558   5.545   2.294   0.558
 1040W        W 4559   9.823   5.229   0.939
 1041W        W 4560   1.197   5.545   3.199
 1042W        W 4561   6.037   3.533  11.395
 1043W        W 4562   2.242   2.869   9.137
 1044W        W 4563   5.501   4.409  10.729
 1045W        W 4564   4.665   8.215   8.627
 1046W        W 4565   0.748   8.565   1.764
 1047W        W 4566   8.702   9.926   2.013
 1048W        W 4567   1.348   9.975   0.827
 1049W        W 4568   3.556   2.022  11.346
 1050W        W 4569   5.605   5.173   3.189
 1051W        W 4570   4.142   8.595  11.222
 1052W        W 4571   6.788   9.377   1.914
 1053W        W 4572   3.472   2.628   0.611
 1054W        W 4573   0.200   4.284  11.490
 1055W        W 4574   5.178   8.005   2.085
 1056W        W 4575   7.522   7.515   2.336
 1057W        W 4576   7.893   0.631   0.760
 1058W        W 4577   4.226   4.238   2.436
 1059W        W 4578   4.245   3.687   1.720
 1060W        W 4579   4.196   9.810  10.745
 1061W        W 4580   7.899   2.951  10.261
 1062W        W 4581   3.210   9.084   9.794
 1063W        W 4582   6.935   6.944   3.299
 1064W        W 4583   8.258   6.406  11.037
 1065W        W 4584   9.451   4.114   0.542
 1066W        W 4585   5.323   4.367  10.258
 1067W        W 4586   6.981   9.489   0.642
 1068W        W 4587   3.841   9.280   2.344
 1069W        W 4588   3.616   1.808   8.654
 1070W        W 4589   9.784   3.834  11.060
 1071W        W 4590   4.861   5.404  11.880
 1072W        W 4591   6.983   8.600  10.781
 1073W        W 4592   9.662   3.838   0.159
 1074W        W 4593   4.170   2.702  10.916
 1075W        W 4594   1.221   6.731  10.581
 1076W        W 4595   0.972   3.266   0.435
 1077W        W 4596   1.769   8.461  11.807
 1078W        W 4597   1.285   9.752   9.542
 1079W        W 4598   5.631   9.006   0.938
 1080W        W 4599   0.199   7.292  11.149
 1081W        W 4600   0.276   5.921  11.821
 1082W        W 4601   7.574   4.666   1.836
 1083W        W 4602   9.808   5.622  11.808
 1084W        W 4603   4.472   2.269  11.609
 1085W        W 4604   8.266   4.650  11.016
 1086W        W 4605   3.569   6.000   2.899
 1087W        W 4606   4.195   6.973   9.676
 1088W        W 4607   5.263   0.580  11.431
 1089W        W 4608   1.036   1.548   1.732
 1090W        W 4609   5.401   1.208   9.232
 1091W        W 4610   6.768   8.381  11.185
 1092W        W 4611   1.859   2.292   9.913
 1093W        W 4612   8.910   5.687  10.443
 1094W        W 4613   7.120   3.567   0.878
 1095W        W 4614   9.454   8.391  10.758
 1096W        W 4615   8.054   5.005  11.490
 1097W        W 4616   5.546   0.646  10.043
 1098W        W 4617   2.470   3.637   3.201
 1099W        W 4618   7.619   3.896  10.839
 1100W        W 4619   6.120   4.638   9.492
 1101W        W 4620   9.337   9.502   0.916
 1102W        W 4621   4.695   8.662  10.460
 1103W        W 4622   6.989   8.021   2.708
 1104W        W 4623   9.783   7.364   1.084
 1105W        W 4624   6.965   5.353   0.231
 1106W        W 4625   0.663   6.636   2.172
 1107W        W 4626   3.658   2.463   2.701
 1108W        W 4627   7.517   1.574   1.515
 1109W        W 4628   1.912   9.585   3.342
 1110W        W 4629   3.644   8.479   1.765
 1111W        W 4630   3.694   4.212  10.759
 1112W        W 4631   3.736   8.895   2.664
 1113W        W 4632   6.540   6.595   3.240
 1114W        W 4633   8.923   6.504  11.729
 1115W        W 4634   0.427   8.459   9.359
 1116W        W 4635   3.137   9.846   2.633
 1117W        W 4636   0.531   0.444   3.334
 1118W        W 4637   1.181   8.862   0.328
 1119W        W 4638   8.534   5.460  10.774
 1120W        W 4639   6.008   5.495   3.342
 1121W        W 4640   3.675   9.588   8.908
 1122W        W 4641   0.827   8.928  11.439
 1123W        W 4642   4.235   0.656  10.585
 1124W        W 4643   2.146   6.513  11.447
 1125W        W 4644   0.952   5.003  10.464
 1126W        W 4645   6.467   8.224  11.544
 1127W        W 4646   3.805   5.968  10.763
 1128W        W 4647   9.804   4.061  11.714
 1129W        W 4648   0.667   7.587   2.706
 1130W        W 4649   3.171   7.397   0.866
 1131W        W 4650   0.059   5.432   2.914
 1132W        W 4651   1.445   2.955   0.186
 1133W        W 4652   3.675   5.963   0.447
 1134W        W 4653   8.540   8.954   8.981
 1135W        W 4654   9.753   6.528   9.303
 1136W        W 4655   9.110   5.743   2.841
 1137W        W 4656   8.471   2.755  11.470
 1138W        W 4657   6.922   4.962  10.178
 1139W        W 4658   1.653   3.501  10.511
 1140W        W 4659   8.608   3.968   0.886
 1141W        W 4660   7.442   9.455  11.743
 1142W        W 4661   0.338   2.603   9.951
 1143W        W 4662   5.600   7.113   1.190
 1144W        W 4663   8.847   1.327   3.350
 1145W        W 4664   9.933   0.102   8.793
 1146W        W 4665   4.914   3.360   1.529
 1147W        W 4666   4.826   3.094   4.147
 1148W        W 4667   3.066   6.183   2.167
 1149W        W 4668   7.962   3.911   1.376
 1150W        W 4669   3.128   3.328   1.990
 1151W        W 4670   0.648   9.788   2.225
 1152W        W 4671   1.367   9.314   2.211
 1153W        W 4672   1.165   4.600  10.827
 1154W        W 4673   1.831   9.063   3.401
 1155W        W 4674   4.767   3.697  10.378
 1156W        W 4675   2.149   7.121  10.387
 1157W        W 4676   6.270   6.419   2.399
 1158W        W 4677   1.136   7.157  10.314
 1159W        W 4678   6.938   9.492  11.647
 1160W        W 4679   8.557   7.612   9.877
 1161W        W 4680   2.764   7.885   2.151
 1162W        W 4681   6.153   3.291   1.392
 1163W        W 4682   3.048   9.268   1.770
 1164W        W 4683   4.924   2.251  10.810
 1165W        W 4684   8.930   6.671   1.172
 1166W        W 4685   1.222   6.154  11.024
 1167W        W 4686   6.468   2.631   9.557
 1168W        W 4687   1.774   5.230   9.165
 1169W        W 4688   3.224   5.144   2.338
 1170W        W 4689   6.866   7.161  11.897
 1171W        W 4690   7.440   9.880  11.408
 1172W        W 4691   0.697   6.103  10.216
 1173W        W 4692   6.077   9.984   2.657
 1174W        W 4693   9.267   3.651   0.825
 1175W        W 4694   7.572   7.602   0.147
 1176W        W 4695   3.035   2.852   1.368
 1177W        W 4696   0.760   2.635   0.769
 1178W        W 4697   3.762   6.751   8.814
 1179W        W 4698   5.540   4.536   0.633
 1180W        W 4699   3.890   4.031   0.840
 1181W        W 4700   4.561   8.130   0.291
 1182W        W 4701   9.893   9.151   0.298
 1183W        W 4702   1.934   8.700   3.040
 1184W        W 4703   8.838   3.960   3.160
 1185W        W 4704   7.654   1.464   2.931
 1186W        W 4705   4.625   3.991  11.316
 1187W        W 4706   4.864   2.213   2.611
 1188W        W 4707   3.618   3.412   2.190
 1189W        W 4708   3.220   3.209   3.434
 1190W        W 4709   9.745   1.481   3.541
 1191W        W 4710   0.342   9.474   9.230
 1192W        W 4711   2.652   0.594   2.585
 1193W        W 4712   3.144   7.590  11.957
 1194W        W 4713   2.615   6.201   1.668
 1195W        W 4714   7.319   8.978   9.597
 1196W        W 4715   5.562   8.328  10.273
 1197W        W 4716   6.901   4.650  11.486
 1198W        W 4717   8.526   3.507   0.151
 1199W        W 4718   4.494   8.294   2.732
 1200W        W 4719   3.741   8.273  11.925
 1201W        W 4720   7.135   8.652  11.833
 1202W        W 4721   7.845   9.253   8.700
 1203W        W 4722   2.086   6.485  10.008
 1204W        W 4723   3.721   8.104   0.645
 1205W        W 4724   1.648   4.639   1.285
 1206W        W 4725   1.797   1.695   8.553
 1207W        W 4726   5.189   3.211   2.475
 1208W        W 4727   3.731   6.443   7.866
 1209W        W 4728   5.066   8.055  10.131
 1210W        W 4729   9.599   3.304   0.658
 1211W        W 4730   8.257   5.276   1.988
 1212W        W 4731   1.261   0.776  10.373
 1213W        W 4732   8.766   6.466   3.487
 1214W        W 4733   8.783   3.812   9.931
 1215W        W 4734   9.428   8.028   1.012
 1216W        W 4735   6.452   6.013  11.979
 1217W        W 4736   4.155   4.887  11.372
 1218W        W 4737   0.424   6.215   2.694
 1219W        W 4738   3.595   4.070   0.261
 1220W        W 4739   0.838   2.598   9.109
 1221W        W 4740   8.640   7.472  11.883
 1222W        W 4741   8.413   1.376   1.020
 1223W        W 4742   6.075   0.008  11.375
 1224W        W 4743   2.742   9.694  10.881
 1225W        W 4744   9.105   4.179   9.076
 1226W        W 4745   9.265   7.404   8.688
 1227W        W 4746   6.304   1.731   0.263
 1228W        W 4747   6.660   1.668  10.052
 1229W        W 4748   1.031   4.170   0.189
 1230W        W 4749   2.719   0.395   1.695
 1231W        W 4750   1.857   1.297  11.896
 1232W        W 4751   8.502   7.093   2.533
 1233W        W 4752   1.447   1.800   1.494
 1234W        W 4753   8.585   4.920   1.830
 1235W        W 4754   0.415   2.948   2.338
 1236W        W 4755   9.843   8.017  11.292
 1237W        W 4756   3.508   6.322   0.780
 1238W        W 4757   5.017   0.259  11.836
 1239W        W 4758   7.864   4.532  11.370
 1240W        W 4759   4.168   7.022   0.477
 1241W        W 4760   9.053   2.384  10.399
 1242W        W 4761   6.475   9.778   2.419
 1243W        W 4762   7.465   1.924   1.034
 1244W        W 4763   0.101   2.432  10.457
 1245W        W 4764   2.203   2.330   2.491
 1246W        W 4765   5.766   6.527   9.950
 1247W        W 4766   7.547   8.828   1.391
 1248W        W 4767   2.746   1.669  10.677
 1249W        W 4768   0.702   2.586  10.307
 1250W        W 4769   9.020   1.708  10.849
 1251W        W 4770   4.960   7.041   2.353
 1252W        W 4771   5.736   6.469  11.746
 1253W        W 4772   9.070   5.515   0.315
 1254W        W 4773   7.010   7.647   1.624
 1255W        W 4774   4.572   6.787   8.397
 1256W        W 4775   5.513   3.427   8.941
 1257W        W 4776   8.894   4.956   9.381
 1258W        W 4777   7.403   0.316   1.912
 1259W        W 4778   5.646   8.927  11.063
 1260W        W 4779   3.085   6.056   2.686
 1261W        W 4780   1.658   6.737  11.967
 1262W        W 4781   7.597   3.604   2.467
 1263W        W 4782   2.084   7.826   3.228
 1264W        W 4783   9.227   6.702   3.563
 1265W        W 4784   3.182   8.978   2.303
 1266W        W 4785   8.756   8.450   0.368
 1267W        W 4786   2.593   0.870   1.318
 1268W        W 4787   4.775   8.751   2.695
 1269W        W 4788   3.965   8.030  10.972
 1270W        W 4789   2.698   6.191   9.295
 1271W        W 4790   5.386   6.033   9.052
 1272W        W 4791   0.365   9.001   9.485
 1273W        W 4792   9.109   0.956   9.351
 1274W        W 4793   7.609   6.272   3.731
 1275W        W 4794   3.862   3.885   2.159
 1276W        W 4795   0.431   5.142   2.613
 1277W        W 4796   8.946   8.475  10.479
 1278W        W 4797   9.828   0.434  11.462
 1279W        W 4798   2.763   1.293   8.876
 1280W        W 4799   2.697   8.789   9.134
 1281W        W 4800   8.655   9.436  11.464
 1282W        W 4801   8.820   0.428   9.056
 1283W        W 4802   5.576   3.194   0.568
 1284W        W 4803   8.043   7.138  10.822
 1285W        W 4804   6.206   4.603  10.854
 1286W        W 4805   9.708   8.150  10.230
 1287W        W 4806   3.059   9.109   2.800
 1288W        W 4807   1.425   1.778  11.026
 1289W        W 4808   0.388   3.362  11.291
 1290W        W 4809   9.755   1.253   0.971
 1291W        W 4810   6.897   0.439   1.304
 1292W        W 4811   2.028   5.193   3.188
 1293W        W 4812   2.159   2.287   0.431
 1294W        W 4813   4.342   9.428   8.469
 1295W        W 4814   0.221   1.484   3.332
 1296W        W 4815   1.884   5.199   9.704
 1297W        W 4816   9.981   5.064  10.750
 1298W        W 4817   6.948   2.091   1.039
 1299W        W 4818   2.160   6.534   9.060
 1300W        W 4819   3.910   4.245   2.951
 1301W        W 4820   3.767   2.147   9.034
 1302W        W 4821   0.656   7.178  10.440
 1303W        W 4822   7.459   7.155   0.399
 1304W        W 4823   8.102   3.310   9.905
 1305W        W 4824   0.235   2.919  10.357
 1306W        W 4825   5.257   0.704   2.496
 1307W        W 4826   8.962   0.179   0.939
 1308W        W 4827   3.796   8.522   9.048
 1309W        W 4828   7.160   3.995   1.805
 1310W        W 4829   2.811   1.780   1.936
 1311W        W 4830   8.355   7.090   3.034
 1312W        W 4831   7.357   9.803  10.526
 1313W        W 4832   3.731   0.514   2.795
 1314W        W 4833   9.386   0.604  11.688
 1315W        W 4834   3.162   4.896  11.632
 1316W        W 4835   4.705   3.178   8.058
 1317W        W 4836   3.257   4.185   3.745
 1318W        W 4837   6.971   3.684  10.094
 1319W        W 4838   6.419   8.994   9.921
 1320W        W 4839   0.011   6.482  10.892
 1321W        W 4840   5.102   2.762   9.710
 1322W        W 4841   7.987   8.543   3.569
 1323W        W 4842   6.936   3.282   2.441
 1324W        W 4843   3.848   7.134   3.855
 1325W        W 4844   1.737   9.645  10.463
 1326W        W 4845   6.674   1.687   1.432
 1327W        W 4846   2.167   7.510   8.847
 1328W        W 4847   4.960   9.031   0.409
 1329W        W 4848   9.841   0.400   0.590
 1330W        W 4849   8.895   7.651  11.158
 1331W        W 4850   5.630   9.819  11.507
 1332W        W 4851   5.055   3.028   0.003
 1333W        W 4852   7.580   0.715   3.309
 1334W        W 4853   3.993   3.238   1.880
 1335W        W 4854   7.360   3.078   0.080
 1336W        W 4855   0.740   0.547   9.008
 1337W        W 4856   2.549   1.330   9.350
 1338W        W 4857   9.270   1.453   9.485
 1339W        W 4858   0.832   1.808  11.742
 1340W        W 4859   7.049   9.713   9.731
 1341W        W 4860   0.269   9.908   9.591
 1342W        W 4861   6.080   7.999   9.730
 1343W        W 4862   3.261   8.975  10.744
 1344W        W 4863   1.575   0.784   1.333
 1345W        W 4864   8.556   3.569   2.838
 1346W        W 4865   1.399   7.040   9.032
 1347W        W 4866   0.697   7.525   2.196
 1348W        W 4867   8.482   3.632  11.188
 1349W        W 4868   3.476   5.487  11.715
 1350W        W 4869   2.291   3.208  10.136
 1351W        W 4870   0.847   6.364   1.404
 1352W        W 4871   3.533   5.761   9.793
 1353W        W 4872   8.930   1.346   2.847
 1354W        W 4873   2.651   8.494  11.297
 1355W        W 4874   1.856   9.279   2.428
 1356W        W 4875   4.519   2.368  10.055
 1357W        W 4876   7.921   3.162   2.720
 1358W        W 4877   2.263   3.794  10.936
 1359W        W 4878   1.424   9.284  11.987
 1360W        W 4879   7.347   7.956  11.846
 1361W        W 4880   4.681   1.426   0.183
 1362W        W 4881   7.427   8.438   1.672
 1363W        W 4882   4.055   2.856  10.418
 1364W        W 4883   5.697   4.174   1.587
 1365W        W 4884   3.691   0.376   0.745
 1366W        W 4885   1.723   0.001  10.830
 1367W        W 4886   9.001   7.002   8.898
 1368W        W 4887   0.996   4.113   8.970
 1369W        W 4888   9.421   0.409   0.907
 1370W        W 4889   6.516   8.014   2.532
 1371W        W 4890   2.157   0.374  10.452
 1372W        W 4891   5.229   8.977  11.394
 1373W        W 4892   2.910   3.892   8.424
 1374W        W 4893   1.844   5.419  10.801
 1375W        W 4894   2.275   3.509   1.299
 1376W        W 4895   4.377   4.021   0.643
 1377W        W 4896   4.132   6.049   3.048
 1378W        W 4897   9.097   4.996  11.230
 1379W        W 4898   1.932   7.035   8.993
 1380W        W 4899   6.593   5.480   2.286
 1381W        W 4900   8.557   3.750  11.684
 1382W        W 4901   6.989   1.886  10.610
 1383W        W 4902   5.808   2.628  11.331
 1384W        W 4903   7.437   8.179   2.934
 1385W        W 4904   6.257   6.117  10.300
 1386W        W 4905   6.494   5.743  11.041
 1387W        W 4906   3.066   2.155  11.431
 1388W        W 4907   4.324   7.589   3.217
 1389W        W 4908   7.690   4.648   0.808
 1390W        W 4909   6.711   4.214   1.700
 1391W        W 4910   4.023   2.277   1.832
 1392W        W 4911   4.771   9.565   2.489
 1393W        W 4912   0.965   1.227  10.395
 1394W        W 4913   4.470   7.428   1.910
 1395W        W 4914   4.932   7.976   3.941
 1396W        W 4915   9.379   9.703  11.775
 1397W        W 4916   4.683   2.310   0.608
 1398W        W 4917   5.348   3.432   1.829
 1399W        W 4918   1.210   0.983   0.476
 1400W        W 4919   8.259   5.592   2.555
 1401W        W 4920   0.015   0.193   1.730
 1402W        W 4921   3.580   6.920   2.496
 1403W        W 4922   1.332   4.617   0.323
 1404W        W 4923   2.962   4.652  10.528
 1405W        W 4924   8.705   7.243  11.411
 1406W        W 4925   0.736   2.109  11.112
 1407W        W 4926   1.059   3.126   3.162
 1408W        W 4927   1.039   8.408   9.350
 1409W        W 4928   1.871   7.074   2.333
 1410W        W 4929   4.598   4.165   9.095
 1411W        W 4930   6.091   7.113   0.881
 1412W        W 4931   9.250   5.252   2.768
 1413W        W 4932   4.175   6.372   9.505
 1414W        W 4933   2.472   1.690   1.131
 1415W        W 4934   4.290   3.762   9.619
 1416W        W 4935   5.896   9.468   2.996
 1417W        W 4936   8.459   6.571   1.362
 1418W        W 4937   1.408   7.102   9.888
 1419W        W 4938   3.100   9.517  10.018
 1420W        W 4939   4.161   0.391   9.206
 1421W        W 4940   3.300   1.126   1.309
 1422W        W 4941   3.132   6.542   9.391
 1423W        W 4942   8.911   4.653   9.796
 1424W        W 4943   2.209   0.141   0.434
 1425W        W 4944   3.247   1.767   2.690
 1426W        W 4945   0.346   4.003  11.874
 1427W        W 4946   5.427   5.718  10.264
 1428W        W 4947   8.864   7.958   0.224
 1429W        W 4948   2.592   9.982   1.358
 1430W        W 4949   5.544   4.049   3.396
 1431W        W 4950   3.539   0.877   0.843
 1432W        W 4951   0.063   3.240   3.146
 1433W        W 4952   5.505   1.211  10.664
 1434W        W 4953   7.790   7.420   1.285
 1435W        W 4954   4.719   3.972   1.566
 1436W        W 4955   4.057   8.086   9.933
 1437W        W 4956   8.572   5.369   0.669
 1438W        W 4957   5.053   4.653  10.669
 1439W        W 4958   9.748   8.619   2.846
 1440W        W 4959   9.029   5.493  11.363
 1441W        W 4960   9.993   3.063  11.982
 1442W        W 4961   2.270   1.271   1.464
 1443W        W 4962   6.954   6.840  10.170
 1444W        W 4963   7.640   8.880   1.881
 1445W        W 4964   2.047   1.267   0.402
 1446W        W 4965   1.706   2.720   3.100
 1447W        W 4966   5.956   0.480   8.946
 1448W        W 4967   7.895   0.807   1.242
 1449W        W 4968   1.893   5.703   0.507
 1450W        W 4969   1.760   9.854   8.781
 1451W        W 4970   2.280   2.130   1.309
 1452W        W 4971   4.874   2.797   8.846
 1453W        W 4972   2.174   1.700   9.875
 1454W        W 4973   9.423   3.186   2.954
 1455W        W 4974   2.665   9.506   9.760
 1456W        W 4975   6.916   5.928   2.385
 1457W        W 4976   6.377   6.742  11.006
 1458W        W 4977   8.334   2.872   9.997
 1459W        W 4978   0.198   9.159   1.126
 1460W        W 4979   8.220   9.377   9.093
 1461W        W 4980   3.647   1.600   2.421
 1462W        W 4981   3.733   8.970   9.804
 1463W        W 4982   1.984   8.570   3.567
 1464W        W 4983   3.955   9.220   3.617
 1465W        W 4984   6.031   5.971   2.592
 1466W        W 4985   7.438   6.074   2.454
 1467W        W 4986   5.684   7.032   9.795
 1468W        W 4987   1.736   1.823  10.118
 1469W        W 4988   9.794   9.825   2.035
 1470W        W 4989   7.809   1.616  11.929
 1471W        W 4990   8.521   5.537   1.166
 1472W        W 4991   4.902   2.670   0.323
 1473W        W 4992   2.494   1.908   8.839
 1474W        W 4993   6.205   5.944   0.426
 1475W        W 4994   8.407   3.174   9.010
 1476W        W 4995   6.144   5.463   0.275
 1477W        W 4996   9.482   3.711   3.168
 1478W        W 4997   3.076   1.113   0.840
 1479W        W 4998   8.507   8.370   1.909
 1480W        W 4999   8.424   0.057   9.691
 1481W        W 5000   9.421   1.383  11.242
 1482W        W 5001   6.887   0.183   9.561
 1483W        W 5002   7.017   4.825   3.612
 1484W        W 5003   1.399   1.505   1.065
 1485W        W 5004   8.501   0.303  11.660
 1486W        W 5005   2.291   5.985  10.064
 1487W        W 5006   5.794   7.288  10.646
 1488W        W 5007   2.715   8.901   0.543
 1489W        W 5008   6.662   4.139   0.356
 1490W        W 5009   3.723   4.622   1.666
 1491W        W 5010   6.912   3.415   3.647
 1492W        W 5011   3.228   4.163   9.561
 1493W        W 5012   0.891   9.345   2.406
 1494W        W 5013   7.354   6.542   2.064
 1495W        W 5014   9.289   3.193   9.288
 1496W        W 5015   7.147   6.062   3.750
 1497W        W 5016   2.209   4.981  11.543
 1498W        W 5017   6.497   4.886  11.231
 1499W        W 5018   9.483   9.011   0.580
 1500W        W 5019   5.042   6.684   8.624
 1501W        W 5020   1.227   2.854   0.659
 1502W        W 5021   7.094   2.483   1.349
 1503W        W 5022   1.150   7.463   3.013
 1504W        W 5023   8.102   3.842   0.898
 1505W        W 5024   7.551   0.794  10.826
 1506W        W 5025   8.465   9.859   3.010
 1507W        W 5026   7.779   4.723   2.394
 1508W        W 5027   9.403   0.449  10.659
 1509W        W 5028   9.920   3.114   2.142
 1510W        W 5029   8.565   2.267  10.490
 1511W        W 5030   3.033   5.030   3.244
 1512W        W 5031   4.842   6.051   1.434
 1513W        W 5032   4.023   3.908   1.314
 1514W        W 5033   3.626   3.758   8.447
 1515W        W 5034   3.644   0.075   1.518
 1516W        W 5035   8.432   7.082  10.023
 1517W        W 5036   5.112   5.278   1.878
 1518W        W 5037   3.365   0.895   1.770
 1519W        W 5038   9.489   2.468   1.749
 1520W        W 5039   8.338   6.649   8.992
 1521W        W 5040   8.968   3.100   2.679
 1522W        W 5041   1.777   6.345   2.834
 1523W        W 5042   5.004   0.673  10.970
 1524W        W 5043   8.969   7.094   0.802
 1525W        W 5044   4.015   4.331   0.456
 1526W        W 5045   1.522   6.926   3.630
 1527W        W 5046   9.182   6.072   1.886
 1528W        W 5047   1.332   6.696   0.358
 1529W        W 5048   7.483   0.912   0.901
 1530W        W 5049   9.848   3.170   2.681
 1531W        W 5050   4.005   3.242  10.923
 1532W        W 5051   5.480   2.291   9.891
 1533W        W 5052   8.119   8.397   9.445
 1534W        W 5053   7.639   2.321   2.222
 1535W        W 5054   7.589   1.091   8.450
 1536W        W 5055   6.107   6.724   9.623
 1537W        W 5056   7.425   8.532   9.824
 1538W        W 5057   9.243   4.477  11.125
 1539W        W 5058   3.319   7.946   0.901
 1540W        W 5059   4.233   2.560   3.124
 1541W        W 5060   0.209   1.821  10.288
 1542W        W 5061   9.167   3.133   0.803
 1543W        W 5062   3.451   1.215  10.455
 1544W        W 5063   5.926   2.712  10.338
 1545W        W 5064   4.304   4.452   8.512
 1546W        W 5065   7.377   9.538   0.271
 1547W        W 5066   5.006   6.585  10.607
 1548W        W 5067   7.861   6.313   3.261
 1549W        W 5068   1.697   5.741   9.020
 1550W        W 5069   6.392   1.364  11.498
 1551W        W 5070   0.007   5.859   0.218
 1552W        W 5071   1.847   9.225   9.581
 1553W        W 5072   5.479   8.492  11.289
 1554W        W 5073   1.855   4.698  11.322
 1555W        W 5074   4.711   1.430   0.692
 1556W        W 5075   9.581   7.469   3.376
 1557W        W 5076   5.540   2.238   1.568
 1558W        W 5077   6.922   5.492   8.404
 1559W        W 5078   9.639   6.439   8.573
 1560W        W 5079   1.361   8.457   0.080
 1561W        W 5080   6.469   7.799   9.469
 1562W        W 5081   8.491   6.935   1.011
 1563W        W 5082   9.448   4.207   2.825
 1564W        W 5083   5.115   6.425  11.088
 1565W        W 5084   5.840   1.896   1.290
 1566W        W 5085   4.596   3.590   8.386
 1567W        W 5086   8.129   9.419  11.217
 1568W        W 5087   4.141   3.283   9.520
 1569W        W 5088   9.847   1.313  11.480
 1570W        W 5089   0.227   1.040   1.044
 1571W        W 5090   6.365   3.745   0.286
 1572W        W 5091   2.600   1.960  11.559
 1573W        W 5092   7.667   2.127  11.745
 1574W        W 5093   5.185   7.042   9.978
 1575W        W 5094   3.776   1.777   0.915
 1576W        W 5095   4.189   3.166  10.011
 1577W        W 5096   0.291   3.731  10.943
 1578W        W 5097   8.563   6.623   0.092
 1579W        W 5098   1.263   1.607  11.907
 1580W        W 5099   9.407   3.165   2.426
 1581W        W 5100   2.896   0.158  11.079
 1582W        W 5101   7.524   1.175   0.001
 1583W        W 5102   2.915   4.316   0.848
 1584W        W 5103   0.883   0.066   8.891
 1585W        W 5104   7.065   5.508   1.656
 1586W        W 5105   8.852   6.945   3.275
 1587W        W 5106   8.097   0.089  10.898
 1588W        W 5107   7.272   4.612  10.183
 1589W        W 5108   4.724   3.751   9.373
 1590W        W 5109   6.675   5.166   8.939
 1591W        W 5110   5.460   7.612   1.858
 1592W        W 5111   5.735   6.089  10.413
 1593W        W 5112   7.828   6.659  10.883
 1594W        W 5113   7.460   1.875   1.968
 1595W        W 5114   9.107   3.055   9.900
 1596W        W 5115   1.070   5.751   2.206
 1597W        W 5116   2.119   2.593   1.389
 1598W        W 5117   8.748   4.317   0.501
 1599W        W 5118   8.061   2.804   8.878
 1600W        W 5119   3.587   3.654   0.700
 1601W        W 5120   3.418   0.300  11.055
 1602W        W 5121   9.721   8.588   8.568
 1603W        W 5122   0.219   0.020   0.830
 1604W        W 5123   7.025   9.022  10.482
 1605W        W 5124   5.028   4.126   3.319
 1606W        W 5125   7.110   5.988  11.479
 1607W        W 5126   3.291   0.750  11.371
 1608W        W 5127   5.209   0.073  11.361
 1609W        W 5128   3.809   8.284  10.522
 1610W        W 5129   1.777   3.109   9.398
 1611W        W 5130   9.839   8.029  10.725
 1612W        W 5131   7.374   7.508   9.982
 1613W        W 5132   4.964   5.294   1.369
 1614W        W 5133   7.579   5.595  10.251
 1615W        W 5134   4.969   7.515  11.649
 1616W        W 5135   5.172   0.730  11.923
 1617W        W 5136   8.964   3.191   8.674
 1618W        W 5137   3.086   7.881  11.529
 1619W        W 5138   4.027   2.223  10.772
 1620W        W 5139   9.352   9.963   0.678
 1621W        W 5140   9.521   6.495   2.757
 1622W        W 5141   2.296   0.170   1.912
 1623W        W 5142   8.689   1.819  11.704
 1624W        W 5143   3.856   3.615   8.013
 1625W        W 5144   8.476   0.322   0.769
 1626W        W 5145   6.638   3.243  10.445
 1627W        W 5146   7.841   6.103  10.901
 1628W        W 5147   3.188   2.889   0.301
 1629W        W 5148   2.755   6.411  11.040
 1630W        W 5149   3.648   0.964   3.046
 1631W        W 5150   7.777   8.458  11.264
 1632W        W 5151   3.730   8.801  10.546
 1633W        W 5152   9.846   0.001  11.772
 1634W        W 5153   4.664   3.257  10.160
 1635W        W 5154   1.023   9.721   0.499
 1636W        W 5155   6.644   7.492   3.299
 1637W        W 5156   1.072   2.845  10.758
 1638W        W 5157   5.428   2.759   0.309
 1639W        W 5158   3.181   8.296  10.132
 1640W        W 5159   3.596   4.236  11.258
 1641W        W 5160   0.665   4.928   0.980
 1642W        W 5161   3.578   5.902   9.207
 1643W        W 5162   4.194   0.055   1.924
 1644W        W 5163   1.844   5.871   2.694
 1645W        W 5164   0.442   9.283   8.762
 1646W        W 5165   4.157   2.238   2.718
 1647W        W 5166   3.674   6.348  10.450
 1648W        W 5167   3.813   6.123  10.020
 1649W        W 5168   2.065   1.489   0.882
 1650W        W 5169   9.669   1.019   1.438
 1651W        W 5170   4.658   7.214   3.204
 1652W        W 5171   2.690   9.005   9.618
 1653W        W 5172   6.777   9.960   1.361
 1654W        W 5173   5.135   5.032   3.384
 1655W        W 5174   3.355   1.119   0.354
 1656W        W 5175   4.302   9.091  11.277
 1657W        W 5176   3.794   9.188   1.155
 1658W        W 5177   0.450   4.135   9.563
 1659W        W 5178   1.954   2.674   2.199
 1660W        W 5179   2.330   8.799   8.764
 1661W        W 5180   1.285   7.603   9.975
 1662W        W 5181   0.008   8.079   2.241
 1663W        W 5182   8.081   5.512   0.819
 1664W        W 5183   0.908   0.860  10.000
 1665W        W 5184   1.324   4.913  11.925
 1666W        W 5185   4.245   8.608   0.719
 1667W        W 5186   5.205   5.948   0.442
 1668W        W 5187   2.587   6.408  10.047
 1669W        W 5188   0.799   7.183   9.498
 1670W        W 5189   7.992   6.862   2.157
 1671W        W 5190   0.002   2.151   9.388
 1672W        W 5191   1.694   9.984   9.300
 1673W        W 5192   8.875   0.902   2.579
 1674W        W 5193   4.522   5.075   1.778
 1675W        W 5194   7.464   9.418   0.857
 1676W        W 5195   5.528   3.869  11.823
 1677W        W 5196   6.429   5.965   2.263
 1678W        W 5197   7.453   0.329   0.075
 1679W        W 5198   6.466   0.482   9.354
 1680W        W 5199   0.572   9.048  10.009
 1681W        W 5200   7.977   0.192   2.646
 1682W        W 5201   2.768   5.485   3.178
 1683W        W 5202   7.275   1.794   2.840
 1684W        W 5203   6.066   4.588   3.138
 1685W        W 5204   0.872   2.502   9.834
 1686W        W 5205   2.905   9.595   1.420
 1687W        W 5206   5.090   4.964   0.055
 1688W        W 5207   9.329   0.125   3.511
 1689W        W 5208   5.590   2.639   9.518
 1690W        W 5209   7.460   8.844  11.032
 1691W        W 5210   6.121   4.846   4.077
 1692W        W 5211   6.910   8.196  11.798
 1693W        W 5212   6.132   7.633  10.849
 1694W        W 5213   6.377   6.909   8.702
 1695W        W 5214   3.533   7.592   0.565
 1696W        W 5215   7.980   9.516   1.618
 1697W        W 5216   7.191   6.144  10.096
 1698W        W 5217   0.805   3.978   2.948
 1699W        W 5218   4.606   6.599   2.432
 1700W        W 5219   6.690   0.538  10.464
 1701W        W 5220   8.583   9.064   9.848
 1702W        W 5221   4.246   8.776   2.914
 1703W        W 5222   7.874   8.848   0.450
 1704W        W 5223   3.363   9.197   3.233
 1705W        W 5224   9.835   6.671  10.452
 1706W        W 5225   8.662   3.128  11.842
 1707W        W 5226   2.120   1.487   1.963
 1708W        W 5227   7.176   7.062  11.467
 1709W        W 5228   0.001   7.078   3.280
 1710W        W 5229   3.331   6.463   8.440
 1711W        W 5230   0.733   8.007  10.987
 1712W        W 5231   1.218   3.160  11.178
 1713W        W 5232   1.578   1.210   8.778
 1714W        W 5233   9.747   7.558   8.948
 1715W        W 5234   5.917   9.523  11.809
 1716W        W 5235   4.042   7.186  10.626
 1717W        W 5236   3.297   0.408  10.119
 1718W        W 5237   0.869   8.519   1.254
 1719W        W 5238   8.069   0.257  10.011
 1720W        W 5239   9.472   9.195   3.446
 1721W        W 5240   4.973   8.507  11.355
 1722W        W 5241   2.663   8.315  10.370
 1723W        W 5242   5.995   9.300   1.266
 1724W        W 5243   8.202   7.486   2.710
 1725W        W 5244   0.872   4.093   1.168
 1726W        W 5245   2.079   0.802   1.314
 1727W        W 5246   9.827   8.315   3.249
 1728W        W 5247   5.122   8.024   9.567
 1729W        W 5248   8.388   1.707   0.570
 1730W        W 5249   0.478   5.708   0.338
 1731W        W 5250   0.299   7.994   0.760
 1732W        W 5251   6.289   5.895   1.180
 1733W        W 5252   8.710   8.859  10.742
 1734W        W 5253   4.328   9.757   0.624
 1735W        W 5254   5.340   7.492  10.710
 1736W        W 5255   6.552   0.220   2.122
 1737W        W 5256   3.845   5.108  10.919
 1738W        W 5257   1.758   2.642   9.080
 1739W        W 5258   7.589   0.380  10.120
 1740W        W 5259   1.655   8.013  10.492
 1741W        W 5260   4.678   6.077   4.207
 1742W        W 5261   2.143   2.534  11.538
 1743W        W 5262   0.170   7.475   3.539
 1744W        W 5263   1.373   5.305   0.252
 1745W        W 5264   7.085   7.835   3.270
 1746W        W 5265   2.310   7.414  11.565
 1747W        W 5266   5.879   9.500   8.676
 1748W        W 5267   8.647   3.290   9.986
 1749W        W 5268   4.537   7.896  10.005
 1750W        W 5269   4.602   9.495   1.334
 1751W        W 5270   3.010   1.819   9.929
 1752W        W 5271   6.346   5.108   1.538
 1753W        W 5272   4.374   5.090  10.853
 1754W        W 5273   3.427   6.836   0.782
 1755W        W 5274   9.584   1.784  11.527
 1756W        W 5275   4.958   5.511   8.321
 1757W        W 5276   3.146   6.014   1.060
 1758W        W 5277   5.094   0.116   1.715
 1759W        W 5278   1.395   0.189   2.059
 1760W        W 5279   9.093   6.696   2.550
 1761W        W 5280   7.192   0.768   2.147
 1762W        W 5281   7.702   4.557   9.492
 1763W        W 5282   3.777   4.437  10.304
 1764W        W 5283   8.433   2.586   0.449
 1765W        W 5284   1.236   3.323   2.182
 1766W        W 5285   2.782   8.880   1.961
 1767W        W 5286   1.384   9.405  10.897
 1768W        W 5287   3.291   3.174   2.904
 1769W        W 5288   2.783   5.517   8.938
 1770W        W 5289   8.350   4.535   8.281
 1771W        W 5290   1.324   6.148   2.030
 1772W        W 5291   1.993   0.471   9.488
 1773W        W 5292   1.877   9.282  10.770
 1774W        W 5293   9.986   6.497   1.435
 1775W        W 5294   9.124   6.553   3.082
 1776W        W 5295   8.816   3.139  11.343
 1777W        W 5296   5.754   4.231   3.833
 1778W        W 5297   7.271   9.008   8.758
 1779W        W 5298   0.466   5.685   2.724
 1780W        W 5299   7.673   9.899   1.788
 1781W        W 5300   0.683   5.184   2.020
 1782W        W 5301   6.492   9.814   2.934
 1783W        W 5302   7.078   1.425   1.281
 1784W        W 5303   6.899   0.062  10.532
 1785W        W 5304   1.139   3.323  10.659
 1786W        W 5305   5.453   8.953   1.918
 1787W        W 5306   1.373   4.032   1.367
 1788W        W 5307   5.125   1.740   2.377
 1789W        W 5308   7.939   9.822   3.214
 1790W        W 5309   3.205   0.856   9.891
 1791W        W 5310   6.105   0.252   0.717
 1792W        W 5311   9.881   2.789   1.723
 1793W        W 5312   5.877   6.426   3.306
 1794W        W 5313   6.343   9.028   0.183
 1795W        W 5314   4.183   8.058   8.535
 1796W        W 5315   3.153   6.043   9.525
 1797W        W 5316   8.022   1.409   0.360
 1798W        W 5317   7.543   9.870   9.497
 1799W        W 5318   1.675   7.477   0.713
 1800W        W 5319   6.041   3.750  11.863
 1801W        W 5320   5.653   0.634   3.581
 1802W        W 5321   4.636   1.356   9.924
 1803W        W 5322   2.887   1.710  11.180
 1804W        W 5323   8.005   6.993   2.646
 1805W        W 5324   3.072   5.590   9.751
 1806W        W 5325   2.788   3.077   0.584
 1807W        W 5326   3.999   1.819   9.979
 1808W        W 5327   2.733   9.369   8.153
 1809W        W 5328   5.209   6.167   8.592
 1810W        W 5329   8.036   8.881  10.375
 1811W        W 5330   1.345   4.089  10.955
 1812W        W 5331   5.094   4.550   3.602
 1813W        W 5332   8.180   4.316   3.589
 1814W        W 5333   5.629   6.178   8.216
 1815W        W 5334   8.614   0.813  11.627
 1816W        W 5335   1.301   6.512   2.899
 1817W        W 5336   3.561   5.300  10.496
 1818W        W 5337   6.648   8.112   0.541
 1819W        W 5338   6.560   6.463   8.493
 1820W        W 5339   4.471   9.292  10.822
 1821W        W 5340   9.998   9.025   8.594
 1822W        W 5341   8.852   7.372   1.869
 1823W        W 5342   8.449   4.746   9.581
 1824W        W 5343   8.843   5.796  10.984
 1825W        W 5344   3.711   5.537   2.736
 1826W        W 5345   1.239   2.236  11.109
 1827W        W 5346   6.460   2.144   9.245
 1828W        W 5347   0.989   1.755   1.256
 1829W        W 5348   1.440   4.977  11.436
 1830W        W 5349   2.796   3.161   2.489
 1831W        W 5350   0.013   3.880   1.137
 1832W        W 5351   3.390   0.272   1.126
 1833W        W 5352   3.834   1.177   1.245
 1834W        W 5353   9.085   3.760   8.758
 1835W        W 5354   3.760   7.032   1.323
 1836W        W 5355   0.448   1.873   9.379
 1837W        W 5356   4.623   8.630   0.358
 1838W        W 5357   4.682   6.915   9.972
 1839W        W 5358   3.704   0.768  11.787
 1840W        W 5359   0.191   8.031   0.255
 1841W        W 5360   3.979   0.337   2.292
 1842W        W 5361   7.569   9.887   2.709
 1843W        W 5362   4.983   6.077   0.935
 1844W        W 5363   4.771   8.384  10.907
 1845W        W 5364   6.118   1.355  10.797
 1846W        W 5365   6.016   2.333   3.163
 1847W        W 5366   5.987   4.081   8.645
 1848W        W 5367   0.699   3.605  10.632
 1849W        W 5368   4.718   6.927   2.788
 1850W        W 5369   7.575   4.876   9.875
 1851W        W 5370   5.065   6.070  10.312
 1852W        W 5371   7.311   1.166  10.493
 1853W        W 5372   9.918   7.111   1.945
 1854W        W 5373   2.558   5.983  11.682
 1855W        W 5374   6.336   7.871   3.488
 1856W        W 5375   8.597   3.552   8.669
 1857W        W 5376   2.650   4.076   0.419
 1858W        W 5377   8.234   1.470  10.454
 1859W        W 5378   8.884   5.471   9.464
 1860W        W 5379   1.200   3.736   0.486
 1861W        W 5380   8.322   5.189   2.952
 1862W        W 5381   2.702   4.075   8.858
 1863W        W 5382   0.585   0.216   0.049
 1864W        W 5383   6.901   2.868   8.872
 1865W        W 5384   1.283   5.479   9.082
 1866W        W 5385   3.722   4.266   2.482
 1867W        W 5386   9.996   1.975  10.732
 1868W        W 5387   6.042   6.495   8.625
 1869W        W 5388   5.659   8.504   0.659
 1870W        W 5389   9.683   3.270   1.689
 1871W        W 5390   4.036   9.567   1.928
 1872W        W 5391   9.356   5.689  11.017
 1873W        W 5392   2.655   8.600   0.992
 1874W        W 5393   2.420   0.353   9.217
 1875W        W 5394   8.487   6.033   2.457
 1876W        W 5395   6.853   2.064   2.778
 1877W        W 5396   0.683   3.558   0.739
 1878W        W 5397   9.031   5.332  10.820
 1879W        W 5398   5.795   5.139  10.191
 1880W        W 5399   8.895   0.204   0.426
 1881W        W 5400   2.716   3.410   1.039
 1882W        W 5401   1.965   2.610  10.717
 1883W        W 5402   7.480   1.312   9.983
 1884W        W 5403   9.560   3.738   3.682
 1885W        W 5404   6.755   5.581   2.768
 1886W        W 5405   3.242   8.987   0.930
 1887W        W 5406   7.304   5.490  11.319
 1888W        W 5407   3.770   2.496   9.456
 1889W        W 5408   9.870   9.350  11.096
 1890W        W 5409   0.021   3.587  11.857
 1891W        W 5410   6.330   9.702   1.342
 1892W        W 5411   4.698   1.440  10.547
 1893W        W 5412   5.541   4.692   2.968
 1894W        W 5413   1.812   7.790   2.593
 1895W        W 5414   2.388   4.615   2.410
 1896W        W 5415   0.940   6.578  11.018
 1897W        W 5416   9.960   5.242  11.220
 1898W        W 5417   2.225   9.682   9.988
 1899W        W 5418   3.777   2.644   1.038
 1900W        W 5419   2.323   7.038   0.690
 1901W        W 5420   8.537   6.226   0.423
 1902W        W 5421   3.918   6.690   0.890
 1903W        W 5422   0.482   4.114   9.055
 1904W        W 5423   4.245   8.851  10.675
 1905W        W 5424   3.199   0.704   3.243
 1906W        W 5425   0.360   2.082   1.327
 1907W        W 5426   9.441   9.339  10.809
 1908W        W 5427   8.079   1.975   2.206
 1909W        W 5428   6.480   9.331   1.028
 1910W        W 5429   8.504   6.809  11.585
 1911W        W 5430   2.366   8.467   0.445
 1912W        W 5431   6.834   9.762   9.271
 1913W        W 5432   7.434   2.028  10.361
 1914W        W 5433   2.608   7.008  11.281
 1915W        W 5434   4.612   4.689   9.822
 1916W        W 5435   4.623   1.308   2.962
 1917W        W 5436   0.221   0.434   9.078
 1918W        W 5437   9.462   5.888  11.476
 1919W        W 5438   1.360   9.224   1.676
 1920W        W 5439   3.628   9.219  10.256
 1921W        W 5440   4.718   9.486   0.823
 1922W        W 5441   8.544   8.113  11.511
 1923W        W 5442   0.159   3.721   9.786
 1924W        W 5443   8.528   8.549   9.738
 1925W        W 5444   8.765   5.615  11.801
 1926W        W 5445   8.953   2.649   2.004
 1927W        W 5446   4.135   7.612   9.190
 1928W        W 5447   8.456   8.029  10.532
 1929W        W 5448   7.876   5.925   1.630
 1930W        W 5449   3.192   4.244   9.042
 1931W        W 5450   8.176   6.612   8.507
 1932W        W 5451   2.703   5.269   1.164
 1933W        W 5452   5.408   9.773   1.975
 1934W        W 5453   8.036   0.628   2.389
 1935W        W 5454   0.264   6.025   8.709
 1936W        W 5455   4.676   8.495   1.461
 1937W        W 5456   8.581   8.441   9.235
 1938W        W 5457   1.563   6.685   8.689
 1939W        W 5458   2.327   3.279   0.739
 1940W        W 5459   6.668   4.552  11.972
 1941W        W 5460   0.802   2.310   2.527
 1942W        W 5461   4.990   0.970   9.035
 1943W        W 5462   4.717   2.793   3.284
 1944W        W 5463   8.021   7.732   3.136
 1945W        W 5464   8.457   4.133   1.348
 1946W        W 5465   9.973   6.842   0.539
 1947W        W 5466   1.308   6.325   9.514
 1948W        W 5467   6.427   1.020   0.851
 1949W        W 5468   1.632   7.496   2.221
 1950W        W 5469   4.264   3.578   2.225
 1951W        W 5470   1.205   8.526   9.994
 1952W        W 5471   4.783   1.979   9.446
 1953W        W 5472   5.703   9.703  10.076
 1954W        W 5473   1.897   3.957   9.774
 1955W        W 5474   9.155   6.183  11.027
 1956W        W 5475   5.992   4.440   0.398
 1957W        W 5476   8.810   7.718   1.471
 1958W        W 5477   7.378   0.823   9.863
 1959W        W 5478   0.049   9.671   0.452
 1960W        W 5479   5.174   6.574   2.342
 1961W        W 5480   7.123   1.074   1.714
 1962W        W 5481   1.367   7.117   8.495
 1963W        W 5482   4.730   7.964   1.326
 1964W        W 5483   0.642   3.889  11.399
 1965W        W 5484   0.451   2.369  11.447
 1966W        W 5485   5.877   9.394  10.830
 1967W        W 5486   5.574   1.880   0.857
 1968W        W 5487   7.361   7.699   2.789
 1969W        W 5488   4.309   3.062   2.255
 1970W        W 5489   8.877   9.245   0.949
 1971W        W 5490   0.977   5.799   2.732
 1972W        W 5491   1.635   4.988   2.510
 1973W        W 5492   5.060   2.555   4.295
 1974W        W 5493   4.687   6.982   1.196
 1975W        W 5494   2.134   3.539  11.407
 1976W        W 5495   8.352   3.851   3.305
 1977W        W 5496   6.480   8.832   3.622
 1978W        W 5497   1.392   8.058   2.784
 1979W        W 5498   3.584   4.111   8.082
 1980W        W 5499   6.348   5.636   3.704
 1981W        W 5500   8.382   4.553   0.239
 1982W        W 5501   9.996   9.812  10.272
 1983W        W 5502   5.226   3.542   0.781
 1984W        W 5503   5.617   7.914   2.325
 1985W        W 5504   5.787   7.385   0.025
 1986W        W 5505   2.654   8.587   2.918
 1987W        W 5506   2.893   1.831   3.606
 1988W        W 5507   4.480   2.330  10.567
 1989W        W 5508   5.319   9.466   3.044
 1990W        W 5509   6.877   8.968   1.586
 1991W        W 5510   8.490   7.080  10.567
 1992W        W 5511   0.063   4.048   1.647
 1993W        W 5512   9.785   0.978   3.370
 1994W        W 5513   5.051   9.197   2.690
 1995W        W 5514   1.122   8.484  10.524
 1996W        W 5515   9.632   2.377   3.556
 1997W        W 5516   0.875   0.644   0.265
 1998W        W 5517   1.612   9.083   1.235
 1999W        W 5518   5.466   7.152   3.613
 2000W        W 5519   7.509   1.085   1.397
 2001W        W 5520   6.217   0.744   0.023
 2002W        W 5521   7.881   0.412  10.535
 2003W        W 5522   0.503   1.593   1.383
 2004W        W 5523   5.534   5.040  11.301
 2005W        W 5524   2.356   4.379   0.813
 2006W        W 5525   7.627   7.618  10.425
 2007W        W 5526   4.793   9.957   0.573
 2008W        W 5527   7.350   2.153   9.022
 2009W        W 5528   7.279   5.651   4.038
 2010W        W 5529   1.255   2.222   1.297
 2011W        W 5530   4.115   5.236   3.399
 2012W        W 5531   3.463   5.801   7.916
 2013W        W 5532   1.033   7.059   3.547
 2014W        W 5533   0.365   3.490   3.546
 2015W        W 5534   8.931   7.852  11.717
 2016W        W 5535   5.490   4.249  11.466
 2017W        W 5536   2.606   7.958  10.749
 2018W        W 5537   5.584   1.135   3.618
 2019W        W 5538   4.219   4.653   1.802
 2020W        W 5539   4.963   6.813   3.226
 2021W        W 5540   9.409   7.959  11.026
 2022W        W 5541   9.320   8.966  11.181
 2023W        W 5542   5.992   8.823   0.474
 2024W        W 5543   0.363   7.598   0.441
 2025W        W 5544   8.177   2.961   9.524
 2026W        W 5545   6.163   7.925   0.610
 2027W        W 5546   2.776   7.502  11.293
 2028W        W 5547   0.355   2.709   1.898
 2029W        W 5548   6.862   6.284  11.857
 2030W        W 5549   6.888   7.355   9.060
 2031W        W 5550   2.745   9.773   8.970
 2032W        W 5551   6.779   3.521   8.524
 2033W        W 5552   1.757   8.811   9.308
 2034W        W 5553   5.649   3.797   9.890
 2035W        W 5554   5.948   7.517   1.817
 2036W        W 5555   6.257   4.085   3.923
 2037W        W 5556   6.637   7.335   9.499
 2038W        W 5557   2.247   2.794   0.474
 2039W        W 5558   7.983   2.282   9.055
 2040W        W 5559   9.117   8.115   1.682
 2041W        W 5560   0.849   5.215  11.531
 2042W        W 5561   4.963   0.567   2.987
 2043W        W 5562   6.092   7.402   0.444
 2044W        W 5563   6.327   0.842  11.531
 2045W        W 5564   3.048   6.490   0.901
 2046W        W 5565   9.978   2.084   2.152
 2047W        W 5566   8.720   3.855   9.418
 2048W        W 5567   0.861   7.109  11.838
 2049W        W 5568   2.494   3.546   2.305
 2050W        W 5569   0.862   6.991   9.028
 2051W        W 5570   1.356   7.386   9.436
 2052W        W 5571   2.963   7.043   9.248
 2053W        W 5572   2.831   3.834   9.727
 2054W        W 5573   7.214   3.284   3.260
 2055W        W 5574   5.220   7.067  11.463
 2056W        W 5575   7.180   8.664   0.701
 2057W        W 5576   6.590   3.826   2.920
 2058W        W 5577   9.987   9.531   8.825
 2059W        W 5578   0.281   7.220   2.816
 2060W        W 5579   9.740   7.721   2.531
 2061W        W 5580   2.742   3.650   1.874
 2062W        W 5581   9.268   1.817   0.528
 2063W        W 5582   9.356   2.087  10.665
 2064W        W 5583   0.169   6.643   2.095
 2065W        W 5584   3.305   4.236   8.536
 2066W        W 5585   2.879   5.958  11.295
 2067W        W 5586   8.203   5.399   0.320
 2068W        W 5587   4.558   8.532   2.295
 2069W        W 5588   4.223   7.240  11.414
 2070W        W 5589   9.681   9.095   2.994
 2071W        W 5590   5.094   8.309   1.235
 2072W        W 5591   5.354   5.186   8.699
 2073W        W 5592   1.627   8.227   1.011
 2074W        W 5593   2.716   9.110   1.014
 2075W        W 5594   9.393   5.540   2.382
 2076W        W 5595   1.677   1.505   3.700
 2077W        W 5596   0.931   6.715   3.191
 2078W        W 5597   7.062   0.838   3.114
 2079W        W 5598   0.336   2.726   3.130
 2080W        W 5599   7.933   2.119   0.927
 2081W        W 5600   1.594   7.515   1.205
 2082W        W 5601   9.219   0.406   1.380
 2083W        W 5602   6.237   3.644   3.215
 2084W        W 5603   5.186   4.479   2.073
 2085W        W 5604   5.612   3.122   3.200
 2086W        W 5605   4.894   7.425   0.996
 2087W        W 5606   6.502   9.889   3.489
 2088W        W 5607   5.184   7.283   3.220
 2089W        W 5608   3.306   2.956  11.172
 2090W        W 5609   1.065   5.749   8.696
 2091W        W 5610   0.805   1.178   0.802
 2092W        W 5611   5.444   1.400  11.152
 2093W        W 5612   9.268   7.064   1.226
 2094W        W 5613   3.619   3.467   0.240
 2095W        W 5614   2.652   4.323   1.274
 2096W        W 5615   7.764   8.458   2.657
 2097W        W 5616   9.004   2.227  11.502
 2098W        W 5617   0.768   2.753   3.441
 2099W        W 5618   6.434   7.606   1.779
 2100W        W 5619   8.344   1.330   8.536
 2101W        W 5620   0.648   4.145   1.750
 2102W        W 5621   7.455   4.932  11.376
 2103W        W 5622   8.986   1.338  10.092
 2104W        W 5623   3.256   2.498   1.053
 2105W        W 5624   6.014   8.118  10.728
 2106W        W 5625   0.493   1.400   9.230
 2107W        W 5626   2.796   6.419  10.535
 2108W        W 5627   7.147   7.344   3.506
 2109W        W 5628   7.487   1.843   9.895
 2110W        W 5629   4.948   8.460   1.923
 2111W        W 5630   7.927   8.861   2.342
 2112W        W 5631   4.043   3.134   8.948
 2113W        W 5632   9.562   4.840  11.397
 2114W        W 5633   1.800   2.161  10.951
 2115W        W 5634   0.484   1.254  10.120
 2116W        W 5635   0.118   9.295   3.193
 2117W        W 5636   4.088   4.127  11.992
 2118W        W 5637   7.371   2.730   0.454
 2119W        W 5638   9.416   6.900  10.199
 2120W        W 5639   2.212   6.149   3.007
 2121W        W 5640   5.398   7.097   8.496
 2122W        W 5641   7.163   2.108   0.576
 2123W        W 5642   8.350   3.086   0.439
 2124W        W 5643   3.541   4.088   1.521
 2125W        W 5644   9.901   2.232   1.585
 2126W        W 5645   0.836   2.867   1.766
 2127W        W 5646   5.125   3.831  11.479
 2128W        W 5647   2.448   2.769   2.380
 2129W        W 5648   5.165   8.246   0.732
 2130W        W 5649   2.796   1.339   1.346
 2131W        W 5650   6.417   7.522   0.815
 2132W        W 5651   5.727   5.612  11.988
 2133W        W 5652   8.894   2.207  10.889
 2134W        W 5653   1.652   6.604   9.746
 2135W        W 5654   6.479   3.705  10.525
 2136W        W 5655   0.855   5.375   2.451
 2137W        W 5656   0.805   1.269  11.735
 2138W        W 5657   0.398   5.142   3.133
 2139W        W 5658   9.059   5.667   9.032
 2140W        W 5659   5.712   9.882  10.993
 2141W        W 5660   5.252   4.970   0.527
 2142W        W 5661   4.285   7.818   1.601
 2143W        W 5662   2.076   4.845   2.813
 2144W        W 5663   1.806   6.908   2.838
 2145W        W 5664   8.076   8.691   0.920
 2146W        W 5665   8.355   9.302   8.600
 2147W        W 5666   1.863   5.223  11.265
 2148W        W 5667   5.433   8.453   2.135
 2149W        W 5668   3.398   2.445   8.817
 2150W        W 5669   4.784   8.426   9.092
 2151W        W 5670   1.847   9.625  11.155
 2152W        W 5671   8.970   7.133   2.803
 2153W        W 5672   2.763   3.052  10.439
 2154W        W 5673   6.684   4.260   3.166
 2155W        W 5674   9.144   4.922   3.118
 2156W        W 5675   5.816   6.113   4.133
 2157W        W 5676   8.764   7.877   1.948
 2158W        W 5677   0.860   6.088   0.845
 2159W        W 5678   1.225   2.573  10.335
 2160W        W 5679   7.278   9.844   9.023
 2161W        W 5680   0.296   9.295   1.596
 2162W        W 5681   1.602   8.899  10.906
 2163W        W 5682   3.209   5.647   1.421
 2164W        W 5683   3.338   0.432   9.014
 2165W        W 5684   3.273   9.699   3.103
 2166W        W 5685   7.256   1.533   8.573
 2167W        W 5686   2.312   4.830   9.210
 2168W        W 5687   8.511   4.902   9.031
 2169W        W 5688   0.282   8.853   0.167
 2170W        W 5689   9.863   4.152   9.790
 2171W        W 5690   5.883   1.922   0.459
 2172W        W 5691   3.555   0.145   2.483
 2173W        W 5692   4.186   0.239   0.817
 2174W        W 5693   9.334   9.013   1.072
 2175W        W 5694   3.600   9.538   9.853
 2176W        W 5695   1.014   4.724  11.548
 2177W        W 5696   7.982   6.387   1.269
 2178W        W 5697   1.294   4.270  10.470
 2179W        W 5698   9.270   2.662   0.531
 2180W        W 5699   3.844   1.273   0.737
 2181W        W 5700   2.320   5.405   1.476
 2182W        W 5701   0.518   8.061   2.892
 2183W        W 5702   4.117   1.922   8.469
 2184W        W 5703   9.495   0.587   3.156
 2185W        W 5704   0.910   6.367   9.841
 2186W        W 5705   6.181   9.964  11.873
 2187W        W 5706   6.246   6.616  10.109
 2188W        W 5707   9.286   7.178   0.395
 2189W        W 5708   2.258   9.641   0.380
 2190W        W 5709   6.555   3.328   1.697
 2191W        W 5710   8.204   4.790   0.699
 2192W        W 5711   4.586   7.665   9.490
 2193W        W 5712   7.925   1.361   9.148
 2194W        W 5713   7.108   2.658  11.706
 2195W        W 5714   3.467   6.521   3.180
 2196W        W 5715   7.016   5.153   2.803
 2197W        W 5716   7.132   2.689  11.206
 2198W        W 5717   9.766   9.458   8.370
 2199W        W 5718   8.878   4.564   8.741
 2200W        W 5719   6.225   8.309   1.842
 2201W        W 5720   3.510   7.438   2.658
 2202W        W 5721   6.481   3.206   2.205
 2203W        W 5722   6.544   5.025   0.165
 2204W        W 5723   5.920   5.607  10.383
 2205W        W 5724   9.872   0.752   9.870
 2206W        W 5725   2.182   0.652   0.479
 2207W        W 5726   2.625   8.252  11.758
 2208W        W 5727   1.240   6.848   9.480
 2209W        W 5728   2.633   9.124   1.511
 2210W        W 5729   7.568   4.253  10.460
 2211W        W 5730   8.340   1.004   1.389
 2212W        W 5731   6.302   7.401  11.917
 2213W        W 5732   0.943   2.204   0.052
 2214W        W 5733   2.754   5.063   3.682
 2215W        W 5734   5.097   8.564  10.084
 2216W        W 5735   0.245   7.457   8.851
 2217W        W 5736   7.448   2.345   9.975
 2218W        W 5737   9.236   3.766   1.736
 2219W        W 5738   0.081   1.777   1.685
 2220W        W 5739   2.461   8.005   3.507
 2221W        W 5740   9.903   2.140   1.066
 2222W        W 5741   5.536   8.795  10.047
 2223W        W 5742   5.372   4.200   2.925
 2224W        W 5743   1.173   6.960  11.294
 2225W        W 5744   3.775   5.037   0.383
 2226W        W 5745   3.571   3.075  10.315
 2227W        W 5746   8.379   0.990   9.837
 2228W        W 5747   7.588   6.058   1.203
 2229W        W 5748   2.672   6.501  11.528
 2230W        W 5749   8.936   7.930   9.773
 2231W        W 5750   7.166   9.714   1.715
 2232W        W 5751   4.709   9.726  10.855
 2233W        W 5752   4.844   9.844   9.740
 2234W        W 5753   5.450   6.705   3.257
 2235W        W 5754   9.477   7.364   2.195
 2236W        W 5755   0.019   2.980   0.524
 2237W        W 5756   4.523   6.583  10.815
 2238W        W 5757   5.325   6.154  10.719
 2239W        W 5758   3.045   2.231   3.915
 2240W        W 5759   4.507   5.096   1.260
 2241W        W 5760   1.002   5.593   0.908
 2242W        W 5761   9.419   7.016  11.721
 2243W        W 5762   2.264   0.720  11.564
 2244W        W 5763   6.816   7.717   3.709
 2245W        W 5764   4.488   8.204  11.376
 2246W        W 5765   1.688   3.952  10.243
 2247W        W 5766   3.623   9.342  10.783
 2248W        W 5767   0.958   0.890  10.785
 2249W        W 5768   5.887   9.801   9.578
 2250W        W 5769   9.558   8.878   8.964
 2251W        W 5770   7.616   6.736   9.501
 2252W        W 5771   5.533   8.532   1.131
 2253W        W 5772   7.444   2.789   1.111
 2254W        W 5773   7.358   1.837   0.067
 2255W        W 5774   8.885   3.765   0.495
 2256W        W 5775   3.588   5.068   4.149
 2257W        W 5776   0.523   9.471   9.706
 2258W        W 5777   7.424   9.343  10.796
 2259W        W 5778   8.010   3.588   1.767
 2260W        W 5779   8.077   8.184  10.914
 2261W        W 5780   7.849   9.373  10.401
 2262W        W 5781   2.760   0.973  11.422
 2263W        W 5782   0.413   8.809   8.977
 2264W        W 5783   3.640   3.135   0.658
 2265W        W 5784   1.732   5.112   2.037
 2266W        W 5785   6.682   7.102   0.810
 2267W        W 5786   9.886   8.936   2.010
 2268W        W 5787   0.801   9.722   9.270
 2269W        W 5788   2.016   4.253  11.081
 2270W        W 5789   9.448   0.140  10.267
 2271W        W 5790   4.854   4.856   2.133
 2272W        W 5791   5.949   3.295   3.548
 2273W        W 5792   1.069   3.607   8.931
 2274W        W 5793   8.121   8.045   8.650
 2275W        W 5794   2.208   9.158  11.804
 2276W        W 5795   1.347   8.830   2.040
 2277W        W 5796   1.054   9.042   3.000
 2278W        W 5797   9.859   9.312   0.782
 2279W        W 5798   8.616   1.634  11.203
 2280W        W 5799   8.665   5.233   0.173
 2281W        W 5800   5.816   1.529  10.411
 2282W        W 5801   0.930   9.006  10.473
 2283W        W 5802   7.179   4.616   9.649
 2284W        W 5803   1.405   5.303   9.546
 2285W        W 5804   0.980   1.828  10.758
 2286W        W 5805   4.653   4.830   3.449
 2287W        W 5806   2.705   3.753   2.749
 2288W        W 5807   2.377   6.870  11.767
 2289W        W 5808   8.390   8.465   1.363
 2290W        W 5809   4.258   7.632   2.326
 2291W        W 5810   2.824   2.337  11.884
 2292W        W 5811   0.912   3.134   0.929
 2293W        W 5812   6.051   2.290   8.974
 2294W        W 5813   9.264   5.565  11.831
 2295W        W 5814   1.757   0.782  11.755
 2296W        W 5815   0.961   9.303   0.226
 2297W        W 5816   8.944   2.642   3.463
 2298W        W 5817   6.260   1.315   8.550
 2299W        W 5818   5.743   5.722   3.747
 2300W        W 5819   3.827   4.714   8.377
 2301W        W 5820   8.031   9.178   0.827
 2302W        W 5821   2.330   4.421   0.223
 2303W        W 5822   9.088   8.334   2.592
 2304W        W 5823   4.178   6.257  11.075
 2305W        W 5824   5.552   7.967  11.427
 2306W        W 5825   2.661   7.307  10.236
 2307W        W 5826   6.675   0.499   9.889
 2308W        W 5827   7.769   7.898   9.046
 2309W        W 5828   2.462   8.545   9.552
 2310W        W 5829   1.092   6.035   3.444
 2311W        W 5830   7.903   3.760  10.011
 2312W        W 5831   6.784   8.279  10.383
 2313W        W 5832   3.254   7.039  10.064
 2314W        W 5833   0.223   8.982   0.654
 2315W        W 5834   8.309   3.770   9.698
 2316W        W 5835   8.498   4.338   3.179
 2317W        W 5836   8.529   6.566  10.616
 2318W        W 5837   5.417   7.467   9.690
 2319W        W 5838   8.984   7.962   2.921
 2320W        W 5839   4.182   2.536  11.966
 2321W        W 5840   7.891   9.136  10.855
 2322W        W 5841   1.285   4.077   0.876
 2323W        W 5842   3.324   5.821   3.713
 2324W        W 5843   6.037   8.604  10.919
 2325W        W 5844   6.504   3.042   1.114
 2326W        W 5845   9.015   6.777   8.391
 2327W        W 5846   6.667   3.692  11.040
 2328W        W 5847   9.824   4.023   2.507
 2329W        W 5848   8.480   3.165  10.953
 2330W        W 5849   1.371   7.045   2.161
 2331W        W 5850   3.162   3.711   3.022
 2332W        W 5851   2.349   6.152  10.573
 2333W        W 5852   0.270   7.515   0.950
 2334W        W 5853   7.833   7.011   9.892
 2335W        W 5854   9.887   8.567  10.029
 2336W        W 5855   3.256   6.124  10.038
 2337W        W 5856   5.981   9.001  10.186
 2338W        W 5857   3.802   3.773  11.298
 2339W        W 5858   7.503   5.025   9.390
 2340W        W 5859   0.356   0.242   1.354
 2341W        W 5860   3.245   0.341   8.483
 2342W        W 5861   5.458   5.717   8.441
 2343W        W 5862   7.435   1.409   9.026
 2344W        W 5863   5.601   5.589   8.912
 2345W        W 5864   9.436   7.070   2.604
 2346W        W 5865   9.962   3.562   2.387
 2347W        W 5866   7.109   6.895   1.740
 2348W        W 5867   3.715   1.293  10.901
 2349W        W 5868   7.894   6.149  11.902
 2350W        W 5869   4.383   5.362  11.294
 2351W        W 5870   6.926   6.913   9.480
 2352W        W 5871   8.419   7.541   8.857
 2353W        W 5872   4.468   2.299  11.094
 2354W        W 5873   9.573   8.768   0.129
 2355W        W 5874   4.620   9.004   1.435
 2356W        W 5875   2.813   5.319   1.659
 2357W        W 5876   1.537   0.396  11.108
 2358W        W 5877   0.224   4.560   0.506
 2359W        W 5878   3.344   5.828   0.078
 2360W        W 5879   6.105   3.723   2.685
 2361W        W 5880   1.719   8.139   3.398
 2362W        W 5881   1.978   4.889  10.863
 2363W        W 5882   3.265   1.812   2.166
 2364W        W 5883   8.401   9.203  10.489
 2365W        W 5884   4.261   8.421   3.470
 2366W        W 5885   1.871   4.209   1.002
 2367W        W 5886   8.844   1.108   0.915
 2368W        W 5887   1.589   8.889   9.954
 2369W        W 5888   5.953   0.758   3.200
 2370W        W 5889   5.509   5.326  10.580
 2371W        W 5890   7.562   9.700   1.334
 2372W        W 5891   9.416   8.026   9.558
 2373W        W 5892   0.712   5.606  10.441
 2374W        W 5893   2.071   4.196   1.977
 2375W        W 5894   3.779   1.266  10.075
 2376W        W 5895   7.389   5.128  10.296
 2377W        W 5896   7.874   0.721   9.833
 2378W        W 5897   0.600   0.207   9.369
 2379W        W 5898   9.854   8.382   1.344
 2380W        W 5899   9.437   9.859   9.404
 2381W        W 5900   8.103   7.526  11.937
 2382W        W 5901   9.468   4.507   0.931
 2383W        W 5902   0.103   3.483   1.433
 2384W        W 5903   9.876   7.881   9.813
 2385W        W 5904   8.032   5.796   9.078
 2386W        W 5905   0.417   0.205  10.431
 2387W        W 5906   5.605   4.582   9.412
 2388W        W 5907   5.668   3.539  10.790
 2389W        W 5908   9.127   7.556   9.516
 2390W        W 5909   6.597   4.736   3.904
 2391W        W 5910   1.626   1.399   3.192
 2392W        W 5911   2.583   2.339   2.155
 2393W        W 5912   0.169   6.369  10.194
 2394W        W 5913   4.947   3.191   2.023
 2395W        W 5914   8.649   0.749   1.709
 2396W        W 5915   2.060   1.352   9.495
 2397W        W 5916   5.095   4.672   9.637
 2398W        W 5917   7.330   6.566   9.114
 2399W        W 5918   2.974   1.337  10.313
 2400W        W 5919   3.668   4.700  11.557
 2401W        W 5920   3.717   1.516   9.630
 2402W        W 5921   1.963   2.156  11.852
 2403W        W 5922   3.975   4.953   3.811
 2404W        W 5923   8.049   4.103  11.072
 2405W        W 5924   7.616   3.969   2.835
 2406W        W 5925   6.177   2.974  11.416
 2407W        W 5926   9.786   7.508  10.783
 2408W        W 5927   8.751   1.698   1.807
 2409W        W 5928   7.502   5.636   1.470
 2410W        W 5929   3.028   8.285   1.155
 2411W        W 5930   4.469   1.540   8.560
 2412W        W 5931   3.175   9.992   2.147
 2413W        W 5932   0.944   2.850   2.285
 2414W        W 5933   7.085   3.929   3.762
 2415W        W 5934   5.574   1.734   3.859
 2416W        W 5935   6.973   5.561  10.913
 2417W        W 5936   7.130   5.692   3.138
 2418W        W 5937   9.405   4.215   8.669
 2419W        W 5938   7.232   3.720   9.228
 2420W        W 5939   8.583   9.776   9.272
 2421W        W 5940   9.733   5.204   2.563
 2422W        W 5941   5.052   0.981  10.445
 2423W        W 5942   8.933   6.058   3.206
 2424W        W 5943   5.082   9.644   3.511
 2425W        W 5944   1.259   8.325   3.206
 2426W        W 5945   8.586   5.670   9.847
 2427W        W 5946   7.440   7.816   9.531
 2428W        W 5947   9.250   9.358  10.182
 2429W        W 5948   3.727   7.267  11.595
 2430W        W 5949   4.582   3.676   7.885
 2431W        W 5950   4.463   7.981   9.068
 2432W        W 5951   5.910   5.954   3.135
 2433W        W 5952   6.703   9.788   8.745
 2434W        W 5953   1.441   5.736  10.874
 2435W        W 5954   0.919   1.989   9.794
 2436W        W 5955   3.580   5.795  10.336
 2437W        W 5956   2.341   9.357   0.781
 2438W        W 5957   1.132   1.064   2.479
 2439W        W 5958   1.717   3.568   2.822
 2440W        W 5959   1.875   0.812  11.204
 2441W        W 5960   4.670   4.626   9.317
 2442W        W 5961   0.784   9.312   3.368
 2443W        W 5962   6.509   7.137   0.305
 2444W        W 5963   1.355   7.086   0.671
 2445W        W 5964   1.831   7.612  11.739
 2446W        W 5965   2.101   7.019  11.296
 2447W        W 5966   3.787   1.801   1.931
 2448W        W 5967   3.091   7.589   1.845
 2449W        W 5968   2.163   8.422  10.378
 2450W        W 5969   7.417   9.016   8.269
 2451W        W 5970   7.431   9.894  10.025
 2452W        W 5971   1.485   6.631  10.991
 2453W        W 5972   7.655   9.390   2.547
 2454W        W 5973   1.681   9.753   2.293
 2455W        W 5974   8.120   6.598   9.898
 2456W        W 5975   7.622   6.973   0.834
 2457W        W 5976   8.440   5.232   9.447
 2458W        W 5977   6.103   1.039   1.345
 2459W        W 5978   5.903   7.586   0.894
 2460W        W 5979   4.124   4.153   9.308
 2461W        W 5980   7.677   9.419   2.036
 2462W        W 5981   9.348   0.438   0.385
 2463W        W 5982   5.429   3.400   8.446
 2464W        W 5983   1.445   2.177  11.898
 2465W        W 5984   6.878   1.852   0.242
 2466W        W 5985   7.197   4.076   0.688
 2467W        W 5986   6.956   7.865   9.308
 2468W        W 5987   9.385   2.198   1.343
 2469W        W 5988   1.760   3.844  11.246
 2470W        W 5989   3.668   9.708  10.425
 2471W        W 5990   2.244   6.137   2.491
 2472W        W 5991   7.457   8.627   0.237
 2473W        W 5992   1.239   4.591   2.976
 2474W        W 5993   9.336   3.868  11.770
 2475W        W 5994   6.230   0.447   2.444
 2476W        W 5995   4.786   7.665   3.445
 2477W        W 5996   3.684   2.929   0.190
 2478W        W 5997   9.447   1.146  10.285
 2479W        W 5998   7.326   7.063   9.211
 2480W        W 5999   3.595   6.282   9.581
 2481W        W 6000   5.412   6.192   3.243
 2482W        W 6001   1.472   3.925   8.738
 2483W        W 6002   6.457   4.387  11.521
 2484W        W 6003   5.988   0.520   1.482
 2485W        W 6004   6.318   4.364   9.891
 2486W        W 6005   1.899   6.997   9.962
 2487W        W 6006   2.685   5.750   1.385
 2488W        W 6007   3.360   6.986   9.574
 2489W        W 6008   2.657   9.575  10.287
 2490W        W 6009   8.446   8.945   3.152
 2491W        W 6010   9.762   7.017   9.483
 2492W        W 6011   6.204   9.249   3.751
 2493W        W 6012   5.699   8.797   3.546
 2494W        W 6013   4.937   5.926  11.976
 2495W        W 6014   4.607   1.186   1.467
 2496W        W 6015   7.122   4.345   3.440
 2497W        W 6016   3.566   4.179   3.336
 2498W        W 6017   8.808   3.476   0.986
 2499W        W 6018   5.423   8.395   9.737
 2500W        W 6019   2.658   2.242   0.425
 2501W        W 6020   3.186   0.722  11.894
 2502W        W 6021   6.023   6.908   0.422
 2503W        W 6022   8.689   9.142   0.277
 2504W        W 6023   8.510   7.537   2.265
 2505W        W 6024   0.269   6.895  10.292
 2506W        W 6025   1.450   2.845   2.119
 2507W        W 6026   0.017   3.988   3.771
 2508W        W 6027   8.586   1.217   1.940
 2509W        W 6028   9.025   6.017   0.384
 2510W        W 6029   1.123   6.539   9.073
 2511W        W 6030   5.899   3.563   8.607
 2512W        W 6031   4.067   8.910   0.329
 2513W        W 6032   8.343   1.877   1.102
 2514W        W 6033   8.688   8.241  10.097
 2515W        W 6034   7.931   2.362   3.177
 2516W        W 6035   6.883   3.424   9.511
 2517W        W 6036   0.882   6.665   8.626
 2518W        W 6037   7.980   5.015   9.583
 2519W        W 6038   8.119   0.838  11.501
 2520W        W 6039   2.732   3.576   0.552
 2521W        W 6040   0.691   8.884   0.458
 2522W        W 6041   7.474   2.139  10.840
 2523W        W 6042   4.701   3.623   1.944
 2524W        W 6043   7.189   5.951   8.519
 2525W        W 6044   1.141   7.425   0.983
 2526W        W 6045   0.534   0.826  11.955
 2527W        W 6046   1.447   3.377   8.654
 2528W        W 6047   8.874   8.175   1.248
 2529W        W 6048   4.023   3.796   2.636
 2530W        W 6049   7.295   7.567   1.192
 2531W        W 6050   9.540   8.358  11.821
 2532W        W 6051   4.962   7.951   8.980
 2533W        W 6052   4.719   3.688   0.775
 2534W        W 6053   6.276   5.675  10.032
 2535W        W 6054   5.211   1.833  11.391
 2536W        W 6055   0.835   8.095   1.552
 2537W        W 6056   3.398   7.628   9.320
 2538W        W 6057   5.854   2.299   2.700
 2539W        W 6058   8.040   4.409  10.649
 2540W        W 6059   2.704   6.138   0.662
 2541W        W 6060   7.762   9.344   3.065
 2542W        W 6061   4.552   5.246   2.265
 2543W        W 6062   3.106   1.377   1.754
 2544W        W 6063   5.004   0.016   8.782
 2545W        W 6064   7.543   2.909  11.047
 2546W        W 6065   2.321   6.672  10.986
 2547W        W 6066   1.403   7.170  11.694
 2548W        W 6067   9.493   6.920   8.757
 2549W        W 6068   6.511   1.145   2.209
 2550W        W 6069   0.639   7.154  11.366
 2551W        W 6070   2.126   8.856  10.936
 2552W        W 6071   4.442   7.374   2.748
 2553W        W 6072   5.618   4.003  10.437
 2554W        W 6073   8.022   7.330  10.268
 2555W        W 6074   0.631   8.964   0.944
 2556W        W 6075   2.751   3.110   9.117
 2557W        W 6076   5.465   0.681   2.976
 2558W        W 6077   6.035   2.846   1.141
 2559W        W 6078   7.374   3.271   2.152
 2560W        W 6079   9.231   0.995   3.422
 2561W        W 6080   5.487   4.084   9.262
 2562W        W 6081   1.050   4.556   1.000
 2563W        W 6082   6.953   2.076   1.888
 2564W        W 6083   4.217   2.331   0.433
 2565W        W 6084   6.507   5.289   0.595
 2566W        W 6085   6.536   7.977   1.007
 2567W        W 6086   5.997   8.287   0.281
 2568W        W 6087   2.575   1.268   0.858
 2569W        W 6088   6.613   6.554   3.939
 2570W        W 6089   5.884   4.788   8.991
 2571W        W 6090   5.471   0.301   8.820
 2572W        W 6091   8.399   6.327  11.653
 2573W        W 6092   6.491   9.764  10.469
 2574W        W 6093   7.155   5.651   0.596
 2575W        W 6094   0.354   6.938  11.770
 2576W        W 6095   7.074   1.590   1.786
 2577W        W 6096   8.132   1.073   2.172
 2578W        W 6097   5.673   3.100   9.289
 2579W        W 6098   8.832   9.568   2.739
 2580W        W 6099   4.141   3.612   3.113
 2581W        W 6100   9.353   3.999  10.298
 2582W        W 6101   4.115   3.312  11.456
 2583W        W 6102   6.609   7.113   2.494
 2584W        W 6103   1.847   3.114   8.882
 2585W        W 6104   8.195   2.243  10.861
 2586W        W 6105   2.252   6.973   3.075
 2587W        W 6106   7.790   1.308  11.506
 2588W        W 6107   0.457   1.140   2.030
 2589W        W 6108   8.964   1.262  11.106
 2590W        W 6109   3.699   3.206   9.827
 2591W        W 6110   3.540   4.268   1.997
 2592W        W 6111   1.286   6.618  10.096
 2593W        W 6112   2.171   8.905   2.624
 2594W        W 6113   4.338   1.164   1.020
 2595W        W 6114   1.319   2.907   8.991
 2596W        W 6115   7.093   6.527   3.065
 2597W        W 6116   5.553   6.144  11.164
 2598W        W 6117   8.448   6.064   3.355
 2599W        W 6118   7.519   3.404  10.970
 2600W        W 6119   7.045   2.558   0.829
 2601W        W 6120   3.654   2.111   2.313
 2602W        W 6121   5.607   3.600   9.413
 2603W        W 6122   4.311   3.650  10.125
 2604W        W 6123   0.773   7.892   0.522
 2605W        W 6124   6.638   2.122   2.327
 2606W        W 6125   6.521   7.931  11.071
 2607W        W 6126   9.840   4.165  10.295
 2608W        W 6127   9.744   1.199   9.586
 2609W        W 6128   9.446   2.244   0.817
 2610W        W 6129   5.199   9.254   0.815
 2611W        W 6130   1.111   0.196   9.355
 2612W        W 6131   1.186   4.716   1.467
 2613W        W 6132   9.943   8.325   9.555
 2614W        W 6133   9.903   2.635  11.309
 2615W        W 6134   3.888   5.112   2.965
 2616W        W 6135   6.985   5.888   8.034
 2617W        W 6136   9.408   7.924  11.539
 2618W        W 6137   4.617   6.037   3.674
 2619W        W 6138   4.609   2.064   1.392
 2620W        W 6139   7.537   1.755   0.552
 2621W        W 6140   2.991   5.692  11.742
 2622W        W 6141   2.139   7.924   9.170
 2623W        W 6142   6.871   1.474   3.911
 2624W        W 6143   2.582   2.839  11.733
 2625W        W 6144   3.181   3.329   1.240
 2626W        W 6145   1.837   5.966   3.810
 2627W        W 6146   1.613   4.812   9.473
 2628W        W 6147   9.881   1.467   0.473
 2629W        W 6148   1.378   9.787  10.057
 2630W        W 6149   1.315   5.815   9.532
 2631W        W 6150   9.656   3.905   9.006
 2632W        W 6151   0.981   8.478   2.787
 2633W        W 6152   7.890   5.178  10.148
 2634W        W 6153   8.261   6.015   8.388
 2635W        W 6154   7.090   6.536   9.770
 2636W        W 6155   7.439   7.084   3.159
 2637W        W 6156   0.550   7.085   3.768
 2638W        W 6157   9.715   0.719  10.372
 2639W        W 6158   2.609   7.448   1.935
 2640W        W 6159   1.741   6.076   0.186
 2641W        W 6160   2.605   5.513  11.470
 2642W        W 6161   3.184   9.442   9.013
 2643W        W 6162   1.917   5.931  10.825
 2644W        W 6163   9.025   8.363   9.522
 2645W        W 6164   3.031   7.778   0.485
 2646W        W 6165   1.295   8.824   9.534
 2647W        W 6166   9.357   3.977  11.261
 2648W        W 6167   0.253   9.414  10.133
 2649W        W 6168   1.784   3.934  10.744
 2650W        W 6169   0.240   6.518   9.448
 2651W        W 6170   7.660   0.846  10.312
 2652W        W 6171   7.781   5.115   2.055
 2653W        W 6172   5.597   1.146   3.107
 2654W        W 6173   9.906   0.810   9.262
 2655W        W 6174   3.283   2.216   2.995
 2656W        W 6175   7.462   1.732   3.355
 2657W        W 6176   2.679   0.085   2.717
 2658W        W 6177   7.898   5.274   3.392
 2659W        W 6178   8.053   8.029  11.395
 2660W        W 6179   5.321   6.163   1.319
 2661W        W 6180   4.160   7.058   3.222
 2662W        W 6181   0.361   7.699   1.424
 2663W        W 6182   5.052   3.187   3.694
 2664W        W 6183   7.467   3.197   0.762
 2665W        W 6184   2.232   7.399   1.059
 2666W        W 6185   6.776   9.296   9.497
 2667W        W 6186   1.422   1.466   2.565
 2668W        W 6187   3.587   7.803  11.675
 2669W        W 6188   9.941   9.751   3.476
 2670W        W 6189   5.524   8.733   8.966
 2671W        W 6190   4.964   6.521  10.115
 2672W        W 6191   0.521   0.192   1.886
 2673W        W 6192   2.123   8.727   0.056
 2674W        W 6193   9.771   4.983   9.667
 2675W        W 6194   9.868   7.364   9.874
 2676W        W 6195   5.674   2.653   9.002
 2677W        W 6196   7.449   1.634  10.683
 2678W        W 6197   9.304   7.485  10.891
 2679W        W 6198   7.578   5.741   9.355
 2680W        W 6199   7.717   6.546   2.426
 2681W        W 6200   0.843   6.134   1.888
 2682W        W 6201   1.654   1.968   1.029
 2683W        W 6202   2.323   7.573  10.527
 2684W        W 6203   0.965   5.356  10.064
 2685W        W 6204   6.927   7.770  10.321
 2686W        W 6205   0.973   1.767   8.467
 2687W        W 6206   5.924   1.117   0.853
 2688W        W 6207   6.536   9.817   1.795
 2689W        W 6208   2.646   9.821  11.380
 2690W        W 6209   0.922   9.982  10.225
 2691W        W 6210   6.099   6.598   0.864
 2692W        W 6211   9.394   4.369  11.589
 2693W        W 6212   8.056   3.908  10.563
 2694W        W 6213   8.040   3.656   2.728
 2695W        W 6214   0.486   3.783   2.568
 2696W        W 6215   9.296   9.795   9.932
 2697W        W 6216   0.269   1.184  11.713
 2698W        W 6217   6.724   6.945  10.620
 2699W        W 6218   8.957   4.250  10.110
 2700W        W 6219   3.142   2.376  10.562
 2701W        W 6220   4.200   0.632  11.955
 2702W        W 6221   4.369   4.049   2.899
 2703W        W 6222   9.987   9.347  10.580
 2704W        W 6223   2.144   8.567   2.179
 2705W        W 6224   0.542   3.056   9.963
 2706W        W 6225   0.580   4.967   1.559
 2707W        W 6226   5.306   5.238  10.070
 2708W        W 6227   1.162   6.531   3.632
 2709W        W 6228   1.054   5.156   1.671
 2710W        W 6229   3.322   0.230   2.947
 2711W        W 6230   8.846   6.910   1.646
 2712W        W 6231   4.518   9.525  11.784
 2713W        W 6232   0.819   5.338   2.941
 2714W        W 6233   9.668   1.739   0.842
 2715W        W 6234   7.062   7.370   2.518
 2716W        W 6235   8.274   1.912  10.237
 2717W        W 6236   6.070   2.786   2.685
 2718W        W 6237   5.580   9.030   3.064
 2719W        W 6238   6.473   9.433   0.507
 2720W        W 6239   5.635   1.447   1.117
 2721W        W 6240   0.648   2.833   1.274
 2722W        W 6241   2.421   6.997   9.266
 2723W        W 6242   5.464   9.236   8.872
 2724W        W 6243   3.914   1.281  11.756
 2725W        W 6244   7.687   7.115  11.302
 2726W        W 6245   7.308   1.178   9.481
 2727W        W 6246   6.425   5.616  10.521
 2728W        W 6247   6.226   0.914   8.867
 2729W        W 6248   2.795   0.978   3.353
 2730W        W 6249   3.037   8.082   0.000
 2731W        W 6250   2.781   7.465  10.747
 2732W        W 6251   1.116   2.705   1.160
 2733W        W 6252   8.900   4.931   1.390
 2734W        W 6253   2.632   5.990   8.815
 2735W        W 6254   4.046   7.540  10.226
 2736W        W 6255   1.171   8.362   1.904
 2737W        W 6256   6.927   8.500   1.343
 2738W        W 6257   9.524   7.821   8.553
 2739W        W 6258   0.895   0.241   2.276
 2740W        W 6259   6.715   7.205   1.698
 2741W        W 6260   1.090   8.891  10.938
 2742W        W 6261   3.726   0.631   9.300
 2743W        W 6262   5.683   4.493   1.989
 2744W        W 6263   0.074   0.889  11.296
 2745W        W 6264   1.954   3.386  10.934
 2746W        W 6265   0.188   7.773  10.990
 2747W        W 6266   4.478   5.020  10.318
 2748W        W 6267   5.513   9.698  10.545
 2749W        W 6268   9.767   5.451   9.448
 2750W        W 6269   4.679   2.030   8.563
 2751W        W 6270   5.136   0.768   1.401
 2752W        W 6271   3.180   5.600   9.265
 2753W        W 6272   0.626   6.531   0.925
 2754W        W 6273   3.668   1.661   9.154
 2755W        W 6274   9.025   0.529   3.395
 2756W        W 6275   0.766   1.190   0.272
 2757W        W 6276   6.085   5.051  10.601
 2758W        W 6277   0.393   1.429   2.457
 2759W        W 6278   5.502   0.697  10.562
 2760W        W 6279   0.003   6.420   2.927
 2761W        W 6280   9.136   5.558   1.950
 2762W        W 6281   2.820   8.484   0.223
 2763W        W 6282   9.040   6.516   0.242
 2764W        W 6283   0.865   4.137  10.747
 2765W        W 6284   4.922   0.413   0.326
 2766W        W 6285   3.497   5.087   0.798
 2767W        W 6286   4.941   6.919  10.981
 2768W        W 6287   0.283   5.907  10.418
 2769W        W 6288   8.729   2.996   1.695
 2770W        W 6289   7.644   4.294  11.775
 2771W        W 6290   3.090   2.511  11.067
 2772W        W 6291   9.847   7.969  11.848
 2773W        W 6292   6.552   6.471   8.992
 2774W        W 6293   6.161   4.173  10.454
 2775W        W 6294   0.738   8.146  10.471
 2776W        W 6295   1.980   5.555   1.996
 2777W        W 6296   1.419   8.879  10.433
 2778W        W 6297   2.225   7.705   0.051
 2779W        W 6298   9.071   8.829   0.113
 2780W        W 6299   0.808   3.668   3.350
 2781W        W 6300   9.811   7.883   3.539
 2782W        W 6301   1.818   4.222   1.532
 2783W        W 6302   8.389   0.818   0.903
 2784W        W 6303   3.977   5.985   2.585
 2785W        W 6304   4.356   5.990   1.746
 2786W        W 6305   4.576   0.774   8.798
 2787W        W 6306   3.652   5.884   0.983
 2788W        W 6307   0.351   1.366   0.667
 2789W        W 6308   7.526   6.573   1.149
 2790W        W 6309   2.680   6.203   1.158
 2791W        W 6310   0.155   8.929   2.826
 2792W        W 6311   0.570   5.663   8.926
 2793W        W 6312   8.791   1.273   9.616
 2794W        W 6313   2.645   0.231   0.691
 2795W        W 6314   6.762   7.523   1.201
 2796W        W 6315   2.683   6.694   1.361
 2797W        W 6316   6.274   8.761   1.618
 2798W        W 6317   1.791   2.829   1.726
 2799W        W 6318   4.751   2.886   9.351
 2800W        W 6319   0.619   7.544   9.184
 2801W        W 6320   3.330   3.827  10.622
 2802W        W 6321   4.263   5.849  11.393
 2803W        W 6322   6.069   9.374   9.831
 2804W        W 6323   6.268   4.664   1.311
 2805W        W 6324   8.497   5.069   3.482
 2806W        W 6325   7.937   4.296   2.615
 2807W        W 6326   9.268   0.183  11.934
 2808W        W 6327   1.338   5.972   1.037
 2809W        W 6328   4.828   6.107   1.940
 2810W        W 6329   8.798   2.800   0.722
 2811W        W 6330   5.163   6.976   0.903
 2812W        W 6331   8.569   6.964   8.623
 2813W        W 6332   9.905   8.511  10.545
 2814W        W 6333   9.035   6.828  11.357
 2815W        W 6334   6.243   1.941   1.624
 2816W        W 6335   8.140   0.705   1.785
 2817W        W 6336   8.330   0.115  10.426
 2818W        W 6337   8.199   9.237   0.345
 2819W        W 6338   5.756   0.435   2.630
 2820W        W 6339   6.514   6.693   0.580
 2821W        W 6340   4.579   1.872  10.808
 2822W        W 6341   4.521   5.978   0.746
 2823W        W 6342   0.752   4.825   2.914
 2824W        W 6343   2.427   8.888  10.526
 2825W        W 6344   9.836   6.127  10.520
 2826W        W 6345   9.804   4.909   1.355
 2827W        W 6346   9.587   2.727   2.752
 2828W        W 6347   6.913   4.586  10.546
 2829W        W 6348   2.119   2.151   8.587
 2830W        W 6349   1.318   7.817   8.557
 2831W        W 6350   2.187   2.337   9.092
 2832W        W 6351   5.712   6.908  10.308
 2833W        W 6352   9.504   0.440   2.601
 2834W        W 6353   4.161   4.604   9.569
 2835W        W 6354   3.764   1.339   3.411
 2836W        W 6355   2.236   4.878   0.019
 2837W        W 6356   3.701   6.464   2.710
 2838W        W 6357   1.510   4.144   0.421
 2839W        W 6358   2.193   2.669   2.910
 2840W        W 6359   2.273   3.449   3.717
 2841W        W 6360   1.408   9.029   0.758
 2842W        W 6361   2.777   9.340   8.686
 2843W        W 6362   3.441   8.149  11.296
 2844W        W 6363   6.413   9.241   1.572
 2845W        W 6364   2.818   5.836   3.562
 2846W        W 6365   3.780   2.253  11.743
 2847W        W 6366   7.528   2.387   0.804
 2848W        W 6367   5.648   4.517   2.493
 2849W        W 6368   8.625   1.686   9.350
 2850W        W 6369   8.927   2.388   9.164
 2851W        W 6370   8.946   1.381   9.099
 2852W        W 6371   2.305   9.726   1.689
 2853W        W 6372   9.292   1.354   0.806
 2854W        W 6373   5.467   7.413   2.762
 2855W        W 6374   6.657   4.233   2.632
 2856W        W 6375   2.173   0.000   9.564
 2857W        W 6376   2.595   8.016   0.254
 2858W        W 6377   6.478   3.352   2.695
 2859W        W 6378   5.711   5.673   0.511
 2860W        W 6379   3.221   9.455  10.494
 2861W        W 6380   4.670   4.087   8.576
 2862W        W 6381   2.383   4.069   2.371
 2863W        W 6382   0.874   4.535   0.529
 2864W        W 6383   6.429   8.851   2.610
 2865W        W 6384   8.843   8.834   9.457
 2866W        W 6385   0.683   5.604  11.857
 2867W        W 6386   4.051   6.015   8.654
 2868W        W 6387   8.011   7.471   9.175
 2869W        W 6388   6.876   3.364   9.006
 2870W        W 6389   2.871   1.822  11.973
 2871W        W 6390   6.018   6.835   1.311
 2872W        W 6391   6.876   4.126  11.319
 2873W        W 6392   5.365   6.926   8.963
 2874W        W 6393   2.744   9.310  11.212
 2875W        W 6394   5.117   0.518   2.025
 2876W        W 6395   3.791   0.518  11.331
 2877W        W 6396   1.795   8.264   2.411
 2878W        W 6397   7.238   7.645  10.751
 2879W        W 6398   0.901   1.045   1.786
 2880W        W 6399   2.060   4.478   9.546
 2881W        W 6400   3.720   1.023  11.331
 2882W        W 6401   9.520   1.853   2.931
 2883W        W 6402   8.104   1.740   2.661
 2884W        W 6403   0.804   3.473   2.877
 2885W        W 6404   6.939   1.914   8.743
 2886W        W 6405   6.610   1.643  11.866
 2887W        W 6406   2.907   8.740  10.461
 2888W        W 6407   0.689   8.026   9.353
 2889W        W 6408   7.159   4.427  11.873
 2890W        W 6409   8.938   1.424   0.034
 2891W        W 6410   7.587   0.767   0.346
 2892W        W 6411   8.692   7.553   2.774
 2893W        W 6412   5.605   7.888  10.928
 2894W        W 6413   7.853   7.798   3.612
 2895W        W 6414   9.341   5.515   8.611
 2896W        W 6415   9.278   1.161   8.746
 2897W        W 6416   8.877   8.770   2.446
 2898W        W 6417   8.264   9.646  10.238
 2899W        W 6418   8.406   3.140   1.312
 2900W        W 6419   8.552   2.987   3.418
 2901W        W 6420   6.070   6.112   3.677
 2902W        W 6421   1.406   3.175   9.773
 2903W        W 6422   3.974   6.563   3.142
 2904W        W 6423   0.936   3.773   1.552
 2905W        W 6424   1.239   7.922   9.214
 2906W        W 6425   6.923   7.028   1.260
 2907W        W 6426   9.894   5.410   0.450
 2908W        W 6427   6.076   0.910   2.234
 2909W        W 6428   5.257   6.445   2.832
 2910W        W 6429   6.937   9.060   0.917
 2911W        W 6430   5.462   9.377   1.654
 2912W        W 6431   3.825   4.228   8.528
 2913W        W 6432   1.772   0.962   9.205
 2914W        W 6433   6.249   7.585   1.288
 2915W        W 6434   7.053   5.229   9.273
 2916W        W 6435   6.989   1.411  10.804
 2917W        W 6436   9.778   9.952   2.572
 2918W        W 6437   3.941   5.873   1.432
 2919W        W 6438   6.160   3.674  10.919
 2920W        W 6439   1.312   5.917  11.473
 2921W        W 6440   6.520   5.477  11.921
 2922W        W 6441   7.717   8.510  10.257
 2923W        W 6442   3.749   2.400   0.230
 2924W        W 6443   4.803   0.622   3.520
 2925W        W 6444   9.941   6.245   2.426
 2926W        W 6445   3.173   2.227   2.493
 2927W        W 6446   0.309   0.078  10.918
 2928W        W 6447   1.189   2.825   2.752
 2929W        W 6448   0.414   6.958   1.776
 2930W        W 6449   8.565   8.404  11.083
 2931W        W 6450   8.631   4.452   2.695
 2932W        W 6451   9.340   6.024  10.579
 2933W        W 6452   9.752   0.295   9.273
 2934W        W 6453   3.684   3.510   9.390
 2935W        W 6454   8.066   7.213   0.906
 2936W        W 6455   5.545   3.414  11.546
 2937W        W 6456   0.920   5.140   9.584
 2938W        W 6457   4.563   0.052  10.088
 2939W        W 6458   5.697   5.473   9.388
 2940W        W 6459   6.163   6.100   8.332
 2941W        W 6460   6.678   6.545   2.756
 2942W        W 6461   8.537   2.253  11.261
 2943W        W 6462   1.012   0.506   1.865
 2944W        W 6463   0.243   1.273   9.658
 2945W        W 6464   3.126   3.527   2.499
 2946W        W 6465   6.218   6.678   8.188
 2947W        W 6466   3.547   7.568   2.133
 2948W        W 6467   9.419   8.542   0.837
 2949W        W 6468   5.218   4.624   8.604
 2950W        W 6469   8.983   8.894   3.260
 2951W        W 6470   7.974   1.918   0.330
 2952W        W 6471   1.398   5.598   9.994
 2953W        W 6472   6.465   8.119   0.064
 2954W        W 6473   0.910   0.666   0.780
 2955W        W 6474   5.770   9.303   3.470
 2956W        W 6475   6.099   5.618   9.071
 2957W        W 6476   1.881   0.917   9.722
 2958W        W 6477   0.440   6.129   9.752
 2959W        W 6478   5.702   1.237   2.111
 2960W        W 6479   5.414   2.210  10.933
 2961W        W 6480   1.400   2.414   0.848
 2962W        W 6481   5.298   8.963  11.981
 2963W        W 6482   2.707   0.245   2.201
 2964W        W 6483   1.584   5.731   2.268
 2965W        W 6484   8.985   6.498   2.075
 2966W        W 6485   7.010   3.043   0.978
 2967W        W 6486   7.125   9.541  11.177
 2968W        W 6487   6.532   0.192  11.267
 2969W        W 6488   3.742   1.448   0.267
 2970W        W 6489   3.762   5.604   3.246
 2971W        W 6490   8.859   8.553  11.507
 2972W        W 6491   4.452   3.095  11.130
 2973W        W 6492   8.126   5.980   2.975
 2974W        W 6493   0.750   1.152   9.601
 2975W        W 6494   7.002   6.889   2.250
 2976W        W 6495   0.509   9.319   2.065
 2977W        W 6496   2.127   2.038  11.374
 2978W        W 6497   2.640   2.445  11.385
 2979W        W 6498   7.143   4.219  10.844
 2980W        W 6499   7.906   7.082  11.765
 2981W        W 6500   5.994   4.128  11.476
 2982W        W 6501   8.765   1.819   8.869
 2983W        W 6502   1.692   1.823   2.844
 2984W        W 6503   0.243   1.161   0.221
 2985W        W 6504   7.479   3.550   3.618
 2986W        W 6505   1.479   1.251  10.458
 2987W        W 6506   6.611   3.844   8.154
 2988W        W 6507   6.064   8.791   1.100
 2989W        W 6508   8.361   7.625  11.478
 2990W        W 6509   0.261   4.678   1.269
 2991W        W 6510   8.956   1.750   3.673
 2992W        W 6511   4.222   1.068   8.544
 2993W        W 6512   0.410   9.323   2.602
 2994W        W 6513   5.768   1.827   1.824
 2995W        W 6514   7.264   9.444   9.361
 2996W        W 6515   9.752   9.387  10.067
 2997W        W 6516   1.311   5.425  11.242
 2998W        W 6517   2.331   7.179  10.863
 2999W        W 6518   9.666   6.494   0.733
 3000W        W 6519   5.624   9.877   2.869
 3001W        W 6520   4.920   4.274   9.944
 3002W        W 6521   8.429   9.554   9.745
 3003W        W 6522   0.830   3.365   1.888
 3004W        W 6523   0.358   4.827   2.176
 3005W        W 6524   6.586   6.001  11.489
 3006W        W 6525   2.231   7.204   0.148
 3007W        W 6526   3.985   7.683  11.331
 3008W        W 6527   6.088   1.702  11.717
 3009W        W 6528   7.632   6.603  10.394
 3010W        W 6529   7.619   4.175   1.657
 3011W        W 6530   3.269   1.984   9.028
 3012W        W 6531   2.390   5.172   9.574
 3013W        W 6532   9.998   6.265  11.375
 3014W        W 6533   2.184   8.226   0.009
 3015W        W 6534   0.337   9.805   2.660
 3016W        W 6535   9.749   7.359   2.913
 3017W        W 6536   2.714   3.167   8.572
 3018W        W 6537   8.675   6.441   8.638
 3019W        W 6538   0.032   4.922   2.856
 3020W        W 6539   1.308   2.452   0.336
 3021W        W 6540   1.796   5.024   0.260
 3022W        W 6541   3.889   8.026   1.984
 3023W        W 6542   3.231   1.488  10.842
 3024W        W 6543   1.229   4.969   9.171
 3025W        W 6544   7.553   6.722  11.629
 3026W        W 6545   7.309   3.179   9.266
 3027W        W 6546   0.866   5.242   8.911
 3028W        W 6547   2.600   3.659   9.282
 3029W        W 6548   7.255   3.977  11.670
 3030W        W 6549   9.588   1.938   1.866
 3031W        W 6550   0.518   7.075   3.272
 3032W        W 6551   3.068   5.259  11.999
 3033W        W 6552   5.413   7.445   0.857
 3034W        W 6553   4.192   1.765   3.032
 3035W        W 6554   7.463   7.368   1.684
 3036W        W 6555   5.715   2.183   2.211
 3037W        W 6556   1.978   5.246   0.727
 3038W        W 6557   5.725   0.947   8.954
 3039W        W 6558   2.396   2.024   3.471
 3040W        W 6559   5.576   2.731   1.356
 3041W        W 6560   2.274   0.539   2.255
 3042W        W 6561   2.647   7.342   8.949
 3043W        W 6562   4.555   9.952   1.070
 3044W        W 6563   5.190   5.069   2.863
 3045W        W 6564   7.471   5.328   3.011
 3046W        W 6565   2.689   7.815  10.257
 3047W        W 6566   6.467   0.445   8.839
 3048W        W 6567   9.227   9.740   8.412
 3049W        W 6568   9.996   1.726  11.208
 3050W        W 6569   9.942   8.825   3.380
 3051W        W 6570   7.012   4.731   3.119
 3052W        W 6571   5.587   7.868  11.935
 3053W        W 6572   7.771   8.768   9.476
 3054W        W 6573   3.518   9.318   1.963
 3055W        W 6574   8.678   4.967  10.882
 3056W        W 6575   8.723   9.440  10.181
 3057W        W 6576   8.498   4.150  10.286
 3058W        W 6577   0.290   4.612   9.124
 3059W        W 6578   9.096   9.329   0.479
 3060W        W 6579   8.842   5.148   9.874
 3061W        W 6580   1.906   0.377  11.472
 3062W        W 6581   7.573   9.109   9.149
 3063W        W 6582   7.238   0.375  11.329
 3064W        W 6583   2.133   9.930  11.505
 3065W        W 6584   4.666   6.929   0.694
 3066W        W 6585   2.768   5.978  10.272
 3067W        W 6586   6.925   1.772   3.206
 3068W        W 6587   5.254   7.017  10.518
 3069W        W 6588   8.128   9.349   2.326
 3070W        W 6589   0.526   9.966   3.559
 3071W        W 6590   8.379   7.516   1.760
 3072W        W 6591   8.980   9.827  11.473
 3073W        W 6592   4.354   8.256   1.142
 3074W        W 6593   9.086   1.805   2.621
 3075W        W 6594   1.407   7.635  11.479
 3076W        W 6595   8.316   1.252   3.506
 3077W        W 6596   3.218   0.223   3.447
 3078W        W 6597   8.386   9.328   2.775
 3079W        W 6598   7.433   7.835   1.931
 3080W        W 6599   8.235   2.651  10.483
 3081W        W 6600   6.913   1.548  11.464
 3082W        W 6601   2.253   9.878   2.947
 3083W        W 6602   9.314   7.792   9.094
 3084W        W 6603   9.872   3.273   9.386
 3085W        W 6604   8.013   5.504   9.486
 3086W        W 6605   7.954   4.382   2.033
 3087W        W 6606   6.041   2.322   9.495
 3088W        W 6607   9.494   2.255  11.723
 3089W        W 6608   0.953   9.286   0.741
 3090W        W 6609   2.027   2.374   3.328
 3091W        W 6610   2.546   6.366   0.018
 3092W        W 6611   5.523   6.478   9.494
 3093W        W 6612   7.647   0.310  11.598
 3094W        W 6613   8.336   0.239   9.209
 3095W        W 6614   4.213   3.267   8.187
 3096W        W 6615   5.442   9.759   8.843
 3097W        W 6616   0.273   9.116  11.339
 3098W        W 6617   6.351   1.976   1.118
 3099W        W 6618   1.379   4.417   9.186
 3100W        W 6619   2.282   0.365   1.444
 3101W        W 6620   7.011   4.977   8.279
 3102W        W 6621   4.064   9.346  10.522
 3103W        W 6622   3.704   6.101   8.255
 3104W        W 6623   1.379   8.991  11.350
 3105W        W 6624   6.018   1.032   9.902
 3106W        W 6625   1.851   7.907   1.988
 3107W        W 6626   0.205   6.793  11.302
 3108W        W 6627   4.233   7.053  10.180
 3109W        W 6628   7.046   5.226   3.301
 3110W        W 6629   7.102   6.036   1.489
 3111W        W 6630   1.835   8.472  10.749
 3112W        W 6631   7.526   9.431   9.800
 3113W        W 6632   6.192   4.302   1.706
 3114W        W 6633   4.316   9.417   2.337
 3115W        W 6634   7.169   5.908  10.575
 3116W        W 6635   3.377   6.398   1.820
 3117W        W 6636   3.977   2.503   2.288
 3118W        W 6637   0.347   8.093   8.937
 3119W        W 6638   0.758   6.672  10.328
 3120W        W 6639   1.219   4.576   3.496
 3121W        W 6640   0.811   9.998  10.717
 3122W        W 6641   1.188   7.809   1.307
 3123W        W 6642   7.787   0.712  11.884
 3124W        W 6643   9.464   8.965   9.933
 3125W        W 6644   3.323   8.954  11.738
 3126W        W 6645   3.137   2.784  10.185
 3127W        W 6646   9.436   4.517  10.384
 3128W        W 6647   5.228   2.003  10.474
 3129W        W 6648   9.047   5.139   8.927
 3130W        W 6649   4.007   9.816   2.385
 3131W        W 6650   5.718   7.586   1.369
 3132W        W 6651   0.526   5.670   2.154
 3133W        W 6652   4.661   7.854  11.857
 3134W        W 6653   5.097   1.158   9.873
 3135W        W 6654   4.066   9.457  11.574
 3136W        W 6655   7.434   5.201   2.423
 3137W        W 6656   4.567   2.801  10.368
 3138W        W 6657   2.486   6.534   3.217
 3139W        W 6658   0.252   9.733   1.833
 3140W        W 6659   7.824   7.927   2.723
 3141W        W 6660   1.381   2.176  10.040
 3142W        W 6661   8.546   8.442  11.902
 3143W        W 6662   3.558   4.549   0.468
 3144W        W 6663   1.708   6.623   3.260
 3145W        W 6664   8.283   7.947   2.517
 3146W        W 6665   9.239   6.072  11.904
 3147W        W 6666   9.292   0.978   2.921
 3148W        W 6667   0.342   7.808  10.499
 3149W        W 6668   1.905   2.410   0.940
 3150W        W 6669   3.582   2.577  10.349
 3151W        W 6670   6.182   2.679   0.691
 3152W        W 6671   7.508   5.370   9.004
 3153W        W 6672   9.820   7.082   0.074
 3154W        W 6673   7.922   1.654   1.825
 3155W        W 6674   2.900   8.639   9.901
 3156W        W 6675   4.982   1.392  11.388
 3157W        W 6676   4.657   6.522   1.491
 3158W        W 6677   5.643   6.822   0.760
 3159W        W 6678   5.962   0.294   9.418
 3160W        W 6679   2.200   7.940  10.198
 3161W        W 6680   0.016   4.178  10.790
 3162W        W 6681   9.895   3.420   0.301
 3163W        W 6682   8.029   5.806  10.478
 3164W        W 6683   4.698   6.323   9.374
 3165W        W 6684   8.553   0.557  11.201
 3166W        W 6685   8.953   5.711   0.807
 3167W        W 6686   6.101   6.628   9.104
 3168W        W 6687   1.296   3.096  11.688
 3169W        W 6688   4.274   5.505   1.912
 3170W        W 6689   4.114   1.370  11.257
 3171W        W 6690   9.200   4.571   0.485
 3172W        W 6691   4.835   0.896   2.204
 3173W        W 6692   6.992   2.262  10.934
 3174W        W 6693   4.882   1.602   1.322
 3175W        W 6694   5.229   0.244   0.734
 3176W        W 6695   2.147   4.969   3.640
 3177W        W 6696   3.304   6.587  11.796
 3178W        W 6697   4.607   1.762   2.713
 3179W        W 6698   3.598   1.142   9.172
 3180W        W 6699   3.563   4.621   7.945
 3181W        W 6700   2.806   3.796  11.034
 3182W        W 6701   2.572   4.300   9.800
 3183W        W 6702   1.318   2.687  11.339
 3184W        W 6703   3.252   0.807   9.388
 3185W        W 6704   6.115   5.674   4.160
 3186W        W 6705   0.843   6.997   0.372
 3187W        W 6706   1.569   3.057  10.828
 3188W        W 6707   9.272   8.417   0.365
 3189W        W 6708   6.937   5.063   2.319
 3190W        W 6709   5.429   7.093  11.009
 3191W        W 6710   6.021   9.509  11.314
 3192W        W 6711   8.202   2.754   2.567
 3193W        W 6712   5.237   9.981   0.294
 3194W        W 6713   6.895   9.813   2.163
 3195W        W 6714   5.209   5.094  10.920
 3196W        W 6715   3.839   8.972   3.173
 3197W        W 6716   9.378   3.439  11.090
 3198W        W 6717   4.454   7.098   2.312
 3199W        W 6718   0.448   6.442   1.717
 3200W        W 6719   5.635   4.578   3.459
 3201W        W 6720   0.816   1.051   9.075
 3202W        W 6721   5.099   1.434   3.149
 3203W        W 6722   6.599   9.215  11.345
 3204W        W 6723   1.756   4.251  11.547
 3205W        W 6724   8.347   7.079   0.019
 3206W        W 6725   4.546   6.451   9.837
 3207W        W 6726   6.673   3.845   9.706
 3208W        W 6727   8.601   1.056  10.309
 3209W        W 6728   3.378   2.582  11.927
 3210W        W 6729   0.412   9.704  10.562
 3211W        W 6730   1.375   5.992   3.008
 3212W        W 6731   7.331   4.373   9.215
 3213W        W 6732   5.181   1.493  10.366
 3214W        W 6733   3.640   4.968   9.169
 3215W        W 6734   8.539   4.257  11.852
 3216W        W 6735   4.346   4.296   1.443
 3217W        W 6736   9.452   1.882   3.431
 3218W        W 6737   3.086   3.787  10.182
 3219W        W 6738   6.445   6.251  11.055
 3220W        W 6739   5.279   7.717   3.603
 3221W        W 6740   0.414   4.318  10.524
 3222W        W 6741   1.387   0.321   1.569
 3223W        W 6742   1.239   2.399   2.274
 3224W        W 6743   9.952   1.700   9.860
 3225W        W 6744   1.756   7.495   9.765
 3226W        W 6745   2.387   3.330   2.765
 3227W        W 6746   5.220   3.669   3.196
 3228W        W 6747   0.515   2.154  10.057
 3229W        W 6748   1.604   0.982   2.667
 3230W        W 6749   7.546   4.789  11.882
 3231W        W 6750   6.540   7.656   0.341
 3232W        W 6751   6.568   4.696   3.394
 3233W        W 6752   6.820   9.237   3.134
 3234W        W 6753   2.073   9.215   3.001
 3235W        W 6754   0.466   6.404  11.128
 3236W        W 6755   4.280   3.065   3.135
 3237W        W 6756   2.229   5.623  11.115
 3238W        W 6757   5.702   3.604   2.206
 3239W        W 6758   9.001   0.981   0.358
 3240W        W 6759   3.123   7.115  10.541
 3241W        W 6760   4.290   4.612  11.848
 3242W        W 6761   0.717   8.299   0.823
 3243W        W 6762   0.896   7.641  10.448
 3244W        W 6763   0.871   1.541   2.689
 3245W        W 6764   4.262   2.361   8.687
 3246W        W 6765   0.110   0.700   1.436
 3247W        W 6766   0.365   1.827   0.432
 3248W        W 6767   0.290   5.598   3.404
 3249W        W 6768   4.746   1.234   3.484
 3250W        W 6769   9.499   6.618   1.192
 3251W        W 6770   6.936   0.175   1.787
 3252W        W 6771   4.132   1.588   2.559
 3253W        W 6772   5.066   5.890  11.116
 3254W        W 6773   6.636   8.185   9.044
 3255W        W 6774   8.087   9.103   1.884
 3256W        W 6775   4.355   6.184   9.026
 3257W        W 6776   7.103   1.736   9.225
 3258W        W 6777   8.902   3.997  11.052
 3259W        W 6778   2.982   6.523   3.358
 3260W        W 6779   6.042   4.320   9.099
 3261W        W 6780   1.638   3.584   9.574
 3262W        W 6781   9.819   9.538  11.990
 3263W        W 6782   6.915   7.697   0.737
 3264W        W 6783   9.856   6.883   2.844
 3265W        W 6784   2.005   0.836  10.711
 3266W        W 6785   4.163   1.998   2.243
 3267W        W 6786   6.909   7.803   8.801
 3268W        W 6787   9.451   0.755   9.020
 3269W        W 6788   0.610   4.641   9.566
 3270W        W 6789   6.633   6.072   3.708
 3271W        W 6790   8.595   5.762   2.913
 3272W        W 6791   8.459   1.352   2.471
 3273W        W 6792   9.220   2.681   1.045
 3274W        W 6793   5.958   6.097   0.855
 3275W        W 6794   1.960   1.717   1.365
 3276W        W 6795   7.877   9.828   2.299
 3277W        W 6796   6.980   6.957   0.408
 3278W        W 6797   9.342   0.047   2.267
 3279W        W 6798   0.454   0.374   0.510
 3280W        W 6799   3.643   0.739  10.315
 3281W        W 6800   2.357   0.744   3.542
 3282W        W 6801   8.627   4.135   8.453
 3283W        W 6802   6.512   4.689   1.785
 3284W        W 6803   2.521   5.567   8.481
 3285W        W 6804   7.575   2.236   0.303
 3286W        W 6805   0.767   3.970  10.281
 3287W        W 6806   3.648   1.527  11.368
 3288W        W 6807   4.869   7.173   8.576
 3289W        W 6808   1.240   6.279   8.641
 3290W        W 6809   9.535   5.027   0.551
 3291W        W 6810   4.644   2.732  11.873
 3292W        W 6811   8.066   6.497   9.407
 3293W        W 6812   1.832   3.248   1.436
 3294W        W 6813   7.687   9.867  11.854
 3295W        W 6814   7.048   4.893   0.033
 3296W        W 6815   7.576   8.396  11.750
 3297W        W 6816   9.958   0.956   0.602
 3298W        W 6817   6.337   5.367  11.386
 3299W        W 6818   5.167   4.637   9.125
 3300W        W 6819   4.132   4.131   3.396
 3301W        W 6820   4.486   3.185   1.775
 3302W        W 6821   9.936   9.476   2.732
 3303W        W 6822   7.047   8.128   1.753
 3304W        W 6823   7.682   3.100   9.640
 3305W        W 6824   0.827   9.752   0.012
 3306W        W 6825   3.516   3.820   2.542
 3307W        W 6826   5.447   7.831   8.992
 3308W        W 6827   5.910   9.650   1.683
 3309W        W 6828   3.968   2.743   0.568
 3310W        W 6829   5.054   3.288  10.532
 3311W        W 6830   6.613   7.005   4.248
 3312W        W 6831   8.075   8.606   1.800
 3313W        W 6832   3.881   0.283  11.796
 3314W        W 6833   0.330   0.454  11.244
 3315W        W 6834   7.938   1.358   1.256
 3316W        W 6835   0.169   1.712   0.990
 3317W        W 6836   3.541   8.884   3.606
 3318W        W 6837   3.903   6.316   3.816
 3319W        W 6838   6.365   0.114   9.664
 3320W        W 6839   8.055   6.403   0.385
 3321W        W 6840   6.395   4.768   9.086
 3322W        W 6841   0.813   4.835   2.396
 3323W        W 6842   2.867   2.307   3.343
 3324W        W 6843   5.447   1.475   9.676
 3325W        W 6844   6.701   5.710   4.079
 3326W        W 6845   8.465   7.967   2.994
 3327W        W 6846   9.870   9.912  11.269
 3328W        W 6847   2.213   1.040   2.159
 3329W        W 6848   2.393   6.897   9.960
 3330W        W 6849   9.053   3.539   2.962
 3331W        W 6850   7.497   3.719   1.456
 3332W        W 6851   1.038   6.608   1.823
 3333W        W 6852   6.004   2.731   9.806
 3334W        W 6853   8.879   1.449   0.537
 3335W        W 6854   9.027   9.648   2.287
 3336W        W 6855   4.694   7.034  10.503
 3337W        W 6856   3.903   5.862  11.769
 3338W        W 6857   6.035   3.196  10.505
 3339W        W 6858   9.830   8.820   9.506
 3340W        W 6859   9.247   0.859  10.897
 3341W        W 6860   5.622   8.358  11.754
 3342W        W 6861   0.653   8.647  10.718
 3343W        W 6862   7.367   9.081   0.482
 3344W        W 6863   1.154   5.078   1.076
 3345W        W 6864   4.626   1.787   9.010
 3346W        W 6865   2.054   2.673   8.647
 3347W        W 6866   5.677   5.203   0.310
 3348W        W 6867   1.263   6.273   0.080
 3349W        W 6868   5.564   9.317   9.755
 3350W        W 6869   1.744   0.882  10.246
 3351W        W 6870   6.530   2.132   0.012
 3352W        W 6871   2.274   9.896  11.003
 3353W        W 6872   5.816   9.064   0.028
 3354W        W 6873   0.182   1.372   3.825
 3355W        W 6874   3.747   3.761  11.835
 3356W        W 6875   2.217   6.037   1.979
 3357W        W 6876   8.124   7.088   8.843
 3358W        W 6877   4.882   4.056   0.458
 3359W        W 6878   5.134   6.840   0.381
 3360W        W 6879   7.968   5.475   1.338
 3361W        W 6880   6.153   5.611   0.785
 3362W        W 6881   0.982   4.162   9.487
 3363W        W 6882   3.369   0.368   9.582
 3364W        W 6883   6.396   8.719  11.454
 3365W        W 6884   8.439   2.658   9.207
 3366W        W 6885   9.444   0.276   8.833
 3367W        W 6886   7.758   5.129   1.018
 3368W        W 6887   7.935   7.556  11.170
 3369W        W 6888   3.497   6.099   1.426
 3370W        W 6889   0.819   1.708   8.959
 3371W        W 6890   6.807   7.486  11.298
 3372W        W 6891   0.875   9.769   0.990
 3373W        W 6892   4.092   3.080   0.928
 3374W        W 6893   7.856   8.234   9.851
 3375W        W 6894   1.913   7.117  11.760
 3376W        W 6895   0.184   7.886   9.367
 3377W        W 6896   5.396   4.233   9.754
 3378W        W 6897   7.463   5.673   3.530
 3379W        W 6898   8.209   4.259   0.607
 3380W        W 6899   0.956   2.300  11.544
 3381W        W 6900   4.796   6.449   0.658
 3382W        W 6901   4.678   0.873   2.685
 3383W        W 6902   6.398   7.516   9.906
 3384W        W 6903   3.691   0.477   1.844
 3385W        W 6904   9.772   6.739   2.375
 3386W        W 6905   4.790   0.401  11.391
 3387W        W 6906   7.429   8.344  10.886
 3388W        W 6907   3.748   9.988  11.406
 3389W        W 6908   0.540   3.703   1.210
 3390W        W 6909   3.167   5.899   0.565
 3391W        W 6910   7.847   8.163   1.784
 3392W        W 6911   3.954   5.910   9.556
 3393W        W 6912   9.265   5.468   3.265
 3394W        W 6913   8.556   7.428   0.830
 3395W        W 6914   9.561   5.235   0.081
 3396W        W 6915   8.168   0.732  10.237
 3397W        W 6916   2.772   4.412   8.463
 3398W        W 6917   0.469   0.867   0.586
 3399W        W 6918   6.932   6.492   3.550
 3400W        W 6919   9.564   3.360  11.901
 3401W        W 6920   9.218   8.183  10.098
 3402W        W 6921   3.089   4.369   0.384
 3403W        W 6922   4.652   6.686   3.629
 3404W        W 6923   3.711   0.709  10.835
 3405W        W 6924   9.683   1.779   1.347
 3406W        W 6925   9.834   0.255   1.224
 3407W        W 6926   2.654   0.786  11.886
 3408W        W 6927   5.043   6.232   3.861
 3409W        W 6928   8.947   9.920   9.582
 3410W        W 6929   5.749   0.128   1.812
 3411W        W 6930   4.989   9.368  11.921
 3412W        W 6931   0.354   7.959  11.771
 3413W        W 6932   7.817   6.703   9.004
 3414W        W 6933   4.583   7.921  10.918
 3415W        W 6934   8.649   0.359   3.114
 3416W        W 6935   3.057   3.339  11.427
 3417W        W 6936   2.246   6.076   0.920
 3418W        W 6937   9.032   0.765  10.406
 3419W        W 6938   8.407   9.350  11.901
 3420W        W 6939   5.216   1.910   8.509
 3421W        W 6940   0.789   8.072  11.512
 3422W        W 6941   7.909   3.377   1.304
 3423W        W 6942   2.197   4.330   2.804
 3424W        W 6943   8.049   4.621   9.870
 3425W        W 6944   3.742   8.887   0.757
 3426W        W 6945   0.451   4.207  11.049
 3427W        W 6946   5.006   2.098  11.774
 3428W        W 6947   5.005   9.985   2.228
 3429W        W 6948   4.306   8.929   3.399
 3430W        W 6949   0.269   8.790  10.333
 3431W        W 6950   2.581   4.701   2.883
 3432W        W 6951   3.170   2.253   9.465
 3433W        W 6952   6.293   3.020  10.107
 3434W        W 6953   1.523   2.177   3.227
 3435W        W 6954   2.498   2.629   9.521
 3436W        W 6955   6.588   1.747   1.943
 3437W        W 6956   2.794   5.956   0.192
 3438W        W 6957   7.394   2.659   9.584
 3439W        W 6958   3.584   4.586   8.821
 3440W        W 6959   8.431   2.666  10.957
 3441W        W 6960   0.354   5.957   0.777
 3442W        W 6961   1.248   8.058  11.763
 3443W        W 6962   9.258   3.795  10.756
 3444W        W 6963   9.584   1.724  10.911
 3445W        W 6964   1.438   3.075  10.298
 3446W        W 6965   7.151   5.045   8.782
 3447W        W 6966   1.301   9.368  10.345
 3448W        W 6967   6.412   0.979  10.612
 3449W        W 6968   3.115   9.013   9.304
 3450W        W 6969   6.242   1.813   8.776
 3451W        W 6970   3.745   8.519  10.074
 3452W        W 6971   3.756   7.897   2.486
 3453W        W 6972   1.789   1.786   9.580
 3454W        W 6973   8.102   3.080   1.722
 3455W        W 6974   6.089   1.853  10.736
 3456W        W 6975   5.967   3.401  10.014
 3457W        W 6976   6.019   9.499   9.176
 3458W        W 6977   6.057   4.210   1.219
 3459W        W 6978   9.550   5.337  10.038
 3460W        W 6979   6.388   0.201   1.137
 3461W        W 6980   0.447   9.339   0.323
 3462W        W 6981   7.889   3.219   9.176
 3463W        W 6982   1.653   2.693   2.595
 3464W        W 6983   6.904   2.357   9.129
 3465W        W 6984   3.163   9.969   9.210
 3466W        W 6985   3.482   9.420   3.671
 3467W        W 6986   5.257   6.951   2.823
 3468W        W 6987   1.839   3.781  11.741
 3469W        W 6988   8.168   1.477  10.976
 3470W        W 6989   5.055   3.595   8.135
 3471W        W 6990   0.825   3.228   3.626
 3472W        W 6991   8.726   9.350   1.449
 3473W        W 6992   5.273   4.606  11.134
 3474W        W 6993   4.975   7.637   9.856
 3475W        W 6994   7.917   2.253  10.389
 3476W        W 6995   6.009   4.783   1.743
 3477W        W 6996   1.545   4.323   9.672
 3478W        W 6997   6.159   6.368   2.895
 3479W        W 6998   5.522   3.493  10.285
 3480W        W 6999   5.348   2.976   8.731
 3481W        W 7000   7.583   8.465   2.163
 3482W        W 7001   3.687   3.501   8.883
 3483W        W 7002   3.281   4.614   3.426
 3484W        W 7003   4.604   3.603   2.877
 3485W        W 7004   3.476   7.921   0.182
 3486W        W 7005   6.977   4.629   2.638
 3487W        W 7006   2.238   4.576   3.269
 3488W        W 7007   8.453   3.367   1.941
 3489W        W 7008   4.249   7.510   0.265
 3490W        W 7009   0.265   5.423  10.568
 3491W        W 7010   2.344   0.181  10.017
 3492W        W 7011   1.320   2.341   9.051
 3493W        W 7012   7.365   6.148   3.295
 3494W        W 7013   2.682   7.037   0.306
 3495W        W 7014   3.668   5.359   3.722
 3496W        W 7015   2.733   6.886  10.768
 3497W        W 7016   1.739   8.962  11.749
 3498W        W 7017   4.130   8.573  11.735
 3499W        W 7018   5.540   2.909  11.644
 3500W        W 7019   5.438   0.446   0.267
 3501W        W 7020   0.381   4.181   1.297
 3502W        W 7021   9.655   6.072   8.218
 3503W        W 7022   4.432   7.059   8.804
 3504W        W 7023   8.901   9.477  11.944
 3505W        W 7024   6.110   5.122   0.912
 3506W        W 7025   9.028   2.646   2.907
 3507W        W 7026   2.773   3.272   1.538
 3508W        W 7027   5.719   7.076   1.901
 3509W        W 7028   5.139   7.759   3.079
 3510W        W 7029   4.145   7.517   9.716
 3511W        W 7030   3.529   6.872  11.265
 3512W        W 7031   0.900   2.779   0.267
 3513W        W 7032   1.356   1.864   9.300
 3514W        W 7033   4.210   5.550   2.930
 3515W        W 7034   9.383   7.251   9.174
 3516W        W 7035   5.161   9.953   3.115
 3517W        W 7036   6.568   6.721   1.585
 3518W        W 7037   2.109   4.785  10.348
 3519W        W 7038   3.387   0.300  11.617
 3520W        W 7039   3.534   9.409   0.771
 3521W        W 7040   5.548   1.957  11.832
 3522W        W 7041   8.521   6.863  11.053
 3523W        W 7042   8.804   0.056   2.631
 3524W        W 7043   7.292   0.118   1.414
 3525W        W 7044   2.013   8.366   9.387
 3526W        W 7045   1.919   1.383   2.729
 3527W        W 7046   4.430   7.068  10.957
 3528W        W 7047   5.147   1.396   0.405
 3529W        W 7048   9.931   8.456  11.045
 3530W        W 7049   0.017   0.404   2.672
 3531W        W 7050   6.255   6.484  11.886
 3532W        W 7051   2.868   7.786   1.066
 3533W        W 7052   5.629   0.693   2.165
 3534W        W 7053   0.337   6.048   9.234
 3535W        W 7054   1.823   9.505   1.441
 3536W        W 7055   5.032   6.964   8.144
 3537W        W 7056   9.506   8.465   9.273
 3538W        W 7057   6.702   4.496  11.017
 3539W        W 7058   0.993   0.765  11.717
 3540W        W 7059   7.155   6.488   0.404
 3541W        W 7060   8.970   3.564  11.930
 3542W        W 7061   2.322   1.202   9.910
 3543W        W 7062   1.302   8.277   1.420
 3544W        W 7063   9.364   8.558   1.834
 3545W        W 7064   5.548   3.839   8.220
 3546W        W 7065   9.891   0.250  10.484
 3547W        W 7066   8.210   4.727   2.728
 3548W        W 7067   8.985   8.232   0.763
 3549W        W 7068   6.133   0.730   0.523
 3550W        W 7069   5.492   5.052   9.187
 3551W        W 7070   5.840   6.946   8.756
 3552W        W 7071   0.765   7.868  10.018
 3553W        W 7072   6.614   5.627   3.265
 3554W        W 7073   0.357   3.966   0.784
 3555W        W 7074   2.185   1.675  11.753
 3556W        W 7075   5.149   1.608  11.872
 3557W        W 7076   7.863   6.807   3.109
 3558W        W 7077   0.924   1.472   9.951
 3559W        W 7078   0.632   9.819   1.498
 3560W        W 7079   4.318   9.082   9.700
 3561W        W 7080   7.831   3.224  11.329
 3562W        W 7081   6.971   3.769  10.614
 3563W        W 7082   6.948   8.456   0.285
 3564W        W 7083   6.926   1.121   9.880
 3565W        W 7084   1.732   2.636  10.280
 3566W        W 7085   0.948   9.481  11.201
 3567W        W 7086   6.535   7.990  10.013
 3568W        W 7087   6.973   9.644  10.226
 3569W        W 7088   1.839   8.881   1.860
 3570W        W 7089   1.144   5.036   3.253
 3571W        W 7090   9.849   6.042   0.637
 3572W        W 7091   8.986   3.066   3.181
 3573W        W 7092   4.552   7.397  10.002
 3574W        W 7093   4.657   7.006   1.704
 3575W        W 7094   4.517   9.129  10.333
 3576W        W 7095   9.310   7.181   1.721
 3577W        W 7096   8.723   4.473   9.245
 3578W        W 7097   9.809   8.835   1.014
 3579W        W 7098   9.233   0.321   9.340
 3580W        W 7099   1.328   1.164   9.979
 3581W        W 7100   8.071   8.720   9.884
 3582W        W 7101   7.708   6.213   9.185
 3583W        W 7102   4.288   8.361  10.793
 3584W        W 7103   1.773   6.139   0.749
 3585W        W 7104   1.677   0.680   8.763
 3586W        W 7105   4.185   7.855   2.788
 3587W        W 7106   6.721   9.315   3.620
 3588W        W 7107   6.477   0.892  10.121
 3589W        W 7108   4.881   8.230   3.472
 3590W        W 7109   5.256   7.461   2.300
 3591W        W 7110   5.764   7.458   8.733
 3592W        W 7111   1.751   2.046   8.942
 3593W        W 7112   2.769   0.888   9.563
 3594W        W 7113   5.031   7.303   0.530
 3595W        W 7114   9.920   9.798  10.783
 3596W        W 7115   3.282   5.153   9.492
 3597W        W 7116   1.532   9.901   1.306
 3598W        W 7117   0.439   1.709   2.930
 3599W        W 7118   7.284   9.086  11.450
 3600W        W 7119   1.941   0.307   9.001
 3601W        W 7120   7.303   5.227   3.738
 3602W        W 7121   9.560   9.661  10.442
 3603W        W 7122   4.733   0.733   1.714
 3604W        W 7123   7.000   1.274   2.187
 3605W        W 7124   1.803   5.710   1.047
 3606W        W 7125   2.349   1.178   3.286
 3607W        W 7126   6.573   4.890   0.938
 3608W        W 7127   9.533   0.106   3.027
 3609W        W 7128   5.543   8.326   2.622
 3610W        W 7129   1.341   7.621  11.992
 3611W        W 7130   6.643   3.394   0.784
 3612W        W 7131   4.739   1.116   9.455
 3613W        W 7132   2.634   2.183   1.683
 3614W        W 7133   0.557   3.183   3.196
 3615W        W 7134   8.553   8.926   1.194
 3616W        W 7135   6.212   1.209   3.318
 3617W        W 7136   5.235   7.404   4.011
 3618W        W 7137   6.111   4.768  11.520
 3619W        W 7138   2.320   9.883   0.864
 3620W        W 7139   2.406   2.460   0.849
 3621W        W 7140   7.213   2.570   3.545
 3622W        W 7141   5.583   6.595   2.024
 3623W        W 7142   4.755   2.236   3.493
 3624W        W 7143   1.846   9.964   1.756
 3625W        W 7144   6.615   8.266   9.559
 3626W        W 7145   1.326   4.147   2.685
 3627W        W 7146   6.424   3.148   8.766
 3628W        W 7147   3.202   5.589   2.854
 3629W        W 7148   5.332   5.856   4.039
 3630W        W 7149   9.641   5.150   3.110
 3631W        W 7150   5.497   9.025   0.454
 3632W        W 7151   3.629   2.088  10.449
 3633W        W 7152   6.885   7.317   9.965
 3634W        W 7153   3.066   9.471   0.961
 3635W        W 7154   3.345   3.663   9.746
 3636W        W 7155   5.601   9.953   0.998
 3637W        W 7156   8.897   5.984   9.528
 3638W        W 7157   8.601   5.729   0.288
 3639W        W 7158   7.625   3.252   1.720
 3640W        W 7159   5.204   5.801   1.691
 3641W        W 7160   7.876   0.052   9.018
 3642W        W 7161   0.483   9.208  10.521
 3643W        W 7162   1.543   5.063   1.579
 3644W        W 7163   8.365   8.836   2.656
 3645W        W 7164   4.278   0.721   0.469
 3646W        W 7165   5.185   9.356   2.204
 3647W        W 7166   4.672   3.657  11.749
 3648W        W 7167   4.493   1.874   9.863
 3649W        W 7168   8.832   2.184   2.859
 3650W        W 7169   5.370   7.622   8.467
 3651W        W 7170   0.429   1.850  11.443
 3652W        W 7171   1.873   9.039   8.866
 3653W        W 7172   0.390   7.027   0.827
 3654W        W 7173   4.227   3.311   2.686
 3655W        W 7174   8.112   3.724  11.933
 3656W        W 7175   6.815   2.346  11.395
 3657W        W 7176   0.948   2.363  10.718
 3658W        W 7177   2.878   2.752   3.754
 3659W        W 7178   6.106   9.949   2.119
 3660W        W 7179   6.778   4.639   1.343
 3661W        W 7180   6.567   8.785   3.100
 3662W        W 7181   8.099   9.228   9.978
 3663W        W 7182   3.131   7.547  10.235
 3664W        W 7183   9.657   2.822  11.716
 3665W        W 7184   9.648   4.705  10.905
 3666W        W 7185   6.071   9.914   3.191
 3667W        W 7186   1.767   8.056   1.473
 3668W        W 7187   3.551   6.595   9.990
 3669W        W 7188   1.830   1.718   2.331
 3670W        W 7189   0.708   5.970  10.902
 3671W        W 7190   7.167   0.228   3.219
 3672W        W 7191   1.605   7.474   1.711
 3673W        W 7192   4.637   8.755   8.685
 3674W        W 7193   2.295   7.060   2.594
 3675W        W 7194   7.658   7.881  10.892
 3676W        W 7195   1.293   0.429   1.070
 3677W        W 7196   0.567   0.853  11.445
 3678W        W 7197   3.219   4.660   2.061
 3679W        W 7198   7.132   5.302  11.749
 3680W        W 7199   5.174   7.844   1.063
 3681W        W 7200   4.521   0.170  10.595
 3682W        W 7201   4.963   3.101  11.003
 3683W        W 7202   8.424   9.902   1.052
 3684W        W 7203   1.660   4.490  10.813
 3685W        W 7204   8.437   0.417   2.681
 3686W        W 7205   4.028   3.379   1.366
 3687W        W 7206   0.428   1.764  10.929
 3688W        W 7207   5.120   5.711   2.183
 3689W        W 7208   6.804   5.553  11.428
 3690W        W 7209   5.604   2.635   1.892
 3691W        W 7210   0.788   4.331   9.924
 3692W        W 7211   3.001   8.812   1.360
 3693W        W 7212   9.039   9.945   9.038
 3694W        W 7213   2.225   4.461  11.698
 3695W        W 7214   6.291   9.105   9.424
 3696W        W 7215   9.338   5.721   9.511
 3697W        W 7216   8.044   6.237   8.812
 3698W        W 7217   4.257   7.543  10.926
 3699W        W 7218   8.318   6.595   3.262
 3700W        W 7219   7.438   4.016   8.846
 3701W        W 7220   7.809   2.694   9.312
 3702W        W 7221   0.394   4.830  10.517
 3703W        W 7222   3.086   8.415  11.586
 3704W        W 7223   2.236   7.406   9.952
 3705W        W 7224   7.968   7.900   1.298
 3706W        W 7225   2.203   1.847   2.643
 3707W        W 7226   6.170   5.241   9.798
 3708W        W 7227   2.360   0.301   3.265
 3709W        W 7228   0.376   6.410  11.674
 3710W        W 7229   4.804   9.553   3.047
 3711W        W 7230   2.590   0.452   0.241
 3712W        W 7231   3.853   4.640   2.172
 3713W        W 7232   2.278   5.209  10.615
 3714W        W 7233   5.404   1.090   0.832
 3715W        W 7234   9.288   2.047  10.074
 3716W        W 7235   2.275   0.895   9.371
 3717W        W 7236   1.789   8.690   0.815
 3718W        W 7237   7.237   6.835  10.620
 3719W        W 7238   4.080   8.547   2.038
 3720W        W 7239   2.846   4.630  11.033
 3721W        W 7240   4.727   5.610   1.709
 3722W        W 7241   1.720   8.781   2.385
 3723W        W 7242   0.269   8.276  10.264
 3724W        W 7243   6.669   6.688   0.099
 3725W        W 7244   6.588   5.077   9.447
 3726W        W 7245   0.438   2.102  11.897
 3727W        W 7246   7.581   8.927   2.809
 3728W        W 7247   3.677   0.054  10.021
 3729W        W 7248   2.243   6.403   1.318
 3730W        W 7249   5.450   3.643   0.293
 3731W        W 7250   3.598   5.041   1.965
 3732W        W 7251   1.137   4.278   1.733
 3733W        W 7252   5.979   8.451  11.394
 3734W        W 7253   8.746   8.556   2.901
 3735W        W 7254   0.930   7.955   2.064
 3736W        W 7255   3.252   9.924   9.752
 3737W        W 7256   7.474   6.993   2.618
 3738W        W 7257   4.837   5.264   0.389
 3739W        W 7258   2.708   8.442   3.418
 3740W        W 7259   5.482   9.453   0.163
 3741W        W 7260   2.367   4.606   1.885
 3742W        W 7261   3.546   9.251   9.411
 3743W        W 7262   5.679   4.007   2.532
 3744W        W 7263   8.873   9.745   0.671
 3745W        W 7264   3.896   2.635   8.981
 3746W        W 7265   6.021   2.807   1.644
 3747W        W 7266   9.066   0.483   2.857
 3748W        W 7267   1.246   8.277   8.814
 3749W        W 7268   6.789   1.240  10.358
 3750W        W 7269   5.104   8.542   8.698
 3751W        W 7270   9.434   4.688   1.936
 3752W        W 7271   9.773   9.793   0.940
 3753W        W 7272   4.966   0.304   1.225
 3754W        W 7273   0.403   5.553  11.044
 3755W        W 7274   8.094   4.140  11.622
 3756W        W 7275   0.363   4.638  10.056
 3757W        W 7276   2.240   8.408   2.664
 3758W        W 7277   3.972   1.868   0.446
 3759W        W 7278   3.802   2.765  11.727
 3760W        W 7279   1.194   2.130   1.810
 3761W        W 7280   6.359   4.118   9.438
 3762W        W 7281   6.251   6.067   8.845
 3763W        W 7282   5.989   9.436   0.306
 3764W        W 7283   4.918   1.155  11.828
 3765W        W 7284   5.918   5.282   1.830
 3766W        W 7285   2.775   5.965  10.787
 3767W        W 7286   1.307   2.343   2.806
 3768W        W 7287   2.263   0.013   2.425
 3769W        W 7288   7.186   9.119   0.010
 3770W        W 7289   6.909   4.939   0.538
 3771W        W 7290   6.913   5.304   0.889
 3772W        W 7291   9.039   3.869   1.252
 3773W        W 7292   4.207   0.930  11.518
 3774W        W 7293   6.882   8.802  11.425
 3775W        W 7294   6.699   9.022   8.793
 3776W        W 7295   4.561   0.258   8.911
 3777W        W 7296   8.449   8.053   9.640
 3778W        W 7297   8.931   4.386   1.300
 3779W        W 7298   1.778   9.594   2.839
 3780W        W 7299   2.701   9.260  11.721
 3781W        W 7300   2.261   9.499   9.452
 3782W        W 7301   8.008   7.873   0.338
 3783W        W 7302   6.949   4.732   9.160
 3784W        W 7303   0.111   0.139   0.219
 3785W        W 7304   7.590   5.605   1.979
 3786W        W 7305   4.490   0.850   3.175
 3787W        W 7306   4.283   1.846   1.734
 3788W        W 7307   7.206   1.333   3.122
 3789W        W 7308   2.339   9.891   3.573
 3790W        W 7309   6.843   2.921   3.383
 3791W        W 7310   0.067   7.615  11.533
 3792W        W 7311   4.955   1.458   8.814
 3793W        W 7312   7.543   7.110  10.300
 3794W        W 7313   4.792   8.993   0.970
 3795W        W 7314   2.389   0.791  11.072
 3796W        W 7315   5.060   3.105   0.542
 3797W        W 7316   5.607   5.946   9.512
 3798W        W 7317   3.222   9.893  10.776
 3799W        W 7318   1.634   2.377   1.927
 3800W        W 7319   2.249   4.021   1.308
 3801W        W 7320   0.831   8.913   2.141
 3802W        W 7321   2.148   3.161   2.329
 3803W        W 7322   6.082   2.646  11.814
 3804W        W 7323   9.707   4.570   0.430
 3805W        W 7324   1.510   4.507   0.798
 3806W        W 7325   5.181   4.113   2.453
 3807W        W 7326   8.939   7.540   0.503
 3808W        W 7327   3.249   6.628  10.405
 3809W        W 7328   4.545   2.269   1.857
 3810W        W 7329   2.837   1.476   2.736
 3811W        W 7330   5.628   4.330   8.376
 3812W        W 7331   8.337   9.053  11.475
 3813W        W 7332   8.180   1.892  11.280
 3814W        W 7333   0.372   0.717   2.910
 3815W        W 7334   5.771   5.549   2.844
 3816W        W 7335   4.795   4.329  10.975
 3817W        W 7336   1.859   2.290   2.861
 3818W        W 7337   4.419   2.815   0.353
 3819W        W 7338   8.223   3.886   8.669
 3820W        W 7339   1.276   0.634   2.290
 3821W        W 7340   2.044   7.427   2.890
 3822W        W 7341   3.436   4.688   2.531
 3823W        W 7342   7.823   9.519   0.524
 3824W        W 7343   7.611   0.775  11.375
 3825W        W 7344   5.419   8.153   3.230
 3826W        W 7345   1.320   4.413  11.820
 3827W        W 7346   9.513   1.249  10.769
 3828W        W 7347   3.974   7.502   1.894
 3829W        W 7348   6.250   0.385   3.446
 3830W        W 7349   4.687   7.465   1.452
 3831W        W 7350   3.505   3.308  10.802
 3832W        W 7351   7.956   3.918   2.254
 3833W        W 7352   2.414   2.002   0.056
 3834W        W 7353   7.312   7.015   9.822
 3835W        W 7354   3.636   2.017   9.523
 3836W        W 7355   9.301   1.346   1.318
 3837W        W 7356   5.386   9.239  10.751
 3838W        W 7357   3.627   6.419  10.966
 3839W        W 7358   2.265   3.665   0.381
 3840W        W 7359   1.271   0.360  11.538
 3841W        W 7360   3.774   3.264  11.815
 3842W        W 7361   0.426   9.501   0.806
 3843W        W 7362   2.285   3.102   9.621
 3844W        W 7363   4.236   5.927   3.997
 3845W        W 7364   1.392   5.509   2.690
 3846W        W 7365   9.995   1.281  10.965
 3847W        W 7366   6.600   6.642   1.084
 3848W        W 7367   4.535   8.786   1.875
 3849W        W 7368   5.866   4.096  10.890
 3850W        W 7369   1.753   5.720  11.291
 3851W        W 7370   0.876   1.923   2.167
 3852W        W 7371   0.813   7.114   2.866
 3853W        W 7372   6.580   5.134   3.107
 3854W        W 7373   7.733   1.959   2.974
 3855W        W 7374   2.810   5.107   9.253
 3856W        W 7375   7.472   5.229   0.158
 3857W        W 7376   0.402   3.459  10.206
 3858W        W 7377   1.111   7.468   8.984
 3859W        W 7378   0.216   3.838  10.457
 3860W        W 7379   7.411   1.696  11.574
 3861W        W 7380   7.948   2.830   1.277
 3862W        W 7381   8.915   7.020  11.826
 3863W        W 7382   5.457   3.580   3.636
 3864W        W 7383   3.750   4.398   1.171
 3865W        W 7384   2.852   1.711   9.157
 3866W        W 7385   0.161   2.407   3.508
 3867W        W 7386   9.154   5.065   1.802
 3868W        W 7387   3.500   8.746   1.308
 3869W        W 7388   5.576   2.223   3.963
 3870W        W 7389   8.967   8.853   1.974
 3871W        W 7390   1.618   9.066   2.823
 3872W        W 7391   6.629   1.935   0.671
 3873W        W 7392   0.956   2.118  10.290
 3874W        W 7393   3.900   5.446   9.980
 3875W        W 7394   3.183   1.263  11.305
 3876W        W 7395   2.155   5.082   2.356
 3877W        W 7396   3.099   9.270   0.503
 3878W        W 7397   8.283   1.466  11.566
 3879W        W 7398   1.175   8.012   0.828
 3880W        W 7399   6.673   3.746   2.435
 3881W        W 7400   5.544   7.924   9.931
 3882W        W 7401   9.367   1.360  11.751
 3883W        W 7402   4.644   8.151  10.449
 3884W        W 7403   3.645   6.256  11.966
 3885W        W 7404   8.485   7.929   1.058
 3886W        W 7405   0.389   2.842  11.258
 3887W        W 7406   1.838   8.415   0.356
 3888W        W 7407   1.887   3.495  10.026
 3889W        W 7408   8.437   9.481   0.746
 3890W        W 7409   6.980   0.172   0.877
 3891W        W 7410   7.269   8.532   2.587
 3892W        W 7411   8.839   4.071   1.683
 3893W        W 7412   7.984   4.221   3.125
 3894W        W 7413   9.188   3.519  10.143
 3895W        W 7414   4.501   0.414   2.821
 3896W        W 7415   5.586   1.615   3.303
 3897W        W 7416   4.243   4.395   0.939
 3898W        W 7417   2.665   7.629   9.789
 3899W        W 7418   4.411   0.621   2.317
 3900W        W 7419   3.725   3.662   1.719
 3901W        W 7420   4.126   3.648   9.145
 3902W        W 7421   4.759   9.171  11.493
 3903W        W 7422   5.049   8.035  11.564
 3904W        W 7423   3.562   6.955   3.480
 3905W        W 7424   9.882   7.129  11.528
 3906W        W 7425   5.226   9.723   2.608
 3907W        W 7426   9.850   6.378   9.783
 3908W        W 7427   3.276   1.571   0.116
 3909W        W 7428   2.171   7.506   0.557
 3910W        W 7429   1.362   8.458  10.976
 3911W        W 7430   3.763   3.257   8.431
 3912W        W 7431   8.858   8.532   1.595
 3913W        W 7432   7.514   3.073  10.561
 3914W        W 7433   4.314   3.791  10.619
 3915W        W 7434   6.963   8.323   2.240
 3916W        W 7435   2.887   2.269   8.783
 3917W        W 7436   0.494   8.024   2.384
 3918W        W 7437   6.101   8.991   3.218
 3919W        W 7438   7.641   0.781   1.883
 3920W        W 7439   2.814   3.576   8.837
 3921W        W 7440   4.677   9.406   9.933
 3922W        W 7441   8.956   8.650   1.085
 3923W        W 7442   5.128   8.362  10.554
 3924W        W 7443   1.805   7.022   0.404
 3925W        W 7444   9.949   7.879   1.184
 3926W        W 7445   4.091   9.413  10.012
 3927W        W 7446   3.254   5.066   3.728
 3928W        W 7447   4.263   9.011   1.056
 3929W        W 7448   6.255   6.821   2.702
 3930W        W 7449   9.144   3.097  11.985
 3931W        W 7450   3.518   6.035   2.380
 3932W        W 7451   0.139   2.597  11.776
 3933W        W 7452   0.840   6.132   9.376
 3934W        W 7453   3.389   2.688   3.262
 3935W        W 7454   7.154   1.587  10.244
 3936W        W 7455   7.921   9.765   9.882
 3937W        W 7456   5.668   0.309  11.290
 3938W        W 7457   3.770   5.512   1.759
 3939W        W 7458   7.715   3.376  11.835
 3940W        W 7459   4.073   0.150   2.770
 3941W        W 7460   9.595   2.913   9.660
 3942W        W 7461   3.645   7.571   9.883
 3943W        W 7462   2.943   2.688   2.287
 3944W        W 7463   5.636   4.705  11.663
 3945W        W 7464   4.128   4.101  11.049
 3946W        W 7465   7.540   7.998  11.376
 3947W        W 7466   1.985   1.283  10.456
 3948W        W 7467   3.572   9.030   8.958
 3949W        W 7468   5.068   9.296   1.322
 3950W        W 7469   2.872   0.450   9.825
 3951W        W 7470   8.047   4.608  11.847
 3952W        W 7471   2.979   7.023   8.716
 3953W        W 7472   9.522   4.216  10.782
 3954W        W 7473   5.511   0.275  11.780
 3955W        W 7474   9.384   7.030   3.112
 3956W        W 7475   6.536   1.629  10.589
 3957W        W 7476   2.740   4.711   0.590
 3958W        W 7477   3.515   3.200   1.656
 3959W        W 7478   4.720   9.245   3.552
 3960W        W 7479   4.797   5.154   9.946
 3961W        W 7480   1.899   6.143  10.331
 3962W        W 7481   7.320   2.863   1.615
 3963W        W 7482   2.223   6.588   2.741
 3964W        W 7483   0.450   4.032   3.471
 3965W        W 7484   5.367   6.179   9.915
 3966W        W 7485   4.689   9.086   2.278
 3967W        W 7486   0.044   5.090   9.226
 3968W        W 7487   4.492   3.264   9.143
 3969W        W 7488   4.674   7.512   8.970
 3970W        W 7489   5.948   9.136   1.747
 3971W        W 7490   7.618   3.848   0.033
 3972W        W 7491   9.590   5.604   2.870
 3973W        W 7492   6.932   6.402   1.814
 3974W        W 7493   5.428   6.105  11.996
 3975W        W 7494   4.287   9.849   0.117
 3976W        W 7495   8.994   9.979   3.103
 3977W        W 7496   7.719   4.101   0.661
 3978W        W 7497   4.428   1.517   2.096
 3979W        W 7498   6.155   1.245   0.398
 3980W        W 7499   9.294   7.911   0.537
 3981W        W 7500   9.388   8.692   2.329
 3982W        W 7501   0.664   9.371   1.247
 3983W        W 7502   2.810   6.555   0.412
 3984W        W 7503   8.808   4.145   2.188
 3985W        W 7504   3.744   7.821   1.554
 3986W        W 7505   2.605   9.399   1.953
 3987W        W 7506   2.657   2.843   2.837
 3988W        W 7507   6.152   4.539   3.667
 3989W        W 7508   9.844   2.602   2.220
 3990W        W 7509   7.836   5.108   0.519
 3991W        W 7510   5.242   3.879   1.616
 3992W        W 7511   1.365   0.270  10.245
 3993W        W 7512   8.237   8.369   2.797
 3994W        W 7513   4.962   7.379   2.765
 3995W        W 7514   3.888   2.840   3.457
 3996W        W 7515   9.910   5.127  11.725
 3997W        W 7516   6.062   5.483  10.857
 3998W        W 7517   3.967   2.723   9.916
 3999W        W 7518   0.298   2.667   9.148
 4000W        W 7519   6.365   6.092   3.267
 4001W        W 7520   7.052   7.380   3.021
 4002W        W 7521   1.439   6.967   1.660
 4003W        W 7522   2.345   4.612  11.204
 4004W        W 7523   0.380   2.815   0.201
 4005W        W 7524   3.632   3.115   1.168
 4006W        W 7525   8.439   7.544   0.346
 4007W        W 7526   4.994   5.139   9.087
 4008W        W 7527   4.285   4.538   3.677
 4009W        W 7528   1.458   5.669   3.617
 4010W        W 7529   8.569   2.311   2.006
 4011W        W 7530   4.490   7.408   0.696
 4012W        W 7531   5.609   8.005   0.817
 4013W        W 7532   1.941   4.752   0.897
 4014W        W 7533   7.423   8.065   2.426
 4015W        W 7534   4.785   9.059   9.459
 4016W        W 7535   7.626   5.627  10.750
 4017W        W 7536   9.393   4.196   1.493
 4018W        W 7537   4.127   1.776   8.952
 4019W        W 7538   7.020   2.408   8.619
 4020W        W 7539   8.945   2.238   2.351
 4021W        W 7540   7.023   8.006   1.195
 4022W        W 7541   3.100   9.788   0.301
 4023W        W 7542   8.173   4.724   3.274
 4024W        W 7543   3.152   3.359  10.448
 4025W        W 7544   3.115   7.179  11.043
 4026W        W 7545   7.373   6.219  11.843
 4027W        W 7546   0.854   5.683  11.346
 4028W        W 7547   4.268   2.747  11.481
 4029W        W 7548   8.515   8.735  10.222
 4030W        W 7549   6.919   8.913   2.426
 4031W        W 7550   0.307   7.456   1.869
 4032W        W 7551   4.978   9.051   1.801
 4033W        W 7552   3.611   0.231  10.539
 4034W        W 7553   7.063   5.723   9.402
 4035W        W 7554   2.252   6.890   1.177
 4036W        W 7555   7.193   6.524   2.552
 4037W        W 7556   4.368   1.636   1.263
 4038W        W 7557   4.170   8.746   1.509
 4039W        W 7558   1.846   7.505   9.258
 4040W        W 7559   4.148   5.762   0.479
 4041W        W 7560   7.136   0.617   3.552
 4042W        W 7561   5.761   8.532   9.382
 4043W        W 7562   5.083   9.559  11.420
 4044W        W 7563   6.432   6.947  11.741
 4045W        W 7564   1.777   9.387   1.934
 4046W        W 7565   9.446   2.272   9.206
 4047W        W 7566   2.526   4.914   1.499
 4048W        W 7567   8.569   0.436  10.062
 4049W        W 7568   0.874   9.934   2.697
 4050W        W 7569   8.789   2.663  10.064
 4051W        W 7570   5.951   0.039   1.340
 4052W        W 7571   5.511   3.104  11.107
 4053W        W 7572   8.559   5.000   1.019
 4054W        W 7573   5.680   0.058   0.529
 4055W        W 7574   3.072   2.852   8.758
 4056W        W 7575   7.071   9.974   2.765
 4057W        W 7576   0.238   5.062   0.653
 4058W        W 7577   6.553   1.624   2.426
 4059W        W 7578   1.209   3.789  10.521
 4060W        W 7579   2.332   3.339   8.928
 4061W        W 7580   4.102   5.715   9.101
 4062W        W 7581   2.031   8.780   9.734
 4063W        W 7582   6.481   6.530   4.427
 4064W        W 7583   6.689   9.909  11.882
 4065W        W 7584   0.664   0.471  10.826
 4066W        W 7585   7.136   2.291   2.294
 4067W        W 7586   2.660   7.747  11.758
 4068W        W 7587   6.899   0.400  10.934
 4069W        W 7588   6.181   1.724  11.204
 4070W        W 7589   7.109   4.143   2.919
 4071W        W 7590   1.724   4.448  10.309
 4072W        W 7591   7.988   1.125   0.813
 4073W        W 7592   4.126   5.048   9.304
 4074W        W 7593   5.096   1.864   2.883
 4075W        W 7594   0.796   2.163   0.535
 4076W        W 7595   3.992   0.365   1.281
 4077W        W 7596   7.444   3.887  10.111
 4078W        W 7597   6.443   6.225   0.819
 4079W        W 7598   6.427   8.483  10.026
 4080W        W 7599   5.744   5.542   9.888
 4081W        W 7600   0.958   0.278   3.071
 4082W        W 7601   8.603   1.733   2.799
 4083W        W 7602   2.304   6.147  11.110
 4084W        W 7603   4.235   9.933  11.584
 4085W        W 7604   2.359   8.842   3.306
 4086W        W 7605   6.546   4.635   8.224
 4087W        W 7606   6.758   5.907   1.875
 4088W        W 7607   8.002   4.182   0.140
 4089W        W 7608   7.873   6.712   3.629
 4090W        W 7609   9.275   0.875   1.107
 4091W        W 7610   0.855   0.801   3.144
 4092W        W 7611   7.380   8.404   1.133
 4093W        W 7612   9.557   0.906  11.332
 4094W        W 7613   6.953   8.068  10.824
 4095W        W 7614   7.395   2.760   2.111
 4096W        W 7615   6.434   2.612   1.394
 4097W        W 7616   3.286   1.237   2.635
 4098W        W 7617   6.329   2.486  11.373
 4099W        W 7618   7.066   0.486   2.754
 4100W        W 7619   4.233   4.568   9.027
 4101W        W 7620   8.796   9.988  11.932
 4102W        W 7621   3.220   1.780  10.425
 4103W        W 7622   3.702   8.484  10.986
 4104W        W 7623   2.937   5.819   1.833
 4105W        W 7624   3.183   4.960   1.665
 4106W        W 7625   7.525   0.396   3.786
 4107W        W 7626   2.561   3.940  10.168
 4108W        W 7627   6.072   9.745   0.884
 4109W        W 7628   4.104   1.246   2.994
 4110W        W 7629   3.668   3.790   3.021
 4111W        W 7630   9.879   2.839   3.397
 4112W        W 7631   5.332   0.352   9.662
 4113W        W 7632   9.534   5.726   1.658
 4114W        W 7633   7.619   7.485   0.781
 4115W        W 7634   6.653   7.559   2.773
 4116W        W 7635   9.272   6.654   1.643
 4117W        W 7636   1.330   1.195   1.496
 4118W        W 7637   2.355   4.091   8.472
 4119W        W 7638   4.139   0.830   9.539
 4120W        W 7639   3.100   0.269   0.476
 4121W        W 7640   4.510   1.255   9.001
 4122W        W 7641   9.364   6.175   9.735
 4123W        W 7642   8.958   2.263   1.065
 4124W        W 7643   1.294   3.452   0.073
 4125W        W 7644   0.729   3.721   0.245
 4126W        W 7645   4.504   3.300  10.656
 4127W        W 7646   7.251   8.448  11.357
 4128W        W 7647   3.568   3.790   4.011
 4129W        W 7648   6.149   5.734  11.698
 4130W        W 7649   5.428   1.195   0.027
 4131W        W 7650   6.642   4.543   9.517
 4132W        W 7651   0.909   6.956   0.888
 4133W        W 7652   3.694   8.455   3.335
 4134W        W 7653   7.138   3.479   1.731
 4135W        W 7654   6.086   6.722  11.441
 4136W        W 7655   5.225   2.822   3.356
 4137W        W 7656   6.203   6.969  10.550
 4138W        W 7657   8.653   3.988   8.942
 4139W        W 7658   0.707   8.906   2.652
 4140W        W 7659   6.239   4.130   3.385
 4141W        W 7660   5.158   3.733   9.129
 4142W        W 7661   1.159   1.483   0.606
 4143W        W 7662   6.247   1.971   2.662
 4144W        W 7663   8.866   2.937   9.123
 4145W        W 7664   2.825   4.669   0.046
 4146W        W 7665   6.016   4.756   9.970
 4147W        W 7666   1.417   0.360   3.254
 4148W        W 7667   6.038   6.626   1.791
 4149W        W 7668   5.424   6.485  10.327
 4150W        W 7669   8.280   1.366   9.514
 4151W        W 7670   5.724   5.479   1.021
 4152W        W 7671   5.192   6.473   8.168
 4153W        W 7672   7.645   7.332   9.522
 4154W        W 7673   1.682   8.903   0.276
 4155W        W 7674   7.393   6.355  10.803
 4156W        W 7675   8.041   8.437  11.942
 4157W        W 7676   0.772   0.794   2.219
 4158W        W 7677   5.966   6.810   2.281
 4159W        W 7678   8.534   8.929   1.691
 4160W        W 7679   2.225   0.370   2.771
 4161W        W 7680   1.275   7.908   3.548
 4162W        W 7681   5.540   6.591   8.519
 4163W        W 7682   9.363   7.401  10.381
 4164W        W 7683   0.175   6.000  10.910
 4165W        W 7684   2.760   1.487   3.239
 4166W        W 7685   2.912   4.746   2.477
 4167W        W 7686   4.835   5.158   3.806
 4168W        W 7687   4.817   6.022   9.870
 4169W        W 7688   3.116   0.828  10.402
 4170W        W 7689   0.393   3.328   0.206
 4171W        W 7690   9.883   6.986  10.884
 4172W        W 7691   5.357   4.899   2.274
 4173W        W 7692   4.665   1.843  11.339
 4174W        W 7693   5.884   1.322   9.452
 4175W        W 7694   6.398   0.249  10.767
 4176W        W 7695   2.815   1.940   2.963
 4177W        W 7696   7.029   0.979   2.613
 4178W        W 7697   3.821   3.718  10.795
 4179W        W 7698   2.157   8.086   8.673
 4180W        W 7699   5.919   8.321   2.242
 4181W        W 7700   6.930   9.301   8.422
 4182W        W 7701   3.204   6.652   2.282
 4183W        W 7702   9.848   5.597  10.842
 4184W        W 7703   2.838   3.783  11.573
 4185W        W 7704   8.774   1.717  10.368
 4186W        W 7705   9.290   2.590   9.979
 4187W        W 7706   3.710   4.516   9.816
 4188W        W 7707   2.647   5.087   0.253
 4189W        W 7708   6.380   9.637   9.510
 4190W        W 7709   4.549   8.714  11.501
 4191W        W 7710   8.530   8.455   0.854
 4192W        W 7711   5.989   0.407  11.695
 4193W        W 7712   9.725   3.685  10.064
 4194W        W 7713   6.069   1.631   0.833
 4195W        W 7714   8.986   7.970   8.744
 4196W        W 7715   2.286   9.457  11.386
 4197W        W 7716   0.384   4.605   2.638
 4198W        W 7717   0.743   1.949   1.660
 4199W        W 7718   5.923   6.966  11.017
 4200W        W 7719   7.028   2.035  10.038
 4201W        W 7720   8.348   1.503   1.528
 4202W        W 7721   2.109   6.703   9.544
 4203W        W 7722   1.243   0.792   9.008
 4204W        W 7723   2.207   1.789   9.252
 4205W        W 7724   2.546   7.369   2.924
 4206W        W 7725   2.283   6.708   0.306
 4207W        W 7726   0.176   0.462   9.569
 4208W        W 7727   3.632   1.481   2.936
 4209W        W 7728   8.896   9.724   1.165
 4210W        W 7729   4.435   5.959  11.851
 4211W        W 7730   8.808   5.449   2.581
 4212W        W 7731   1.456   2.668   9.859
 4213W        W 7732   9.665   0.570   1.666
 4214W        W 7733   7.999   3.445   3.639
 4215W        W 7734   6.610   8.024   2.023
 4216W        W 7735   0.485   0.229   2.870
 4217W        W 7736   5.586   2.208   9.237
 4218W        W 7737   1.516   3.734   2.377
 4219W        W 7738   5.244   2.416   8.845
 4220W        W 7739   6.451   7.896  10.522
 4221W        W 7740   7.368   7.519  11.217
 4222W        W 7741   3.448   7.003   8.485
 4223W        W 7742   6.766   0.758  11.927
 4224W        W 7743   5.278   5.664  11.710
 4225W        W 7744   3.395   4.139   0.775
 4226W        W 7745   4.233   8.448  10.297
 4227W        W 7746   8.920   0.265  10.467
 4228W        W 7747   4.306   5.428   3.842
 4229W        W 7748   5.998   6.255   9.440
 4230W        W 7749   7.613   5.905   9.857
 4231W        W 7750   1.690   4.707   3.730
 4232W        W 7751   8.187   9.857   1.924
 4233W        W 7752   7.180   4.352   1.441
 4234W        W 7753   5.746   3.406   4.029
 4235W        W 7754   9.918   5.676   2.439
 4236W        W 7755   5.525   3.030  10.495
 4237W        W 7756   6.410   7.723  11.520
 4238W        W 7757   1.030   3.763   2.526
 4239W        W 7758   8.205   8.336  10.190
 4240W        W 7759   0.778   3.330   2.402
 4241W        W 7760   3.871   9.241   8.565
 4242W        W 7761   0.239   2.572   1.416
 4243W        W 7762   8.645   9.283   9.361
 4244W        W 7763   3.114   4.072   1.250
 4245W        W 7764   1.181   1.177   2.965
 4246W        W 7765   9.057   0.959  11.849
 4247W        W 7766   3.234   1.735   3.203
 4248W        W 7767   5.706   0.978   0.393
 4249W        W 7768   8.015   3.555  10.948
 4250W        W 7769   0.780   6.143   8.849
 4251W        W 7770   2.847   7.085   1.660
 4252W        W 7771   4.374   4.725   2.297
 4253W        W 7772   5.939   0.349   0.204
 4254W        W 7773   2.857   5.138   9.778
 4255W        W 7774   0.784   2.417   2.024
 4256W        W 7775   6.175   3.171   9.616
 4257W        W 7776   1.231   1.335  10.883
 4258W        W 7777   3.108   9.513   9.503
 4259W        W 7778   8.796   4.600   3.505
 4260W        W 7779   4.722   7.168  11.372
 4261W        W 7780   8.965   7.741   0.972
 4262W        W 7781   1.258   2.310   9.560
 4263W        W 7782   3.188   3.230   9.967
 4264W        W 7783   1.145   5.797  11.946
 4265W        W 7784   4.144   8.415   0.242
 4266W        W 7785   0.015   9.087   9.107
 4267W        W 7786   6.119   1.757   9.279
 4268W        W 7787   4.677   1.726   3.273
 4269W        W 7788   7.658   0.316  11.043
 4270W        W 7789   0.925   4.309  11.220
 4271W        W 7790   5.002   3.770   1.185
 4272W        W 7791   6.670   5.972   8.429
 4273W        W 7792   4.697   3.098   2.832
 4274W        W 7793   7.855   1.478   2.296
 4275W        W 7794   6.565   4.185   1.219
 4276W        W 7795   2.328   6.652  10.452
 4277W        W 7796   2.132   8.300   0.869
 4278W        W 7797   8.085   8.366   2.258
 4279W        W 7798   1.561   3.215   3.185
 4280W        W 7799   0.900   8.417   0.348
 4281W        W 7800   5.385   1.748   1.487
 4282W        W 7801   8.969   6.093  10.073
 4283W        W 7802   3.001   6.202  11.808
 4284W        W 7803   2.872   9.742  11.824
 4285W        W 7804   4.192   6.748   9.156
 4286W        W 7805   0.889   2.112   9.275
 4287W        W 7806   9.350   0.970   2.422
 4288W        W 7807   8.056   9.985   1.429
 4289W        W 7808   8.359   2.740  11.972
 4290W        W 7809   6.026   8.058   2.655
 4291W        W 7810   4.651   6.615   8.953
 4292W        W 7811   6.035   0.821   9.372
 4293W        W 7812   7.370   9.348  10.282
 4294W        W 7813   1.071   4.192   2.231
 4295W        W 7814   7.427   4.377   2.606
 4296W        W 7815   9.219   9.316   2.995
 4297W        W 7816   1.698   5.600   3.110
 4298W        W 7817   6.945   9.963  11.434
 4299W        W 7818   2.774   9.105  10.121
 4300W        W 7819   5.063   5.961   2.944
 4301W        W 7820   3.811   3.752   3.505
 4302W        W 7821   1.869   0.230   2.202
 4303W        W 7822   5.610   3.102   2.131
 4304W        W 7823   7.871   0.280   9.502
 4305W        W 7824   9.294   1.668   8.829
 4306W        W 7825   1.792   5.208  10.332
 4307W        W 7826   5.188   7.407   8.871
 4308W        W 7827   9.769   7.504   1.576
 4309W        W 7828   3.955   7.398   2.897
 4310W        W 7829   5.508   4.698   9.936
 4311W        W 7830   3.968   0.835   2.210
 4312W        W 7831   7.085   3.961   8.454
 4313W        W 7832   9.999   5.932   9.969
 4314W        W 7833   5.027   9.281   8.583
 4315W        W 7834   3.243   1.711   9.490
 4316W        W 7835   6.759   2.388   0.435
 4317W        W 7836   9.625   9.605   3.111
 4318W        W 7837   5.618   0.915   1.274
 4319W        W 7838   3.514   6.583   1.241
 4320W        W 7839   4.678   0.406   0.798
 4321W        W 7840   1.878   0.490   1.755
 4322W        W 7841   0.710   5.442   8.460
 4323W        W 7842   5.933   7.624  11.611
 4324W        W 7843   1.925   6.908   1.846
 4325W        W 7844   3.652   0.008   3.282
 4326W        W 7845   8.485   6.054  10.267
 4327W        W 7846   9.052   0.257   9.957
 4328W        W 7847   1.731   2.789   0.618
 4329W        W 7848   7.037   7.445   0.288
 4330W        W 7849   5.001   4.041   7.870
 4331W        W 7850   1.396   7.935   2.283
 4332W        W 7851   5.157   6.470   1.673
 4333W        W 7852   9.212   1.766   1.580
 4334W        W 7853   8.454   5.756   9.368
 4335W        W 7854   8.493   4.112  11.321
 4336W        W 7855   2.634   5.538  10.006
 4337W        W 7856   6.530   0.728  11.031
 4338W        W 7857   2.223   9.857   9.067
 4339W        W 7858   6.644   4.165  10.652
 4340W        W 7859   4.658   3.891   2.436
 4341W        W 7860   2.494   1.486   0.124
 4342W        W 7861   0.040   9.407   2.232
 4343W        W 7862   0.529   5.450   0.801
 4344W        W 7863   2.807   0.503   3.540
 4345W        W 7864   8.423   1.564   0.075
 4346W        W 7865   0.332   3.261  10.733
 4347W        W 7866   2.093   4.331   3.711
 4348W        W 7867   9.376   8.800  11.661
 4349W        W 7868   5.456   2.472  10.394
 4350W        W 7869   7.952   0.395   0.317
 4351W        W 7870   2.414   9.495   3.246
 4352W        W 7871   3.758   2.997   9.348
 4353W        W 7872   8.140   9.602  10.747
 4354W        W 7873   9.932   5.754  11.322
 4355W        W 7874   6.911   5.769  11.880
 4356W        W 7875   7.798   4.696  10.301
 4357W        W 7876   1.041   0.178   3.575
 4358W        W 7877   6.618   3.544  11.905
 4359W        W 7878   6.968   5.462  10.368
 4360W        W 7879   8.063   4.782   8.693
 4361W        W 7880   9.923   8.962  11.813
 4362W        W 7881   4.379   1.026   1.935
 4363W        W 7882   3.301   9.717   1.741
 4364W        W 7883   3.334   8.801  10.193
 4365W        W 7884   6.060   3.279   1.901
 4366W        W 7885   7.639   7.206   8.850
 4367W        W 7886   4.288   2.595   0.966
 4368W        W 7887   9.624   3.271   3.417
 4369W        W 7888   7.721   9.579   9.096
 4370W        W 7889   2.097   3.991   3.304
 4371W        W 7890   4.138   4.736   1.282
 4372W        W 7891   6.001   5.647   8.564
 4373W        W 7892   0.705   4.866   3.409
 4374W        W 7893   7.030   4.466   8.319
 4375W        W 7894   0.430   1.106   1.521
 4376W        W 7895   9.723   3.755  10.574
 4377W        W 7896   7.413   7.065   1.276
 4378W        W 7897   3.345   4.687  11.137
 4379W        W 7898   5.495   0.415   1.185
 4380W        W 7899   2.441   4.712  10.720
 4381W        W 7900   4.662   6.686   0.208
 4382W        W 7901   9.443   6.378   2.242
 4383W        W 7902   8.096   0.342  11.363
 4384W        W 7903   7.855   7.969  11.861
 4385W        W 7904   6.616   2.569  11.801
 4386W        W 7905   9.292   7.909   3.329
 4387W        W 7906   9.333   4.699   9.498
 4388W        W 7907   4.705   4.799   0.397
 4389W        W 7908   2.987   5.092   4.159
 4390W        W 7909   2.383   3.075   3.210
 4391W        W 7910   4.429   6.556   1.018
 4392W        W 7911   4.266   1.448   3.467
 4393W        W 7912   7.146   3.741   2.262
 4394W        W 7913   0.011   5.057  10.219
 4395W        W 7914   8.483   7.579   9.377
 4396W        W 7915   5.106   0.780   9.515
 4397W        W 7916   3.628   4.236  11.766
 4398W        W 7917   9.336   4.180   3.322
 4399W        W 7918   2.784   7.240  11.760
 4400W        W 7919   3.268   3.797   8.805
 4401W        W 7920   2.863   3.910   2.280
 4402W        W 7921   1.730   1.245  10.921
 4403W        W 7922   3.108   0.599   0.860
 4404W        W 7923   8.474   1.844  10.762
 4405W        W 7924   0.339   4.533  11.933
 4406W        W 7925   3.073   6.389   1.421
 4407W        W 7926   6.682   0.866   9.111
 4408W        W 7927   8.469   6.187   9.773
 4409W        W 7928   6.109   7.122  10.070
 4410W        W 7929   5.608   5.845   2.331
 4411W        W 7930   5.310   3.029   1.007
 4412W        W 7931   7.852   8.962  11.361
 4413W        W 7932   0.346   8.437   2.106
 4414W        W 7933   0.940   5.518   0.409
 4415W        W 7934   7.597   0.742   9.409
 4416W        W 7935   8.204   3.339   3.173
 4417W        W 7936   0.879   7.068   2.359
 4418W        W 7937   0.334   8.156  11.296
 4419W        W 7938   7.443   3.967   3.321
 4420W        W 7939   8.093   6.829  10.362
 4421W        W 7940   9.775   0.741   1.032
 4422W        W 7941   8.529   6.608   1.891
 4423W        W 7942   8.613   9.715  10.618
 4424W        W 7943   0.366   9.236  11.832
 4425W        W 7944   6.555   6.052   2.768
 4426W        W 7945   3.222   3.302   9.005
 4427W        W 7946   9.102   4.455   2.503
 4428W        W 7947   3.983   4.176   1.765
 4429W        W 7948   2.622   7.308   8.436
 4430W        W 7949   6.428   2.526  10.077
 4431W        W 7950   9.354   0.544   2.092
 4432W        W 7951   4.658   0.722  11.750
 4433W        W 7952   0.856   6.191  11.371
 4434W        W 7953   1.395   3.572  10.080
 4435W        W 7954   6.371   1.386   9.732
 4436W        W 7955   6.517   5.254  10.887
 4437W        W 7956   3.054   7.976   8.541
 4438W        W 7957   7.627   9.414  11.264
 4439W        W 7958   9.433   6.542  11.895
 4440W        W 7959   8.183   6.357   2.157
 4441W        W 7960   7.000   8.330   3.123
 4442W        W 7961   8.237   9.434   3.240
 4443W        W 7962   8.061   7.005   9.385
 4444W        W 7963   4.625   9.916   1.606
 4445W        W 7964   9.807   0.309  10.975
 4446W        W 7965   5.716   6.698   3.699
 4447W        W 7966   5.254   0.385   3.379
 4448W        W 7967   4.620   7.175   0.256
 4449W        W 7968   7.803   1.183   9.620
 4450W        W 7969   4.861   1.300   1.896
 4451W        W 7970   5.458   1.492   8.733
 4452W        W 7971   4.047   5.189   1.030
 4453W        W 7972   9.253   8.790   2.821
 4454W        W 7973   8.078   9.696   0.113
 4455W        W 7974   6.753   7.579  10.782
 4456W        W 7975   2.416   9.518   1.247
 4457W        W 7976   7.441   0.365   0.595
 4458W        W 7977   6.037   2.845   3.212
 4459W        W 7978   8.589   6.549   2.406
 4460W        W 7979   3.990   6.813  11.535
 4461W        W 7980   6.615   0.872   0.399
 4462W        W 7981   3.091   5.130  10.366
 4463W        W 7982   7.343   9.127   3.380
 4464W        W 7983   4.544   5.803  10.981
 4465W        W 7984   4.229   8.126   2.326
 4466W        W 7985   3.101   9.748   3.588
 4467W        W 7986   4.089   7.131  11.961
 4468W        W 7987   0.805   0.642   9.523
 4469W        W 7988   2.565   9.101   2.915
 4470W        W 7989   4.515   7.376  11.813
 4471W        W 7990   7.425   2.838  10.092
 4472W        W 7991   5.214   2.786   2.181
 4473W        W 7992   2.799   9.962   9.983
 4474W        W 7993   8.511   9.788   1.542
 4475W        W 7994   0.948   9.790   3.254
 4476W        W 7995   2.373   9.643  11.867
 4477W        W 7996   1.778   9.707   9.729
 4478W        W 7997   4.542   9.322   1.840
 4479W        W 7998   5.661   4.881  10.831
 4480W        W 7999   2.365   1.202  11.690
 4481W        W 8000   4.758   2.856   2.375
 4482W        W 8001   8.666   6.093   1.984
 4483W        W 8002   0.897   5.173   0.039
 4484W        W 8003   9.051   8.539   9.036
 4485W        W 8004   4.475   2.429   2.341
 4486W        W 8005   2.395   6.940   8.746
 4487W        W 8006   3.971   7.177   8.975
 4488W        W 8007   1.776   0.365   0.358
 4489W        W 8008   3.594   9.758   9.383
 4490W        W 8009   5.144   3.650   2.224
 4491W        W 8010   9.348   4.693   1.430
 4492W        W 8011   6.961   7.798   9.806
 4493W        W 8012   3.696   6.956   2.980
 4494W        W 8013   5.708   3.663   0.738
 4495W        W 8014   4.227   6.275   8.238
 4496W        W 8015   6.092   8.627  11.895
 4497W        W 8016   0.196   9.680   1.247
 4498W        W 8017   7.204   7.391   8.629
 4499W        W 8018   0.490   8.393   0.037
 4500W        W 8019   8.894   3.125   2.178
 4501W        W 8020   2.164   7.853   9.688
 4502W        W 8021   9.154   1.795   2.116
 4503W        W 8022   9.319   4.992   2.323
 4504W        W 8023   9.876   5.599  10.329
 4505W        W 8024   2.424   0.759   3.026
 4506W        W 8025   5.525   6.636  10.800
 4507W        W 8026   7.946   7.554   8.635
 4508W        W 8027   1.822   2.734  11.185
 4509W        W 8028   6.244   3.663   2.177
 4510W        W 8029   1.632   7.959   0.571
 4511W        W 8030   6.083   4.769   2.627
 4512W        W 8031   5.985   2.378   1.334
 4513W        W 8032   2.151   1.984   0.843
 4514W        W 8033   6.169   5.177   8.801
 4515W        W 8034   6.845   6.064   9.704
 4516W        W 8035   4.675   2.707  10.860
 4517W        W 8036   8.302   2.838   0.893
 4518W        W 8037   3.030   7.979   9.117
 4519W        W 8038   9.383   7.198   9.773
 4520W        W 8039   8.582   4.555  10.600
 4521W        W 8040   5.959   6.517  10.528
 4522W        W 8041   1.695   7.979   9.983
 4523W        W 8042   4.645   4.100   1.080
 4524W        W 8043   5.912   1.529   9.920
 4525W        W 8044   8.982   2.279   0.027
 4526W        W 8045   9.355   4.866   9.992
 4527W        W 8046   2.563   6.615   0.862
 4528W        W 8047   3.093   0.115   1.502
 4529W        W 8048   4.207   0.553   1.838
 4530W        W 8049   9.157   9.786   0.243
 4531W        W 8050   2.301   4.008   9.486
 4532W        W 8051   6.648   2.191   9.744
 4533W        W 8052   8.469   2.340   0.907
 4534W        W 8053   0.248   2.352  10.987
 4535W        W 8054   0.504   8.837   1.392
 4536W        W 8055   6.763   8.481   2.693
 4537W        W 8056   8.496   3.358   9.487
 4538W        W 8057   6.691   2.872  11.407
 4539W        W 8058   2.883   7.552   9.338
 4540W        W 8059   9.735   9.047   2.490
 4541W        W 8060   4.407   7.215   9.290
 4542W        W 8061   8.085   9.787   9.402
 4543W        W 8062   3.785   7.270   9.445
 4544W        W 8063   6.463   5.388   1.121
 4545W        W 8064   5.904   3.957   0.323
 4546W        W 8065   9.495   0.884   0.120
 4547W        W 8066   8.423   8.814   2.162
 4548W        W 8067   4.169   9.275   1.502
 4549W        W 8068   9.707   8.158   0.351
 4550W        W 8069   2.107   0.859   2.623
 4551W        W 8070   9.960   6.857   1.056
 4552W        W 8071   6.083   0.469   1.971
 4553W        W 8072   6.378   9.380   8.590
 4554W        W 8073   0.013   4.175   9.296
 4555W        W 8074   0.425   6.207   0.241
 4556W        W 8075   6.147   7.430   3.102
 4557W        W 8076   0.529   1.345   8.707
 4558W        W 8077   3.124   5.623  10.237
 4559W        W 8078   5.501   2.151   3.080
 4560W        W 8079   2.122   9.106   1.194
 4561W        W 8080   0.318   8.255  10.782
 4562W        W 8081   3.377   8.020   1.913
 4563W        W 8082   0.823   0.563   2.669
 4564W        W 8083   4.289   6.525   0.529
 4565W        W 8084   0.690   1.292   3.153
 4566W        W 8085   0.569   0.653   1.690
 4567W        W 8086   7.405   2.759   3.037
 4568W        W 8087   3.440   1.636   3.662
 4569W        W 8088   7.923   2.872  11.713
 4570W        W 8089   7.335   4.406  11.385
 4571W        W 8090   4.274   0.434  11.466
 4572W        W 8091   0.100   2.720   2.678
 4573W        W 8092   3.402   9.912   0.708
 4574W        W 8093   0.043   7.547   0.059
 4575W        W 8094   5.336   6.159   2.046
 4576W        W 8095   3.095   7.290   3.505
 4577W        W 8096   7.126   5.725   1.103
 4578W        W 8097   3.326   5.996  11.041
 4579W        W 8098   4.653   0.290   1.972
 4580W        W 8099   7.599   6.568   0.122
 4581W        W 8100   6.816   0.669   1.787
 4582W        W 8101   2.753   4.934   2.014
 4583W        W 8102   8.307   4.171   9.283
 4584W        W 8103   3.760   0.554   9.848
 4585W        W 8104   3.388   5.099   2.855
 4586W        W 8105   7.036   4.338   8.816
 4587W        W 8106   5.759   6.925   9.297
 4588W        W 8107   5.051   0.406   9.164
 4589W        W 8108   9.919   5.424   1.463
 4590W        W 8109   4.714   8.031   2.313
 4591W        W 8110   6.449   8.927   0.712
 4592W        W 8111   1.936   9.476   8.433
 4593W        W 8112   9.765   0.467   8.358
 4594W        W 8113   3.190   2.879  10.681
 4595W        W 8114   4.468   3.072   1.272
 4596W        W 8115   2.732   4.587   8.983
 4597W        W 8116   2.768   4.210  11.318
 4598W        W 8117   8.837   0.519   0.012
 4599W        W 8118   8.081   4.802   1.204
 4600W        W 8119   1.929   8.895  10.398
 4601W        W 8120   9.761   9.801   1.501
 4602W        W 8121   0.407   6.175   2.177
 4603W        W 8122   0.513   2.138  10.584
 4604W        W 8123   4.567   4.369   3.249
 4605W        W 8124   8.375   7.052   1.502
 4606W        W 8125   4.098   2.247   1.333
 4607W        W 8126   7.662   0.204   3.350
 4608W        W 8127   6.017   2.112   0.015
 4609W        W 8128   3.401   8.750   3.012
 4610W        W 8129   3.703   9.845  10.924
 4611W        W 8130   3.589   6.924  10.721
 4612W        W 8131   7.088   6.521  11.453
 4613W        W 8132   9.040   5.186   0.712
 4614W        W 8133   5.205   7.626  11.192
 4615W        W 8134   1.395   4.498  11.274
 4616W        W 8135   3.673   6.419  11.480
 4617W        W 8136   3.829   5.820   3.732
 4618W        W 8137   6.132   0.839   3.675
 4619W        W 8138   5.683   2.740   0.782
 4620W        W 8139   1.949   1.277  11.398
 4621W        W 8140   3.305   8.533   0.029
 4622W        W 8141   9.506   4.217   9.400
 4623W        W 8142   0.019   5.684   1.913
 4624W        W 8143   2.515   3.372  11.123
 4625W        W 8144   6.937   5.063  10.687
 4626W        W 8145   2.350   7.154   1.591
 4627W        W 8146   4.605   9.187   8.983
 4628W        W 8147   0.463   7.595   9.678
 4629W        W 8148   9.513   6.374  10.190
 4630W        W 8149   6.896   0.235   9.054
 4631W        W 8150   1.742   4.715   3.216
 4632W        W 8151   0.203   6.652   3.521
 4633W        W 8152   5.902   2.504   0.303
 4634W        W 8153   9.552   7.978   1.499
 4635W        W 8154   3.691   2.841  10.774
 4636W        W 8155   4.212   6.220  10.567
 4637W        W 8156   6.856   3.868   8.903
 4638W        W 8157   0.951   7.997   2.577
 4639W        W 8158   1.867   4.114   2.451
 4640W        W 8159   5.978   1.164  11.798
 4641W        W 8160   6.481   3.492  10.017
 4642W        W 8161   3.391   6.336   3.656
 4643W        W 8162   7.517   4.122   1.132
 4644W        W 8163   0.803   6.638   2.676
 4645W        W 8164   8.566   8.384   2.421
 4646W        W 8165   5.747   7.466  11.159
 4647W        W 8166   5.617   9.539   0.651
 4648W        W 8167   0.013   4.924   0.193
 4649W        W 8168   7.898   6.885   0.357
 4650W        W 8169   1.045   1.305   8.673
 4651W        W 8170   3.230   1.687  11.600
 4652W        W 8171   6.551   8.830  10.973
 4653W        W 8172   8.530   4.475   0.946
 4654W        W 8173   3.235   3.371   8.500
 4655W        W 8174   2.112   6.605   2.231
 4656W        W 8175   8.105   2.394  11.550
 4657W        W 8176   5.573   6.738   1.534
 4658W        W 8177   3.180   2.291  10.049
 4659W        W 8178   0.147   0.637   1.976
 4660W        W 8179   5.183   8.137  11.055
 4661W        W 8180   1.785   6.087   9.826
 4662W        W 8181   7.845   9.912  10.399
 4663W        W 8182   6.504   4.869   9.901
 4664W        W 8183   0.892   6.499   0.496
 4665W        W 8184   2.051   7.639   1.467
 4666W        W 8185   4.269   6.303   3.461
 4667W        W 8186   6.217   6.624   3.639
 4668W        W 8187   9.704   6.671  11.265
 4669W        W 8188   6.534   3.094   9.271
 4670W        W 8189   2.001   3.656   2.224
 4671W        W 8190   7.046   0.284   2.290
 4672W        W 8191   4.752   9.920  11.544
 4673W        W 8192   4.490   6.872  11.743
 4674W        W 8193   4.819   7.426  10.893
 4675W        W 8194   0.426   1.937   2.443
 4676W        W 8195   7.495   4.199   2.149
 4677W        W 8196   0.453   6.357  10.620
 4678W        W 8197   9.005   8.127  11.288
 4679W        W 8198   3.875   8.972  11.004
 4680W        W 8199   1.838   4.093   9.259
 4681W        W 8200   0.836   4.045   0.660
 4682W        W 8201   9.231   8.878  10.676
 4683W        W 8202   0.233   7.599   2.418
 4684W        W 8203   0.700   2.958   2.765
 4685W        W 8204   7.672   9.513   3.557
 4686W        W 8205   4.785   2.746   1.843
 4687W        W 8206   8.207   4.894  10.550
 4688W        W 8207   0.353   2.205   1.837
 4689W        W 8208   3.123   6.132   9.013
 4690W        W 8209   4.008   3.777   0.381
 4691W        W 8210   4.036   7.062   8.454
 4692W        W 8211   5.093   9.427   9.599
 4693W        W 8212   0.662   2.591  11.851
 4694W        W 8213   6.071   7.795   0.132
 4695W        W 8214   4.200   4.028   8.806
 4696W        W 8215   0.422   1.972   3.403
 4697W        W 8216   3.369   9.799  11.786
 4698W        W 8217   2.897   5.170   2.764
 4699W        W 8218   3.064   1.265   9.341
 4700W        W 8219   8.947   7.137  10.967
 4701W        W 8220   8.407   0.278   1.752
 4702W        W 8221   4.606   2.436   9.540
 4703W        W 8222   9.413   9.128   2.033
 4704W        W 8223   5.531   2.796  10.014
 4705W        W 8224   9.585   8.237   2.511
 4706W        W 8225   8.961   9.345   1.886
 4707W        W 8226   8.802   1.227   1.435
 4708W        W 8227   9.154   3.373   3.533
 4709W        W 8228   7.560   6.400   2.877
 4710W        W 8229   4.492   9.569  11.276
 4711W        W 8230   9.729   0.430   0.023
 4712W        W 8231   4.744   4.387   2.350
 4713W        W 8232   6.859   3.643   0.381
 4714W        W 8233   4.205   4.749   3.158
 4715W        W 8234   4.668   5.657   1.153
 4716W        W 8235   7.597   7.969   0.937
 4717W        W 8236   7.077   8.855   2.917
 4718W        W 8237   5.872   0.358  10.799
 4719W        W 8238   1.847   0.134   0.826
 4720W        W 8239   3.386   1.541   0.653
 4721W        W 8240   4.066   7.623  11.811
 4722W        W 8241   3.961   8.921   9.344
 4723W        W 8242   2.594   1.651  10.138
 4724W        W 8243   6.245   8.605   9.557
 4725W        W 8244   0.983   3.723  11.046
 4726W        W 8245   1.876   7.455  10.767
 4727W        W 8246   7.911   8.231   3.161
 4728W        W 8247   8.009   1.008   8.770
 4729W        W 8248   8.479   5.937   8.858
 4730W        W 8249   3.409   1.202  11.766
 4731W        W 8250   6.991   1.118   3.564
 4732W        W 8251   6.696   0.676   2.341
 4733W        W 8252   1.000   2.211   3.404
 4734W        W 8253   4.063   4.779  10.580
 4735W        W 8254   8.076   4.832   1.745
 4736W        W 8255   5.548   0.593   9.270
 4737W        W 8256   7.907   0.294   2.021
 4738W        W 8257   2.114   5.060   8.570
 4739W        W 8258   0.752   8.923  11.961
 4740W        W 8259   1.006   5.004  11.098
 4741W        W 8260   4.018   9.320   0.641
 4742W        W 8261   7.102   6.020   0.265
 4743W        W 8262   4.796   9.853   0.068
 4744W        W 8263   3.242   9.865  11.299
 4745W        W 8264   3.328   4.573  11.991
 4746W        W 8265   5.040   2.387   3.079
 4747W        W 8266   6.150   1.887   2.158
 4748W        W 8267   9.853   4.130   3.157
 4749W        W 8268   1.421   7.412   3.449
 4750W        W 8269   9.892   2.005   0.483
 4751W        W 8270   8.076   8.193   0.907
 4752W        W 8271   9.939   3.152  11.439
 4753W        W 8272   4.955   3.215   8.493
 4754W        W 8273   8.433   0.215   3.535
 4755W        W 8274   5.508   3.904   8.740
 4756W        W 8275   0.843   1.711   0.271
 4757W        W 8276   9.449   0.887   0.632
 4758W        W 8277   3.769   6.542   0.398
 4759W        W 8278   4.920   5.594  10.170
 4760W        W 8279   8.461   5.982  11.282
 4761W        W 8280   4.987   4.739  10.160
 4762W        W 8281   0.030   0.216   9.979
 4763W        W 8282   1.295   5.513   1.331
 4764W        W 8283   8.797   7.261   1.268
 4765W        W 8284   1.882   9.385   0.164
 4766W        W 8285   4.806   0.001   2.755
 4767W        W 8286   6.394   2.690   0.234
 4768W        W 8287   0.830   9.098   1.660
 4769W        W 8288   6.287   2.226   0.455
 4770W        W 8289   2.068   9.929   1.291
 4771W        W 8290   9.932   2.155  11.987
 4772W        W 8291   6.639   0.219   2.628
 4773W        W 8292   7.680   5.097   1.540
 4774W        W 8293   1.660   1.165   0.747
 4775W        W 8294   0.998   9.339  11.710
 4776W        W 8295   9.494   5.858  10.116
 4777W        W 8296   1.752   0.655   0.840
 4778W        W 8297   7.048   8.187   3.689
 4779W        W 8298   0.737   3.717   9.328
 4780W        W 8299   5.112   3.391   9.977
 4781W        W 8300   8.460   7.536   3.289
 4782W        W 8301   8.729   0.213   1.374
 4783W        W 8302   5.997   2.328   1.834
 4784W        W 8303   7.171   9.403   2.304
 4785W        W 8304   4.114   6.713   2.292
 4786W        W 8305   0.266   0.919   2.448
 4787W        W 8306   3.148   2.356   0.317
 4788W        W 8307   0.662   3.748   9.834
 4789W        W 8308   6.032   4.623   0.865
 4790W        W 8309   6.819   9.462   1.401
 4791W        W 8310   3.487   7.382   3.173
 4792W        W 8311   8.515   4.862  11.866
 4793W        W 8312   4.063   6.576   9.978
 4794W        W 8313   1.971   2.928   3.498
 4795W        W 8314   0.853   0.468  10.337
 4796W        W 8315   2.278   1.940   2.131
 4797W        W 8316   7.594   3.336  10.080
 4798W        W 8317   8.481   4.097  10.797
 4799W        W 8318   9.905   7.223   2.446
 4800W        W 8319   8.485   8.959   0.705
 4801W        W 8320   7.636   8.973  10.017
 4802W        W 8321   8.510   0.725   2.216
 4803W        W 8322   1.222   1.929   2.542
 4804W        W 8323   9.005   3.619  11.416
 4805W        W 8324   9.857   4.517   1.753
 4806W        W 8325   2.016   4.631   4.126
 4807W        W 8326   0.471   1.659   1.984
 4808W        W 8327   9.059   2.588   1.516
 4809W        W 8328   8.794   1.876   0.798
 4810W        W 8329   6.551   6.276   8.016
 4811W        W 8330   4.726   0.882   0.222
 4812W        W 8331   5.981   0.874  10.924
 4813W        W 8332   3.924   7.971   1.097
 4814W        W 8333   1.652   1.663   0.622
 4815W        W 8334   5.922   7.953   8.872
 4816W        W 8335   0.690   1.059   2.695
 4817W        W 8336   8.975   0.639   0.734
 4818W        W 8337   0.331   9.476   3.630
 4819W        W 8338   6.334   1.252   9.234
 4820W        W 8339   2.567   6.375   2.155
 4821W        W 8340   8.522   4.255   9.762
 4822W        W 8341   2.714   2.371   2.657
 4823W        W 8342   5.249   9.163   3.449
 4824W        W 8343   1.642   6.615   9.205
 4825W        W 8344   5.172   1.581   0.891
 4826W        W 8345   8.481   6.250   9.274
 4827W        W 8346   0.284   3.180   9.076
 4828W        W 8347   7.386   9.889   2.219
 4829W        W 8348   4.899   0.177  10.947
 4830W        W 8349   4.018   7.630   0.712
 4831W        W 8350   5.662   1.988   8.777
 4832W        W 8351   3.581   2.169   1.282
 4833W        W 8352   8.052   6.704   0.823
 4834W        W 8353   5.761   1.920   9.641
 4835W        W 8354   3.654   1.009   9.660
 4836W        W 8355   4.787   8.883  11.934
 4837W        W 8356   3.198   3.358   0.500
 4838W        W 8357   4.702   4.466   1.808
 4839W        W 8358   2.865   4.703  10.006
 4840W        W 8359   5.670   8.843  10.558
 4841W        W 8360   4.955   4.857   1.615
 4842W        W 8361   9.588   1.331   9.115
 4843W        W 8362   2.295   9.473   2.627
 4844W        W 8363   9.365   2.763   9.004
 4845W        W 8364   6.434   3.856  11.505
 4846W        W 8365   9.274   7.672   1.850
 4847W        W 8366   7.477   8.614   3.218
 4848W        W 8367   8.879   2.313   0.537
 4849W        W 8368   6.116   6.213  11.483
 4850W        W 8369   0.737   7.787   1.043
 4851W        W 8370   0.340   7.128   0.253
 4852W        W 8371   6.480   1.990  11.509
 4853W        W 8372   1.250   0.998   0.999
 4854W        W 8373   8.954   0.354   1.830
 4855W        W 8374   5.297   2.938   8.213
 4856W        W 8375   9.345   6.029   8.727
 4857W        W 8376   9.530   8.961   1.559
 4858W        W 8377   1.375   8.813   8.971
 4859W        W 8378   8.023   3.678  11.440
 4860W        W 8379   3.391   5.975  11.570
 4861W        W 8380   3.606   5.516   2.243
 4862W        W 8381   1.015   7.464  11.188
 4863W        W 8382   4.470   9.065   0.593
 4864W        W 8383   0.720   9.977  11.211
 4865W        W 8384   1.683   6.751  11.455
 4866W        W 8385   1.800   0.351   1.269
 4867W        W 8386   4.006   6.769  11.004
 4868W        W 8387   2.288   9.184   9.896
 4869W        W 8388   7.043   7.173  10.962
 4870W        W 8389   1.377   5.802   0.389
 4871W        W 8390   8.121   6.500   2.774
 4872W        W 8391   7.030   2.375  10.415
 4873W        W 8392   1.233   1.686   3.012
 4874W        W 8393   4.025   2.853   1.447
 4875W        W 8394   2.796   2.059  10.354
 4876W        W 8395   2.689   7.309   2.418
 4877W        W 8396   2.764   9.939   3.225
 4878W        W 8397   3.465   1.196   2.156
 4879W        W 8398   5.088   5.292  11.414
 4880W        W 8399   5.016   6.544   1.133
 4881W        W 8400   8.543   9.716   3.588
 4882W        W 8401   0.450   8.913   3.443
 4883W        W 8402   1.662   8.454  10.236
 4884W        W 8403   8.074   1.150  11.915
 4885W        W 8404   0.155   5.289   2.197
 4886W        W 8405   3.674   2.294   9.936
 4887W        W 8406   7.614   4.388  10.955
 4888W        W 8407   6.561   0.517   0.779
 4889W        W 8408   4.036   9.460  11.058
 4890W        W 8409   8.425   2.132   0.235
 4891W        W 8410   4.695   0.950  11.297
 4892W        W 8411   7.734   1.831   9.008
 4893W        W 8412   5.547   6.016   2.796
 4894W        W 8413   5.817   4.279  10.059
 4895W        W 8414   4.414   6.667  11.295
 4896W        W 8415   9.944   7.328   0.577
 4897W        W 8416   6.446   0.360   0.289
 4898W        W 8417   8.958   9.415   9.746
 4899W        W 8418   5.607   1.497  11.631
 4900W        W 8419   9.713   4.358   3.598
 4901W        W 8420   6.948   5.609   3.638
 4902W        W 8421   5.125   2.598  11.721
 4903W        W 8422   1.397   5.516   1.841
 4904W        W 8423   6.943   6.125  11.026
 4905W        W 8424   2.253   4.854   0.515
 4906W        W 8425   5.186   3.781   9.634
 4907W        W 8426   9.764   8.964  10.348
 4908W        W 8427   6.571   6.517  11.474
 4909W        W 8428   2.866   0.263   8.840
 4910W        W 8429   1.844   4.210   0.042
 4911W        W 8430   0.980   0.593  11.200
 4912W        W 8431   3.000   2.700   9.654
 4913W        W 8432   6.867   3.402   1.298
 4914W        W 8433   7.224   8.542  10.331
 4915W        W 8434   8.415   1.946   9.740
 4916W        W 8435   7.360   7.582   9.086
 4917W        W 8436   1.249   8.075   9.709
 4918W        W 8437   1.399   5.069  10.000
 4919W        W 8438   2.166   1.268   8.989
 4920W        W 8439   0.263   2.739   0.929
 4921W        W 8440   0.232   8.023   3.311
 4922W        W 8441   1.963   5.572   3.529
 4923W        W 8442   3.421   9.037  11.239
 4924W        W 8443   9.089   5.595   9.945
 4925W        W 8444   0.807   9.468   2.883
 4926W        W 8445   5.127   6.497   9.122
 4927W        W 8446   9.935   8.575   2.380
 4928W        W 8447   4.362   7.245   3.657
 4929W        W 8448   2.784   8.203   0.697
 4930W        W 8449   5.651   7.619   3.274
 4931W        W 8450   0.742   8.390   3.244
 4932W        W 8451   4.776   1.354   2.454
 4933W        W 8452   3.750   5.085   2.472
 4934W        W 8453   8.996   8.834   0.621
 4935W        W 8454   2.877   5.507   0.410
 4936W        W 8455   8.465   9.434   1.914
 4937W        W 8456   3.769   7.206   0.843
 4938W        W 8457   7.650   8.434   0.700
 4939W        W 8458   4.232   8.096  11.848
 4940W        W 8459   0.459   2.209   8.984
 4941W        W 8460   5.121   6.086   9.474
 4942W        W 8461   1.177   7.499   1.990
 4943W        W 8462   4.097   9.874   9.195
 4944W        W 8463   0.454   6.601   3.061
 4945W        W 8464   7.997   6.126  11.398
 4946W        W 8465   3.522   5.137  11.337
 4947W        W 8466   3.864   0.954   1.737
 4948W        W 8467   8.497   2.550   2.946
 4949W        W 8468   6.340   8.352   2.958
 4950W        W 8469   3.994   8.485   2.557
 4951W        W 8470   2.202   8.598   1.272
 4952W        W 8471   5.651   5.089   2.655
 4953W        W 8472   7.085   7.346   2.023
 4954W        W 8473   1.466   3.304   0.588
 4955W        W 8474   8.455   1.105  11.200
 4956W        W 8475   9.025   3.546   2.455
 4957W        W 8476   9.556   9.526   0.445
 4958W        W 8477   6.602   2.689   2.323
 4959W        W 8478   9.864   8.451   1.875
 4960W        W 8479   4.575   9.748   3.505
 4961W        W 8480   4.670   1.938   2.234
 4962W        W 8481   6.131   7.861   2.149
 4963W        W 8482   3.028   4.246  10.021
 4964W        W 8483   4.678   6.289   8.562
 4965W        W 8484   1.319   5.348  10.499
 4966W        W 8485   1.297   9.758   9.039
 4967W        W 8486   7.146   2.147   9.551
 4968W        W 8487   1.901   5.623  10.016
 4969W        W 8488   4.106   5.565  10.899
 4970W        W 8489   5.379   3.467   1.303
 4971W        W 8490   3.671   8.541   0.392
 4972W        W 8491   7.850   2.169   1.770
 4973W        W 8492   2.359   3.301  10.637
 4974W        W 8493   4.108   3.319   3.534
 4975W        W 8494   2.715   3.788   1.396
 4976W        W 8495   4.983   8.230   2.939
 4977W        W 8496   8.940   2.713  11.685
 4978W        W 8497   6.115   8.994   2.220
 4979W        W 8498   3.270   5.137  10.892
 4980W        W 8499   8.898   4.915   2.643
 4981W        W 8500   5.835   5.394  11.503
 4982W        W 8501   0.744   3.806   2.118
 4983W        W 8502   9.716   1.936  10.298
 4984W        W 8503   6.578   6.527   9.580
 4985W        W 8504   6.351   0.252  10.234
 4986W        W 8505   1.699   7.950   9.472
 4987W        W 8506   1.620   0.261  11.887
 4988W        W 8507   8.952   6.903   9.937
 4989W        W 8508   9.043   8.334  11.918
 4990W        W 8509   3.794   1.128   2.579
 4991W        W 8510   7.424   6.142   4.203
 4992W        W 8511   5.213   4.169   0.814
 4993W        W 8512   0.437   9.693   3.148
 4994W        W 8513   8.696   9.929  10.102
 4995W        W 8514   6.434   7.118   1.255
 4996W        W 8515   1.775   7.500   0.224
 4997W        W 8516   6.248   1.896   9.753
 4998W        W 8517   7.119   2.321   0.089
 4999W        W 8518   0.890   3.422  11.453
 5000W        W 8519   1.442   9.824   3.415
 5001W        W 8520   1.722   5.937   1.770
 5002W        W 8521   1.717   1.769   0.078
 5003W        W 8522   7.595   6.807   1.667
 5004W        W 8523   7.066   0.786  10.249
 5005W        W 8524   8.113   5.811   2.099
 5006W        W 8525   9.820   7.170  10.368
 5007W        W 8526   9.719   6.171   1.114
 5008W        W 8527   6.081   5.135   2.973
 5009W        W 8528   3.807   6.679   1.700
 5010W        W 8529   8.369   3.152  10.423
 5011W        W 8530   5.801   4.536  11.178
 5012W        W 8531   8.060   1.862   9.392
 5013W        W 8532   1.397   7.576  10.477
 5014W        W 8533   1.205   8.752   1.568
 5015W        W 8534   1.463   5.479   0.751
 5016W        W 8535   7.337   8.063  10.479
 5017W        W 8536   3.611   9.499  11.331
 5018W        W 8537   8.782   2.135  10.043
 5019W        W 8538   9.495   6.006   2.584
 5020W        W 8539   0.290   8.422   1.607
 5021W        W 8540   0.761   5.359   1.291
 5022W        W 8541   6.660   1.401   0.421
 5023W        W 8542   5.279   0.242   2.719
 5024W        W 8543   4.671   8.858  11.014
 5025W        W 8544   0.333   2.425   2.331
 5026W        W 8545   2.110   3.524   9.374
 5027W        W 8546   9.383   5.009   1.036
 5028W        W 8547   5.945   6.088   0.012
 5029W        W 8548   0.453   3.686   1.715
 5030W        W 8549   1.875   7.161   1.415
 5031W        W 8550   0.176   7.218   1.392
 5032W        W 8551   1.085   0.214  11.985
 5033W        W 8552   4.153   0.782   2.769
 5034W        W 8553   7.947   7.168   1.745
 5035W        W 8554   6.879   6.188   4.180
 5036W        W 8555   2.505   5.042   3.243
 5037W        W 8556   3.127   4.372   8.081
 5038W        W 8557   9.229   2.274   3.210
 5039W        W 8558   5.171   2.591   0.757
 5040W        W 8559   6.870   6.967   3.803
 5041W        W 8560   0.625   5.167  10.797
 5042W        W 8561   5.128   1.054   2.830
 5043W        W 8562   4.868   6.639   4.110
 5044W        W 8563   0.176   3.454   0.727
 5045W        W 8564   8.019   4.227  10.179
 5046W        W 8565   5.276   7.024   9.454
 5047W        W 8566   8.037   3.419   2.257
 5048W        W 8567   6.486   9.702  11.450
 5049W        W 8568   5.915   9.959   8.967
 5050W        W 8569   9.349   6.872   2.123
 5051W        W 8570   9.272   7.862   2.386
 5052W        W 8571   2.196   6.916   3.556
 5053W        W 8572   4.289   6.513   1.843
 5054W        W 8573   5.365   2.193   2.575
 5055W        W 8574   6.055   5.509   1.409
 5056W        W 8575   7.165   7.526  11.679
 5057W        W 8576   0.987   9.991   1.828
 5058W        W 8577   7.254   6.032   9.034
 5059W        W 8578   8.752   9.426   3.207
 5060W        W 8579   3.865   8.998  11.509
 5061W        W 8580   9.590   7.571   0.295
 5062W        W 8581   1.938   6.431  10.771
 5063W        W 8582   1.284   9.854  10.572
 5064W        W 8583   7.921   9.283   9.499
 5065W        W 8584   8.368   6.336   0.912
 5066W        W 8585   3.195   8.063   2.399
 5067W        W 8586   5.925   1.014  10.426
 5068W        W 8587   1.626   2.714   1.244
 5069W        W 8588   2.706   9.329   9.227
 5070W        W 8589   3.242   4.667   9.671
 5071W        W 8590   5.156   7.877   2.579
 5072W        W 8591   2.312   5.959   3.477
 5073W        W 8592   6.572   9.250  10.383
 5074W        W 8593   6.452   2.442   2.775
 5075W        W 8594   1.314   8.427   2.376
 5076W        W 8595   6.517   5.080   2.603
 5077W        W 8596   0.778   4.398   3.231
 5078W        W 8597   5.846   4.945   2.205
 5079W        W 8598   7.862   2.645   9.850
 5080W        W 8599   6.078   9.462  10.369
 5081W        W 8600   7.937   3.434  10.441
 5082W        W 8601   2.457   2.626   3.442
 5083W        W 8602   9.518   6.750   0.332
 5084W        W 8603   7.733   5.631   2.473
 5085W        W 8604   3.483   0.949   3.565
 5086W        W 8605   9.434   4.307   0.079
 5087W        W 8606   5.707   8.538   3.077
 5088W        W 8607   8.412   7.088   2.012
 5089W        W 8608   8.675   9.243   2.343
 5090W        W 8609   3.559   8.299   2.794
 5091W        W 8610   8.695   2.914   9.613
 5092W        W 8611   3.197   2.981   0.875
 5093W        W 8612   4.807   0.364   9.702
 5094W        W 8613   3.823   7.254  11.081
 5095W        W 8614   4.421   5.507  10.053
 5096W        W 8615   3.548   8.241   1.312
 5097W        W 8616   3.721   5.448   9.424
 5098W        W 8617   1.188   1.947   0.822
 5099W        W 8618   4.230   2.281   9.213
 5100W        W 8619   1.928   0.992   3.088
 5101W        W 8620   9.660   3.596  11.478
 5102W        W 8621   4.588   5.670   0.255
 5103W        W 8622   3.930   8.181  11.453
 5104W        W 8623   8.790   7.092   0.304
 5105W        W 8624   1.247   3.490   3.483
 5106W        W 8625   0.784   0.845   8.559
 5107W        W 8626   9.459   9.399   9.654
 5108W        W 8627   4.009   0.891   3.397
 5109W        W 8628   7.987   8.739   3.059
 5110W        W 8629   7.597   4.348   9.940
 5111W        W 8630   0.522   3.069   0.620
 5112W        W 8631   8.112   6.234   3.676
 5113W        W 8632   0.406   3.331   9.554
 5114W        W 8633   0.915   2.194   8.745
 5115W        W 8634   5.553   8.277   8.744
 5116W        W 8635   1.574   7.347   2.718
 5117W        W 8636   5.884   8.917   9.705
 5118W        W 8637   3.178   4.731   9.182
 5119W        W 8638   8.357   5.684   1.645
 5120W        W 8639   3.987   4.669   2.669
 5121W        W 8640   2.222   6.208   0.418
 5122W        W 8641   6.796   0.577  11.435
 5123W        W 8642   2.949   8.953   0.087
 5124W        W 8643   1.351   0.650   0.068
 5125W        W 8644   9.839   4.865   2.197
 5126W        W 8645   6.266   5.626   2.897
 5127W        W 8646   3.459   0.621   0.344
 5128W        W 8647   2.181   9.243   1.685
 5129W        W 8648   8.655   2.256   1.466
 5130W        W 8649   9.522   5.364  11.443
 5131W        W 8650   4.221   0.837   1.410
 5132W        W 8651   8.435   3.552   0.643
 5133W        W 8652   7.308   0.628   1.530
 5134W        W 8653   9.004   5.882   2.336
 5135W        W 8654   8.560   9.677   0.278
 5136W        W 8655   5.860   3.071   8.765
 5137W        W 8656   0.028   5.425   9.871
 5138W        W 8657   1.056   0.346   9.854
 5139W        W 8658   3.176   6.766   8.051
 5140W        W 8659   8.321   0.770   3.243
 5141W        W 8660   4.509   3.254   0.639
 5142W        W 8661   2.733   5.517  11.000
 5143W        W 8662   1.705   3.211  11.351
 5144W        W 8663   2.119   0.410  11.972
 5145W        W 8664   7.878   2.951   2.176
 5146W        W 8665   5.688   9.792   2.384
 5147W        W 8666   3.514   2.684   1.464
 5148W        W 8667   9.633   9.984   0.250
 5149W        W 8668   8.343   5.146   9.943
 5150W        W 8669   6.172   9.016  10.651
 5151W        W 8670   5.955   6.431  11.032
 5152W        W 8671   0.453   1.568  11.991
 5153W        W 8672   6.172   4.680   0.003
 5154W        W 8673   6.322   4.214   0.748
 5155W        W 8674   9.352   9.308   8.686
 5156W        W 8675   9.442   7.093  11.199
 5157W        W 8676   5.645   1.456   0.580
 5158W        W 8677   4.242   5.050   9.856
 5159W        W 8678   7.624   4.731   8.982
 5160W        W 8679   1.291   7.162   0.178
 5161W        W 8680   2.404   5.242   2.778
 5162W        W 8681   5.417   4.860  10.401
 5163W        W 8682   9.444   5.521   0.703
 5164W        W 8683   2.344   7.861   1.820
 5165W        W 8684   6.745   1.459   8.509
 5166W        W 8685   4.231   6.417   2.715
 5167W        W 8686   6.866   8.770  10.063
 5168W        W 8687   4.225   8.919   2.434
 5169W        W 8688   0.771   6.135  11.862
 5170W        W 8689   9.819   4.620  10.024
 5171W        W 8690   7.637   0.962   2.362
 5172W        W 8691   6.059   2.829   2.155
 5173W        W 8692   7.947   9.408  11.688
 5174W        W 8693   3.727   1.962   2.805
 5175W        W 8694   2.884   5.098  11.270
 5176W        W 8695   3.796   4.193   3.791
 5177W        W 8696   9.024   9.873   1.625
 5178W        W 8697   8.929   8.043  10.783
 5179W        W 8698   8.451   5.120   2.466
 5180W        W 8699   4.527   4.214   9.625
 5181W        W 8700   8.842   3.663   2.014
 5182W        W 8701   5.955   6.909  11.924
 5183W        W 8702   0.997   5.032   0.560
 5184W        W 8703   1.889   7.673  11.243
 5185W        W 8704   3.805   2.973   2.387
 5186W        W 8705   2.947   8.862   3.243
 5187W        W 8706   5.627   7.019   4.076
 5188W        W 8707   5.599   2.641   3.009
 5189W        W 8708   1.805   0.075   2.678
 5190W        W 8709   0.545   3.601   8.866
 5191W        W 8710   7.988   1.185   2.687
 5192W        W 8711   7.685   9.787  10.923
 5193W        W 8712   5.173   3.575   4.070
 5194W        W 8713   3.881   9.937   0.490
 5195W        W 8714   7.019   8.965   9.196
 5196W        W 8715   2.179   3.807   2.786
 5197W        W 8716   7.402   3.641   0.454
 5198W        W 8717   9.975   5.935   1.466
 5199W        W 8718   9.629   1.451   1.719
 5200W        W 8719   6.914   9.742   3.216
 5201W        W 8720   7.890   7.666   1.749
 5202W        W 8721   6.432   7.234  10.931
 5203W        W 8722   1.747   5.400   8.639
 5204W        W 8723   1.813   5.492   1.512
 5205W        W 8724   9.764   8.038   9.144
 5206W        W 8725   1.552   0.181   9.754
 5207W        W 8726   0.675   7.296   1.232
 5208W        W 8727   2.355   4.764   9.887
 5209W        W 8728   2.027   4.092   0.511
 5210W        W 8729   7.030   5.568   8.896
 5211W        W 8730   9.759   0.809  10.879
 5212W        W 8731   8.020   6.133  10.063
 5213W        W 8732   2.128   4.278  10.567
 5214W        W 8733   3.902   5.471  11.415
 5215W        W 8734   1.389   8.432   0.592
 5216W        W 8735   5.492   1.796  10.074
 5217W        W 8736   8.326   2.378  10.035
 5218W        W 8737   9.481   1.413   2.196
 5219W        W 8738   3.783   2.249   0.729
 5220W        W 8739   1.746   1.555   9.115
 5221W        W 8740   3.554   6.110   8.741
 5222W        W 8741   2.963   1.771   8.627
 5223W        W 8742   9.330   6.382  11.440
 5224W        W 8743   0.131   0.661   0.228
 5225W        W 8744   4.567   2.158   3.028
 5226W        W 8745   9.809   9.372   1.769
 5227W        W 8746   8.967   5.130  11.746
 5228W        W 8747   2.148   3.754   0.872
 5229W        W 8748   3.504   1.817  10.003
 5230W        W 8749   4.540   9.522   9.437
 5231W        W 8750   6.271   3.795   1.669
 5232W        W 8751   2.265   8.332   3.177
 5233W        W 8752   7.952   2.275   2.639
 5234W        W 8753   5.345   4.971   1.286
 5235W        W 8754   4.234   5.471   9.567
 5236W        W 8755   4.214   4.593  10.113
 5237W        W 8756   9.359   9.944   1.214
 5238W        W 8757   5.512   2.333   1.065
 5239W        W 8758   2.681   0.463  10.292
 5240W        W 8759   8.519   5.491  11.304
 5241W        W 8760   4.944   7.037  11.894
 5242W        W 8761   6.078   1.758   3.259
 5243W        W 8762   3.921   0.402   0.296
 5244W        W 8763   9.012   5.375   1.187
 5245W        W 8764   1.734   6.236  11.215
 5246W        W 8765   0.415   3.048  11.723
 5247W        W 8766   9.107   9.497   9.269
 5248W        W 8767   3.094   0.357   2.500
 5249W        W 8768   4.917   6.330   3.351
 5250W        W 8769   6.510   3.657   9.242
 5251W        W 8770   1.377   2.999   3.643
 5252W        W 8771   1.673   8.066  10.998
 5253W        W 8772   3.160   5.612  10.734
 5254W        W 8773   8.473   3.229   2.453
 5255W        W 8774   1.388   6.984   1.163
 5256W        W 8775   9.246   4.229   1.971
 5257W        W 8776   1.283   3.103   1.691
 5258W        W 8777   4.154   9.423   8.974
 5259W        W 8778   8.304   7.503   1.267
 5260W        W 8779   3.428   8.161   9.361
 5261W        W 8780   3.209   5.953   8.361
 5262W        W 8781   5.453   6.511   4.109
 5263W        W 8782   6.768   4.059  11.831
 5264W        W 8783   0.893   7.103   1.856
 5265W        W 8784   7.688   5.599   0.454
 5266W        W 8785   2.163   0.909   0.043
 5267W        W 8786   0.059   2.850  10.873
 5268W        W 8787   8.761   9.474   8.881
 5269W        W 8788   5.960   4.068   2.097
 5270W        W 8789   7.613   6.508   0.637
 5271W        W 8790   2.758   7.752   2.659
 5272W        W 8791   5.715   9.357   2.125
 5273W        W 8792   1.315   6.108  10.031
 5274W        W 8793   1.171   6.721  11.853
 5275W        W 8794   3.279   6.643   8.923
 5276W        W 8795   2.698   5.678   2.718
 5277W        W 8796   3.459   8.064   8.856
 5278W        W 8797   8.105   5.666  10.983
 5279W        W 8798   9.373   6.180   9.226
 5280W        W 8799   4.928   1.873   0.250
 5281W        W 8800   7.739   7.375   2.853
 5282W        W 8801   2.682   4.223  11.832
 5283W        W 8802   8.861   3.987   2.664
 5284W        W 8803   4.956   9.282  11.018
 5285W        W 8804   0.269   8.514   3.111
 5286W        W 8805   6.472   4.144   2.152
 5287W        W 8806   4.054   4.346  11.488
 5288W        W 8807   1.415   9.721   1.825
 5289W        W 8808   8.526   3.048   2.915
 5290W        W 8809   3.336   1.859   1.664
 5291W        W 8810   8.445   3.103   8.452
 5292W        W 8811   8.465   4.402   1.860
 5293W        W 8812   7.530   6.352   8.700
 5294W        W 8813   0.736   4.519   1.405
 5295W        W 8814   1.211   8.056  10.222
 5296W        W 8815   2.285   2.921  10.970
 5297W        W 8816   4.308   3.621  11.098
 5298W        W 8817   3.502   0.123   0.164
 5299W        W 8818   5.238   4.079  11.032
 5300W        W 8819   4.505   1.380  11.589
 5301W        W 8820   9.134   2.222   9.629
 5302W        W 8821   1.736   6.213   8.814
 5303W        W 8822   5.563   3.237   9.772
 5304W        W 8823   6.666   2.648  10.958
 5305W        W 8824   6.102   4.954   0.434
 5306W        W 8825   3.219   1.222   3.145
 5307W        W 8826   4.950   8.567   9.572
 5308W        W 8827   0.700   1.687  10.352
 5309W        W 8828   8.858   3.230   0.409
 5310W        W 8829   8.041   9.680   2.750
 5311W        W 8830   9.871   3.349  10.934
 5312W        W 8831   0.010   8.854   1.499
 5313W        W 8832   1.187   8.006  10.730
 5314W        W 8833   0.899   8.469  11.201
 5315W        W 8834   3.689   9.976   2.006
 5316W        W 8835   3.221   1.998  10.917
 5317W        W 8836   4.119   0.893   9.033
 5318W        W 8837   0.075   1.016  10.531
 5319W        W 8838   4.089   5.778  10.352
 5320W        W 8839   9.718   6.983   1.483
 5321W        W 8840   4.285   1.224   0.465
 5322W        W 8841   1.640   7.223  11.240
 5323W        W 8842   8.351   0.211   2.251
 5324W        W 8843   6.128   6.426   0.373
 5325W        W 8844   9.047   2.181   1.818
 5326W        W 8845   8.186   1.941  11.802
 5327W        W 8846   4.990   4.320  11.479
 5328W        W 8847   0.292   2.336   0.328
 5329W        W 8848   1.994   2.235   3.814
 5330W        W 8849   4.782   5.563   9.644
 5331W        W 8850   3.738   9.553   1.517
 5332W        W 8851   9.186   1.846  11.862
 5333W        W 8852   3.990   6.254   4.327
 5334W        W 8853   2.683   7.519   0.201
 5335W        W 8854   1.395   0.850  11.376
 5336W        W 8855   2.757   2.928  11.212
 5337W        W 8856   2.593   7.998   9.405
 5338W        W 8857   2.189   3.466  11.916
 5339W        W 8858   9.134   7.474   0.017
 5340W        W 8859   4.591   3.167  11.623
 5341W        W 8860   3.654   7.460   0.067
 5342W        W 8861   8.098   7.668  10.694
 5343W        W 8862   8.587   6.568  10.102
 5344W        W 8863   3.904   5.547   4.166
 5345W        W 8864   0.981   9.342   8.974
 5346W        W 8865   0.838   2.601  11.145
 5347W        W 8866   4.164   6.320  11.610
 5348W        W 8867   5.113   8.838   2.266
 5349W        W 8868   6.235   4.539   8.651
 5350W        W 8869   1.736   6.639  10.350
 5351W        W 8870   6.723   8.498   0.863
 5352W        W 8871   4.663   8.376  11.859
 5353W        W 8872   8.948   4.578   1.774
 5354W        W 8873   2.350   0.752   1.770
 5355W        W 8874   4.662   5.541   9.138
 5356W        W 8875   8.455   5.861   0.770
 5357W        W 8876   2.435   0.310  11.296
 5358W        W 8877   5.737   6.836   8.108
 5359W        W 8878   7.954   9.062   3.469
 5360W        W 8879   8.993   6.649  10.837
 5361W        W 8880   5.655   2.665  10.835
 5362W        W 8881   6.475   6.504  10.567
 5363W        W 8882   3.297   7.555  10.717
 5364W        W 8883   3.211   4.252   2.382
 5365W        W 8884   7.424   9.762   3.177
 5366W        W 8885   8.557   2.321  11.768
 5367W        W 8886   8.954   1.745   9.767
 5368W        W 8887   3.490   5.085   8.546
 5369W        W 8888   2.251   2.636   9.978
 5370W        W 8889   0.916   7.542   3.501
 5371W        W 8890   8.393   0.901   2.712
 5372W        W 8891   2.970   9.982   1.000
 5373W        W 8892   1.921   0.486   9.998
 5374W        W 8893   1.285   4.613   2.428
 5375W        W 8894   5.973   3.234  11.810
 5376W        W 8895   5.118   6.243   4.394
 5377W        W 8896   5.975   2.228   0.856
 5378W        W 8897   7.552   3.480   2.950
 5379W        W 8898   2.627   2.908   1.022
 5380W        W 8899   1.437   0.778   1.820
 5381W        W 8900   2.524   1.041   0.373
 5382W        W 8901   3.270   1.472   8.912
 5383W        W 8902   1.817   4.749   9.928
 5384W        W 8903   0.036   1.709  11.750
 5385W        W 8904   6.113   5.997  10.761
 5386W        W 8905   8.250   8.548  11.475
 5387W        W 8906   1.456   0.835  10.853
 5388W        W 8907   6.841   8.974   0.373
 5389W        W 8908   0.067   4.765  11.427
 5390W        W 8909   0.416   5.953  11.354
 5391W        W 8910   2.593   1.308   1.884
 5392W        W 8911   6.701   6.388  10.089
 5393W        W 8912   6.725   3.900   0.816
 5394W        W 8913   6.642   5.188   3.619
 5395W        W 8914   6.720   9.839  10.971
 5396W        W 8915   4.545   5.793   8.694
 5397W        W 8916   2.258   5.618   2.426
 5398W        W 8917   6.992   0.723   9.521
 5399W        W 8918   0.332   3.316   2.701
 5400W        W 8919   6.523   2.238   8.701
 5401W        W 8920   6.920   6.206   1.002
 5402W        W 8921   6.183   1.846  10.244
 5403W        W 8922   9.383   9.244   0.040
 5404W        W 8923   6.734   5.870  10.158
 5405W        W 8924   2.126   4.313  10.043
 5406W        W 8925   6.675   5.766   0.854
 5407W        W 8926   8.942   6.003  11.485
 5408W        W 8927   6.628   7.963   3.075
 5409W        W 8928   6.471   0.693   1.287
 5410W        W 8929   2.976   3.296  10.913
 5411W        W 8930   2.358   9.334  10.892
 5412W        W 8931   1.311   6.247   0.598
 5413W        W 8932   7.700   2.691   3.465
 5414W        W 8933   1.662   3.206   2.436
 5415W        W 8934   1.759   1.233   2.242
 5416W        W 8935   5.610   4.495   1.151
 5417W        W 8936   2.057   6.412  11.943
 5418W        W 8937   0.894   8.873   9.162
 5419W        W 8938   8.046   5.635   9.969
 5420W        W 8939   6.839   8.247   8.528
 5421W        W 8940   5.355   1.063  11.539
 5422W        W 8941   5.004   1.698   9.896
 5423W        W 8942   9.410   1.418   2.690
 5424W        W 8943   5.943   0.516  10.321
 5425W        W 8944   8.449   9.731   2.421
 5426W        W 8945   1.233   2.647   3.248
 5427W        W 8946   9.486   6.495  10.773
 5428W        W 8947   6.032   7.965  11.235
 5429W        W 8948   2.290   7.902   2.775
 5430W        W 8949   1.232   1.343   9.152
 5431W        W 8950   5.275   1.942   9.547
 5432W        W 8951   5.643   8.026   9.430
 5433W        W 8952   6.472   2.076   3.131
 5434W        W 8953   1.212   8.919   2.526
 5435W        W 8954   3.575   5.041   3.343
 5436W        W 8955   2.678   6.365   2.669
 5437W        W 8956   9.021   4.218   9.581
 5438W        W 8957   3.354   4.731  10.159
 5439W        W 8958   2.701   9.216   2.427
 5440W        W 8959   2.235   2.178   9.592
 5441W        W 8960   2.679   7.425   0.700
 5442W        W 8961   0.237   1.735   8.916
 5443W        W 8962   5.420   1.473   2.743
 5444W        W 8963   9.225   1.804   1.061
 5445W        W 8964   5.416   1.831   0.315
 5446W        W 8965   6.181   2.324  10.540
 5447W        W 8966   1.523   8.368   9.225
 5448W        W 8967   9.187   6.615   0.732
 5449W        W 8968   9.938   4.830   8.772
 5450W        W 8969   1.863   4.622   9.065
 5451W        W 8970   9.466   2.222   0.277
 5452W        W 8971   0.555   4.612  11.398
 5453W        W 8972   7.766   9.257   1.243
 5454W        W 8973   6.572   1.239  11.038
 5455W        W 8974   0.126   2.873   9.586
 5456W        W 8975   4.696   6.426   8.053
 5457W        W 8976   2.802   6.833  10.251
 5458W        W 8977   3.207   8.756   0.484
 5459W        W 8978   3.660   7.055   2.016
 5460W        W 8979   7.988   4.153   9.678
 5461W        W 8980   2.135   8.311   1.720
 5462W        W 8981   9.324   4.672   3.506
 5463W        W 8982   0.008   3.240   9.910
 5464W        W 8983   2.682   7.164   1.142
 5465W        W 8984   9.989   4.230   0.184
 5466W        W 8985   4.311   5.476  11.804
 5467W        W 8986   8.923   4.634  11.561
 5468W        W 8987   9.665   6.632   3.267
 5469W        W 8988   4.701   3.385   2.416
 5470W        W 8989   2.302   2.780   1.860
 5471W        W 8990   1.879   9.190   0.657
 5472W        W 8991   9.086   1.735  11.368
 5473W        W 8992   5.478   5.956   0.872
 5474W        W 8993   9.911   2.470   0.674
 5475W        W 8994   9.795   5.801   8.609
 5476W        W 8995   0.000   1.115   1.830
 5477W        W 8996   0.332   1.424  10.578
 5478W        W 8997   7.682   7.541  11.629
 5479W        W 8998   2.649   8.457   1.494
 5480W        W 8999   3.954   1.336   2.102
 5481W        W 9000   6.051   8.068  10.223
 5482W        W 9001   1.217   5.126   2.179
 5483W        W 9002   7.086   1.594   9.726
 5484W        W 9003   9.919   4.242   0.767
 5485W        W 9004   1.216   4.050   9.998
 5486W        W 9005   9.861   2.241   2.623
 5487W        W 9006   5.168   5.183   9.579
 5488W        W 9007   6.062   7.940   1.572
 5489W        W 9008   8.117   5.901   0.350
 5490W        W 9009   8.980   0.897   2.076
 5491W        W 9010   4.203   8.594   9.805
 5492W        W 9011   9.503   8.318   3.630
 5493W        W 9012   9.812   1.295  11.995
 5494W        W 9013   2.071   6.564   0.826
 5495W        W 9014   5.580   4.395   8.883
 5496W        W 9015   5.106   0.150  10.067
 5497W        W 9016   9.496   3.564   2.125
 5498W        W 9017   0.872   5.626   1.748
 5499W        W 9018   8.970   7.498   3.195
 5500W        W 9019   5.694   1.845  11.254
 5501W        W 9020   0.801   2.420   1.514
 5502W        W 9021   6.115   5.742   9.559
 5503W        W 9022   5.932   1.415   8.935
 5504W        W 9023   9.832   0.860   2.856
 5505W        W 9024   6.370   3.751   8.757
 5506W        W 9025   9.155   4.296   3.805
 5507W        W 9026   8.829   7.960   9.261
 5508W        W 9027   7.114   0.930   0.293
 5509W        W 9028   3.776   9.492   3.211
 5510W        W 9029   9.929   8.116   8.625
 5511W        W 9030   1.143   7.508   2.496
 5512W        W 9031   5.163   1.906   3.378
 5513W        W 9032   8.462   7.096   3.549
 5514W        W 9033   3.184   4.390  11.531
 5515W        W 9034   4.513   3.822   0.200
 5516W        W 9035   7.495   1.312   1.973
 5517W        W 9036   0.336   5.192   8.801
 5518W        W 9037   7.396   5.703   0.008
 5519W        W 9038   9.028   0.401  11.009
 5520W        W 9039   9.005   5.791   1.499
 5521W        W 9040   3.498   1.970   0.356
 5522W        W 9041   8.347   7.040   0.528
 5523W        W 9042   4.179   7.942  10.506
 5524W        W 9043   0.008   2.209   9.978
 5525W        W 9044   8.107   0.608  10.940
 5526W        W 9045   5.202   8.744   0.805
 5527W        W 9046   7.065   1.658   0.806
 5528W        W 9047   7.933   1.162   1.710
 5529W        W 9048   6.419   4.616  10.357
 5530W        W 9049   6.928   6.336   9.283
 5531W        W 9050   0.218   7.311  10.638
 5532W        W 9051   4.181   7.330   1.450
 5533W        W 9052   9.695   2.875  10.542
 5534W        W 9053   9.681   4.905   3.807
 5535W        W 9054   9.510   5.194  10.953
 5536W        W 9055   5.280   4.422  11.897
 5537W        W 9056   8.362   9.806  11.686
 5538W        W 9057   5.177   9.753   0.831
 5539W        W 9058   0.377   9.930   8.992
 5540W        W 9059   3.743   9.733   8.408
 5541W        W 9060   6.623   4.194   8.525
 5542W        W 9061   1.490   9.368   8.758
 5543W        W 9062   6.113   5.168  11.860
 5544W        W 9063   7.709   1.699  11.148
 5545W        W 9064   7.599   5.388   9.767
 5546W        W 9065   3.492   2.522  11.400
 5547W        W 9066   7.862   8.415   1.330
 5548W        W 9067   6.143   4.246   2.585
 5549W        W 9068   4.159   7.022   1.885
 5550W        W 9069   9.315   3.872   9.792
 5551W        W 9070   5.376   0.285  10.875
 5552W        W 9071   6.636   4.647   2.278
 5553W        W 9072   6.001   8.569   2.660
 5554W        W 9073   2.414   5.740   0.496
 5555W        W 9074   5.793   4.295  11.932
 5556W        W 9075   4.111   0.861  10.063
 5557W        W 9076   3.603   4.649   3.013
 5558W        W 9077   7.522   0.924   8.941
 5559W        W 9078   5.352   8.893   9.533
 5560W        W 9079   1.360   9.898   2.937
 5561W        W 9080   0.112   4.572   9.611
 5562W        W 9081   3.820   6.592   8.345
 5563W        W 9082   2.229   5.242  10.078
 5564W        W 9083   4.380   6.086   1.232
 5565W        W 9084   3.243   7.871   1.427
 5566W        W 9085   6.428   6.323   1.900
 5567W        W 9086   2.420   4.869   1.001
 5568W        W 9087   8.759   5.369   1.664
 5569W        W 9088   7.115   9.718   1.078
 5570W        W 9089   2.382   2.294  10.568
 5571W        W 9090   7.434   8.632   9.092
 5572W        W 9091   2.896   3.199   0.032
 5573W        W 9092   4.385   4.868   0.805
 5574W        W 9093   6.482   0.363  11.764
 5575W        W 9094   3.913   8.524   1.093
 5576W        W 9095   2.441   5.444   3.577
 5577W        W 9096   6.580   8.915   2.016
 5578W        W 9097   1.152   1.296   3.471
 5579W        W 9098   8.739   2.773  10.575
 5580W        W 9099   3.644   4.909   1.254
 5581W        W 9100   7.363   5.185  10.909
 5582W        W 9101   7.429   3.541  11.463
 5583W        W 9102   2.186   3.276   1.835
 5584W        W 9103   3.199   3.678   1.597
 5585W        W 9104   4.346   1.099  11.977
 5586W        W 9105   7.077   7.287  10.437
 5587W        W 9106   0.921   3.456  10.168
 5588W        W 9107   7.980   7.263   3.335
 5589W        W 9108   0.852   2.010   2.939
 5590W        W 9109   4.056   9.389   0.132
 5591W        W 9110   7.607   6.425   9.911
 5592W        W 9111   8.218   5.157  11.023
 5593W        W 9112   4.463   5.394   0.754
 5594W        W 9113   7.914   2.113   9.900
 5595W        W 9114   3.253   5.414   1.890
 5596W        W 9115   4.152   0.435   3.194
 5597W        W 9116   7.650   2.185   3.603
 5598W        W 9117   8.134   0.285   3.123
 5599W        W 9118   7.368   0.338   9.664
 5600W        W 9119   8.794   3.503   1.529
 5601W        W 9120   8.438   1.225   9.046
 5602W        W 9121   4.921   5.630   0.712
 5603W        W 9122   5.769   3.681   1.698
 5604W        W 9123   9.414   3.322  10.592
 5605W        W 9124   6.483   2.629   9.035
 5606W        W 9125   1.440   7.630  10.975
 5607W        W 9126   4.789   4.840  11.071
 5608W        W 9127   4.297   9.052  11.822
 5609W        W 9128   9.447   2.897   2.002
 5610W        W 9129   5.509   5.407   1.505
 5611W        W 9130   2.786   5.685   0.880
 5612W        W 9131   1.144   2.836   9.480
 5613W        W 9132   4.665   5.013  11.529
 5614W        W 9133   5.551   9.320   2.607
 5615W        W 9134   8.999   8.642   9.948
 5616W        W 9135   3.699   1.754  11.858
 5617W        W 9136   7.017   3.892   1.287
 5618W        W 9137   4.640   8.549   3.144
 5619W        W 9138   6.608   1.176   1.297
 5620W        W 9139   5.286   8.340   9.196
 5621W        W 9140   6.076   2.801   9.269
 5622W        W 9141   9.308   6.750   9.246
 5623W        W 9142   3.082   8.483   2.132
 5624W        W 9143   7.062   1.777   2.323
 5625W        W 9144   5.738   7.089  11.501
 5626W        W 9145   5.849   8.661   1.892
 5627W        W 9146   7.594   8.905   0.900
 5628W        W 9147   6.113   8.501   3.410
 5629W        W 9148   5.908   8.451   9.910
 5630W        W 9149   1.725   3.593   9.051
 5631W        W 9150   9.006   1.800   3.141
 5632W        W 9151   1.049   1.947   3.867
 5633W        W 9152   9.031   0.822  11.348
 5634W        W 9153   0.965   3.785  11.802
 5635W        W 9154   7.313   0.395  10.580
 5636W        W 9155   2.336   8.770   1.746
 5637W        W 9156   5.747   6.076   8.701
 5638W        W 9157   1.168   9.789   2.303
 5639W        W 9158   7.289   8.125   9.016
 5640W        W 9159   4.235   7.534   8.682
 5641W        W 9160   9.037   8.974   1.480
 5642W        W 9161   0.269   5.179   1.190
 5643W        W 9162   0.452   9.863  10.062
 5644W        W 9163   5.234   3.532  11.082
 5645W        W 9164   0.861   4.390   2.665
 5646W        W 9165   1.896   2.179  10.439
 5647W        W 9166   7.138   5.149   9.765
 5648W        W 9167   1.365   7.000   3.141
 5649W        W 9168   2.971   4.623   3.875
 5650W        W 9169   5.996   3.693  10.417
 5651W        W 9170   7.434   4.750  10.632
 5652W        W 9171   7.993   3.055  10.790
 5653W        W 9172   1.282   0.894   8.504
 5654W        W 9173   6.741   8.775   9.578
 5655W        W 9174   6.750   7.703  11.889
 5656W        W 9175   3.771   2.346   3.188
 5657W        W 9176   4.048   0.364  10.228
 5658W        W 9177   2.143   2.307   1.813
 5659W        W 9178   1.736   2.248   9.404
 5660W        W 9179   4.673   5.506   3.468
 5661W        W 9180   3.080   0.860   2.288
 5662W        W 9181   6.997   9.079  11.001
 5663W        W 9182   4.930   2.837   1.313
 5664W        W 9183   1.903   6.734   3.922
 5665W        W 9184   3.348   2.725   9.242
 5666W        W 9185   5.046   9.528   0.404
 5667W        W 9186   1.344   1.700   9.800
 5668W        W 9187   4.506   5.021   8.961
 5669W        W 9188   1.604   9.971  11.446
 5670W        W 9189   0.531   4.221   0.294
 5671W        W 9190   7.257   9.240   1.292
 5672W        W 9191   9.796   2.640   9.277
 5673W        W 9192   0.817   5.872   1.305
 5674W        W 9193   1.437   9.436   0.470
 5675W        W 9194   0.143   6.425   0.847
 5676W        W 9195   9.393   8.280   2.986
 5677W        W 9196   3.755   2.901   2.938
 5678W        W 9197   1.126   6.507   1.006
 5679W        W 9198   9.428   8.248   8.814
 5680W        W 9199   3.763   2.778   1.899
 5681W        W 9200   5.437   4.146   0.308
 5682W        W 9201   7.886   8.390   8.985
 5683W        W 9202   9.421   6.681   9.739
 5684W        W 9203   1.708   1.695  10.614
 5685W        W 9204   2.894   4.766   1.156
 5686W        W 9205   0.782   7.600   1.683
 5687W        W 9206   9.576   4.441   2.352
 5688W        W 9207   3.824   4.598   3.465
 5689W        W 9208   7.988   3.735   0.421
 5690W        W 9209   5.197   7.785   0.541
 5691W        W 9210   5.093   7.739   4.396
 5692W        W 9211   5.223   3.760  10.628
 5693W        W 9212   6.214   7.249   2.189
 5694W        W 9213   7.775   0.394   1.535
 5695W        W 9214   0.863   6.184   2.413
 5696W        W 9215   6.818   4.429   0.838
 5697W        W 9216   3.290   4.527   1.409
 5698W        W 9217   9.454   0.125   1.764
 5699W        W 9218   2.705   5.984   9.759
 5700W        W 9219   2.756   4.600   3.386
 5701W        W 9220   9.695   8.880  10.845
 5702W        W 9221   0.910   5.831   9.833
 5703W        W 9222   5.080   5.657  10.659
 5704W        W 9223   5.257   5.681   9.784
 5705W        W 9224   6.662   5.731   0.352
 5706W        W 9225   1.445   4.837  10.463
 5707W        W 9226   6.933   2.585   1.884
 5708W        W 9227   1.100   9.600   1.430
 5709W        W 9228   7.551   0.409   2.391
 5710W        W 9229   1.796   8.590  11.274
 5711W        W 9230   1.410   9.495  11.429
 5712W        W 9231   7.893   0.556   9.027
 5713W        W 9232   1.874   9.616   0.933
 5714W        W 9233   6.083   5.318   2.494
 5715W        W 9234   1.952   0.983   8.454
 5716W        W 9235   1.729   1.753  11.562
 5717W        W 9236   4.314   9.403   3.225
 5718W        W 9237   2.484   1.277  10.448
 5719W        W 9238   3.206   5.171   1.220
 5720W        W 9239   5.967   9.051   2.724
 5721W        W 9240   6.616   6.227   1.425
 5722W        W 9241   1.924   3.082  10.466
 5723W        W 9242   2.250   8.986   9.308
 5724W        W 9243   5.036   9.446   9.082
 5725W        W 9244   6.193   9.823  10.026
 5726W        W 9245   7.099   6.089   2.821
 5727W        W 9246   2.852   4.572   1.668
 5728W        W 9247   6.027   5.057  11.120
 5729W        W 9248   3.238   2.827   1.875
 5730W        W 9249   0.415   6.954   8.706
 5731W        W 9250   7.134   4.004   0.175
 5732W        W 9251   5.158   6.159  11.546
 5733W        W 9252   7.091   8.413   9.413
 5734W        W 9253   9.800   9.798   9.777
 5735W        W 9254   7.546   6.329  11.309
 5736W        W 9255   1.889   0.584   3.405
 5737W        W 9256   8.865   7.519  10.658
 5738W        W 9257   3.246   6.296   0.277
 5739W        W 9258   1.276   6.035   9.082
 5740W        W 9259   5.523   9.419  11.195
 5741W        W 9260   1.559   1.314   9.537
 5742W        W 9261   0.430   6.465   8.516
 5743W        W 9262   9.530   4.010   1.046
 5744W        W 9263   3.330   6.880   1.660
 5745W        W 9264   5.167   3.204   2.984
 5746W        W 9265   5.031   0.441  10.502
 5747W        W 9266   8.366   2.513   3.434
 5748W        W 9267   3.173   6.391  11.342
 5749W        W 9268   3.207   6.033   3.252
 5750W        W 9269   4.982   3.280   8.988
 5751W        W 9270   3.701   4.002   9.527
 5752W        W 9271   7.920   1.057  11.083
 5753W        W 9272   7.001   9.409   8.932
 5754W        W 9273   6.498   0.913   9.611
 5755W        W 9274   8.873   0.821   9.886
 5756W        W 9275   6.135   7.221   9.549
 5757W        W 9276   6.190   1.524   1.330
 5758W        W 9277   8.453   3.976   0.273
 5759W        W 9278   3.483   8.031  10.811
 5760W        W 9279   3.177   6.957   3.117
 5761W        W 9280   1.151   4.061   3.379
 5762W        W 9281   1.752   4.076   2.947
 5763W        W 9282   2.688   5.508  10.500
 5764W        W 9283   1.370   7.918   1.774
 5765W        W 9284   4.631   2.275   0.103
 5766W        W 9285   7.499   1.418   0.990
 5767W        W 9286   3.592   8.355   2.267
 5768W        W 9287   5.467   0.221   2.241
 5769W        W 9288   2.709   8.235   2.525
 5770W        W 9289   7.708   6.815   8.514
 5771W        W 9290   6.818   2.236   3.455
 5772W        W 9291   1.346   8.482  11.494
 5773W        W 9292   2.576   7.582   1.431
 5774W        W 9293   2.732   8.849  10.951
 5775W        W 9294   9.617   5.924   2.106
 5776W        W 9295   6.002   1.357   2.881
 5777W        W 9296   5.910   8.430   1.450
 5778W        W 9297   0.418   6.769   1.304
 5779W        W 9298   3.853   0.161   9.545
 5780W        W 9299   4.337   6.196   2.242
 5781W        W 9300   9.959   6.423   0.247
 5782W        W 9301   4.638   8.392   9.991
 5783W        W 9302   9.025   9.386  11.113
 5784W        W 9303   2.350   3.618   9.814
 5785W        W 9304   3.267   5.471   3.354
 5786W        W 9305   4.628   8.171   9.532
 5787W        W 9306   6.830   5.148   1.359
 5788W        W 9307   4.296   6.012   9.925
 5789W        W 9308   8.337   5.336  11.790
 5790W        W 9309   5.723   8.868  11.573
 5791W        W 9310   2.726   0.932  10.088
 5792W        W 9311   9.180   6.513   8.806
 5793W        W 9312   6.665   6.253   0.368
 5794W        W 9313   6.524   1.598   3.459
 5795W        W 9314   4.208   4.779   0.332
 5796W        W 9315   6.979   8.743   3.396
 5797W        W 9316   6.466   6.071   9.327
 5798W        W 9317   4.875   2.684   3.778
 5799W        W 9318   6.606   7.994   1.510
 5800W        W 9319   0.177   4.635  10.961
 5801W        W 9320   0.317   4.129  10.053
 5802W        W 9321   4.593   1.412  11.062
 5803W        W 9322   3.595   8.577  11.510
 5804W        W 9323   5.607   2.464  11.894
 5805W        W 9324   5.634   6.485   8.999
 5806W        W 9325   5.496   3.955   1.166
 5807W        W 9326   4.855   4.173   2.837
 5808W        W 9327   0.934   0.205   0.503
 5809W        W 9328   4.487   5.953   2.679
 5810W        W 9329   4.500   3.606   1.261
 5811W        W 9330   0.808   9.477  10.166
 5812W        W 9331   9.293   9.781   2.722
 5813W        W 9332   1.444   0.672   9.883
 5814W        W 9333   3.232   9.936  10.275
 5815W        W 9334   9.471   8.422  11.299
 5816W        W 9335   7.049   3.297  10.763
 5817W        W 9336   9.840   6.151   3.336
 5818W        W 9337   8.632   1.818   2.286
 5819W        W 9338   4.196   1.564   0.079
 5820W        W 9339   3.683   7.589   8.887
 5821W        W 9340   1.245   1.686  10.312
 5822W        W 9341   9.302   3.979   2.389
 5823W        W 9342   7.308   5.257   1.206
 5824W        W 9343   5.366   2.669   3.911
 5825W        W 9344   7.144   6.720  11.934
 5826W        W 9345   2.697   9.941   9.465
 5827W        W 9346   4.639   2.607   2.811
 5828W        W 9347   6.938   3.154  11.761
 5829W        W 9348   1.805   3.751   1.267
 5830W        W 9349   0.864   6.236   2.988
 5831W        W 9350   4.121   9.063   1.969
 5832W        W 9351   6.399   0.008   9.145
 5833W        W 9352   9.742   3.763   9.492
 5834W        W 9353   2.591   8.359   2.001
 5835W        W 9354   4.074   8.927  10.182
 5836W        W 9355   4.183   6.924   2.744
 5837W        W 9356   3.166   4.205  10.967
 5838W        W 9357   0.412   3.147   1.640
 5839W        W 9358   1.767   8.180   3.914
 5840W        W 9359   1.026   2.942  10.035
 5841W        W 9360   7.049   3.221  11.256
 5842W        W 9361   0.898   6.016   0.344
 5843W        W 9362   3.145   3.851   0.402
 5844W        W 9363   0.960   1.115  11.262
 5845W        W 9364   0.863   7.061  10.888
 5846W        W 9365   6.699   6.988  11.312
 5847W        W 9366   6.520   3.352  11.427
 5848W        W 9367   3.453   2.581   2.258
 5849W        W 9368   9.013   4.439   3.029
 5850W        W 9369   8.467   7.395  10.973
 5851W        W 9370   8.273   8.845  11.024
 5852W        W 9371   0.187   8.922  10.829
 5853W        W 9372   4.769   3.489  11.279
 5854W        W 9373   3.767   7.066   9.937
 5855W        W 9374   3.792   5.968  11.266
 5856W        W 9375   5.684   5.941  11.596
 5857W        W 9376   1.229   8.867  11.811
 5858W        W 9377   1.263   1.905  11.491
 5859W        W 9378   2.826   7.074   9.758
 5860W        W 9379   4.701   4.193   3.710
 5861W        W 9380   6.070   9.482   2.490
 5862W        W 9381   8.942   4.119  11.558
 5863W        W 9382   3.474   2.756   9.795
 5864W        W 9383   7.879   3.722   3.218
 5865W        W 9384   0.962   7.665   9.576
 5866W        W 9385   4.745   1.931  10.311
 5867W        W 9386   8.669   6.733   2.865
 5868W        W 9387   3.104   0.642   1.407
 5869W        W 9388   4.579   2.845   9.850
 5870W        W 9389   5.040   0.673  10.031
 5871W        W 9390   7.375   6.774  11.103
 5872W        W 9391   4.452   8.250   1.861
 5873W        W 9392   9.915   6.651  11.751
 5874W        W 9393   1.346   1.713   8.811
 5875W        W 9394   4.212   6.541   8.682
 5876W        W 9395   9.072   3.848   3.584
 5877W        W 9396   2.780   2.658   1.775
 5878W        W 9397   0.807   2.514   2.993
 5879W        W 9398   6.036   3.265   2.941
 5880W        W 9399   6.903   6.851   8.949
 5881W        W 9400   9.817   5.966   9.466
 5882W        W 9401   7.411   8.031   9.990
 5883W        W 9402   9.952   1.942   3.671
 5884W        W 9403   0.303   7.432  10.146
 5885W        W 9404   4.668   6.206  11.304
 5886W        W 9405   4.151   3.587   0.862
 5887W        W 9406   3.106   0.381  10.637
 5888W        W 9407   6.816   1.272   9.407
 5889W        W 9408   5.293   2.354   3.534
 5890W        W 9409   5.593   4.725   0.170
 5891W        W 9410   1.852   0.021  10.160
 5892W        W 9411   5.142   4.593   2.611
 5893W        W 9412   7.339   2.669   9.074
 5894W        W 9413   2.838   0.439   3.032
 5895W        W 9414   0.297   8.919   2.340
 5896W        W 9415   7.923   6.907   1.282
 5897W        W 9416   0.864   1.400   2.201
 5898W        W 9417   0.919   8.470  11.787
 5899W        W 9418   7.296   1.194  11.527
 5900W        W 9419   9.052   6.554  10.323
 5901W        W 9420   2.672   9.738   2.340
 5902W        W 9421   2.652   3.116   2.012
 5903W        W 9422   7.163   5.656   9.917
 5904W        W 9423   3.886   4.742   0.804
 5905W        W 9424   2.378   0.652   9.807
 5906W        W 9425   0.397   0.886   9.338
 5907W        W 9426   0.872   1.237   1.297
 5908W        W 9427   4.012   9.442   9.488
 5909W        W 9428   7.547   8.116   0.300
 5910W        W 9429   2.391   5.128  11.103
 5911W        W 9430   0.224   0.652   8.135
 5912W        W 9431   9.854   2.723  10.052
 5913W        W 9432   6.419   5.525   1.806
 5914W        W 9433   5.023   1.531   9.344
 5915W        W 9434   1.343   0.497   0.564
 5916W        W 9435   9.996   1.606   9.362
 5917W        W 9436   0.530   6.538   9.016
 5918W        W 9437   5.138   4.811  11.572
 5919W        W 9438   7.223   4.856   1.493
 5920W        W 9439   6.460   8.612   8.610
 5921W        W 9440   8.154   2.374   9.534
 5922W        W 9441   1.634   7.128  10.386
 5923W        W 9442   6.250   9.457   2.012
 5924W        W 9443   3.082   8.930   8.784
 5925W        W 9444   5.578   8.067   1.327
 5926W        W 9445   5.806   4.146   0.791
 5927W        W 9446   2.753   9.577   2.836
 5928W        W 9447   1.247   5.981   1.556
 5929W        W 9448   1.851   3.328   0.931
 5930W        W 9449   8.556   6.262   2.906
 5931W        W 9450   3.413   5.254   9.981
 5932W        W 9451   8.909   6.148   9.023
 5933W        W 9452   8.102   4.637   9.199
 5934W        W 9453   8.840   2.747   0.199
 5935W        W 9454   6.241   2.166   3.578
 5936W        W 9455   0.505   5.187  10.182
 5937W        W 9456   3.766   8.743   8.581
 5938W        W 9457   5.541   5.369   2.181
 5939W        W 9458   1.653   4.258   3.433
 5940W        W 9459   9.541   6.995   0.798
 5941W        W 9460   1.370   9.488   1.000
 5942W        W 9461   7.598   5.619   0.950
 5943W        W 9462   0.876   3.289   1.397
 5944W        W 9463   9.195   9.631   3.413
 5945W        W 9464   1.267   6.953   2.654
 5946W        W 9465   3.054   4.178   3.259
 5947W        W 9466   3.567   2.978   8.810
 5948W        W 9467   5.250   1.263   1.456
 5949W        W 9468   4.427   0.255   0.368
 5950W        W 9469   2.245   5.644   3.056
 5951W        W 9470   9.022   8.379   3.314
 5952W        W 9471   6.196   9.120  11.681
 5953W        W 9472   7.123   8.734   1.976
 5954W        W 9473   1.400   4.704   1.937
 5955W        W 9474   3.294   7.098  11.900
 5956W        W 9475   5.979   2.264  10.023
 5957W        W 9476   3.084   7.405   1.360
 5958W        W 9477   1.809   6.516   0.395
 5959W        W 9478   4.212   2.126   3.395
 5960W        W 9479   1.073   0.749   1.415
 5961W        W 9480   8.287   0.641  11.975
 5962W        W 9481   4.022   5.060  11.867
 5963W        W 9482   2.690   5.573   9.433
 5964W        W 9483   4.726   4.452   0.741
 5965W        W 9484   5.692   6.261   1.653
 5966W        W 9485   7.501   0.968   2.859
 5967W        W 9486   1.620   7.457   8.803
 5968W        W 9487   1.889   9.132  11.294
 5969W        W 9488   8.468   8.027   0.549
 5970W        W 9489   3.749   6.133   3.356
 5971W        W 9490   6.658   2.866   0.646
 5972W        W 9491   5.639   2.642   2.410
 5973W        W 9492   4.394   2.752   8.991
 5974W        W 9493   6.602   8.340   3.448
 5975W        W 9494   4.173   6.625   0.040
 5976W        W 9495   3.245   5.669   8.773
 5977W        W 9496   2.601   1.780   9.611
 5978W        W 9497   0.342   2.245   2.874
 5979W        W 9498   5.142   1.936   9.034
 5980W        W 9499   1.861   7.569  10.264
 5981W        W 9500   9.975   1.567   2.141
 5982W        W 9501   3.274   9.856   8.690
 5983W        W 9502   5.879   4.153   9.572
 5984W        W 9503   2.085   6.417   3.534
 5985W        W 9504   5.322   1.515   1.930
 5986W        W 9505   4.595   1.812  11.856
 5987W        W 9506   8.611   0.861   9.376
 5988W        W 9507   0.643   9.119  10.989
 5989W        W 9508   2.741   2.161  10.936
 5990W        W 9509   9.166   4.823  10.748
 5991W        W 9510   5.016   7.863  10.636
 5992W        W 9511   9.427   5.522  10.538
 5993W        W 9512   0.726   3.087  10.453
 5994W        W 9513   5.583   1.690   9.208
 5995W        W 9514   3.220   8.595  11.121
 5996W        W 9515   1.489   5.047  10.923
 5997W        W 9516   9.765   6.140  11.839
 5998W        W 9517   4.921   7.150   3.650
 5999W        W 9518   8.010   0.501   3.589
 6000W        W 9519   3.317   4.301  10.437
 6001W        W 9520   4.475   3.108   8.617
 6002W        W 9521   6.398   9.500  11.974
 6003W        W 9522   2.736   2.252   9.787
 6004W        W 9523   3.114   7.559   2.371
 6005W        W 9524   5.153   8.501  11.824
 6006W        W 9525   9.814   8.865  11.332
 6007W        W 9526   7.638   4.002  11.341
 6008W        W 9527   4.486   4.131  10.185
 6009W        W 9528   6.973   8.297   9.915
 6010W        W 9529   9.763   3.442   1.082
 6011W        W 9530   3.712   9.802   2.819
 6012W        W 9531   8.855   3.817  10.449
 6013W        W 9532   0.041   5.075   3.481
 6014W        W 9533   4.832   9.025   3.128
 6015W        W 9534   8.973   0.347  11.528
 6016W        W 9535   2.676   2.948   9.938
 6017W        W 9536   9.075   3.038  10.891
 6018W        W 9537   9.335   2.269   2.706
 6019W        W 9538   1.467   1.050   3.793
 6020W        W 9539   0.370   8.876   1.861
 6021W        W 9540   9.433   2.287   2.208
 6022W        W 9541   3.677   0.768   8.788
 6023W        W 9542   0.298   2.666   8.632
 6024W        W 9543   8.790   0.700   1.222
 6025W        W 9544   6.213   7.098   1.709
 6026W        W 9545   6.480   2.844   1.848
 6027W        W 9546   8.294   0.540   9.627
 6028W        W 9547   7.179   9.949   0.464
 6029W        W 9548   4.946   2.279  11.310
 6030W        W 9549   4.073   5.286  10.462
 6031W        W 9550   5.321   8.220   3.706
 6032W        W 9551   7.949   6.085   2.522
 6033W        W 9552   9.722   6.637   1.868
 6034W        W 9553   7.855   8.615  10.773
 6035W        W 9554   5.678   6.179   0.441
 6036W        W 9555   5.051   1.709  10.910
 6037W        W 9556   7.087   2.738   2.514
 6038W        W 9557   9.765   4.334  11.237
 6039W        W 9558   7.944   5.810   3.445
 6040W        W 9559   6.771   6.403   2.284
 6041W        W 9560   2.604   8.172   9.884
 6042W        W 9561   4.269   5.500   1.422
 6043W        W 9562   4.378   6.430   3.974
 6044W        W 9563   3.789   1.604  10.446
 6045W        W 9564   3.134   7.124   2.088
 6046W        W 9565   2.584   7.857   8.899
 6047W        W 9566   4.734   8.483   0.879
 6048W        W 9567   2.953   1.621   0.924
 6049W        W 9568   4.069   3.241   0.383
 6050W        W 9569   3.527   2.307   1.824
 6051W        W 9570   0.261   8.593   1.019
 6052W        W 9571   1.224   8.025   0.289
 6053W        W 9572   4.540   4.521  11.415
 6054W        W 9573   2.099   2.885   0.975
 6055W        W 9574   9.970   5.931   2.870
 6056W        W 9575   0.855   4.517  10.393
 6057W        W 9576   5.003   4.211   9.409
 6058W        W 9577   3.290   8.840   1.802
 6059W        W 9578   0.428   8.154   1.221
 6060W        W 9579   2.177   5.904   1.465
 6061W        W 9580   0.916   1.615   9.455
 6062W        W 9581   1.413   2.153   8.554
 6063W        W 9582   4.440   8.694   9.355
 6064W        W 9583   5.541   3.070   3.693
 6065W        W 9584   0.798   8.777   9.646
 6066W        W 9585   0.794   8.303   9.783
 6067W        W 9586   8.690   8.936  11.804
 6068W        W 9587   0.388   3.679   3.079
 6069W        W 9588   4.721   3.842   4.087
 6070W        W 9589   5.661   2.646   8.496
 6071W        W 9590   0.531   9.864   0.438
 6072W        W 9591   2.399   1.742   1.636
 6073W        W 9592   6.497   5.593   8.729
 6074W        W 9593   0.070   4.407   2.235
 6075W        W 9594   0.344   8.084   9.801
 6076W        W 9595   6.935   3.077   1.972
 6077W        W 9596   3.059   7.961   9.677
 6078W        W 9597   8.080   0.896   0.359
 6079W        W 9598   7.090   0.289  10.106
 6080W        W 9599   5.574   3.543   2.717
 6081W        W 9600   7.812   2.832   0.750
 6082W        W 9601   2.258   6.212   9.600
 6083W        W 9602   6.673   3.039   9.787
 6084W        W 9603   5.691   3.175   1.567
 6085W        W 9604   0.586   4.354   2.219
 6086W        W 9605   6.546   7.354  10.370
 6087W        W 9606   0.320   5.040   9.720
 6088W        W 9607   9.838   2.605   0.190
 6089W        W 9608   3.756   5.000   9.667
 6090W        W 9609   7.787   2.673   1.745
 6091W        W 9610   3.255   7.799   3.371
 6092W        W 9611   9.124   1.328   1.831
 6093W        W 9612   8.020   7.395   2.214
 6094W        W 9613   9.308   1.077   9.808
 6095W        W 9614   7.929   1.845  10.708
 6096W        W 9615   5.237   2.849   9.205
 6097W        W 9616   3.163   0.459   1.951
 6098W        W 9617   1.460   0.883   3.299
 6099W        W 9618   1.424   9.362   3.210
 6100W        W 9619   5.073   3.681   2.717
 6101W        W 9620   5.707   9.902   0.058
 6102W        W 9621   1.379   1.734   2.084
 6103W        W 9622   6.692   5.477   9.776
 6104W        W 9623   3.757   1.845   3.311
 6105W        W 9624   9.800   5.315   8.771
 6106W        W 9625   2.367   2.193   2.989
 6107W        W 9626   6.602   7.564   2.259
 6108W        W 9627   2.133   8.192  11.173
 6109W        W 9628   5.983   5.809  11.216
 6110W        W 9629   8.100   8.941  11.895
 6111W        W 9630   2.779   9.876   1.841
 6112W        W 9631   0.107   7.389   9.365
 6113W        W 9632   1.902   8.495   8.894
 6114W        W 9633   3.606   1.389   1.671
 6115W        W 9634   0.218   3.800   0.327
 6116W        W 9635   2.557   4.156   3.140
 6117W        W 9636   4.801   4.538   8.308
 6118W        W 9637   1.801   6.679   1.297
 6119W        W 9638   1.514   1.333   0.267
 6120W        W 9639   8.145   2.319   1.337
 6121W        W 9640   6.173   9.038   8.914
 6122W        W 9641   6.727   3.742   1.931
 6123W        W 9642   3.786   5.480   0.679
 6124W        W 9643   5.160   9.622  10.101
 6125W        W 9644   1.484   6.231  10.598
 6126W        W 9645   4.493   8.057   3.192
 6127W        W 9646   0.440   5.073  11.248
 6128W        W 9647   7.983   9.968   3.704
 6129W        W 9648   6.919   3.644  11.513
 6130W        W 9649   6.291   4.179  11.993
 6131W        W 9650   8.004   4.320   1.054
 6132W        W 9651   5.929   1.274  11.280
 6133W        W 9652   4.746   6.365   2.864
 6134W        W 9653   5.625   8.921   1.437
 6135W        W 9654   0.424   6.663   0.463
 6136W        W 9655   1.158   6.583   2.313
 6137W        W 9656   9.578   1.852   2.417
 6138W        W 9657   7.348   6.088   0.756
 6139W        W 9658   3.972   1.082  10.517
 6140W        W 9659   0.860   5.602   9.351
 6141W        W 9660   9.976   1.935   3.148
 6142W        W 9661   0.549   5.052   9.254
 6143W        W 9662   1.729   3.280  11.873
 6144W        W 9663   5.195   5.602   9.283
 6145W        W 9664   5.947   3.786   3.647
 6146W        W 9665   8.805   5.313   3.092
 6147W        W 9666   1.847   4.555   0.416
 6148W        W 9667   2.582   8.759  11.809
 6149W        W 9668   6.671   0.263   3.128
 6150W        W 9669   7.425   3.574  10.501
 6151W        W 9670   9.408   2.756   3.244
 6152W        W 9671   8.888   3.500  10.922
 6153W        W 9672   1.699   8.072  11.504
 6154W        W 9673   7.547   0.384   2.896
 6155W        W 9674   6.505   8.685   9.130
 6156W        W 9675   1.087   9.083   1.197
 6157W        W 9676   9.904   4.325   8.819
 6158W        W 9677   8.008   6.666  11.400
 6159W        W 9678   0.449   5.000  11.772
 6160W        W 9679   1.884   4.613   2.252
 6161W        W 9680   9.881   2.900   8.843
 6162W        W 9681   0.573   0.880  10.454
 6163W        W 9682   4.578   9.760   2.072
 6164W        W 9683   6.279   1.344  10.250
 6165W        W 9684   9.325   2.632   0.023
 6166W        W 9685   1.067   9.872  11.571
 6167W        W 9686   6.450   0.309   1.630
 6168W        W 9687   6.499   5.153  10.343
 6169W        W 9688   9.496   3.607   2.661
 6170W        W 9689   6.484   2.932   2.984
 6171W        W 9690   6.963   1.164   0.765
 6172W        W 9691   6.656   6.037  10.630
 6173W        W 9692   3.089   4.620   2.941
 6174W        W 9693   2.632   9.948   0.229
 6175W        W 9694   1.945   7.827   0.985
 6176W        W 9695   1.238   9.927  11.079
 6177W        W 9696   9.377   7.483   0.804
 6178W        W 9697   3.287   0.742   2.753
 6179W        W 9698   1.897   1.003   1.752
 6180W        W 9699   7.123   3.230  10.256
 6181W        W 9700   8.887   2.643  11.173
 6182W        W 9701   4.476   0.357   1.439
 6183W        W 9702   7.075   4.161  10.324
 6184W        W 9703   5.045   8.375   2.456
 6185W        W 9704   3.517   7.372   1.638
 6186W        W 9705   0.395   6.846  10.811
 6187W        W 9706   4.991   7.383   1.865
 6188W        W 9707   1.805   6.148   9.323
 6189W        W 9708   3.244   6.267   7.953
 6190W        W 9709   0.448   0.953  10.947
 6191W        W 9710   1.918   1.674  11.088
 6192W        W 9711   9.550   9.523   2.366
 6193W        W 9712   9.594   9.361   9.167
 6194W        W 9713   9.312   3.134  11.493
 6195W        W 9714   7.291   5.114   1.920
 6196W        W 9715   3.548   3.574  10.231
 6197W        W 9716   0.802   2.204   1.056
 6198W        W 9717   8.856   5.165   2.177
 6199W        W 9718   7.539   7.228  10.809
 6200W        W 9719   3.393   5.541   4.149
 6201W        W 9720   8.593   5.426   8.998
 6202W        W 9721   4.718   6.378  11.805
 6203W        W 9722   2.035   5.008   1.365
 6204W        W 9723   4.592   9.731   8.970
 6205W        W 9724   7.072   3.614   2.811
 6206W        W 9725   4.596   0.638   9.315
 6207W        W 9726   1.354   1.113  11.826
 6208W        W 9727   7.346   0.636   8.549
 6209W        W 9728   1.810   1.346   9.983
 6210W        W 9729   8.545   9.319  10.959
 6211W        W 9730   2.187   1.752  10.417
 6212W        W 9731   8.534   7.102   9.154
 6213W        W 9732   8.450   3.593  10.679
 6214W        W 9733   2.291   9.339   8.925
 6215W        W 9734   2.674   2.483   1.283
 6216W        W 9735   1.645   3.752   3.309
 6217W        W 9736   4.696   7.815   2.790
 6218W        W 9737   5.174   7.939   1.584
 6219W        W 9738   3.322   3.065  11.780
 6220W        W 9739   5.656   1.026   2.593
 6221W        W 9740   3.705   7.837   3.013
 6222W        W 9741   1.799   6.197   2.233
 6223W        W 9742   7.806   2.215  11.194
 6224W        W 9743   4.541   0.069   9.384
 6225W        W 9744   3.579   3.332  11.357
 6226W        W 9745   8.289   8.008   3.508
 6227W        W 9746   1.611   7.713   3.084
 6228W        W 9747   3.448   7.127   9.054
 6229W        W 9748   0.875   0.279   1.417
 6230W        W 9749   5.700   5.060   9.666
 6231W        W 9750   8.022   8.885   9.017
 6232W        W 9751   5.143   4.134   8.372
 6233W        W 9752   6.139   7.260   9.033
 6234W        W 9753   3.115   2.322   1.504
 6235W        W 9754   7.167   1.448   0.355
 6236W        W 9755   2.905   6.621   1.861
 6237W        W 9756   7.948   0.699   2.889
 6238W        W 9757   4.851   5.679   3.919
 6239W        W 9758   2.342   3.032   1.417
 6240W        W 9759   5.462   4.029   2.039
 6241W        W 9760   8.468   7.544  10.361
 6242W        W 9761   7.535   7.593   3.267
 6243W        W 9762   2.710   6.041   3.091
 6244W        W 9763   4.576   0.823   9.821
 6245W        W 9764   5.250   9.800  11.828
 6246W        W 9765   0.381   6.979   9.238
 6247W        W 9766   6.458   3.675   1.206
 6248W        W 9767   6.176   5.012   3.458
 6249W        W 9768   6.598   4.039  10.166
 6250W        W 9769   5.653   8.846   2.374
 6251W        W 9770   0.698   1.725   0.827
 6252W        W 9771   2.533   0.361  10.791
 6253W        W 9772   4.865   3.274   1.025
 6254W        W 9773   0.841   4.844   9.988
 6255W        W 9774   3.151   8.383   1.631
 6256W        W 9775   0.805   3.203   9.163
 6257W        W 9776   6.157   4.547   2.169
 6258W        W 9777   5.684   0.942   8.446
 6259W        W 9778   9.403   4.363   9.894
 6260W        W 9779   1.947   1.051   3.630
 6261W        W 9780   4.711   8.734   3.596
 6262W        W 9781   9.986   8.464   0.057
 6263W        W 9782   7.601   5.840  11.560
 6264W        W 9783   2.548   1.740   0.612
 6265W        W 9784   6.937   2.807   9.389
 6266W        W 9785   9.457   8.697   3.283
 6267W        W 9786   9.908   4.450   2.754
 6268W        W 9787   1.009   8.328   3.682
 6269W        W 9788   0.457   5.663   9.992
 6270W        W 9789   4.831   7.221   9.600
 6271W        W 9790   9.334   1.431   3.207
 6272W        W 9791   2.517   4.234  10.889
 6273W        W 9792   9.422   6.088   3.073
 6274W        W 9793   4.144   2.267   9.729
 6275W        W 9794   3.526   5.042  11.954
 6276W        W 9795   3.150   6.563   2.785
 6277W        W 9796   3.570   6.044   4.105
 6278W        W 9797   0.355   8.599   9.843
 6279W        W 9798   3.150   9.396  11.516
 6280W        W 9799   4.567   3.849   3.327
 6281W        W 9800   9.256   9.438   1.427
 6282W        W 9801   8.253   1.015  10.687
 6283W        W 9802   0.379   8.730  11.672
 6284W        W 9803   3.217   6.109  10.552
 6285W        W 9804   4.088   5.088   2.102
 6286W        W 9805   7.394   5.913  11.069
 6287W        W 9806   7.925   2.824   0.245
 6288W        W 9807   7.266   9.216   1.812
 6289W        W 9808   1.867   6.940  10.821
 6290W        W 9809   4.230   1.895  10.435
 6291W        W 9810   6.493   3.232   0.318
 6292W        W 9811   8.173   9.914   0.576
 6293W        W 9812   1.727   0.869   0.326
 6294W        W 9813   9.520   0.989   1.934
 6295W        W 9814   5.511   9.541   9.300
 6296W        W 9815   4.543   7.591  10.482
 6297W        W 9816   0.460   7.969   1.880
 6298W        W 9817   5.945   6.175   2.087
 6299W        W 9818   6.607   0.711   2.869
 6300W        W 9819   2.254   9.864  10.483
 6301W        W 9820   3.175   5.532  11.280
 6302W        W 9821   7.652   2.195   9.465
 6303W        W 9822   9.712   4.053   2.011
 6304W        W 9823   3.329   8.491   8.617
 6305W        W 9824   7.265   3.542   8.723
 6306W        W 9825   8.343   5.159   1.460
 6307W        W 9826   8.323   9.815   8.836
 6308W        W 9827   1.388   3.164   1.132
 6309W        W 9828   5.574   7.382   9.208
 6310W        W 9829   7.764   3.287   0.346
 6311W        W 9830   3.153   4.085  11.955
 6312W        W 9831   6.328   5.063   2.100
 6313W        W 9832   8.283   9.376   1.234
 6314W        W 9833   8.295   8.904   9.445
 6315W        W 9834   9.865   1.248   2.521
 6316W        W 9835   7.172   3.092   9.758
 6317W        W 9836   7.911   1.111   3.212
 6318W        W 9837   1.856   9.518  11.673
 6319W        W 9838   2.095   8.315   9.888
 6320W        W 9839   5.087   4.182   8.887
 6321W        W 9840   4.237   1.602   0.785
 6322W        W 9841   2.657   5.098  11.750
 6323W        W 9842   1.694   2.156   0.520
 6324W        W 9843   0.860   4.688   1.902
 6325W        W 9844   7.399   9.498   8.624
 6326W        W 9845   9.309   1.635  10.428
 6327W        W 9846   8.287   0.472   1.287
 6328W        W 9847   1.195   2.630  11.855
 6329W        W 9848   9.100   1.878   9.260
 6330W        W 9849   1.616   2.534   3.571
 6331W        W 9850   2.739   3.439  10.092
 6332W        W 9851   3.447   5.889   1.897
 6333W        W 9852   8.905   7.833  10.283
 6334W        W 9853   6.034   2.193   8.455
 6335W        W 9854   7.194   1.775  11.099
 6336W        W 9855   6.844   9.529   2.693
 6337W        W 9856   5.579   8.394  10.794
 6338W        W 9857   2.902   1.388   0.454
 6339W        W 9858   5.211   9.749  10.953
 6340W        W 9859   0.270   8.503   8.579
 6341W        W 9860   4.362   9.713   2.777
 6342W        W 9861   3.522   9.658   2.357
 6343W        W 9862   0.141   3.790  11.421
 6344W        W 9863   8.861   6.974   2.193
 6345W        W 9864   4.167   1.299   9.750
 6346W        W 9865   7.405   6.662   3.449
 6347W        W 9866   1.292   1.920   0.324
 6348W        W 9867   6.579   9.488   9.942
 6349W        W 9868   4.971   2.225   9.860
 6350W        W 9869   4.872   6.051   8.994
 6351W        W 9870   7.516   0.438   1.089
 6352W        W 9871   8.798   0.885   3.086
 6353W        W 9872   8.066   6.645   1.706
 6354W        W 9873   1.410   9.259   9.272
 6355W        W 9874   1.651   5.723  10.427
 6356W        W 9875   6.857   6.096   3.254
 6357W        W 9876   2.965   5.235   8.554
 6358W        W 9877   6.531   3.153  10.950
 6359W        W 9878   5.519   0.198  10.377
 6360W        W 9879   1.252   3.321   2.699
 6361W        W 9880   5.121   2.066   0.681
 6362W        W 9881   3.246   6.791   0.300
 6363W        W 9882   1.732   3.799   1.796
 6364W        W 9883   0.355   5.682   1.234
 6365W        W 9884   4.537   1.020  10.297
 6366W        W 9885   7.369   5.209   0.688
 6367W        W 9886   1.117   3.618   1.042
 6368W        W 9887   3.427   8.483   0.872
 6369W        W 9888   4.370   2.594   3.609
 6370W        W 9889   2.253   0.839  10.267
 6371W        W 9890   3.077   7.989  10.520
 6372W        W 9891   9.855   8.658   0.523
 6373W        W 9892   2.861   6.761  11.933
 6374W        W 9893   6.159   0.552   9.830
 6375W        W 9894   8.752   0.874  10.852
 6376W        W 9895   8.105   2.482   2.126
 6377W        W 9896   2.524   0.160  11.779
 6378W        W 9897   9.725   2.566   1.251
 6379W        W 9898   2.929   6.962   0.730
 6380W        W 9899   2.311   1.671   3.095
 6381W        W 9900   8.980   3.456   9.623
 6382W        W 9901   0.664   6.356   3.469
 6383W        W 9902   6.045   9.240   0.765
 6384W        W 9903   6.471   9.366  10.878
 6385W        W 9904   5.229   4.062   3.809
 6386W        W 9905   9.960   2.337   8.892
 6387W        W 9906   4.055   8.292   3.015
 6388W        W 9907   0.281   6.716   2.587
 6389W        W 9908   2.181   5.349   0.246
 6390W        W 9909   4.891   6.687  11.451
 6391W        W 9910   0.025   1.384   1.377
 6392W        W 9911   8.015   3.308   0.806
 6393W        W 9912   5.545   1.188  10.123
 6394W        W 9913   8.413   6.001  10.767
 6395W        W 9914   8.596   5.007  11.382
 6396W        W 9915   6.985   6.408  10.508
 6397W        W 9916   8.099   7.701   0.809
 6398W        W 9917   4.794   4.592  11.898
 6399W        W 9918   4.067   1.349   9.258
 6400W        W 9919   7.373   2.357   1.779
 6401W        W 9920   2.429   7.859   0.831
 6402W        W 9921   5.104   2.384   9.358
 6403W        W 9922   8.103   0.908   9.327
 6404W        W 9923   7.142   0.854  11.175
 6405W        W 9924   1.760   0.537   2.902
 6406W        W 9925   0.849   1.711   3.393
 6407W        W 9926   6.613   8.597  11.904
 6408W        W 9927   9.338   8.940   9.435
 6409W        W 9928   3.012   0.223  11.975
 6410W        W 9929   1.543   6.586   1.961
 6411W        W 9930   7.585   1.632   9.459
 6412W        W 9931   1.162   5.039   2.704
 6413W        W 9932   8.692   6.672   0.618
 6414W        W 9933   2.334   2.799  10.447
 6415W        W 9934   9.201   2.879  10.395
 6416W        W 9935   0.938   6.868   1.392
 6417W        W 9936   5.797   0.804  11.438
 6418W        W 9937   4.036   0.750   0.927
 6419W        W 9938   7.424   8.964   2.329
 6420W        W 9939   3.183   9.379   0.016
 6421W        W 9940   1.629   6.260  11.718
 6422W        W 9941   3.113   3.726   9.290
 6423W        W 9942   6.888   6.628  10.982
 6424W        W 9943   2.328   2.492   0.008
 6425W        W 9944   9.776   4.640   9.236
 6426W        W 9945   2.428   8.704  10.050
 6427W        W 9946   4.500   4.349   0.262
 6428W        W 9947   1.245   3.719   3.006
 6429W        W 9948   9.411   2.137  11.181
 6430W        W 9949   5.979   2.982   0.264
 6431W        W 9950   5.639   5.768  10.795
 6432W        W 9951   0.747   3.152  11.002
 6433W        W 9952   2.730   9.675   0.650
 6434W        W 9953   8.396   4.415   8.824
 6435W        W 9954   7.616   6.092  10.396
 6436W        W 9955   0.734   8.599  10.200
 6437W        W 9956   3.167   2.683   2.765
 6438W        W 9957   9.405   0.168  11.318
 6439W        W 9958   2.700   9.414   0.210
 6440W        W 9959   8.253   1.702   8.940
 6441W        W 9960   6.000   3.196  11.005
 6442W        W 9961   9.517   5.746   0.243
 6443W        W 9962   0.013   0.511   3.224
 6444W        W 9963   7.608   1.881   2.471
 6445W        W 9964   8.162   3.215  11.986
 6446W        W 9965   1.624   8.436   9.714
 6447W        W 9966   7.985   1.621   9.831
 6448W        W 9967   1.154   5.839  10.439
 6449W        W 9968   8.417   5.536  10.297
 6450W        W 9969   8.318   5.859  11.848
 6451W        W 9970   9.578   2.420  10.357
 6452W        W 9971   4.691   0.179   3.236
 6453W        W 9972   8.606   5.611   2.133
 6454W        W 9973   8.924   0.443   2.342
 6455W        W 9974   2.897   1.849   1.393
 6456W        W 9975   1.938   3.219   0.379
 6457W        W 9976   3.171   7.447   9.742
 6458W        W 9977   2.107   2.943  11.966
 6459W        W 9978   4.047   4.356   8.058
 6460W        W 9979   5.746   2.063   3.515
 6461W        W 9980   9.555   3.138  10.131
 6462W        W 9981   8.780   1.304  11.574
 6463W        W 9982   0.379   6.201   1.250
 6464W        W 9983   1.217   7.570   0.504
 6465W        W 9984   0.973   6.290  10.594
 6466W        W 9985   8.062   4.383   1.542
 6467W        W 9986   2.396   1.247   2.796
 6468W        W 9987   0.898   1.631  11.251
 6469W        W 9988   0.026   8.191   2.763
 6470W        W 9989   1.501   4.984   0.666
 6471W        W 9990   3.508   9.343   2.763
 6472W        W 9991   7.403   2.300   2.727
 6473W        W 9992   1.557   4.222   2.050
 6474W        W 9993   3.575   7.565   1.144
 6475W        W 9994   9.115   5.014   0.243
 6476W        W 9995   6.923   0.904  10.731
 6477W        W 9996   4.235   9.844   9.736
 6478W        W 9997   3.703   1.814  10.901
 6479W        W 9998   0.760   6.659   9.447
 6480W        W 9999   6.512   9.416   9.072
 6481W        W10000   2.602   4.995  10.299
 6482W        W10001   5.690   5.772   1.816
 6483W        W10002   2.881   8.390   8.851
 6484W        W10003   4.237   7.084   0.990
 6485W        W10004   6.489   2.330   1.898
 6486W        W10005   8.292   8.004   9.135
 6487W        W10006   5.963   2.173  11.525
 6488W        W10007   8.356   4.037   2.801
 6489W        W10008   5.223   7.451   1.396
 6490W        W10009   3.124   5.675   2.329
 6491W        W10010   1.834   7.173   3.292
 6492W        W10011   9.371   9.628   1.890
 6493W        W10012   5.218   6.930   1.931
 6494W        W10013   0.228   5.380   0.048
 6495W        W10014   8.560   0.685   0.418
 6496W        W10015   0.096   5.007   1.758
 6497W        W10016   7.823   1.485   8.652
 6498W        W10017   7.160   8.159   0.707
 6499W        W10018   9.192   6.202   1.236
 6500W        W10019   0.384   8.413   3.642
 6501W        W10020   8.124   7.829  10.072
 6502W        W10021   2.364   7.501   9.368
 6503W        W10022   3.229   5.190   8.973
 6504W        W10023   5.989   7.668   9.322
 6505W        W10024   2.932   8.897  11.434
 6506W        W10025   2.983   5.138   0.758
 6507W        W10026   5.103   0.694   0.896
 6508W        W10027   2.273   3.967  11.962
 6509W        W10028   5.639   4.967   0.864
 6510W        W10029   0.900   9.488  10.685
 6511W        W10030   7.501   1.258   3.538
 6512W        W10031   2.305   4.329   9.101
 6513W        W10032   5.013   9.915  10.502
 6514W        W10033   9.853   7.673  10.304
 6515W        W10034   5.810   1.549   0.110
 6516W        W10035   4.944   2.425  10.332
 6517W        W10036   5.919   3.825   9.083
 6518W        W10037   6.794   1.063  11.499
 6519W        W10038   7.629   3.652   0.946
 6520W        W10039   6.202   0.374   2.947
 6521W        W10040   4.239   8.088   0.678
 6522W        W10041   9.966   3.014   1.269
 6523W        W10042   2.692   0.802   9.060
 6524W        W10043   2.660   5.900   2.273
 6525W        W10044   5.671   7.680   0.430
 6526W        W10045   2.568   5.543  11.989
 6527W        W10046   6.210   9.801  10.922
 6528W        W10047   7.489   8.116   3.433
 6529W        W10048   9.329   4.641   8.982
 6530W        W10049   5.497   6.993   2.378
 6531W        W10050   1.685   7.963   8.940
 6532W        W10051   7.636   5.838   8.768
 6533W        W10052   5.470   9.330  11.680
 6534W        W10053   9.369   7.892  10.519
 6535W        W10054   8.965   4.063   0.086
 6536W        W10055   1.679   8.212   8.486
 6537W        W10056   8.085   8.903   1.392
 6538W        W10057   1.417   3.934  11.958
 6539W        W10058   4.736   4.571   8.814
 6540W        W10059   2.934   8.403   9.421
 6541W        W10060   2.767   4.183   9.342
 6542W        W10061   1.478   2.556  10.807
 6543W        W10062   2.264   5.653   9.687
 6544W        W10063   1.777   4.680  11.853
 6545W        W10064   8.016   2.765  11.219
 6546W        W10065   3.872   0.954   0.244
 6547W        W10066   3.689   3.317   3.231
 6548W        W10067   9.644   7.581   9.463
 6549W        W10068   5.544   6.203   3.713
 6550W        W10069   8.502   6.761   9.581
 6551W        W10070   7.762   6.099   8.332
 6552W        W10071   2.237   0.441   0.945
 6553W        W10072   3.182   9.435  11.005
 6554W        W10073   9.799   0.778   2.328
 6555W        W10074   4.517   0.243  11.871
 6556W        W10075   3.645   9.330  11.831
 6557W        W10076   7.370   3.272   1.269
 6558W        W10077   8.652   4.119   3.626
 6559W        W10078   0.060   9.015   9.912
 6560W        W10079   4.636   5.925   8.196
 6561W        W10080   1.840   9.499   9.144
 6562W        W10081   2.864   2.610   9.165
 6563W        W10082   3.660   7.070   0.377
 6564W        W10083   5.294   5.580   2.679
 6565W        W10084   7.765   5.334  11.173
 6566W        W10085   7.507   7.049   2.106
 6567W        W10086   4.946   6.118   2.452
 6568W        W10087   7.179   3.769  11.087
 6569W        W10088   9.958   3.619   1.893
 6570W        W10089   4.583   0.525  10.228
 6571W        W10090   5.617   3.047   2.695
 6572W        W10091   2.705   2.531  10.230
 6573W        W10092   9.607   9.281  11.558
 6574W        W10093   5.275   5.441   3.686
 6575W        W10094   9.645   7.546  11.271
 6576W        W10095   6.772   5.136   1.857
 6577W        W10096   7.676   2.706   2.578
 6578W        W10097   8.779   0.415   9.564
 6579W        W10098   7.481   7.976   1.446
 6580W        W10099   2.401   8.443  10.825
 6581W        W10100   4.779   3.801  10.874
 6582W        W10101   6.470   1.175  11.978
 6583W        W10102   7.190   9.865  11.933
 6584W        W10103   3.596   5.602   8.407
 6585W        W10104   5.196   0.875   0.418
 6586W        W10105   5.142   8.076   8.507
 6587W        W10106   0.730   0.340  11.579
 6588W        W10107   4.804   6.154  10.756
 6589W        W10108   9.781   5.621   3.346
 6590W        W10109   6.046   0.652   1.012
 6591W        W10110   0.374   7.111   2.268
 6592W        W10111   4.604   3.258   0.130
 6593W        W10112   5.042   5.261   2.394
 6594W        W10113   6.320   9.459   3.309
 6595W        W10114   2.475   5.604   1.907
 6596W        W10115   1.282   2.605   1.645
 6597W        W10116   4.201   3.026  11.924
 6598W        W10117   4.754   5.709  11.486
 6599W        W10118   7.467   4.914   3.348
 6600W        W10119   6.840   2.923   1.480
 6601W        W10120   7.414   4.847   2.787
 6602W        W10121   5.496   8.158   0.333
 6603W        W10122   4.064   4.154   9.878
 6604W        W10123   4.536   9.635  10.386
 6605W        W10124   1.817   9.324  10.087
 6606W        W10125   9.565   6.233   1.597
 6607W        W10126   8.898   7.478   9.062
 6608W        W10127   2.558   4.145   1.750
 6609W        W10128   2.774   4.270   2.671
 6610W        W10129   3.328   3.808   2.073
 6611W        W10130   3.959   0.259   3.648
 6612W        W10131   5.465   5.593  11.231
 6613W        W10132   9.211   2.696   2.426
 6614W        W10133   5.633   3.814  11.248
 6615W        W10134   4.854   0.417   2.456
 6616W        W10135   5.735   1.371   1.600
 6617W        W10136   2.782   5.076  10.768
 6618W        W10137   0.334   8.469   0.520
 6619W        W10138   1.831   1.910   1.849
 6620W        W10139   7.303   2.186  11.368
 6621W        W10140   7.021   4.478   0.365
 6622W        W10141   0.774   6.683  11.506
 6623W        W10142   4.458   5.904   9.449
 6624W        W10143   1.453   9.773  11.899
 6625W        W10144   4.943   1.157   1.068
 6626W        W10145   1.679   5.719  11.819
 6627W        W10146   0.483   2.356   9.521
 6628W        W10147   8.593   0.182  10.860
 6629W        W10148   5.579   9.763   3.355
 6630W        W10149   0.805   7.368   9.985
 6631W        W10150   0.740   1.361  10.843
 6632W        W10151   4.160   2.050   0.011
 6633W        W10152   8.358   5.552   3.307
 6634W        W10153   7.383   1.389   2.508
 6635W        W10154   7.299   4.718   2.259
 6636W        W10155   4.591   4.560  10.483
 6637W        W10156   3.954   7.244   2.391
 6638W        W10157   5.401   8.478   1.630
 6639W        W10158   7.864   8.073  10.460
 6640W        W10159   4.152   3.527   8.644
 6641W        W10160   0.918   6.889   9.891
 6642W        W10161   7.890   6.080   0.778
 6643W        W10162   1.432   8.822   3.230
 6644W        W10163   3.801   7.629  10.711
 6645W        W10164   5.047   6.600   9.632
 6646W        W10165   5.047   1.188  10.917
 6647W        W10166   7.033   7.812   2.236
 6648W        W10167   9.979   8.517   9.044
 6649W        W10168   1.710   3.409   3.676
 6650W        W10169   3.906   7.429   3.428
 6651W        W10170   6.961   8.556   8.911
 6652W        W10171   6.039   8.099  11.752
 6653W        W10172   5.888   4.080   3.009
 6654W        W10173   4.845   5.059   0.875
 6655W        W10174   0.208   3.700   9.259
 6656W        W10175   5.144   8.557   0.327
 6657W        W10176   0.542   7.663  11.346
 6658W        W10177   4.565   9.438   0.280
 6659W        W10178   1.363   7.153  10.821
 6660W        W10179   2.392   9.706   8.578
 6661W        W10180   4.707   1.880   0.915
 6662W        W10181   5.943   3.466   0.309
 6663W        W10182   4.541   4.160   8.079
 6664W        W10183   5.574   0.959   9.645
 6665W        W10184   8.301   6.191   1.652
 6666W        W10185   8.385   3.638   1.260
 6667W        W10186   1.635   6.636   2.452
 6668W        W10187   0.348   2.193   0.815
 6669W        W10188   4.798   5.369  11.001
 6670W        W10189   1.267   0.665   2.860
 6671W        W10190   9.182   9.189   2.487
 6672W        W10191   6.691   2.187   1.461
 6673W        W10192   1.708   8.004   0.052
 6674W        W10193   5.938   3.717   1.211
 6675W        W10194   2.104   7.998  10.709
 6676W        W10195   1.796   1.237   1.256
 6677W        W10196   8.087   8.368   0.440
 6678W        W10197   0.749   5.358   3.440
 6679W        W10198   2.293   5.587   1.012
 6680W        W10199   6.346   4.133  11.075
 6681W        W10200   5.905   7.167   2.685
 6682W        W10201   0.431   0.444   2.372
 6683W        W10202   1.080   9.016   9.998
 6684W        W10203   3.378   9.757   1.221
 6685W        W10204   6.607   0.771   3.412
 6686W        W10205   4.109   9.867  10.244
 6687W        W10206   4.579   5.947  10.342
 6688W        W10207   0.658   7.976   3.560
 6689W        W10208   2.543   4.448  10.301
 6690W        W10209   6.053   5.664   2.141
 6691W        W10210   6.166   2.675   8.626
 6692W        W10211   3.533   4.758  10.643
 6693W        W10212   0.956   7.921   3.116
 6694W        W10213   7.940   5.512   2.949
 6695W        W10214   3.710   6.801  11.953
 6696W        W10215   2.813   1.346   9.794
 6697W        W10216   7.176   4.801   0.974
 6698W        W10217   6.657   1.746   9.496
 6699W        W10218   7.043   3.187   0.481
 6700W        W10219   6.472   6.926   9.254
 6701W        W10220   7.007   0.314  11.810
 6702W        W10221   7.595   5.882   2.927
 6703W        W10222   0.200   0.614  10.237
 6704W        W10223   3.522   4.070  10.014
 6705ION    NA+10224   4.487   0.506  11.001
 6706ION    NA+10225   7.913   4.251   8.803
 6707ION    NA+10226   6.218   8.427   0.752
 6708ION    NA+10227   3.384   1.628   1.210
 6709ION    NA+10228   3.868   6.191   1.824
 6710ION    NA+10229   2.177   5.673  10.452
 6711ION    NA+10230   4.458   6.598  10.317
 6712ION    NA+10231   6.669   5.062  11.675
 6713ION    NA+10232   9.477   3.094   8.545
 6714ION    NA+10233   4.737   8.891   9.936
 6715ION    NA+10234   6.100   3.676   9.568
 6716ION    NA+10235   4.728   7.879   0.738
 6717ION    NA+10236   7.893   5.616  11.979
 6718ION    NA+10237   0.853   3.207  11.946
 6719ION    NA+10238   0.047   0.018   3.044
 6720ION    NA+10239   7.604   8.909  11.812
 6721ION    NA+10240   1.735   7.047   9.473
 6722ION    NA+10241   4.054   2.347  10.267
 6723ION    NA+10242   3.783   0.177   8.820
 6724ION    NA+10243   3.776   8.466   9.560
 6725ION    NA+10244   6.960   1.243   8.910
 6726ION    NA+10245   3.599   5.550  10.989
 6727ION    NA+10246   7.484   4.039   9.565
 6728ION    NA+10247   5.495   9.257  10.254
 6729ION    NA+10248   6.944   9.490  10.692
 6730ION    NA+10249   3.176   0.965   8.921
 6731ION    NA+10250   0.295   5.475  11.542
 6732ION    NA+10251   9.314   3.435   1.327
 6733ION    NA+10252   8.080   1.621   3.153
 6734ION    NA+10253   2.547   5.057   8.818
 6735ION    NA+10254   6.347   0.874   1.773
 6736ION    NA+10255   8.627   1.363  10.747
 6737ION    NA+10256   5.298   8.751   2.725
 6738ION    NA+10257   1.883   4.693   1.746
 6739ION    NA+10258   7.273   9.349   2.893
 6740ION    NA+10259   1.774   9.811   0.456
 6741ION    NA+10260   7.856   7.894   2.219
 6742ION    NA+10261   2.722   6.804   2.361
 6743ION    NA+10262   1.572   6.634   0.826
 6744ION    NA+10263   1.366   8.652   1.097
 6745ION    NA+10264   2.175   5.885   0.005
 6746ION    NA+10265   8.266   4.743   2.208
 6747ION    NA+10266   8.931   8.995  10.296
 6748ION    NA+10267   8.394   7.950  11.988
 6749ION    NA+10268   8.383   7.995   1.573
 6750ION    NA+10269   6.024   6.625   4.117
 6751ION    NA+10270   4.177   9.546   1.068
 6752ION    NA+10271   0.906   3.284   9.663
 6753ION    NA+10272   1.321   0.575   3.734
 6754ION    NA+10273   4.114   5.527   2.397
 6755ION    NA+10274   8.698   2.737   1.216
 6756ION    NA+10275   6.440   8.466   2.276
 6757ION    NA+10276   7.799   4.861  10.975
 6758ION    NA+10277   4.227   5.288   0.317
 6759ION    NA+10278   0.562   4.869   0.292
 6760ION    NA+10279   1.833   0.067   3.183
 6761ION    NA+10280   3.816   4.949  10.169
 6762ION    NA+10281   9.688   7.863   3.014
 6763ION    NA+10282   5.077   5.869   3.488
 6764ION    NA+10283   3.567   9.600   0.277
 6765ION    NA+10284   0.312   0.438   8.591
 6766ION    NA+10285   8.780   7.934   2.445
 6767ION    NA+10286   3.850   6.338   9.109
 6768ION    NA+10287   4.285   0.381   9.757
 6769ION    NA+10288   7.974   7.860   9.526
 6770ION    NA+10289   2.743   1.894   2.433
 6771ION    NA+10290   3.045   2.695  11.562
 6772ION    NA+10291   7.502   2.540  10.485
 6773ION    NA+10292   2.124   5.832   8.785
 6774ION    NA+10293   5.354   4.559   1.590
 6775ION    NA+10294   6.537   6.962   9.841
 6776ION    CL-10295   8.704   4.660   2.240
 6777ION    CL-10296   0.242   1.209   2.895
 6778ION    CL-10297   5.112   8.799   1.344
 6779ION    CL-10298   6.135   0.486  11.213
 6780ION    CL-10299   4.993   4.621   3.092
 6781ION    CL-10300   6.149   3.889   9.957
 6782ION    CL-10301   1.135   3.666   9.654
 6783ION    CL-10302   2.275   5.415   8.927
 6784ION    CL-10303   3.970   5.850   2.105
 6785ION    CL-10304   1.898   1.840   3.372
 6786ION    CL-10305   6.434   8.547   0.380
 6787ION    CL-10306   4.149   8.265   9.401
 6788ION    CL-10307   4.510   1.552   9.452
 6789ION    CL-10308   2.705   5.355   2.305
 6790ION    CL-10309   0.862   4.659   0.036
 6791ION    CL-10310   7.032   1.044   8.478
 6792ION    CL-10311   7.785   4.112   9.222
 6793ION    CL-10312   4.746   7.672   0.338
 6794ION    CL-10313   2.211   8.507  11.568
 6795ION    CL-10314   4.056   6.694  10.491
 6796ION    CL-10315   2.265   9.077   2.162
 6797ION    CL-10316   7.727   9.213   0.114
 6798ION    CL-10317   9.159   2.714   9.491
 6799ION    CL-10318   5.104   4.285   1.325
 6800ION    CL-10319   1.404   0.026   0.330
 6801ION    CL-10320   8.987   3.090   1.274
 6802ION    CL-10321   3.314   3.699   3.579
 6803ION    CL-10322   5.759   7.438   2.285
 6804ION    CL-10323   3.206   4.905   0.371
 6805ION    CL-10324   0.220   0.530   0.934
 6806ION    CL-10325   6.186   2.374   2.326
 6807ION    CL-10326   4.873   5.028   8.584
 6808ION    CL-10327   9.026   1.242  10.593
 6809ION    CL-10328   7.507   4.321   0.261
 6810ION    CL-10329   7.798   5.165  10.649
 6811ION    CL-10330   5.596   6.639   0.235
 6812ION    CL-10331   1.027   8.703   0.800
 6813ION    CL-10332   0.817   8.424   2.290
 6814ION    CL-10333   6.659   1.576   9.013
 6815ION    CL-10334   1.278   4.570  10.056
 6816ION    CL-10335   0.101   7.716   2.919
 6817ION    CL-10336   4.350   4.579  10.954
 6818ION    CL-10337   4.436   0.080  11.129
 6819ION    CL-10338   3.360   8.597   9.682
 6820ION    CL-10339   3.147   7.285   0.367
 6821ION    CL-10340   2.062   6.014  11.591
 6822ION    CL-10341   2.487   1.536   2.347
 6823ION    CL-10342   5.511   4.942   1.783
 6824ION    CL-10343   8.269   7.938   2.020
 6825ION    CL-10344   7.112   4.115   9.813
 6826ION    CL-10345   9.910   0.746   8.736
 6827ION    CL-10346   5.180   8.658   3.150
 6828ION    CL-10347   5.764   3.257   1.046
 6829ION    CL-10348   6.719   3.389   3.146
 6830ION    CL-10349   7.527   9.940   0.865
 6831ION    CL-10350   8.948   9.307  10.616
 6832ION    CL-10351   8.500   9.191   3.581
 6833ION    CL-10352   3.706   6.708   9.319
 6834ION    CL-10353   9.942   3.691   2.869
 6835ION    CL-10354   6.369   7.749   8.960
 6836ION    CL-10355   4.656   3.320   9.646
 6837ION    CL-10356   5.127   9.112  10.020
 6838ION    CL-10357   5.712   0.278   3.150
 6839ION    CL-10358   5.745   3.607   3.198
 6840ION    CL-10359   5.075   7.572   9.326
 6841ION    CL-10360   9.565   5.699   9.057
 6842ION    CL-10361   9.877   2.460   3.081
 6843ION    CL-10362   2.713   4.654  11.538
 6844ION    CL-10363   7.819   2.566  10.794
 6845ION    CL-10364   1.700   8.598   1.406
 6846ION    CL-10365   9.641   3.733   1.466
  10.00000  10.00000  12.00000
