Protein in INSANE! Membrane UpperLeaflet>POPC=1.0 LowerLeaflet>POPC=1.0
11125
    1AU     AUC    1   7.705   7.209   6.283 -0.0573  0.0493 -0.0806
    1AU     AUC    2   7.774   7.390   6.013 -0.0467 -0.0530 -0.0904
    1AU     AUC    3   7.707   7.044   6.009  0.0453 -0.0079 -0.0525
    1AU     AUC    4   7.708   7.345   6.581  0.0514  0.0537  0.1287
    1AU     AUC    5   7.746   6.999   6.538  0.0610  0.0366  0.0129
    1AU     AUC    6   8.005   7.193   6.472 -0.0440  0.0218  0.0271
    1AU     AUC    7   7.987   7.208   6.123 -0.0574  0.0469  0.0066
    1AU     AUC    8   7.452   7.203   6.490  0.1491 -0.0328  0.0710
    1AU     AUC    9   7.446   7.237   6.105 -0.0004  0.0368 -0.0758
    1AU     AUC   10   7.507   6.943   6.261  0.1182 -0.0307  0.0365
    1AU     AUC   11   7.878   6.902   6.276 -0.1715  0.0687  0.0151
    1AU     AUC   12   7.593   7.499   6.294  0.0351  0.0375  0.1012
    1AU     AUC   13   7.869   7.483   6.301 -0.0182  0.0203  0.0598
    1AU     AUC   14   7.781   7.551   5.725 -0.0611  0.0204 -0.0383
    1AU     AUC   15   7.719   7.203   5.683 -0.0765  0.0431  0.0365
    1AU     AUC   16   7.671   6.842   5.678 -0.0982 -0.1202  0.0246
    1AU     AUC   17   7.702   7.514   6.910  0.0241 -0.0217  0.0264
    1AU     AUC   18   7.726   7.140   6.895  0.0101 -0.0464  0.0557
    1AU     AUC   19   7.755   6.810   6.817 -0.0257 -0.0610  0.0550
    1AU     AUC   20   8.294   7.198   6.658 -0.0907 -0.0514  0.0204
    1AU     AUC   21   8.337   7.223   6.298 -0.0167 -0.0069 -0.0352
    1AU     AUC   22   8.282   7.218   5.947 -0.0445  0.0084  0.0247
    1AU     AUC   23   7.166   7.210   6.658 -0.0201  0.0045  0.1034
    1AU     AUC   24   7.143   7.263   6.314 -0.0838 -0.0389  0.0160
    1AU     AUC   25   7.150   7.307   5.914 -0.0097 -0.0261 -0.0018
    1AU     AUC   26   7.321   6.701   6.253 -0.0657  0.0766 -0.0012
    1AU     AUC   27   7.689   6.603   6.253 -0.0672 -0.0034 -0.0838
    1AU     AUC   28   8.046   6.631   6.234 -0.0080  0.0555 -0.0499
    1AU     AUC   29   7.467   7.780   6.282 -0.1104  0.0161 -0.1057
    1AU     AUC   30   7.793   7.822   6.314  0.0749  0.0511 -0.1237
    1AU     AUC   31   8.095   7.751   6.354  0.0140  0.0538  0.0315
    1AU     AUC   32   7.468   6.739   5.968  0.1827 -0.0442 -0.0340
    1AU     AUC   33   7.849   6.721   5.940 -0.0115 -0.0614  0.0253
    1AU     AUC   34   7.630   7.725   5.980  0.0479 -0.0772 -0.0139
    1AU     AUC   35   7.958   7.689   5.997 -0.0790  0.0476 -0.0660
    1AU     AUC   36   7.545   6.715   6.547 -0.0471  0.0386  0.0931
    1AU     AUC   37   7.928   6.707   6.558 -0.0633 -0.0342  0.0107
    1AU     AUC   38   7.568   7.650   6.617  0.0685  0.0168 -0.0172
    1AU     AUC   39   7.882   7.654   6.649 -0.0179  0.0006 -0.0292
    1AU     AUC   40   8.016   7.384   5.787  0.0020 -0.1172  0.0053
    1AU     AUC   41   7.982   7.017   5.804 -0.0424 -0.0401  0.0424
    1AU     AUC   42   8.006   7.319   6.813  0.0240 -0.0394 -0.1118
    1AU     AUC   43   8.040   6.988   6.749  0.0245  0.0052  0.0041
    1AU     AUC   44   7.459   7.420   5.792  0.1192  0.1337 -0.0954
    1AU     AUC   45   7.399   7.062   5.821  0.0083  0.0331 -0.0106
    1AU     AUC   46   7.405   7.344   6.813  0.0552  0.0871 -0.0771
    1AU     AUC   47   7.440   6.990   6.728 -0.0475  0.0213 -0.0011
    1AU     AUC   48   8.216   6.919   6.441 -0.0436  0.0639 -0.1233
    1AU     AUC   49   8.199   6.928   6.082  0.0872 -0.0210  0.1465
    1AU     AUC   50   7.241   6.931   6.444 -0.0997 -0.0355 -0.0468
    1AU     AUC   51   7.182   6.988   6.119 -0.0100  0.0219 -0.0317
    1AU     AUC   52   8.175   7.490   6.521  0.0362  0.0791  0.0028
    1AU     AUC   53   8.208   7.500   6.131  0.0496 -0.0424 -0.0225
    1AU     AUC   54   7.269   7.509   6.485 -0.0900 -0.0099 -0.0325
    1AU     AUC   55   7.324   7.546   6.127 -0.0115  0.1610  0.0138
    1AU    AUSL   56   7.576   6.491   5.681 -0.0918 -0.0064  0.0745
    1AU    AUSL   57   7.138   6.614   5.926 -0.0538 -0.0452 -0.1418
    1AU     AUL   58   7.266   6.446   5.551 -0.0516  0.0846  0.0263
    1AU       S   59   6.846   6.628   5.655  0.0840  0.1959  0.3546
    1AU     LIG   60   6.575   6.216   5.795 -0.4731 -0.1509 -0.3414
    1AU     LIG   61   6.271   6.101   5.889 -0.0298  0.1354  0.3771
    1AU     LIG   62   5.843   6.037   6.009 -0.1055  0.1222  0.3152
    1AU     LIG   63   5.602   5.784   6.303 -0.0033 -0.1016 -0.0044
    1AU       S   64   7.423   6.056   5.734  0.0564 -0.3309 -0.0068
    1AU     LIG   65   7.022   5.925   5.642  0.3009 -0.2328  0.4480
    1AU     LIG   66   6.658   5.720   5.736  0.1793  0.1522 -0.0642
    1AU     LIG   67   6.367   5.472   5.556  0.2055 -0.0454 -0.0085
    1AU     LIG   68   6.358   5.297   5.191 -0.0269  0.0802 -0.0149
    1AU    AUSL   69   7.442   6.379   6.097 -0.0014  0.0418  0.0333
    1AU    AUSL   70   7.865   6.293   6.361  0.0353  0.0612  0.0909
    1AU     AUL   71   7.677   6.089   6.134  0.0150 -0.0612 -0.0001
    1AU       S   72   7.290   6.188   5.973 -0.1971 -0.0968 -0.2389
    1AU     LIG   73   6.936   6.094   6.150 -0.1802  0.0995 -0.0428
    1AU     LIG   74   6.584   6.206   6.275  0.1207 -0.0257  0.1594
    1AU     LIG   75   6.293   6.099   6.420 -0.1384  0.1142 -0.3643
    1AU     LIG   76   5.955   6.075   6.692  0.3233  0.0928  0.1251
    1AU       S   77   7.730   5.877   6.550 -0.2877 -0.3719  0.1719
    1AU     LIG   78   8.013   5.679   6.318 -0.0970  0.0419  0.0099
    1AU     LIG   79   8.386   5.403   6.309  0.0782  0.0970  0.2108
    1AU     LIG   80   8.811   5.328   6.326  0.2234  0.4817  0.0847
    1AU     LIG   81   9.191   5.161   6.478  0.2776  0.0951 -0.1029
    1AU    AUSL   82   7.853   6.548   6.028  0.0743 -0.0722 -0.0342
    1AU    AUSL   83   7.976   6.613   5.602  0.0068 -0.0514  0.0430
    1AU     AUL   84   7.836   6.272   5.761  0.0105  0.0432 -0.1104
    1AU       S   85   8.130   6.052   6.036  0.3896  0.1756  0.1857
    1AU     LIG   86   8.382   5.771   5.930  0.4025  0.3685 -0.2345
    1AU     LIG   87   8.710   5.703   5.981  0.0114  0.2195 -0.3118
    1AU     LIG   88   9.071   5.578   5.758 -0.0594  0.2087  0.0544
    1AU     LIG   89   9.507   5.813   5.699 -0.0414 -0.0152  0.1420
    1AU       S   90   8.127   6.399   5.432 -0.0113 -0.1048  0.2739
    1AU     LIG   91   8.200   5.964   5.407 -0.0671  0.2159  0.2559
    1AU     LIG   92   8.207   5.570   5.501  0.0515 -0.1695 -0.0578
    1AU     LIG   93   8.622   5.421   5.572  0.3239 -0.0885  0.0050
    1AU     LIG   94   9.006   5.325   5.340  0.1078 -0.0068 -0.2338
    1AU    AUSL   95   7.836   7.863   5.848  0.0042 -0.0896  0.0444
    1AU    AUSL   96   8.266   7.807   5.972  0.0714 -0.0667 -0.0769
    1AU     AUL   97   8.163   8.073   5.757  0.0430 -0.0215 -0.0387
    1AU       S   98   7.994   8.392   5.999 -0.0062  0.4808  0.0731
    1AU     LIG   99   7.831   8.724   6.357  0.0056 -0.1517 -0.4182
    1AU     LIG  100   7.882   8.940   6.634  0.0527 -0.1296 -0.0815
    1AU     LIG  101   7.633   8.892   6.886 -0.2808  0.2219  0.0631
    1AU     LIG  102   7.296   8.826   7.214 -0.0154 -0.1003  0.0369
    1AU       S  103   8.619   7.807   5.585 -0.0634 -0.2276 -0.0682
    1AU     LIG  104   8.918   8.072   5.850 -0.1279 -0.1230 -0.1853
    1AU     LIG  105   9.223   8.447   5.883  0.1873  0.0370 -0.3479
    1AU     LIG  106   9.589   8.682   5.974 -0.4501 -0.0365  0.0198
    1AU     LIG  107   9.988   8.958   5.947 -0.0594 -0.2001  0.0426
    1AU    AUSL  108   7.609   8.148   6.052 -0.0189  0.0811  0.0316
    1AU    AUSL  109   7.558   7.795   5.536 -0.0326 -0.0729  0.0708
    1AU     AUL  110   7.718   8.121   5.628  0.0282  0.0076  0.0120
    1AU       S  111   7.296   8.055   5.457  0.5114  0.2637  0.1252
    1AU     LIG  112   7.457   8.083   5.114  0.0574  0.0745 -0.3354
    1AU     LIG  113   7.516   7.845   4.715  0.4064  0.1193  0.1280
    1AU     LIG  114   7.386   7.418   4.661 -0.2892 -0.1536 -0.0511
    1AU     LIG  115   7.630   7.083   4.748  0.1171 -0.0710  0.2344
    1AU       S  116   7.810   8.464   5.933  0.0173  0.1334 -0.4826
    1AU     LIG  117   7.403   8.635   6.034 -0.1578 -0.3920 -0.0895
    1AU     LIG  118   7.142   8.316   6.221  0.1840  0.0086 -0.1536
    1AU     LIG  119   6.858   8.287   6.535  0.0423  0.0389  0.1965
    1AU     LIG  120   6.615   8.108   6.870 -0.1515 -0.1119  0.0423
    1AU    AUSL  121   7.997   7.993   6.235 -0.0248  0.0159 -0.0945
    1AU    AUSL  122   7.605   7.925   6.425 -0.0655 -0.0440  0.0831
    1AU     AUL  123   7.649   8.251   6.320  0.0365 -0.0448  0.0342
    1AU       S  124   7.609   8.426   6.746  0.0296  0.0588 -0.1033
    1AU     LIG  125   7.294   8.737   6.594 -0.0995 -0.0421  0.1757
    1AU     LIG  126   7.148   9.116   6.296 -0.1434 -0.0278 -0.2136
    1AU     LIG  127   6.697   9.238   6.199  0.2442 -0.4530 -0.1462
    1AU     LIG  128   6.344   9.486   6.423 -0.0209 -0.1839 -0.0523
    1AU       S  129   8.089   8.301   6.177  0.2546 -0.2936 -0.5660
    1AU     LIG  130   8.519   8.238   6.154  0.0807 -0.3359 -0.1400
    1AU     LIG  131   8.747   8.597   6.072 -0.0223 -0.0699  0.1489
    1AU     LIG  132   9.067   8.885   6.097  0.0148  0.0267  0.1509
    1AU     LIG  133   9.431   9.098   6.332  0.0415  0.2380  0.1558
    1AU    AUSL  134   7.792   6.427   6.784 -0.0147  0.0088 -0.0297
    1AU    AUSL  135   8.182   6.503   6.513  0.1092 -0.0172  0.0012
    1AU     AUL  136   8.042   6.186   6.662  0.0040 -0.0084 -0.0605
    1AU       S  137   7.588   6.081   6.749  0.3101  0.4280  0.0884
    1AU     LIG  138   7.319   5.633   6.792  0.3875 -0.0580 -0.0059
    1AU     LIG  139   7.056   5.405   6.547 -0.1041 -0.1138 -0.0318
    1AU     LIG  140   6.909   5.002   6.602 -0.1206  0.3069  0.0513
    1AU     LIG  141   6.583   4.719   6.340  0.0178  0.3525  0.3479
    1AU       S  142   8.443   6.414   6.859  0.3785  0.1357  0.3921
    1AU     LIG  143   8.711   6.163   6.693  0.1388 -0.1196  0.0685
    1AU     LIG  144   8.854   5.841   6.502 -0.2231  0.0136  0.2729
    1AU     LIG  145   9.228   5.712   6.255 -0.0560  0.0658  0.1982
    1AU     LIG  146   9.711   5.807   6.175 -0.2486  0.2889  0.2240
    1AU    AUSL  147   7.543   6.535   6.475  0.0498  0.0498  0.0525
    1AU    AUSL  148   7.384   6.553   6.882 -0.1655  0.0457  0.0945
    1AU     AUL  149   7.627   6.421   7.006  0.0463 -0.0229  0.0031
    1AU       S  150   7.139   6.314   6.930 -0.0030 -0.0640 -0.1433
    1AU     LIG  151   7.386   6.039   7.192 -0.2008  0.2415 -0.1348
    1AU     LIG  152   7.445   5.656   7.351 -0.1588 -0.0801  0.3157
    1AU     LIG  153   7.672   5.279   7.168 -0.2487 -0.5017  0.0993
    1AU     LIG  154   7.998   5.044   7.051 -0.0599 -0.0051  0.0516
    1AU       S  155   7.459   6.135   6.553  0.2206  0.2898  0.3239
    1AU     LIG  156   7.331   5.810   6.321  0.0429  0.0328  0.1591
    1AU     LIG  157   7.075   5.623   6.072 -0.0073 -0.0475 -0.2125
    1AU     LIG  158   7.040   5.395   5.683  0.0094 -0.0803 -0.4918
    1AU     LIG  159   7.230   5.017   5.552  0.0942 -0.0619 -0.4298
    1AU    AUSL  160   7.643   7.906   6.846  0.0415 -0.0760 -0.0919
    1AU    AUSL  161   7.275   7.748   6.627 -0.0325 -0.1073  0.1034
    1AU     AUL  162   7.317   8.071   6.606  0.0219 -0.0454 -0.0810
    1AU       S  163   7.599   8.266   6.950  0.2238  0.0725 -0.1610
    1AU     LIG  164   7.266   8.383   7.038 -0.0849  0.0815  0.2334
    1AU     LIG  165   6.919   8.548   6.954 -0.1931 -0.3609  0.2978
    1AU     LIG  166   6.788   8.802   7.198  0.1054 -0.2209  0.1829
    1AU     LIG  167   6.360   8.973   7.155 -0.3248  0.0019  0.0586
    1AU       S  168   7.111   7.907   7.002 -0.1001 -0.2708 -0.2506
    1AU     LIG  169   6.902   8.204   7.336 -0.1458 -0.3359  0.1453
    1AU     LIG  170   6.486   8.487   7.294 -0.4764 -0.0924 -0.0182
    1AU     LIG  171   6.038   8.607   7.185 -0.2652  0.0051 -0.3649
    1AU     LIG  172   5.691   8.507   6.968  0.2562 -0.0930 -0.0441
    1AU    AUSL  173   7.970   8.091   6.633 -0.0494  0.0002 -0.0022
    1AU    AUSL  174   7.984   7.721   7.040  0.0821 -0.2154  0.0244
    1AU     AUL  175   7.983   8.072   6.957  0.0648  0.0769  0.0057
    1AU       S  176   8.182   7.896   7.350  0.4261 -0.3772  0.1021
    1AU     LIG  177   8.125   7.591   7.680 -0.0576 -0.0864 -0.1627
    1AU     LIG  178   7.928   7.624   8.111 -0.2161  0.3095 -0.2747
    1AU     LIG  179   7.559   7.576   8.312 -0.5567 -0.0113 -0.0896
    1AU     LIG  180   7.341   7.265   8.262 -0.0972 -0.0596 -0.1027
    1AU       S  181   7.785   8.441   6.755 -0.3663 -0.1749 -0.0221
    1AU     LIG  182   8.116   8.573   6.876  0.0659 -0.0564 -0.1023
    1AU     LIG  183   8.443   8.746   7.049 -0.2678  0.1211  0.0024
    1AU     LIG  184   8.580   9.107   7.046  0.2883 -0.1582 -0.2997
    1AU     LIG  185   8.571   9.387   6.785  0.0297  0.3801 -0.2749
    1AU    AUSL  186   8.239   7.199   5.491 -0.0437 -0.0492 -0.0515
    1AU    AUSL  187   8.094   7.648   5.595 -0.0416  0.0303 -0.0220
    1AU     AUL  188   8.292   7.441   5.272  0.0556 -0.0204  0.0237
    1AU       S  189   8.407   7.760   5.543 -0.2616 -0.3315 -0.0559
    1AU     LIG  190   8.365   8.065   5.241  0.2309 -0.2422  0.0119
    1AU     LIG  191   8.015   8.360   5.287  0.1463 -0.1602 -0.1377
    1AU     LIG  192   7.771   8.653   5.083  0.0724 -0.1499  0.0796
    1AU     LIG  193   7.471   8.934   4.879  0.3943 -0.2994 -0.0997
    1AU       S  194   8.176   7.040   5.062  0.1356 -0.4162  0.3162
    1AU     LIG  195   8.545   7.027   5.099 -0.2749 -0.0865  0.0899
    1AU     LIG  196   8.728   7.024   5.469  0.1272 -0.1727 -0.2191
    1AU     LIG  197   9.123   7.066   5.653  0.2607 -0.2444  0.2673
    1AU     LIG  198   9.504   7.254   5.626  0.2740 -0.0762 -0.4099
    1AU    AUSL  199   7.861   7.379   5.366 -0.1430 -0.0341 -0.0678
    1AU    AUSL  200   7.512   7.092   5.334  0.0350 -0.0280 -0.1229
    1AU     AUL  201   7.600   7.417   5.137 -0.0186 -0.0275 -0.0288
    1AU       S  202   7.986   7.138   5.058 -0.0164 -0.1863 -0.3400
    1AU     LIG  203   7.898   6.711   4.716 -0.2517  0.2966 -0.0133
    1AU     LIG  204   7.929   6.364   4.445 -0.4516  0.1511  0.0259
    1AU     LIG  205   7.964   5.940   4.267  0.3091 -0.1500  0.0184
    1AU     LIG  206   7.936   5.472   4.330 -0.0859  0.2345 -0.1114
    1AU       S  207   7.203   7.186   5.048  0.2056 -0.1814  0.0543
    1AU     LIG  208   6.838   6.909   5.027 -0.1475  0.2096 -0.2146
    1AU     LIG  209   6.734   6.643   4.870  0.0337  0.1200 -0.1090
    1AU     LIG  210   6.289   6.586   4.706  0.2734  0.3444 -0.3380
    1AU     LIG  211   6.123   6.499   4.413 -0.1036  0.4388 -0.4969
    1AU    AUSL  212   7.837   7.005   5.572 -0.0886  0.0420  0.0161
    1AU    AUSL  213   8.221   6.911   5.813 -0.0403  0.0028 -0.0942
    1AU     AUL  214   8.261   6.862   5.474  0.0532 -0.0130  0.0613
    1AU       S  215   8.452   6.480   5.440 -0.2531  0.3101 -0.0210
    1AU     LIG  216   8.950   6.505   5.645 -0.3027  0.0781 -0.0511
    1AU     LIG  217   9.318   6.651   5.825  0.1957 -0.1096  0.1463
    1AU     LIG  218   9.746   6.684   5.942 -0.2372  0.0973  0.3885
    1AU     LIG  219  10.017   6.433   6.295  0.0449  0.2582  0.2396
    1AU       S  220   7.925   6.938   5.181  0.3998 -0.1614  0.1822
    1AU     LIG  221   7.664   6.604   5.207 -0.0423 -0.2821  0.0164
    1AU     LIG  222   7.612   6.171   5.306  0.3326  0.2153 -0.3334
    1AU     LIG  223   7.813   5.806   5.626 -0.4471 -0.0457  0.1208
    1AU     LIG  224   7.647   5.593   5.958  0.2468  0.2250  0.2278
    1AU    AUSL  225   8.276   7.117   7.002 -0.0735 -0.0604  0.1003
    1AU    AUSL  226   8.059   6.735   6.869 -0.0003 -0.0230 -0.0210
    1AU     AUL  227   8.340   6.823   7.180 -0.0115 -0.0310  0.0652
    1AU       S  228   8.238   6.403   7.012 -0.0299  0.2921 -0.4171
    1AU     LIG  229   7.998   6.186   7.203 -0.1167  0.0254  0.0295
    1AU     LIG  230   7.840   5.759   7.054 -0.0077 -0.1197 -0.1185
    1AU     LIG  231   7.915   5.392   6.729 -0.0300 -0.0310 -0.1500
    1AU     LIG  232   7.537   5.296   6.440  0.0049 -0.1918  0.0241
    1AU       S  233   8.628   7.149   7.025 -0.0965 -0.2879 -0.0907
    1AU     LIG  234   8.962   7.087   6.802 -0.0381  0.3662 -0.3205
    1AU     LIG  235   9.254   7.120   6.631  0.1164 -0.2096  0.3043
    1AU     LIG  236   9.717   7.304   6.526 -0.0715 -0.2212  0.0354
    1AU     LIG  237  10.052   7.529   6.563  0.1594  0.2474  0.1443
    1AU    AUSL  238   7.883   7.327   7.003 -0.0301 -0.0199  0.0970
    1AU    AUSL  239   8.366   7.531   6.948  0.0282  0.0216 -0.0060
    1AU     AUL  240   8.195   7.428   7.216  0.0140  0.0529  0.0299
    1AU       S  241   7.688   7.649   7.379  0.2253  0.0553 -0.3444
    1AU     LIG  242   7.674   8.088   7.379 -0.2030  0.0940  0.1494
    1AU     LIG  243   7.362   8.310   7.598  0.3518 -0.2620  0.0198
    1AU     LIG  244   7.014   8.697   7.658  0.2042 -0.2024  0.1429
    1AU     LIG  245   6.859   9.094   7.594  0.0369 -0.0752  0.0075
    1AU       S  246   8.604   7.714   7.133  0.3834  0.0060 -0.0762
    1AU     LIG  247   8.974   8.041   7.082 -0.1046  0.0445  0.1155
    1AU     LIG  248   9.245   8.274   6.852  0.0600 -0.0041  0.3510
    1AU     LIG  249   9.492   8.382   6.670 -0.4199  0.1307  0.2906
    1AU     LIG  250   9.307   8.599   6.412  0.1927  0.0386  0.1575
    1AU    AUSL  251   7.894   6.932   7.194 -0.0122 -0.0198 -0.0274
    1AU    AUSL  252   7.543   7.255   7.250 -0.1539 -0.0745  0.0382
    1AU     AUL  253   7.834   7.203   7.383  0.0657  0.0712 -0.1340
    1AU       S  254   7.432   6.979   7.472  0.3116  0.1895  0.1462
    1AU     LIG  255   7.298   6.961   7.908  0.0785 -0.1519  0.1450
    1AU     LIG  256   7.433   6.703   8.201  0.0603  0.2693  0.0401
    1AU     LIG  257   7.550   6.254   8.136 -0.4057 -0.1155 -0.0197
    1AU     LIG  258   7.895   5.940   8.137  0.1529 -0.1402  0.2360
    1AU       S  259   7.949   6.751   7.394 -0.1719 -0.5349  0.1398
    1AU     LIG  260   7.836   6.998   7.815  0.4798 -0.0886 -0.0762
    1AU     LIG  261   7.860   7.150   8.287 -0.0418 -0.0129  0.0745
    1AU     LIG  262   7.979   7.255   8.631 -0.4332  0.0619  0.1873
    1AU     LIG  263   7.980   7.622   8.919  0.0414 -0.2832 -0.2231
    1AU    AUSL  264   7.174   7.252   5.558  0.0035 -0.0040 -0.1410
    1AU    AUSL  265   7.408   6.887   5.700  0.0884 -0.0099  0.0161
    1AU     AUL  266   7.276   6.891   5.380  0.0605  0.0180 -0.0224
    1AU       S  267   6.981   7.270   5.333 -0.1312  0.0351  0.3485
    1AU     LIG  268   6.676   7.355   5.494 -0.1262  0.2078 -0.1233
    1AU     LIG  269   6.360   7.228   5.746 -0.0066  0.2291  0.0381
    1AU     LIG  270   5.996   6.966   5.982  0.0059 -0.0880 -0.1946
    1AU     LIG  271   5.489   6.875   6.066 -0.1038 -0.2397  0.1288
    1AU       S  272   6.872   6.742   5.528  0.3990 -0.2053 -0.1826
    1AU     LIG  273   6.482   6.917   5.333  0.0848  0.2327  0.2036
    1AU     LIG  274   6.057   6.989   5.468  0.1468 -0.3405  0.5637
    1AU     LIG  275   5.881   7.324   5.578  0.1742 -0.1726 -0.2629
    1AU     LIG  276   5.701   7.337   5.830  0.3795 -0.3740  0.0134
    1AU    AUSL  277   7.554   7.417   5.647  0.0057 -0.0202  0.0357
    1AU    AUSL  278   7.154   7.668   5.675  0.0053 -0.0893  0.0626
    1AU     AUL  279   7.314   7.597   5.422  0.0146 -0.0196 -0.0055
    1AU       S  280   7.160   7.345   5.099 -0.1680 -0.2304  0.1594
    1AU     LIG  281   7.093   7.680   4.988 -0.0055  0.0297  0.1574
    1AU     LIG  282   6.965   8.104   5.022  0.1252  0.1869  0.3140
    1AU     LIG  283   6.803   8.360   4.713  0.1267  0.0332 -0.2642
    1AU     LIG  284   6.924   8.632   4.398  0.4507  0.0044  0.0748
    1AU       S  285   7.069   7.979   5.446  0.1948  0.2403 -0.3817
    1AU     LIG  286   6.721   8.159   5.575  0.0558 -0.0160  0.1446
    1AU     LIG  287   6.507   8.621   5.689  0.1032  0.1197  0.3392
    1AU     LIG  288   6.766   8.910   5.691 -0.0851  0.0752  0.2020
    1AU     LIG  289   7.176   9.061   5.853 -0.5187  0.0729 -0.1525
    1AU    AUSL  290   7.191   7.158   7.021  0.0976 -0.0144  0.0489
    1AU    AUSL  291   7.441   7.562   6.966  0.0229  0.0898 -0.0629
    1AU     AUL  292   7.228   7.404   7.289  0.0455  0.0043 -0.0400
    1AU       S  293   7.267   7.853   7.134  0.2021  0.1584  0.0791
    1AU     LIG  294   7.250   7.770   7.557 -0.1638  0.1241  0.1448
    1AU     LIG  295   7.083   7.689   8.012  0.3003  0.3900 -0.3563
    1AU     LIG  296   7.045   7.680   8.450  0.4501  0.1708  0.0763
    1AU     LIG  297   7.044   7.929   8.826 -0.0768  0.0027 -0.1733
    1AU       S  298   7.221   6.932   7.412  0.2841 -0.2927  0.0555
    1AU     LIG  299   6.789   6.767   7.396  0.0010  0.0885  0.0341
    1AU     LIG  300   6.606   6.383   7.351  0.1333  0.1518  0.0441
    1AU     LIG  301   6.720   6.019   7.153  0.1881 -0.3086  0.4097
    1AU     LIG  302   6.958   5.637   7.103  0.1385  0.0224 -0.3250
    1AU    AUSL  303   7.556   6.936   6.946 -0.0147 -0.0340 -0.0678
    1AU    AUSL  304   7.174   6.867   6.704 -0.0326 -0.0072 -0.1145
    1AU     AUL  305   7.111   6.781   6.999 -0.0086 -0.0660 -0.0145
    1AU       S  306   6.921   6.373   6.887 -0.1656  0.1598 -0.2335
    1AU     LIG  307   6.554   6.378   6.759 -0.0594  0.3180 -0.2311
    1AU     LIG  308   6.119   6.632   6.724  0.3177 -0.1677 -0.1540
    1AU     LIG  309   5.922   6.877   7.024 -0.0054 -0.0956 -0.1430
    1AU     LIG  310   5.802   7.111   7.410 -0.1219 -0.5620  0.3504
    1AU       S  311   7.442   6.819   7.286 -0.1117  0.0179  0.1795
    1AU     LIG  312   7.561   6.592   7.695  0.1644  0.2550  0.5613
    1AU     LIG  313   7.888   6.481   7.822 -0.0382  0.3221 -0.2888
    1AU     LIG  314   8.100   6.124   7.657  0.0810 -0.1108  0.4016
    1AU     LIG  315   8.465   6.036   7.627 -0.1215 -0.4509  0.1227
    1AU    AUSL  316   8.370   6.775   6.235  0.0267 -0.0384  0.0356
    1AU    AUSL  317   8.399   6.874   6.670  0.0139  0.0314 -0.0175
    1AU     AUL  318   8.492   6.477   6.421  0.0004  0.0476  0.0732
    1AU       S  319   8.566   6.736   6.796  0.1455  0.0138  0.0967
    1AU     LIG  320   8.967   6.589   6.719  0.2032 -0.2773 -0.0456
    1AU     LIG  321   9.133   6.197   6.944  0.0909  0.0799  0.0814
    1AU     LIG  322   8.979   5.838   7.095  0.1691 -0.1092 -0.1818
    1AU     LIG  323   8.813   5.523   6.865 -0.0479  0.0849  0.0355
    1AU       S  324   8.837   6.690   6.148  0.3831 -0.0621 -0.0955
    1AU     LIG  325   9.063   6.296   6.277 -0.2748  0.0773 -0.3510
    1AU     LIG  326   9.407   6.201   6.500 -0.0717 -0.2288  0.0780
    1AU     LIG  327   9.765   6.016   6.570 -0.2534 -0.0106 -0.3095
    1AU     LIG  328   9.839   5.546   6.666 -0.0193  0.0985 -0.1134
    1AU    AUSL  329   8.661   7.084   6.413  0.0497  0.0059  0.0265
    1AU    AUSL  330   8.601   7.458   6.176  0.0432 -0.0131 -0.0403
    1AU     AUL  331   8.942   7.309   6.215  0.0276 -0.0090  0.0198
    1AU       S  332   8.853   6.879   6.368  0.2813 -0.2359  0.1816
    1AU     LIG  333   9.351   6.692   6.423  0.2025  0.2262  0.2833
    1AU     LIG  334   9.693   6.842   6.506 -0.0084 -0.2070 -0.2358
    1AU     LIG  335  10.119   6.984   6.268  0.1476  0.2725  0.2623
    1AU     LIG  336  10.581   6.864   6.214 -0.0316  0.3482  0.1568
    1AU       S  337   8.836   7.629   6.517 -0.3115  0.1680 -0.0330
    1AU     LIG  338   9.296   7.650   6.479  0.2287  0.2202  0.0435
    1AU     LIG  339   9.659   7.907   6.650  0.4979  0.3484 -0.1531
    1AU     LIG  340   9.894   8.210   6.412 -0.3614  0.0332  0.1083
    1AU     LIG  341  10.198   8.433   6.181  0.3336 -0.3627 -0.0254
    1AU    AUSL  342   8.602   7.064   5.979  0.0278  0.0229 -0.1257
    1AU    AUSL  343   8.252   6.485   5.957 -0.0433 -0.0807  0.0698
    1AU     AUL  344   8.507   6.697   5.853 -0.0471 -0.0730 -0.0743
    1AU       S  345   8.336   6.297   5.673 -0.0129  0.0007 -0.2628
    1AU     LIG  346   8.627   6.203   5.992 -0.0619  0.1182  0.3865
    1AU     LIG  347   8.433   5.940   6.369 -0.0440  0.3102 -0.0904
    1AU     LIG  348   8.300   5.727   6.707 -0.0508  0.3780  0.5322
    1AU     LIG  349   8.402   5.239   6.792  0.0684 -0.0259 -0.0631
    1AU       S  350   8.891   6.882   6.051 -0.0290  0.1887 -0.3355
    1AU     LIG  351   9.334   7.099   6.139  0.3823 -0.1168 -0.0592
    1AU     LIG  352   9.721   7.325   6.046  0.0312  0.0496 -0.1202
    1AU     LIG  353   9.964   7.797   6.162 -0.3975  0.2516  0.2459
    1AU     LIG  354  10.218   8.006   5.829 -0.0377 -0.1002 -0.0329
    1AU    AUSL  355   7.009   6.846   6.276  0.1180  0.0778  0.0204
    1AU    AUSL  356   7.027   7.015   5.876  0.0018 -0.0415  0.0673
    1AU     AUL  357   6.839   6.638   6.082  0.0183  0.0131 -0.0206
    1AU       S  358   6.501   6.840   6.311  0.2782 -0.4345  0.3822
    1AU     LIG  359   6.191   6.608   6.252 -0.0804 -0.1803  0.0904
    1AU     LIG  360   5.806   6.564   6.315  0.4832 -0.1825 -0.4393
    1AU     LIG  361   5.567   6.596   6.707  0.2219 -0.0467 -0.0170
    1AU     LIG  362   5.140   6.771   6.630 -0.0731  0.0448  0.0490
    1AU       S  363   6.812   6.921   5.728  0.1205 -0.1537 -0.0129
    1AU     LIG  364   6.394   6.684   5.792 -0.2104  0.6684 -0.0379
    1AU     LIG  365   5.912   6.539   5.812 -0.0111  0.3922 -0.0456
    1AU     LIG  366   5.531   6.361   5.927  0.0605 -0.1978 -0.2714
    1AU     LIG  367   5.369   6.244   6.349  0.1593 -0.4504  0.1597
    1AU    AUSL  368   6.827   7.093   6.588  0.0208 -0.0077 -0.1219
    1AU    AUSL  369   7.128   6.488   6.476 -0.0881  0.0086 -0.0665
    1AU     AUL  370   6.843   6.711   6.594 -0.0322 -0.0255  0.0014
    1AU       S  371   6.439   6.977   6.514 -0.1487  0.0978 -0.1196
    1AU     LIG  372   6.253   7.244   6.825 -0.2092 -0.2223 -0.0315
    1AU     LIG  373   5.942   7.391   6.947 -0.4272 -0.0334 -0.1502
    1AU     LIG  374   5.492   7.671   6.923  0.0040  0.2058 -0.1254
    1AU     LIG  375   5.052   7.719   6.734 -0.1641  0.1041  0.1951
    1AU       S  376   7.032   6.296   6.641 -0.3369 -0.0241 -0.2461
    1AU     LIG  377   6.793   5.894   6.596 -0.0645 -0.0716 -0.2521
    1AU     LIG  378   6.572   5.454   6.534  0.1651  0.1599  0.2711
    1AU     LIG  379   6.390   5.064   6.608  0.0260  0.1469 -0.0682
    1AU     LIG  380   6.117   4.683   6.583  0.1466 -0.3210 -0.0927
    1AU    AUSL  381   6.775   7.197   6.153  0.0477 -0.0200 -0.0401
    1AU    AUSL  382   6.978   7.464   6.439  0.0910  0.0308 -0.0287
    1AU     AUL  383   6.625   7.392   6.497  0.0908 -0.0231  0.0006
    1AU       S  384   6.645   7.675   6.100  0.0145  0.4929 -0.2371
    1AU     LIG  385   6.369   7.807   6.500 -0.1042  0.4875 -0.1046
    1AU     LIG  386   5.915   7.785   6.568 -0.0714 -0.1997  0.1134
    1AU     LIG  387   5.769   7.483   6.462 -0.0816  0.0044 -0.0871
    1AU     LIG  388   5.847   7.012   6.456  0.1470  0.2912  0.0029
    1AU       S  389   6.493   7.073   6.181  0.3793  0.0750 -0.3215
    1AU     LIG  390   6.216   7.359   6.252 -0.0319 -0.1563 -0.5591
    1AU     LIG  391   6.148   7.814   6.085 -0.4808  0.0735 -0.1120
    1AU     LIG  392   5.813   8.063   6.150 -0.0497 -0.1641  0.1876
    1AU     LIG  393   5.378   7.873   6.363 -0.2637  0.2901 -0.0748
    1AU    AUSL  394   8.415   7.800   6.382  0.0897 -0.0262 -0.0245
    1AU    AUSL  395   8.341   7.399   5.856 -0.0013 -0.0738  0.1097
    1AU     AUL  396   8.586   7.737   6.035  0.0187  0.0898  0.0258
    1AU       S  397   8.759   7.816   6.473 -0.1482 -0.4164  0.2677
    1AU     LIG  398   9.006   8.158   6.431  0.1713  0.2535  0.4928
    1AU     LIG  399   9.388   8.095   6.225 -0.0806  0.0629  0.1451
    1AU     LIG  400   9.690   8.195   5.952  0.4659 -0.0233 -0.0325
    1AU     LIG  401   9.966   8.505   5.665  0.2328  0.2178 -0.2531
    1AU       S  402   8.586   7.505   5.652 -0.2762 -0.2520  0.1296
    1AU     LIG  403   8.972   7.570   5.810 -0.2230  0.0232 -0.2869
    1AU     LIG  404   9.345   7.640   5.990  0.0159  0.0474 -0.0732
    1AU     LIG  405   9.725   7.713   5.749 -0.2018 -0.2341 -0.0810
    1AU     LIG  406   9.925   7.490   5.463 -0.3370 -0.0328  0.3056
    1AU    AUSL  407   8.404   7.379   6.541  0.0304  0.0513  0.0613
    1AU    AUSL  408   8.099   7.683   6.629 -0.0130 -0.0532  0.0681
    1AU     AUL  409   8.372   7.839   6.730  0.0478  0.1281  0.0120
    1AU       S  410   8.764   7.496   6.669 -0.0637 -0.2040 -0.0943
    1AU     LIG  411   9.128   7.566   6.938  0.0617 -0.0808  0.1699
    1AU     LIG  412   9.265   7.352   7.143  0.1861 -0.1886 -0.1489
    1AU     LIG  413   9.309   6.899   7.396 -0.0281 -0.1407 -0.0477
    1AU     LIG  414   9.212   6.789   7.772 -0.0426 -0.0735  0.2170
    1AU       S  415   8.407   7.918   7.169 -0.0440  0.3644  0.1204
    1AU     LIG  416   8.493   8.231   6.999  0.1755  0.5667 -0.1085
    1AU     LIG  417   8.522   8.328   6.671  0.0424 -0.4390  0.1998
    1AU     LIG  418   8.372   8.713   6.437 -0.0534  0.4416  0.1868
    1AU     LIG  419   8.182   9.043   6.150  0.0681  0.3791 -0.1322
    1AU    AUSL  420   7.098   7.851   6.271 -0.0258 -0.0552 -0.0494
    1AU    AUSL  421   6.991   7.490   6.861  0.0109  0.0416  0.0334
    1AU     AUL  422   6.873   7.784   6.613 -0.0132 -0.0778  0.0351
    1AU       S  423   6.948   7.757   7.102 -0.3633 -0.1327  0.0518
    1AU     LIG  424   6.495   7.657   6.975 -0.5718 -0.1401 -0.1527
    1AU     LIG  425   6.171   7.800   7.041  0.2823  0.0598  0.0486
    1AU     LIG  426   6.105   8.177   6.877  0.2435  0.3170 -0.4942
    1AU     LIG  427   6.442   8.542   6.814 -0.0582 -0.1168  0.0950
    1AU       S  428   6.725   7.849   6.177 -0.1069  0.4244  0.3709
    1AU     LIG  429   6.652   8.145   6.104  0.1830 -0.0810  0.1128
    1AU     LIG  430   6.354   8.277   6.417 -0.3132 -0.0231  0.1389
    1AU     LIG  431   6.024   8.582   6.518  0.4798 -0.0328  0.2971
    1AU     LIG  432   5.825   8.784   6.245  0.0654 -0.0321  0.1269
    1AU    AUSL  433   7.086   7.483   6.035  0.0117 -0.0356  0.0439
    1AU    AUSL  434   7.404   7.799   5.999 -0.0426 -0.0131  0.0455
    1AU     AUL  435   7.115   7.913   5.946 -0.0540  0.0681 -0.0501
    1AU       S  436   6.760   7.615   5.957 -0.2980 -0.0519  0.1029
    1AU     LIG  437   6.391   7.732   5.674 -0.4575 -0.0472  0.2578
    1AU     LIG  438   5.923   7.864   5.530  0.0351 -0.0783 -0.4102
    1AU     LIG  439   5.576   8.156   5.555  0.1239 -0.0230  0.1275
    1AU     LIG  440   5.310   8.447   5.332 -0.0536 -0.1359 -0.1548
    1AU       S  441   7.210   8.165   5.618 -0.1207  0.1627  0.3313
    1AU     LIG  442   7.053   8.543   5.685 -0.0136 -0.0378 -0.2241
    1AU     LIG  443   6.799   8.627   6.082 -0.0551 -0.2797 -0.1485
    1AU     LIG  444   6.809   8.786   6.495  0.4854 -0.1735  0.0944
    1AU     LIG  445   6.529   9.094   6.710  0.2658  0.0784  0.0824
    2POPC   NC3  446   8.613   0.682   8.703 -0.2210 -0.3116  0.0964
    2POPC   PO4  447   8.233   0.521   8.749  0.3923  0.3955  0.0135
    2POPC   GL1  448   8.028   0.376   8.261 -0.3872  0.3459 -0.3370
    2POPC   GL2  449   8.271   0.323   8.345 -0.0429  0.1163  0.1904
    2POPC   C1A  450   7.948   0.390   7.912  0.1857 -0.1565 -0.0626
    2POPC   D2A  451   8.153   0.499   7.505  0.0975  0.0136 -0.0802
    2POPC   C3A  452   8.049   0.883   7.208  0.1773  0.1166  0.2178
    2POPC   C4A  453   7.850   1.246   7.109 -0.1981 -0.0044  0.3372
    2POPC   C1B  454   8.318   0.086   7.943 -0.0157 -0.1042  0.2177
    2POPC   C2B  455   8.268  -0.370   7.784  0.2206 -0.3523 -0.1586
    2POPC   C3B  456   8.295  -0.675   7.493 -0.2047  0.2032  0.3402
    2POPC   C4B  457   8.149  -1.130   7.458  0.1970  0.0412  0.0669
    3POPC   NC3  458   4.163   9.077   8.318  0.2261 -0.5252  0.1365
    3POPC   PO4  459   4.589   9.015   8.380  0.1102  0.2996 -0.0683
    3POPC   GL1  460   4.737   8.715   8.018 -0.1184  0.0846  0.1540
    3POPC   GL2  461   4.512   8.485   7.865  0.0773 -0.2426 -0.2029
    3POPC   C1A  462   4.874   8.912   7.644  0.1130  0.1007 -0.1344
    3POPC   D2A  463   4.860   9.359   7.447  0.0318  0.1821 -0.1322
    3POPC   C3A  464   4.471   9.505   7.309 -0.0107  0.1171 -0.3033
    3POPC   C4A  465   4.047   9.310   7.381 -0.2689 -0.1011  0.2408
    3POPC   C1B  466   4.605   8.516   7.461 -0.0423 -0.0230  0.1336
    3POPC   C2B  467   4.804   8.598   7.169 -0.2941 -0.0687  0.3810
    3POPC   C3B  468   4.845   9.005   7.075 -0.0519 -0.0182  0.1040
    3POPC   C4B  469   4.825   9.459   6.883 -0.0141  0.6046  0.0223
    4POPC   NC3  470   7.080   8.450   9.410 -0.1322  0.2413  0.2709
    4POPC   PO4  471   7.510   8.204   9.336  0.0106  0.1894  0.2145
    4POPC   GL1  472   7.419   8.275   8.933  0.1035  0.1648  0.1004
    4POPC   GL2  473   7.648   8.471   8.841  0.0159  0.3391 -0.1858
    4POPC   C1A  474   7.043   8.407   8.684  0.0544  0.0739 -0.0715
    4POPC   D2A  475   6.853   8.175   8.371  0.0548 -0.0275 -0.3274
    4POPC   C3A  476   6.577   7.984   8.649  0.3755  0.1495  0.1195
    4POPC   C4A  477   6.192   7.792   8.566 -0.2360 -0.0559 -0.1848
    4POPC   C1B  478   7.855   8.545   8.460  0.2519  0.1645  0.0483
    4POPC   C2B  479   7.718   8.254   8.133 -0.2205  0.1516 -0.0677
    4POPC   C3B  480   7.514   7.904   7.939  0.1330  0.4062 -0.2007
    4POPC   C4B  481   7.527   7.463   7.814 -0.0428  0.2133  0.2252
    5POPC   NC3  482   5.810   9.045   9.030 -0.0141  0.0975 -0.2049
    5POPC   PO4  483   5.978   8.677   8.998  0.0528 -0.0045 -0.0305
    5POPC   GL1  484   5.876   8.487   8.639  0.0008  0.1512  0.1342
    5POPC   GL2  485   6.159   8.658   8.471  0.0970 -0.0646 -0.1731
    5POPC   C1A  486   5.696   8.588   8.144  0.3035  0.1011  0.1894
    5POPC   D2A  487   5.643   8.507   7.625 -0.1362  0.4833 -0.0780
    5POPC   C3A  488   5.528   8.922   7.412 -0.1250  0.2770  0.0620
    5POPC   C4A  489   5.779   9.028   7.038  0.2853 -0.1243  0.1544
    5POPC   C1B  490   6.304   8.311   8.380 -0.4352  0.2735  0.0922
    5POPC   C2B  491   5.990   8.076   8.208 -0.1691 -0.0176 -0.2511
    5POPC   C3B  492   5.753   8.055   7.812  0.0380 -0.1329  0.3324
    5POPC   C4B  493   5.367   8.003   7.652 -0.0444  0.2800  0.0455
    6POPC   NC3  494   6.161   7.395   9.257 -0.2256  0.1158  0.1384
    6POPC   PO4  495   5.907   7.122   9.099 -0.0907 -0.0658  0.0201
    6POPC   GL1  496   6.095   7.291   8.740 -0.5367  0.3658 -0.0975
    6POPC   GL2  497   6.317   6.994   8.687  0.2415  0.0700 -0.3474
    6POPC   C1A  498   6.131   7.338   8.336  0.1780 -0.2412  0.1994
    6POPC   D2A  499   6.134   7.687   7.954  0.0595  0.0951  0.7747
    6POPC   C3A  500   6.487   8.048   7.949 -0.1148 -0.1095 -0.2275
    6POPC   C4A  501   6.615   8.475   7.777 -0.2259  0.0787 -0.0194
    6POPC   C1B  502   6.792   6.824   8.622  0.0770 -0.0386  0.2409
    6POPC   C2B  503   6.974   6.710   8.176  0.2527  0.0900  0.1787
    6POPC   C3B  504   7.064   6.418   7.837  0.1206 -0.0160 -0.1975
    6POPC   C4B  505   7.155   6.468   7.355  0.0848  0.1115 -0.2632
    7POPC   NC3  506   0.254   8.210   8.706 -0.1231 -0.1015  0.1634
    7POPC   PO4  507   0.626   8.148   8.468  0.0967  0.2150  0.0160
    7POPC   GL1  508   0.459   8.078   8.063 -0.0122  0.0758 -0.1533
    7POPC   GL2  509   0.748   7.967   7.933 -0.1070 -0.0333  0.0026
    7POPC   C1A  510   0.281   7.915   7.754  0.0492  0.1411 -0.0298
    7POPC   D2A  511  -0.043   7.903   7.439 -0.0716  0.1920  0.5583
    7POPC   C3A  512   0.214   7.860   7.066 -0.0284 -0.4202 -0.2572
    7POPC   C4A  513   0.211   7.942   6.709  0.1091 -0.2688  0.1588
    7POPC   C1B  514   0.698   7.910   7.436 -0.2891  0.0354 -0.0746
    7POPC   C2B  515   0.704   7.886   7.029  0.1573  0.1333  0.0832
    7POPC   C3B  516   0.674   7.727   6.666  0.2207 -0.1172 -0.1521
    7POPC   C4B  517   0.530   7.857   6.246  0.0569  0.0614  0.1376
    8POPC   NC3  518   2.113   4.002   8.150  0.0789 -0.3692 -0.0421
    8POPC   PO4  519   1.782   4.231   8.060 -0.2185 -0.0223 -0.3208
    8POPC   GL1  520   1.892   4.178   7.665 -0.0165  0.0607  0.1219
    8POPC   GL2  521   1.832   3.842   7.770 -0.1740  0.0977  0.3732
    8POPC   C1A  522   1.990   4.276   7.137  0.2506  0.1695 -0.1568
    8POPC   D2A  523   2.138   4.066   6.968  0.2167 -0.0155 -0.0323
    8POPC   C3A  524   2.475   4.071   6.772 -0.1445 -0.2730  0.1001
    8POPC   C4A  525   2.758   4.043   6.486 -0.0241  0.1132 -0.1289
    8POPC   C1B  526   1.983   3.724   7.386 -0.2950  0.1135  0.0225
    8POPC   C2B  527   1.960   3.597   6.857 -0.1032  0.1049 -0.1266
    8POPC   C3B  528   2.206   3.346   6.525  0.0862  0.1900  0.1737
    8POPC   C4B  529   2.325   2.923   6.336  0.2122 -0.2783 -0.0203
    9POPC   NC3  530   2.389   6.999   8.052 -0.0340  0.1888 -0.1010
    9POPC   PO4  531   2.754   7.036   7.997  0.1641  0.2158  0.2931
    9POPC   GL1  532   2.697   6.769   7.626  0.0851  0.2175  0.0270
    9POPC   GL2  533   2.628   6.437   7.494  0.0732 -0.0603 -0.0012
    9POPC   C1A  534   2.550   6.952   7.312 -0.1357  0.0536 -0.0319
    9POPC   D2A  535   2.365   6.936   6.892  0.1338  0.1578  0.0504
    9POPC   C3A  536   2.472   7.028   6.519 -0.0512 -0.2019 -0.1332
    9POPC   C4A  537   2.444   7.113   6.108 -0.0367 -0.1896  0.1926
    9POPC   C1B  538   2.704   6.555   7.082 -0.0043  0.0138  0.1308
    9POPC   C2B  539   2.672   6.570   6.628  0.2585 -0.1769 -0.7886
    9POPC   C3B  540   2.569   6.662   6.189 -0.2016 -0.3065  0.3431
    9POPC   C4B  541   2.297   6.668   5.856  0.1694 -0.1182  0.0086
   10POPC   NC3  542   7.389   5.160   9.129  0.1619  0.1699  0.4273
   10POPC   PO4  543   7.136   4.917   8.827  0.1175 -0.0681  0.0877
   10POPC   GL1  544   7.189   5.019   8.359 -0.0888 -0.1066 -0.0072
   10POPC   GL2  545   6.982   4.707   8.286 -0.1490 -0.1069 -0.0160
   10POPC   C1A  546   7.047   5.168   7.962 -0.2346 -0.0543 -0.1890
   10POPC   D2A  547   7.094   5.477   7.636 -0.2153  0.4576 -0.0977
   10POPC   C3A  548   7.181   5.208   7.218  0.1810  0.0947 -0.0353
   10POPC   C4A  549   7.362   5.044   6.889  0.1824 -0.0774  0.0008
   10POPC   C1B  550   6.643   4.851   7.989 -0.1585  0.2556  0.0297
   10POPC   C2B  551   6.630   5.260   7.694  0.1915 -0.1381 -0.0396
   10POPC   C3B  552   6.686   5.678   7.519 -0.1903 -0.4068 -0.0493
   10POPC   C4B  553   6.286   5.876   7.369  0.1381  0.0871 -0.2054
   11POPC   NC3  554   6.301   6.788   9.228 -0.1456 -0.2014 -0.0237
   11POPC   PO4  555   6.525   7.014   9.416  0.2405 -0.2137 -0.0186
   11POPC   GL1  556   6.728   7.131   9.033 -0.3397  0.0135  0.1455
   11POPC   GL2  557   6.610   7.431   8.970 -0.0138 -0.1137  0.1973
   11POPC   C1A  558   7.094   7.148   8.857 -0.2154 -0.2845 -0.1216
   11POPC   D2A  559   7.483   7.377   8.784  0.2680 -0.4580 -0.1720
   11POPC   C3A  560   7.571   7.816   8.784  0.0023 -0.0482  0.0154
   11POPC   C4A  561   7.389   8.092   8.465  0.2971  0.0783  0.2408
   11POPC   C1B  562   6.667   7.410   8.536 -0.0182  0.0027 -0.1718
   11POPC   C2B  563   6.760   7.305   8.102 -0.0286  0.2497 -0.0916
   11POPC   C3B  564   6.957   7.300   7.705  0.2097  0.3930  0.0671
   11POPC   C4B  565   6.732   7.270   7.322 -0.0319 -0.0310  0.3392
   12POPC   NC3  566   6.946   0.690   8.966  0.3022 -0.1602 -0.0513
   12POPC   PO4  567   6.774   0.596   8.564  0.0226 -0.0786 -0.1688
   12POPC   GL1  568   6.767   0.301   8.253 -0.1087  0.1140 -0.2643
   12POPC   GL2  569   6.956   0.414   8.137 -0.0901 -0.2729 -0.2145
   12POPC   C1A  570   6.800  -0.103   8.058  0.0297 -0.2576  0.2496
   12POPC   D2A  571   6.777  -0.360   7.625  0.2144 -0.1247  0.2166
   12POPC   C3A  572   7.025  -0.134   7.325  0.0484  0.3019  0.0004
   12POPC   C4A  573   7.335  -0.092   7.038 -0.2267  0.1941 -0.0518
   12POPC   C1B  574   6.984   0.283   7.672 -0.2567 -0.1480 -0.0390
   12POPC   C2B  575   6.613   0.230   7.565 -0.3754 -0.1489 -0.1363
   12POPC   C3B  576   6.559   0.056   7.238  0.0548  0.1143  0.1928
   12POPC   C4B  577   6.370  -0.048   6.774 -0.1450 -0.0869  0.2773
   13POPC   NC3  578   9.072   9.244   8.726 -0.1236  0.0833 -0.1499
   13POPC   PO4  579   9.229   9.722   8.748  0.0617  0.0207  0.3092
   13POPC   GL1  580   9.373   9.729   8.362  0.2490  0.0747 -0.2525
   13POPC   GL2  581   9.018   9.547   8.168 -0.1277  0.1241 -0.2329
   13POPC   C1A  582   9.498   9.720   7.951  0.2282  0.1618  0.1487
   13POPC   D2A  583   9.753   9.714   7.634 -0.2963  0.3019  0.1113
   13POPC   C3A  584   9.880   9.833   7.333  0.6212 -0.1084 -0.1566
   13POPC   C4A  585   9.963   9.667   6.948  0.0610  0.1388 -0.0409
   13POPC   C1B  586   9.153   9.473   7.706 -0.1799 -0.3104  0.1305
   13POPC   C2B  587   9.413   9.448   7.344  0.2672  0.1310  0.1144
   13POPC   C3B  588   9.487   9.377   6.946  0.1886  0.1221 -0.0148
   13POPC   C4B  589   9.778   9.259   6.708 -0.2950  0.2542 -0.1106
   14POPC   NC3  590   5.590   3.155   9.003 -0.0336  0.3185  0.0721
   14POPC   PO4  591   5.427   3.025   8.596 -0.0390  0.0815  0.0639
   14POPC   GL1  592   5.519   2.957   8.191 -0.0478  0.2149  0.0717
   14POPC   GL2  593   5.488   3.097   7.896  0.0442 -0.1711  0.0330
   14POPC   C1A  594   5.845   2.757   7.878 -0.0149 -0.5329  0.0768
   14POPC   D2A  595   5.890   2.350   7.777  0.2068 -0.2085 -0.0816
   14POPC   C3A  596   5.770   2.178   7.351  0.1600  0.0738  0.2000
   14POPC   C4A  597   5.540   1.872   7.073 -0.0796 -0.1580  0.0738
   14POPC   C1B  598   5.541   3.132   7.480 -0.2556  0.0544 -0.1435
   14POPC   C2B  599   5.658   2.947   7.060 -0.0407  0.1386  0.2337
   14POPC   C3B  600   5.832   2.640   6.822 -0.1981  0.1031 -0.0306
   14POPC   C4B  601   5.978   2.181   6.878 -0.1536 -0.1473 -0.0034
   15POPC   NC3  602   9.814   4.231   8.464  0.2000 -0.2165  0.1865
   15POPC   PO4  603   9.896   4.645   8.218  0.2208 -0.3108  0.2315
   15POPC   GL1  604  10.005   4.629   7.814 -0.2654 -0.1139  0.1146
   15POPC   GL2  605  10.392   4.582   7.757  0.1360 -0.1601  0.0024
   15POPC   C1A  606   9.921   4.572   7.477  0.2996  0.0976  0.1676
   15POPC   D2A  607   9.597   4.424   7.265  0.0054  0.3090 -0.1671
   15POPC   C3A  608   9.665   4.021   7.020  0.1406  0.2508  0.2477
   15POPC   C4A  609   9.946   3.994   6.646 -0.1215 -0.3728 -0.3345
   15POPC   C1B  610  10.464   4.734   7.288 -0.0918  0.2373 -0.2113
   15POPC   C2B  611  10.541   4.811   6.818 -0.0168 -0.3331 -0.2832
   15POPC   C3B  612  10.684   4.744   6.431 -0.0663  0.1770 -0.0170
   15POPC   C4B  613  11.026   4.732   6.210 -0.2652 -0.0120  0.0377
   16POPC   NC3  614   0.472   0.914   8.426  0.1034  0.1548 -0.2546
   16POPC   PO4  615   0.808   1.177   8.490 -0.0874 -0.1007 -0.2843
   16POPC   GL1  616   0.872   1.505   8.002 -0.0691  0.2674 -0.1463
   16POPC   GL2  617   1.148   1.714   7.849  0.1258 -0.2545 -0.1723
   16POPC   C1A  618   0.720   1.673   7.621  0.1178  0.1336  0.2678
   16POPC   D2A  619   0.516   1.496   7.328  0.2120  0.0117 -0.4283
   16POPC   C3A  620   0.341   1.643   6.976  0.1581 -0.1572 -0.1862
   16POPC   C4A  621   0.504   1.872   6.660  0.2993  0.2433  0.1372
   16POPC   C1B  622   1.282   1.649   7.485  0.0349  0.1096 -0.3832
   16POPC   C2B  623   1.016   1.384   7.349 -0.0837 -0.0729  0.0614
   16POPC   C3B  624   0.839   1.328   6.911  0.1278  0.1507 -0.1348
   16POPC   C4B  625   0.488   1.245   6.689 -0.0156 -0.0254 -0.3314
   17POPC   NC3  626   9.337   1.904   8.351 -0.0672  0.0808 -0.3869
   17POPC   PO4  627   9.184   2.408   8.390 -0.0299  0.1526 -0.3727
   17POPC   GL1  628   9.266   2.555   7.957  0.2730 -0.0702  0.1119
   17POPC   GL2  629   9.553   2.745   7.847  0.3941  0.1979 -0.3318
   17POPC   C1A  630   9.123   2.634   7.587  0.5135 -0.2415 -0.2344
   17POPC   D2A  631   9.101   2.712   7.169  0.3207 -0.0981  0.0402
   17POPC   C3A  632   8.793   2.884   6.960  0.1711  0.0927 -0.2095
   17POPC   C4A  633   8.709   3.347   6.684  0.1336  0.0106  0.2313
   17POPC   C1B  634   9.596   2.636   7.383  0.3560 -0.3934  0.1135
   17POPC   C2B  635   9.435   2.256   7.141 -0.0604  0.0489 -0.1695
   17POPC   C3B  636   9.528   2.050   6.720  0.3229 -0.2725 -0.2030
   17POPC   C4B  637   9.901   1.926   6.798 -0.2607 -0.1006 -0.0116
   18POPC   NC3  638   9.248   3.783   8.417 -0.2394  0.1069  0.0894
   18POPC   PO4  639   9.455   3.499   8.387  0.2461  0.0971 -0.0324
   18POPC   GL1  640   9.647   3.288   8.022 -0.1102 -0.0381 -0.0087
   18POPC   GL2  641   9.996   3.132   7.991  0.2546  0.2252 -0.1732
   18POPC   C1A  642   9.671   3.507   7.688  0.1683 -0.2956  0.1647
   18POPC   D2A  643   9.585   3.768   7.412 -0.1174  0.1848  0.1906
   18POPC   C3A  644   9.940   4.083   7.391  0.2963 -0.2525  0.0786
   18POPC   C4A  645  10.422   4.223   7.423 -0.3693 -0.0234 -0.0344
   18POPC   C1B  646   9.818   3.051   7.558 -0.2033  0.4391  0.0336
   18POPC   C2B  647  10.156   2.769   7.289  0.1275 -0.2142  0.3458
   18POPC   C3B  648  10.533   2.739   7.029 -0.1516  0.0054  0.0530
   18POPC   C4B  649  10.905   2.937   6.873 -0.0240  0.2829 -0.2067
   19POPC   NC3  650   8.720   9.612   8.654  0.1736  0.1972  0.1607
   19POPC   PO4  651   8.409   9.626   8.912 -0.1399  0.2071  0.2750
   19POPC   GL1  652   8.302   9.727   8.417  0.0722  0.0687  0.0778
   19POPC   GL2  653   8.556   9.743   8.208 -0.0973  0.0019 -0.3497
   19POPC   C1A  654   8.025   9.395   8.132  0.1453 -0.1978 -0.4597
   19POPC   D2A  655   7.848   9.334   7.734 -0.0307  0.2713 -0.1182
   19POPC   C3A  656   7.705   9.054   7.447  0.2432  0.2068  0.1661
   19POPC   C4A  657   7.742   8.598   7.237 -0.1455 -0.0091 -0.2519
   19POPC   C1B  658   8.762   9.823   7.750 -0.1879  0.2737 -0.2152
   19POPC   C2B  659   8.978   9.694   7.326  0.0211  0.1083  0.3244
   19POPC   C3B  660   9.058   9.628   6.883  0.1088  0.0917  0.3033
   19POPC   C4B  661   8.904   9.723   6.542 -0.1252 -0.2317  0.1596
   20POPC   NC3  662   5.295   3.388   8.290  0.0876 -0.1440 -0.2164
   20POPC   PO4  663   5.024   3.849   8.461  0.1909  0.0123 -0.1219
   20POPC   GL1  664   5.065   4.065   8.097  0.1541  0.0428  0.0918
   20POPC   GL2  665   4.825   4.198   7.977  0.1204 -0.0118  0.1719
   20POPC   C1A  666   5.201   4.002   7.541  0.1171  0.2251 -0.1605
   20POPC   D2A  667   5.386   4.126   7.141  0.1514  0.1320  0.0926
   20POPC   C3A  668   5.098   4.410   6.925  0.1110  0.1313  0.3912
   20POPC   C4A  669   4.861   4.830   7.016  0.0837  0.0702  0.1329
   20POPC   C1B  670   4.532   4.024   7.662 -0.0927 -0.0018 -0.1467
   20POPC   C2B  671   4.412   4.031   7.306  0.0234  0.0658  0.1244
   20POPC   C3B  672   4.311   3.903   6.883 -0.0728  0.1737  0.2401
   20POPC   C4B  673   4.209   3.778   6.525  0.3614  0.0593 -0.1497
   21POPC   NC3  674   2.565   8.521   8.088  0.0363  0.0168 -0.0906
   21POPC   PO4  675   2.799   8.761   8.189 -0.0664 -0.1184 -0.1488
   21POPC   GL1  676   2.519   8.923   7.851  0.2224  0.1782 -0.1420
   21POPC   GL2  677   2.512   8.646   7.529 -0.0067 -0.1601 -0.1183
   21POPC   C1A  678   2.242   9.035   7.488  0.1281  0.0671  0.0747
   21POPC   D2A  679   1.867   9.039   7.176 -0.0472 -0.0392  0.2519
   21POPC   C3A  680   1.778   9.044   6.781 -0.1734 -0.0334  0.0976
   21POPC   C4A  681   2.128   8.899   6.432 -0.1321  0.1593  0.1010
   21POPC   C1B  682   2.561   8.262   7.232 -0.1895 -0.0199  0.0099
   21POPC   C2B  683   2.519   8.219   6.795  0.1867 -0.0063  0.1567
   21POPC   C3B  684   2.459   7.953   6.479 -0.2057 -0.2958 -0.1490
   21POPC   C4B  685   2.418   7.583   6.552 -0.3229 -0.4204 -0.1663
   22POPC   NC3  686   5.096   2.097   8.416 -0.0652  0.3719  0.3522
   22POPC   PO4  687   5.355   1.795   8.401  0.0833  0.0345  0.0521
   22POPC   GL1  688   5.575   1.974   8.077  0.1418 -0.0681 -0.0166
   22POPC   GL2  689   5.615   2.297   8.315  0.0730  0.0306 -0.0094
   22POPC   C1A  690   5.773   1.853   7.698 -0.0047  0.1594 -0.0678
   22POPC   D2A  691   5.950   1.557   7.365 -0.0839  0.2436 -0.1367
   22POPC   C3A  692   5.873   1.318   7.731 -0.0470 -0.0855  0.2179
   22POPC   C4A  693   5.978   1.357   8.028  0.2637  0.0136  0.0843
   22POPC   C1B  694   5.401   2.504   7.970 -0.1306  0.2259 -0.3397
   22POPC   C2B  695   5.365   2.183   7.682 -0.1743 -0.0430  0.1104
   22POPC   C3B  696   5.137   1.723   7.556 -0.0784 -0.1148  0.0650
   22POPC   C4B  697   4.790   1.590   7.289  0.2311  0.0616 -0.1596
   23POPC   NC3  698   6.737   4.545   8.666  0.3618  0.0516 -0.2616
   23POPC   PO4  699   6.979   4.120   8.620 -0.0124 -0.2220  0.0242
   23POPC   GL1  700   6.973   4.212   8.191 -0.2102 -0.2996 -0.3315
   23POPC   GL2  701   7.039   3.923   7.955 -0.2701 -0.0234 -0.0934
   23POPC   C1A  702   6.799   4.405   7.871  0.1420  0.1283 -0.2665
   23POPC   D2A  703   6.507   4.272   7.538 -0.1606 -0.4751 -0.1017
   23POPC   C3A  704   6.234   4.511   7.355  0.0981  0.2705  0.2675
   23POPC   C4A  705   6.179   4.877   7.045  0.1675  0.2581  0.0113
   23POPC   C1B  706   6.753   3.855   7.597  0.0117  0.2098  0.2915
   23POPC   C2B  707   6.517   3.741   7.248  0.1461 -0.1915  0.1840
   23POPC   C3B  708   6.123   3.849   7.115 -0.0117 -0.0690  0.0064
   23POPC   C4B  709   5.806   3.790   6.832  0.2404  0.0708 -0.0437
   24POPC   NC3  710   5.089   6.436   8.662  0.0154 -0.0382  0.0277
   24POPC   PO4  711   4.737   6.414   8.400 -0.2008 -0.1762  0.0643
   24POPC   GL1  712   4.727   6.471   8.010 -0.0624 -0.4007  0.2867
   24POPC   GL2  713   4.454   6.484   7.942 -0.0628 -0.0092  0.1351
   24POPC   C1A  714   4.731   6.616   7.538 -0.1012 -0.0369 -0.1630
   24POPC   D2A  715   4.841   6.737   7.127 -0.1170 -0.2272  0.1952
   24POPC   C3A  716   4.625   6.518   6.783 -0.3150  0.1750 -0.1253
   24POPC   C4A  717   4.182   6.354   6.766  0.2660 -0.0872 -0.0568
   24POPC   C1B  718   4.392   6.264   7.618  0.0317  0.0047 -0.1991
   24POPC   C2B  719   4.135   6.070   7.259  0.1684 -0.0183  0.2151
   24POPC   C3B  720   4.029   5.755   6.875  0.2777  0.1080  0.3834
   24POPC   C4B  721   3.933   5.690   6.473  0.2645 -0.0548 -0.2731
   25POPC   NC3  722   8.603   7.935   9.607  0.1537  0.0538  0.0074
   25POPC   PO4  723   8.919   8.226   9.378  0.5779  0.2893  0.3832
   25POPC   GL1  724   8.872   8.165   8.908  0.0764 -0.5088 -0.0741
   25POPC   GL2  725   9.218   8.157   8.674  0.1338 -0.0848 -0.3287
   25POPC   C1A  726   8.761   8.272   8.457  0.3114 -0.0973 -0.1346
   25POPC   D2A  727   8.725   8.297   8.012 -0.3191  0.0456  0.2358
   25POPC   C3A  728   8.457   8.192   7.644 -0.0667 -0.1687 -0.2922
   25POPC   C4A  729   8.219   8.394   7.361 -0.2096  0.3124 -0.0313
   25POPC   C1B  730   9.215   7.930   8.240  0.0986  0.0434 -0.2073
   25POPC   C2B  731   9.098   7.843   7.896 -0.3986 -0.0301  0.1591
   25POPC   C3B  732   8.952   8.098   7.534  0.0324 -0.4097 -0.0115
   25POPC   C4B  733   9.195   8.514   7.350  0.0026 -0.1527 -0.0508
   26POPC   NC3  734   5.841   4.566   8.686 -0.0155  0.1597  0.1745
   26POPC   PO4  735   6.245   4.587   8.664 -0.1774  0.0610  0.3550
   26POPC   GL1  736   6.078   4.678   8.195 -0.1360  0.1207  0.2010
   26POPC   GL2  737   5.818   4.910   8.255 -0.0096 -0.2496  0.0014
   26POPC   C1A  738   6.092   4.433   7.877  0.1525  0.4971 -0.2160
   26POPC   D2A  739   5.725   4.138   7.855 -0.1417 -0.0067 -0.0482
   26POPC   C3A  740   5.274   4.432   7.740 -0.0796 -0.1201 -0.1254
   26POPC   C4A  741   5.173   4.628   7.365  0.1298  0.2070 -0.1974
   26POPC   C1B  742   5.721   5.102   7.776 -0.0805 -0.1531  0.1410
   26POPC   C2B  743   5.772   5.087   7.341  0.2430 -0.2318  0.3463
   26POPC   C3B  744   5.902   5.299   6.940 -0.0147  0.5023 -0.2648
   26POPC   C4B  745   5.924   5.541   6.595 -0.2076  0.0595  0.0102
   27POPC   NC3  746   2.457   7.743   8.167  0.3161 -0.0043  0.2719
   27POPC   PO4  747   1.950   7.783   8.267 -0.0557  0.1624  0.0994
   27POPC   GL1  748   2.008   7.857   7.764 -0.2989 -0.2360 -0.1147
   27POPC   GL2  749   1.899   7.709   7.483  0.2959  0.1873  0.0900
   27POPC   C1A  750   2.362   7.863   7.462 -0.1748  0.1113 -0.4174
   27POPC   D2A  751   2.588   7.730   7.077  0.0408 -0.1166 -0.0758
   27POPC   C3A  752   2.677   7.313   6.923 -0.0948  0.0019 -0.1836
   27POPC   C4A  753   2.923   7.006   6.876 -0.0540  0.0117  0.0234
   27POPC   C1B  754   1.685   7.760   7.100  0.2132 -0.2421  0.0602
   27POPC   C2B  755   1.556   7.865   6.702  0.1193  0.1847 -0.4476
   27POPC   C3B  756   1.464   7.733   6.290 -0.0487 -0.0811  0.0059
   27POPC   C4B  757   1.456   7.317   6.108  0.0641  0.0512 -0.2291
   28POPC   NC3  758   3.765   3.675   8.905 -0.3784 -0.1274 -0.1780
   28POPC   PO4  759   3.677   3.563   8.498 -0.0436  0.2363 -0.3872
   28POPC   GL1  760   3.735   3.775   8.091 -0.1334 -0.0736  0.2122
   28POPC   GL2  761   4.066   3.598   8.126  0.3140 -0.2394  0.2520
   28POPC   C1A  762   3.782   3.830   7.688 -0.1214  0.2138  0.2472
   28POPC   D2A  763   3.972   3.724   7.214 -0.3328  0.1441  0.0113
   28POPC   C3A  764   4.361   3.428   7.208 -0.0580  0.2919  0.0800
   28POPC   C4A  765   4.657   3.087   7.367  0.1606 -0.1399 -0.3286
   28POPC   C1B  766   4.289   3.581   7.662 -0.1809  0.1987 -0.2125
   28POPC   C2B  767   4.730   3.653   7.463 -0.2320 -0.1582 -0.0276
   28POPC   C3B  768   4.886   3.950   7.106 -0.0289 -0.3577 -0.0869
   28POPC   C4B  769   4.825   4.009   6.693  0.3091  0.2623 -0.2735
   29POPC   NC3  770   7.930   5.194   9.109 -0.1539 -0.2049 -0.1301
   29POPC   PO4  771   7.860   4.929   8.734 -0.0290  0.0118 -0.0211
   29POPC   GL1  772   7.773   5.029   8.331 -0.1452  0.2247  0.1918
   29POPC   GL2  773   7.806   4.802   8.075 -0.0744 -0.1244  0.1174
   29POPC   C1A  774   8.047   5.206   7.932 -0.0199 -0.0037 -0.0880
   29POPC   D2A  775   8.123   5.124   7.580 -0.0574 -0.3768 -0.0172
   29POPC   C3A  776   8.228   5.506   7.309 -0.2011 -0.2811  0.2815
   29POPC   C4A  777   8.454   5.812   7.205  0.1683  0.0575  0.1389
   29POPC   C1B  778   7.408   4.720   8.058 -0.0150 -0.0980 -0.0135
   29POPC   C2B  779   7.122   4.704   7.694 -0.3636 -0.1153 -0.3037
   29POPC   C3B  780   7.207   4.694   7.279 -0.0923 -0.0574  0.1362
   29POPC   C4B  781   7.356   4.555   6.912 -0.1207  0.0767  0.0197
   30POPC   NC3  782   8.525   4.716   8.583 -0.0146  0.1427  0.2016
   30POPC   PO4  783   8.236   4.718   8.346 -0.1724  0.0918 -0.2231
   30POPC   GL1  784   8.232   4.735   7.927  0.0977 -0.1981 -0.0921
   30POPC   GL2  785   8.517   4.408   8.036 -0.0154  0.1113  0.1657
   30POPC   C1A  786   8.299   4.649   7.505  0.0973  0.1543  0.1434
   30POPC   D2A  787   8.407   4.754   7.062  0.0246 -0.0712  0.2558
   30POPC   C3A  788   8.664   4.374   6.872 -0.0288  0.0378  0.1300
   30POPC   C4A  789   9.006   4.174   6.609  0.2050 -0.0963 -0.2361
   30POPC   C1B  790   8.740   4.462   7.721  0.0702 -0.1444  0.0011
   30POPC   C2B  791   8.777   4.705   7.428 -0.1031 -0.0806 -0.0883
   30POPC   C3B  792   9.219   4.694   7.216  0.2565 -0.1364 -0.1725
   30POPC   C4B  793   9.183   4.684   6.734  0.1805  0.1842 -0.1088
   31POPC   NC3  794   9.407   1.033   8.544  0.2255  0.1380 -0.3035
   31POPC   PO4  795   9.095   0.830   8.726  0.0030 -0.0549 -0.1660
   31POPC   GL1  796   9.007   0.760   8.348 -0.0530  0.1909  0.1631
   31POPC   GL2  797   8.904   0.458   8.379 -0.1572  0.0219  0.3086
   31POPC   C1A  798   9.068   0.633   7.919 -0.1857 -0.1036  0.3036
   31POPC   D2A  799   9.154   0.584   7.494  0.3917  0.1905 -0.0643
   31POPC   C3A  800   9.005   0.758   7.121  0.0127 -0.0295 -0.2555
   31POPC   C4A  801   8.822   0.655   6.805  0.0866  0.2571  0.0798
   31POPC   C1B  802   8.959   0.147   8.149 -0.3357  0.1995 -0.0939
   31POPC   C2B  803   9.221   0.115   7.695 -0.0553 -0.3402 -0.2634
   31POPC   C3B  804   9.392   0.009   7.323  0.2399  0.1762 -0.1106
   31POPC   C4B  805   9.529  -0.000   6.904  0.0364 -0.2085  0.2862
   32POPC   NC3  806   2.439   9.902   8.358  0.1112 -0.3211 -0.1001
   32POPC   PO4  807   2.349  10.285   8.125 -0.1680  0.0202 -0.0639
   32POPC   GL1  808   2.188  10.464   7.706 -0.0184 -0.1791 -0.0441
   32POPC   GL2  809   2.228  10.778   7.911 -0.0227  0.1241 -0.1225
   32POPC   C1A  810   2.333  10.703   7.321 -0.0586  0.0807 -0.3462
   32POPC   D2A  811   2.626  10.578   6.984 -0.1852  0.0117  0.0445
   32POPC   C3A  812   2.408  10.359   6.567  0.1477  0.2014  0.0603
   32POPC   C4A  813   2.423  10.173   6.148 -0.0551  0.2651  0.0136
   32POPC   C1B  814   2.527  10.977   7.720  0.1861 -0.0259 -0.2593
   32POPC   C2B  815   2.818  11.011   7.376  0.0181 -0.1670 -0.1636
   32POPC   C3B  816   3.049  10.820   6.982 -0.0574 -0.4309 -0.2288
   32POPC   C4B  817   3.287  10.436   6.862  0.0501 -0.3020 -0.0510
   33POPC   NC3  818   7.800   3.717   8.887 -0.2384  0.0460 -0.2177
   33POPC   PO4  819   7.874   3.964   8.495 -0.2359 -0.0651 -0.1042
   33POPC   GL1  820   7.955   4.244   8.175  0.0446  0.0653  0.0137
   33POPC   GL2  821   7.611   4.270   8.084  0.3072 -0.2292 -0.0917
   33POPC   C1A  822   7.894   4.373   7.686 -0.0742  0.2779  0.2378
   33POPC   D2A  823   7.788   4.285   7.313  0.3224  0.1632 -0.1072
   33POPC   C3A  824   7.843   4.546   6.944 -0.0186  0.0341 -0.1691
   33POPC   C4A  825   7.795   4.912   6.627 -0.0501  0.3121  0.3133
   33POPC   C1B  826   7.378   4.260   7.718  0.0941  0.0374  0.0546
   33POPC   C2B  827   6.995   4.314   7.447  0.1174 -0.1538  0.2081
   33POPC   C3B  828   6.954   4.266   7.021 -0.0510 -0.0984  0.0383
   33POPC   C4B  829   7.038   4.284   6.520  0.0291 -0.0797  0.2972
   34POPC   NC3  830   4.451   8.306   8.797 -0.0723  0.1768  0.2114
   34POPC   PO4  831   4.268   8.570   8.610 -0.1486 -0.0086  0.0847
   34POPC   GL1  832   4.089   8.646   8.085  0.1286 -0.1823  0.1408
   34POPC   GL2  833   3.914   8.953   7.946 -0.2655 -0.2540  0.0931
   34POPC   C1A  834   4.107   8.691   7.606  0.0542 -0.1124  0.3363
   34POPC   D2A  835   3.940   8.832   7.192  0.3770  0.1044 -0.0134
   34POPC   C3A  836   3.846   9.068   6.892  0.3565 -0.0294 -0.1980
   34POPC   C4A  837   3.757   9.224   6.427 -0.1025  0.0780 -0.2893
   34POPC   C1B  838   3.582   9.099   7.638 -0.0814  0.1097  0.0310
   34POPC   C2B  839   3.517   9.221   7.239 -0.3378  0.1482 -0.1663
   34POPC   C3B  840   3.432   9.451   6.876  0.3147 -0.0434 -0.0447
   34POPC   C4B  841   3.315   9.883   6.673 -0.2020  0.0970  0.1325
   35POPC   NC3  842   3.679   2.719   8.576  0.0249 -0.1876 -0.1252
   35POPC   PO4  843   3.439   3.089   8.459 -0.1348  0.2271 -0.2000
   35POPC   GL1  844   3.376   2.780   8.129 -0.1557 -0.0674  0.2689
   35POPC   GL2  845   3.063   2.662   8.053 -0.2439  0.1261  0.2251
   35POPC   C1A  846   3.586   2.615   7.851 -0.1459 -0.0552  0.0607
   35POPC   D2A  847   3.625   2.748   7.369  0.1308 -0.0702  0.3953
   35POPC   C3A  848   3.939   2.965   7.174 -0.0499  0.0180 -0.2729
   35POPC   C4A  849   3.837   3.356   6.875  0.2165  0.4809 -0.2566
   35POPC   C1B  850   3.198   2.651   7.546 -0.1722 -0.1515  0.2424
   35POPC   C2B  851   3.156   2.491   7.078 -0.2978  0.2032  0.3285
   35POPC   C3B  852   2.894   2.286   6.809 -0.0883  0.3162  0.4444
   35POPC   C4B  853   2.740   2.139   6.354  0.0044  0.2582 -0.0930
   36POPC   NC3  854   7.076   2.083   8.631 -0.2312  0.0939  0.2039
   36POPC   PO4  855   6.592   2.110   8.597 -0.1276  0.3025  0.2264
   36POPC   GL1  856   6.715   2.352   8.231  0.0658 -0.0705  0.0341
   36POPC   GL2  857   6.560   2.162   8.032 -0.0902 -0.0706 -0.0691
   36POPC   C1A  858   6.722   2.742   7.944  0.1100  0.0584  0.1317
   36POPC   D2A  859   6.890   2.626   7.446 -0.1227 -0.1502 -0.3243
   36POPC   C3A  860   6.677   2.695   7.109  0.0368 -0.0544 -0.1554
   36POPC   C4A  861   6.491   2.444   6.988 -0.1452  0.0203 -0.0019
   36POPC   C1B  862   7.046   2.289   7.858  0.0846 -0.0117  0.1084
   36POPC   C2B  863   7.410   2.517   7.761  0.0305  0.1480  0.0116
   36POPC   C3B  864   7.404   2.599   7.331 -0.1655 -0.1858 -0.2284
   36POPC   C4B  865   7.445   2.809   6.995  0.2942  0.0619  0.0881
   37POPC   NC3  866   7.932   3.500   8.327 -0.0564  0.1058 -0.0017
   37POPC   PO4  867   8.342   3.341   8.374  0.2119  0.2212  0.2675
   37POPC   GL1  868   8.152   3.143   8.017  0.3494  0.3830  0.0424
   37POPC   GL2  869   7.944   3.338   7.840  0.2195 -0.4066  0.2440
   37POPC   C1A  870   8.208   2.853   7.623  0.2014  0.1477  0.0490
   37POPC   D2A  871   8.412   2.887   7.290 -0.2138  0.0405 -0.2334
   37POPC   C3A  872   8.165   2.867   6.987  0.1858  0.0426  0.2093
   37POPC   C4A  873   8.375   2.635   6.617  0.0043  0.0351 -0.3546
   37POPC   C1B  874   7.691   3.475   7.609  0.3680  0.0199  0.2391
   37POPC   C2B  875   7.340   3.784   7.535 -0.1719 -0.2731  0.1133
   37POPC   C3B  876   7.331   4.029   7.159 -0.1773 -0.0651 -0.1402
   37POPC   C4B  877   7.288   3.898   6.666 -0.0592  0.2304  0.0048
   38POPC   NC3  878   4.431   1.952   8.728  0.2116  0.2611  0.0635
   38POPC   PO4  879   4.419   2.456   8.629  0.1067 -0.0563 -0.1477
   38POPC   GL1  880   4.693   2.490   8.306  0.3263  0.1343 -0.1876
   38POPC   GL2  881   4.955   2.561   8.109 -0.0734  0.1540  0.0155
   38POPC   C1A  882   4.504   2.564   7.951 -0.1099  0.1131 -0.1836
   38POPC   D2A  883   4.487   2.501   7.470 -0.2448 -0.0916 -0.1085
   38POPC   C3A  884   4.441   2.742   7.099 -0.1218 -0.0282  0.0576
   38POPC   C4A  885   4.779   2.935   6.863 -0.2904 -0.2570 -0.1727
   38POPC   C1B  886   4.880   2.729   7.669  0.2078 -0.1773 -0.3882
   38POPC   C2B  887   5.095   2.784   7.224 -0.0351  0.0439 -0.0008
   38POPC   C3B  888   5.325   2.788   6.766  0.0871 -0.3449 -0.0356
   38POPC   C4B  889   5.371   2.619   6.429 -0.1993  0.2261 -0.1892
   39POPC   NC3  890   0.935   3.758   8.611 -0.0686  0.2092 -0.0162
   39POPC   PO4  891   0.547   3.864   8.306 -0.3626 -0.2748 -0.0793
   39POPC   GL1  892   0.507   3.824   7.912 -0.0853 -0.1062 -0.3100
   39POPC   GL2  893   0.162   3.729   7.761 -0.0183 -0.1667 -0.1820
   39POPC   C1A  894   0.548   3.727   7.447  0.0348 -0.0135 -0.2003
   39POPC   D2A  895   0.331   3.929   7.041 -0.0482  0.4546 -0.0135
   39POPC   C3A  896   0.183   4.354   7.009  0.0989 -0.0413  0.0500
   39POPC   C4A  897  -0.137   4.569   6.820 -0.0646 -0.2689 -0.0088
   39POPC   C1B  898   0.112   3.520   7.332  0.0830 -0.3134 -0.1206
   39POPC   C2B  899  -0.129   3.545   6.962 -0.1505  0.0033 -0.1645
   39POPC   C3B  900  -0.388   3.155   6.828  0.1027  0.0281 -0.2180
   39POPC   C4B  901  -0.414   2.814   6.564  0.0949 -0.0314 -0.0003
   40POPC   NC3  902   7.882   1.554   8.452  0.2319 -0.0393  0.0867
   40POPC   PO4  903   7.687   1.110   8.596 -0.0631  0.0758  0.2366
   40POPC   GL1  904   7.768   0.870   8.207  0.3228 -0.1079  0.0050
   40POPC   GL2  905   7.517   0.736   8.234  0.0131  0.1392  0.2477
   40POPC   C1A  906   7.717   0.812   7.814 -0.1330 -0.1202 -0.1139
   40POPC   D2A  907   7.637   1.037   7.505 -0.1214 -0.0016  0.2582
   40POPC   C3A  908   7.262   1.175   7.496  0.1239 -0.0682 -0.1714
   40POPC   C4A  909   6.845   1.246   7.540 -0.2502 -0.4852  0.1539
   40POPC   C1B  910   7.371   1.188   8.030  0.0005 -0.0704 -0.2559
   40POPC   C2B  911   7.259   1.545   7.862 -0.1330  0.1251  0.0539
   40POPC   C3B  912   7.131   1.697   7.496  0.0892 -0.1143 -0.0317
   40POPC   C4B  913   6.847   1.539   7.159 -0.3508 -0.3923 -0.0101
   41POPC   NC3  914   2.731   6.186   8.336  0.2390 -0.4923  0.0386
   41POPC   PO4  915   2.425   6.516   8.004  0.4653  0.0920  0.0130
   41POPC   GL1  916   2.228   6.688   7.674 -0.0210  0.2006  0.1013
   41POPC   GL2  917   2.070   6.954   7.620 -0.0199 -0.0017  0.4412
   41POPC   C1A  918   2.110   6.525   7.308  0.2144  0.2124 -0.3291
   41POPC   D2A  919   2.224   6.294   6.978  0.0299  0.1762  0.0910
   41POPC   C3A  920   2.164   6.574   6.567  0.0105  0.1975 -0.0468
   41POPC   C4A  921   2.052   6.886   6.285  0.1054 -0.1532 -0.0249
   41POPC   C1B  922   1.970   6.957   7.148  0.1947 -0.0601  0.1482
   41POPC   C2B  923   1.798   6.831   6.757  0.0422  0.0367 -0.2402
   41POPC   C3B  924   1.616   6.632   6.411  0.1658  0.0864  0.2940
   41POPC   C4B  925   1.793   6.494   5.996 -0.2254  0.2705 -0.3849
   42POPC   NC3  926   5.018   7.938   9.432 -0.1267  0.0626  0.3058
   42POPC   PO4  927   5.332   7.819   9.178  0.1799 -0.0496  0.0998
   42POPC   GL1  928   5.351   7.814   8.665  0.2092  0.1606 -0.0679
   42POPC   GL2  929   5.659   8.006   8.650  0.2163  0.4130 -0.0793
   42POPC   C1A  930   5.258   7.890   8.243  0.3373  0.2738  0.1131
   42POPC   D2A  931   5.035   7.683   7.873  0.3183 -0.2106 -0.0063
   42POPC   C3A  932   5.105   7.616   7.490 -0.2348 -0.2845 -0.0384
   42POPC   C4A  933   5.129   7.380   7.140  0.1544 -0.1583 -0.1291
   42POPC   C1B  934   5.723   7.664   8.353  0.0536 -0.0906 -0.0456
   42POPC   C2B  935   5.645   7.561   7.880  0.0284  0.2390  0.0452
   42POPC   C3B  936   5.694   7.655   7.475 -0.4191  0.0585 -0.0752
   42POPC   C4B  937   5.692   8.110   7.276  0.0134  0.2769 -0.1732
   43POPC   NC3  938   5.791   6.769   8.719  0.0634 -0.2211 -0.0824
   43POPC   PO4  939   5.356   6.773   8.496  0.3734 -0.2459  0.0520
   43POPC   GL1  940   5.228   6.603   8.198 -0.2953 -0.0281 -0.0245
   43POPC   GL2  941   5.020   6.869   7.860 -0.1605  0.0316 -0.0005
   43POPC   C1A  942   5.217   6.428   7.739 -0.0427  0.0648 -0.0190
   43POPC   D2A  943   4.947   6.197   7.516  0.0900  0.1029 -0.0622
   43POPC   C3A  944   4.625   6.218   7.190 -0.0469  0.3023 -0.0480
   43POPC   C4A  945   4.327   6.613   7.220 -0.1946  0.1456 -0.1969
   43POPC   C1B  946   5.273   7.079   7.498  0.1502 -0.0274  0.0532
   43POPC   C2B  947   5.317   6.962   7.079 -0.1559  0.1835 -0.3675
   43POPC   C3B  948   5.322   7.230   6.704  0.2370 -0.1511 -0.3048
   43POPC   C4B  949   5.305   7.358   6.285 -0.2152 -0.1384 -0.4212
   44POPC   NC3  950   1.312   4.435   8.143 -0.1872 -0.3744  0.4717
   44POPC   PO4  951   1.383   4.874   7.929  0.0040 -0.3038  0.2899
   44POPC   GL1  952   1.585   4.597   7.602 -0.0993  0.0312 -0.0503
   44POPC   GL2  953   1.865   4.701   7.360  0.2104  0.2151 -0.2771
   44POPC   C1A  954   1.470   4.211   7.316 -0.0792 -0.0018  0.1323
   44POPC   D2A  955   1.597   3.928   7.068 -0.1249 -0.2334  0.0522
   44POPC   C3A  956   1.329   4.044   6.799  0.4783  0.0987  0.1335
   44POPC   C4A  957   1.119   4.449   6.722  0.1144 -0.0064  0.2075
   44POPC   C1B  958   2.336   4.693   7.200 -0.1642  0.1879  0.0702
   44POPC   C2B  959   2.681   4.502   6.849 -0.3247  0.1428 -0.0322
   44POPC   C3B  960   3.058   4.451   6.656  0.0182  0.2587 -0.1386
   44POPC   C4B  961   3.163   4.344   6.230 -0.0405 -0.0449  0.2479
   45POPC   NC3  962   4.311   5.125   8.358  0.1640  0.1765 -0.0228
   45POPC   PO4  963   4.522   5.291   8.627 -0.1101 -0.3159 -0.0818
   45POPC   GL1  964   4.570   5.523   8.186  0.4576  0.1193  0.0080
   45POPC   GL2  965   4.376   5.599   8.092  0.2115  0.0340  0.1186
   45POPC   C1A  966   4.762   5.376   7.738  0.2608  0.0933 -0.2500
   45POPC   D2A  967   4.680   5.313   7.282 -0.1398 -0.2071  0.0842
   45POPC   C3A  968   4.904   5.444   6.859  0.0518  0.0674 -0.1340
   45POPC   C4A  969   5.096   5.812   6.526  0.2697 -0.0599  0.1971
   45POPC   C1B  970   4.200   5.641   7.606  0.2227  0.1554  0.0806
   45POPC   C2B  971   4.171   5.421   7.231  0.0188  0.0776  0.1099
   45POPC   C3B  972   4.466   5.676   6.966 -0.0335 -0.1817 -0.0310
   45POPC   C4B  973   4.560   5.973   6.682 -0.0677  0.0576 -0.3218
   46POPC   NC3  974   3.361   8.363   8.600  0.1369  0.0212  0.1696
   46POPC   PO4  975   3.385   7.987   8.400 -0.2251  0.1087 -0.0883
   46POPC   GL1  976   3.463   7.991   7.941 -0.1009 -0.0498 -0.2093
   46POPC   GL2  977   3.151   7.854   7.739 -0.2226 -0.1489  0.2422
   46POPC   C1A  978   3.433   8.270   7.594 -0.0326  0.0463 -0.2553
   46POPC   D2A  979   3.471   8.711   7.360  0.0110 -0.0623 -0.2094
   46POPC   C3A  980   3.395   8.768   6.897  0.1359  0.1184 -0.2662
   46POPC   C4A  981   3.313   9.089   6.557 -0.2323 -0.2776  0.1701
   46POPC   C1B  982   2.922   7.951   7.486 -0.0031 -0.0135  0.0050
   46POPC   C2B  983   3.047   7.910   7.063 -0.1107 -0.2498 -0.0584
   46POPC   C3B  984   2.898   7.685   6.622 -0.0144 -0.1551 -0.1776
   46POPC   C4B  985   2.899   7.277   6.410 -0.0151  0.2504  0.2474
   47POPC   NC3  986   3.618   7.713   8.716  0.2355 -0.0664  0.0820
   47POPC   PO4  987   3.899   7.788   8.277 -0.0080  0.0262  0.0584
   47POPC   GL1  988   3.953   7.995   7.929  0.0871  0.2216 -0.1400
   47POPC   GL2  989   3.933   8.213   7.743  0.0027  0.1750 -0.0492
   47POPC   C1A  990   4.005   7.793   7.464 -0.1247  0.0357  0.3115
   47POPC   D2A  991   3.770   7.548   7.112 -0.1156 -0.0427 -0.0312
   47POPC   C3A  992   3.948   7.534   6.682  0.0905 -0.0680 -0.2903
   47POPC   C4A  993   4.162   7.499   6.229 -0.3543  0.4412 -0.0713
   47POPC   C1B  994   3.942   8.283   7.293 -0.2566  0.1732  0.2856
   47POPC   C2B  995   4.285   8.506   6.960 -0.2601 -0.0002  0.1246
   47POPC   C3B  996   4.577   8.732   6.755 -0.2204 -0.2233 -0.0604
   47POPC   C4B  997   4.676   8.858   6.309 -0.0485 -0.1220  0.0829
   48POPC   NC3  998   1.120   5.243   7.998 -0.1890 -0.4700  0.1362
   48POPC   PO4  999   1.440   5.588   7.979 -0.1181 -0.2521  0.0123
   48POPC   GL1 1000   1.378   5.388   7.591 -0.2111 -0.1745  0.0895
   48POPC   GL2 1001   1.096   5.168   7.497  0.0328 -0.3902 -0.0292
   48POPC   C1A 1002   1.494   5.043   7.186 -0.2326  0.0917 -0.1452
   48POPC   D2A 1003   1.836   4.981   6.919  0.0918  0.0203  0.3355
   48POPC   C3A 1004   1.897   5.301   6.522 -0.2273 -0.0036 -0.0465
   48POPC   C4A 1005   1.924   5.606   6.181 -0.0176  0.0278  0.0512
   48POPC   C1B 1006   0.938   5.468   7.223 -0.1964 -0.1193  0.1400
   48POPC   C2B 1007   0.731   5.797   6.991  0.2020  0.2014  0.1348
   48POPC   C3B 1008   0.758   5.904   6.593 -0.3866  0.0189 -0.3222
   48POPC   C4B 1009   1.024   5.891   6.296 -0.0237  0.0492 -0.0128
   49POPC   NC3 1010   6.043   3.702   8.404  0.0641 -0.0250  0.3296
   49POPC   PO4 1011   6.082   3.299   8.633 -0.0789  0.2159 -0.1120
   49POPC   GL1 1012   5.975   3.187   8.239  0.0528 -0.1276  0.2835
   49POPC   GL2 1013   5.807   3.352   8.126  0.0936  0.0778  0.1558
   49POPC   C1A 1014   6.297   3.155   7.855 -0.1184  0.0579 -0.0387
   49POPC   D2A 1015   6.417   2.880   7.494  0.3554 -0.0168 -0.2063
   49POPC   C3A 1016   6.057   2.659   7.384 -0.0577  0.1393 -0.2288
   49POPC   C4A 1017   5.521   2.601   7.466 -0.1821 -0.0259 -0.3688
   49POPC   C1B 1018   5.912   3.431   7.754 -0.0691  0.6354 -0.0368
   49POPC   C2B 1019   6.125   3.283   7.394 -0.1835 -0.0105 -0.2579
   49POPC   C3B 1020   6.210   2.975   7.021 -0.1037 -0.4441  0.2781
   49POPC   C4B 1021   6.369   2.875   6.568  0.0569  0.2150  0.0233
   50POPC   NC3 1022   3.542   6.002   8.245 -0.1222  0.1928  0.0923
   50POPC   PO4 1023   3.212   6.228   8.289  0.7404  0.2191  0.3447
   50POPC   GL1 1024   3.276   6.203   7.835 -0.2916 -0.3268  0.1162
   50POPC   GL2 1025   3.475   6.267   7.747 -0.0662 -0.1013 -0.3529
   50POPC   C1A 1026   3.104   6.222   7.396  0.2695  0.2143 -0.0608
   50POPC   D2A 1027   3.101   6.119   6.965  0.0991  0.0731 -0.2656
   50POPC   C3A 1028   2.885   5.968   6.685  0.0111 -0.0904 -0.2315
   50POPC   C4A 1029   3.002   5.791   6.286 -0.2205  0.3916 -0.1134
   50POPC   C1B 1030   3.273   6.651   7.534  0.0317  0.4650 -0.2381
   50POPC   C2B 1031   3.334   6.650   7.041 -0.2189  0.2906  0.0728
   50POPC   C3B 1032   3.246   6.697   6.640 -0.0790  0.0164  0.0365
   50POPC   C4B 1033   3.071   6.763   6.298 -0.0117  0.1313  0.1196
   51POPC   NC3 1034   9.939   1.708   8.773 -0.0973 -0.2708 -0.1834
   51POPC   PO4 1035   9.700   1.527   8.484 -0.1613 -0.0570  0.2679
   51POPC   GL1 1036   9.497   1.548   8.021 -0.0222 -0.1986  0.0841
   51POPC   GL2 1037   9.166   1.670   7.931 -0.0336 -0.0434  0.0377
   51POPC   C1A 1038   9.579   1.420   7.628 -0.1675  0.1361 -0.1716
   51POPC   D2A 1039   9.385   1.313   7.331 -0.0959  0.1539 -0.1548
   51POPC   C3A 1040   9.633   1.400   6.865 -0.1620  0.0340  0.0761
   51POPC   C4A 1041   9.949   1.444   6.568  0.0113 -0.2477  0.0910
   51POPC   C1B 1042   9.035   1.636   7.468  0.2334  0.0375 -0.3751
   51POPC   C2B 1043   8.878   1.258   7.247  0.3347  0.0920 -0.0719
   51POPC   C3B 1044   8.824   1.183   6.902  0.0151 -0.0561  0.3571
   51POPC   C4B 1045   8.695   1.058   6.565  0.1817  0.3037  0.0728
   52POPC   NC3 1046   6.686   5.594   9.560  0.1044  0.1869  0.0278
   52POPC   PO4 1047   6.730   5.818   9.153  0.0989 -0.0055 -0.1800
   52POPC   GL1 1048   6.808   6.059   8.819  0.3543 -0.0485 -0.1737
   52POPC   GL2 1049   6.702   5.882   8.584 -0.0794 -0.0815  0.3518
   52POPC   C1A 1050   6.616   6.389   8.538  0.0071 -0.1287  0.1479
   52POPC   D2A 1051   6.530   6.407   8.000  0.0892  0.0692  0.2331
   52POPC   C3A 1052   6.725   6.120   7.741  0.0337  0.2350 -0.1160
   52POPC   C4A 1053   7.044   5.980   7.562 -0.2817 -0.0062 -0.1306
   52POPC   C1B 1054   6.446   6.005   8.254 -0.1036 -0.1505  0.0483
   52POPC   C2B 1055   6.077   6.062   7.942 -0.0617  0.0159  0.0091
   52POPC   C3B 1056   5.969   6.205   7.570  0.4125  0.4907  0.1418
   52POPC   C4B 1057   6.148   6.447   7.179  0.1802  0.2269  0.1399
   53POPC   NC3 1058   5.499   8.315   8.973 -0.2153  0.1082  0.0686
   53POPC   PO4 1059   5.294   8.484   8.593 -0.0654 -0.0293 -0.0382
   53POPC   GL1 1060   5.166   8.363   8.085 -0.0355 -0.1846 -0.4066
   53POPC   GL2 1061   4.886   8.227   8.029  0.0420 -0.1971 -0.2202
   53POPC   C1A 1062   5.113   8.470   7.653  0.0802 -0.2449  0.2247
   53POPC   D2A 1063   5.297   8.498   7.250 -0.2843 -0.1816  0.0871
   53POPC   C3A 1064   5.253   8.777   6.948 -0.0745 -0.2892 -0.3392
   53POPC   C4A 1065   5.491   8.854   6.655 -0.1576  0.0881  0.0454
   53POPC   C1B 1066   4.876   8.070   7.543  0.1366 -0.3110  0.0454
   53POPC   C2B 1067   5.164   8.046   7.169 -0.2916 -0.0478  0.0506
   53POPC   C3B 1068   5.322   8.148   6.765  0.2557 -0.2510  0.3467
   53POPC   C4B 1069   5.558   8.354   6.501 -0.1163 -0.1450 -0.0013
   54POPC   NC3 1070   7.752   1.848   8.817 -0.0896  0.3770 -0.1349
   54POPC   PO4 1071   7.515   1.965   8.452 -0.2614  0.1231  0.1250
   54POPC   GL1 1072   7.603   1.920   8.085  0.0569 -0.1490  0.0592
   54POPC   GL2 1073   7.906   2.087   8.124  0.2773 -0.0264  0.3099
   54POPC   C1A 1074   7.499   2.022   7.690 -0.1870 -0.2784  0.1046
   54POPC   D2A 1075   7.506   2.111   7.242 -0.0117  0.0901  0.0796
   54POPC   C3A 1076   7.035   2.186   7.026  0.0884  0.1258  0.2364
   54POPC   C4A 1077   6.686   2.026   6.920  0.0977 -0.1048  0.2739
   54POPC   C1B 1078   7.964   1.931   7.618  0.0786  0.0474 -0.4992
   54POPC   C2B 1079   8.216   2.099   7.336 -0.0991  0.0994  0.3394
   54POPC   C3B 1080   8.305   2.336   7.105 -0.3857 -0.2197  0.0992
   54POPC   C4B 1081   8.726   2.354   6.896 -0.2349  0.2012  0.1048
   55POPC   NC3 1082   4.371   8.172   8.304  0.0833  0.2995 -0.2456
   55POPC   PO4 1083   4.378   7.690   8.177  0.0575 -0.3048 -0.2325
   55POPC   GL1 1084   4.435   7.820   7.765  0.2120 -0.4039  0.1603
   55POPC   GL2 1085   4.375   7.533   7.598  0.3404  0.2162  0.0427
   55POPC   C1A 1086   4.411   8.062   7.369 -0.3289  0.2668 -0.2055
   55POPC   D2A 1087   4.194   7.821   7.004 -0.2667  0.2531 -0.0968
   55POPC   C3A 1088   4.132   8.089   6.556  0.0854 -0.0001  0.0502
   55POPC   C4A 1089   4.328   7.912   6.059 -0.0740 -0.6504  0.0218
   55POPC   C1B 1090   4.628   7.576   7.173 -0.0113  0.1670 -0.1753
   55POPC   C2B 1091   4.700   7.920   6.953 -0.0019 -0.4244 -0.0933
   55POPC   C3B 1092   4.831   8.253   6.785 -0.1143  0.1105  0.1876
   55POPC   C4B 1093   5.034   8.656   6.560  0.0482  0.0468 -0.0883
   56POPC   NC3 1094   4.828   2.753   8.744  0.0877  0.2552 -0.0803
   56POPC   PO4 1095   4.980   2.979   8.380 -0.0779 -0.1718 -0.1577
   56POPC   GL1 1096   4.944   3.100   8.004  0.2327 -0.4327  0.1675
   56POPC   GL2 1097   4.651   3.247   7.840 -0.2694  0.1288  0.2098
   56POPC   C1A 1098   5.085   3.171   7.580 -0.1271  0.0145 -0.0638
   56POPC   D2A 1099   5.160   3.231   7.055 -0.1266 -0.1543 -0.0194
   56POPC   C3A 1100   5.220   3.665   6.858 -0.1230  0.2983 -0.1239
   56POPC   C4A 1101   5.297   3.665   6.387  0.1546  0.2877 -0.0789
   56POPC   C1B 1102   4.266   2.943   7.681  0.2092  0.1266 -0.2538
   56POPC   C2B 1103   3.939   3.128   7.690  0.1696 -0.0813  0.0498
   56POPC   C3B 1104   3.627   3.318   7.432 -0.2864  0.0998 -0.0137
   56POPC   C4B 1105   3.194   3.116   7.329  0.1049 -0.0651  0.0123
   57POPC   NC3 1106   1.927   9.822   8.064  0.0771  0.0674  0.1169
   57POPC   PO4 1107   1.521  10.003   8.175 -0.0284 -0.3189  0.2735
   57POPC   GL1 1108   1.475  10.196   7.821 -0.0177 -0.0009 -0.0173
   57POPC   GL2 1109   1.801  10.166   7.736  0.1487  0.3736 -0.0151
   57POPC   C1A 1110   1.245  10.224   7.415 -0.0303 -0.2197 -0.3634
   57POPC   D2A 1111   0.892  10.525   7.182  0.0273  0.2497 -0.5365
   57POPC   C3A 1112   0.755  10.701   6.728 -0.1373  0.0866 -0.1417
   57POPC   C4A 1113   0.816  10.903   6.389  0.0924 -0.2977  0.0209
   57POPC   C1B 1114   1.745  10.260   7.281  0.0504  0.0964 -0.0432
   57POPC   C2B 1115   1.998  10.419   6.935  0.1569  0.1641  0.0757
   57POPC   C3B 1116   2.194  10.808   6.856 -0.0451 -0.1819  0.1652
   57POPC   C4B 1117   2.308  11.188   7.125  0.0283  0.0501  0.0177
   58POPC   NC3 1118   3.031   0.666   8.950 -0.2725 -0.1465 -0.1219
   58POPC   PO4 1119   3.079   0.801   8.503  0.2098 -0.4102  0.0071
   58POPC   GL1 1120   3.297   1.001   8.056 -0.1660 -0.0265 -0.0573
   58POPC   GL2 1121   2.960   1.221   8.049 -0.1181  0.1108  0.1845
   58POPC   C1A 1122   3.307   1.205   7.632  0.1310  0.0963  0.3734
   58POPC   D2A 1123   3.242   1.373   7.143  0.1027 -0.1465 -0.3352
   58POPC   C3A 1124   2.791   1.367   6.958  0.1856 -0.1266 -0.0542
   58POPC   C4A 1125   2.486   1.355   6.694  0.0587 -0.3149 -0.0269
   58POPC   C1B 1126   2.871   1.436   7.710 -0.1962  0.1159 -0.1670
   58POPC   C2B 1127   2.921   1.729   7.377 -0.0474  0.0203 -0.0355
   58POPC   C3B 1128   2.965   1.826   6.997 -0.1106 -0.1853 -0.1933
   58POPC   C4B 1129   3.165   1.904   6.639 -0.0607 -0.3719  0.0077
   59POPC   NC3 1130   0.457   3.364   8.079  0.4488 -0.2572 -0.1927
   59POPC   PO4 1131   0.499   2.960   8.127  0.1026 -0.1609  0.4186
   59POPC   GL1 1132   0.425   2.938   7.733 -0.2261 -0.0826  0.4269
   59POPC   GL2 1133   0.544   2.605   7.629 -0.0065 -0.0352  0.1093
   59POPC   C1A 1134   0.559   3.142   7.311  0.1363 -0.2318  0.2249
   59POPC   D2A 1135   0.669   3.359   6.991 -0.1415  0.3407 -0.0300
   59POPC   C3A 1136   0.518   3.031   6.638  0.1702 -0.2589  0.5852
   59POPC   C4A 1137   0.377   2.813   6.355 -0.2624 -0.2059 -0.1517
   59POPC   C1B 1138   0.522   2.295   7.381  0.3400  0.0482 -0.2583
   59POPC   C2B 1139   0.352   2.199   6.966  0.0883  0.1253 -0.2199
   59POPC   C3B 1140   0.293   2.327   6.563  0.2274 -0.0598  0.1623
   59POPC   C4B 1141   0.272   2.246   6.230 -0.0159  0.0712 -0.0100
   60POPC   NC3 1142   1.194   2.521   8.388 -0.0065  0.0050 -0.0028
   60POPC   PO4 1143   0.906   2.283   8.362  0.4559  0.1423  0.2329
   60POPC   GL1 1144   1.215   2.221   7.989  0.0917  0.0675  0.0303
   60POPC   GL2 1145   1.442   2.423   7.936  0.0081  0.0329 -0.0126
   60POPC   C1A 1146   1.060   2.151   7.585  0.0515  0.1485  0.2159
   60POPC   D2A 1147   0.891   1.919   7.255  0.0826  0.0996  0.0105
   60POPC   C3A 1148   0.966   1.794   6.990  0.1432 -0.0887 -0.2316
   60POPC   C4A 1149   1.163   1.816   6.586  0.2919  0.1603  0.4301
   60POPC   C1B 1150   1.389   2.552   7.556 -0.1024  0.2279  0.1763
   60POPC   C2B 1151   1.407   2.807   7.174  0.1769  0.0053  0.0522
   60POPC   C3B 1152   1.270   2.563   6.780  0.1898 -0.0001 -0.0718
   60POPC   C4B 1153   1.199   2.335   6.406  0.1602 -0.2973  0.3666
   61POPC   NC3 1154   2.762   1.929   8.634 -0.2188  0.0556 -0.1578
   61POPC   PO4 1155   3.214   2.110   8.550  0.3400  0.0694 -0.0902
   61POPC   GL1 1156   3.489   2.298   8.270  0.1339  0.3955  0.2390
   61POPC   GL2 1157   3.282   2.210   7.996  0.1595  0.1053  0.1620
   61POPC   C1A 1158   3.844   2.172   8.052 -0.0175 -0.2885 -0.0543
   61POPC   D2A 1159   4.147   2.188   7.732  0.0377 -0.0405 -0.3001
   61POPC   C3A 1160   4.039   1.824   7.388 -0.0505 -0.4028 -0.3196
   61POPC   C4A 1161   3.975   1.897   6.969  0.0992 -0.0774 -0.3692
   61POPC   C1B 1162   3.465   2.228   7.642  0.0230  0.3391  0.1722
   61POPC   C2B 1163   3.717   2.250   7.347  0.1094 -0.1508  0.0805
   61POPC   C3B 1164   4.066   2.348   7.183 -0.0370  0.0291  0.1574
   61POPC   C4B 1165   4.130   2.440   6.774 -0.0851  0.1120  0.0259
   62POPC   NC3 1166   3.849   9.698   8.269 -0.0444 -0.1974  0.4773
   62POPC   PO4 1167   3.713   9.303   8.212 -0.3993 -0.0484 -0.1200
   62POPC   GL1 1168   3.600   9.555   7.838 -0.0961  0.2678 -0.0785
   62POPC   GL2 1169   3.513   9.859   7.893 -0.0715  0.2226  0.2681
   62POPC   C1A 1170   3.828   9.737   7.522 -0.0621 -0.0140  0.1499
   62POPC   D2A 1171   3.804   9.726   7.080 -0.0794  0.0779  0.0538
   62POPC   C3A 1172   3.835  10.111   6.941 -0.0144  0.0786  0.2498
   62POPC   C4A 1173   3.792  10.393   6.593 -0.2771 -0.1242  0.5565
   62POPC   C1B 1174   3.172  10.101   7.631 -0.2386  0.0944 -0.0037
   62POPC   C2B 1175   2.907  10.172   7.190  0.4279 -0.0696  0.2457
   62POPC   C3B 1176   2.748   9.988   6.752  0.1008  0.1760 -0.2844
   62POPC   C4B 1177   2.529   9.793   6.586  0.0466 -0.0641  0.2379
   63POPC   NC3 1178   8.910   1.544   8.984  0.0718  0.4799 -0.0101
   63POPC   PO4 1179   9.161   1.474   8.547 -0.0719  0.0487  0.1111
   63POPC   GL1 1180   9.018   1.269   8.220  0.0216  0.1085 -0.0198
   63POPC   GL2 1181   9.281   1.104   8.108  0.1640  0.2512  0.5010
   63POPC   C1A 1182   8.650   1.414   7.814  0.4447  0.0059  0.0316
   63POPC   D2A 1183   8.585   1.728   7.543 -0.2845  0.1811 -0.1543
   63POPC   C3A 1184   8.704   1.719   7.098  0.0222 -0.2093  0.1035
   63POPC   C4A 1185   8.534   1.534   6.712  0.1934  0.0606 -0.0645
   63POPC   C1B 1186   9.074   1.116   7.698 -0.0238 -0.0970 -0.0153
   63POPC   C2B 1187   8.743   0.862   7.552 -0.2275  0.1287 -0.1613
   63POPC   C3B 1188   8.551   0.811   7.178  0.3089  0.0480  0.2839
   63POPC   C4B 1189   8.445   0.528   7.099 -0.0802  0.1028 -0.0839
   64POPC   NC3 1190   2.804   4.075   8.743  0.2267 -0.2203 -0.3088
   64POPC   PO4 1191   3.105   3.854   8.506 -0.0065 -0.0016  0.1047
   64POPC   GL1 1192   3.169   3.687   8.091 -0.0106 -0.0296  0.0146
   64POPC   GL2 1193   3.305   3.951   7.921 -0.1609  0.2203 -0.0918
   64POPC   C1A 1194   3.262   3.565   7.612 -0.2059  0.6225 -0.4969
   64POPC   D2A 1195   3.482   3.837   7.300 -0.2976 -0.1804  0.1061
   64POPC   C3A 1196   3.758   3.856   6.829  0.2656 -0.0762 -0.0523
   64POPC   C4A 1197   3.678   3.939   6.370 -0.0518  0.0263 -0.0551
   64POPC   C1B 1198   3.723   4.277   7.806 -0.1568 -0.2470 -0.1202
   64POPC   C2B 1199   4.003   4.263   7.522  0.0020  0.2006 -0.1302
   64POPC   C3B 1200   3.871   4.235   7.114 -0.2825 -0.0116  0.2451
   64POPC   C4B 1201   4.007   4.312   6.674 -0.0658 -0.1267 -0.2702
   65POPC   NC3 1202   9.584   0.141   8.923 -0.1784 -0.1002 -0.1404
   65POPC   PO4 1203   9.864  -0.156   8.673 -0.1162  0.3292  0.1866
   65POPC   GL1 1204   9.883   0.037   8.246 -0.1164  0.1420  0.3194
   65POPC   GL2 1205  10.051   0.255   8.169 -0.1728 -0.0842  0.0601
   65POPC   C1A 1206   9.726   0.209   7.809  0.1659  0.3229  0.3400
   65POPC   D2A 1207   9.620   0.398   7.446 -0.0137 -0.2369  0.2145
   65POPC   C3A 1208   9.851   0.337   7.046  0.0348 -0.1750  0.0630
   65POPC   C4A 1209   9.902   0.129   6.619  0.0606 -0.2249 -0.0149
   65POPC   C1B 1210  10.178   0.226   7.701 -0.0413 -0.1688  0.1595
   65POPC   C2B 1211  10.346   0.227   7.247 -0.0823 -0.0398 -0.3217
   65POPC   C3B 1212  10.348   0.478   6.876 -0.2616  0.0684 -0.2144
   65POPC   C4B 1213  10.201   0.742   6.520 -0.1215 -0.3438 -0.1425
   66POPC   NC3 1214   1.702   8.175   7.971 -0.0670  0.1304  0.0825
   66POPC   PO4 1215   1.461   8.456   8.169  0.2570 -0.0006  0.3551
   66POPC   GL1 1216   1.176   8.381   7.851 -0.0452 -0.2168  0.0598
   66POPC   GL2 1217   1.129   8.320   7.508  0.1666 -0.0612  0.1637
   66POPC   C1A 1218   0.667   8.412   7.671  0.0892 -0.2611 -0.1774
   66POPC   D2A 1219   0.333   8.258   7.372  0.2455 -0.1592 -0.0399
   66POPC   C3A 1220   0.366   8.391   6.955 -0.2118 -0.0106 -0.0474
   66POPC   C4A 1221   0.666   8.297   6.502 -0.0619 -0.2762 -0.1554
   66POPC   C1B 1222   1.181   8.098   7.152  0.1553 -0.3907  0.1630
   66POPC   C2B 1223   1.128   8.135   6.736 -0.1191  0.0322  0.1939
   66POPC   C3B 1224   1.034   7.950   6.404 -0.0960 -0.3469 -0.0295
   66POPC   C4B 1225   0.886   7.515   6.263 -0.6554 -0.2157  0.2097
   67POPC   NC3 1226   0.872   6.034   8.792 -0.0259  0.2483  0.2631
   67POPC   PO4 1227   0.612   5.805   8.484  0.2199 -0.2352  0.1524
   67POPC   GL1 1228   0.381   5.842   8.134 -0.0805  0.1620  0.0831
   67POPC   GL2 1229   0.244   5.615   7.876 -0.1840  0.1072  0.1644
   67POPC   C1A 1230   0.399   6.177   7.779  0.0035  0.3054 -0.0107
   67POPC   D2A 1231   0.300   6.484   7.448 -0.2287 -0.1043  0.2667
   67POPC   C3A 1232   0.315   6.672   7.034 -0.1160 -0.0097 -0.2440
   67POPC   C4A 1233   0.367   6.656   6.643 -0.1220  0.1474  0.3192
   67POPC   C1B 1234   0.136   5.713   7.456 -0.3275  0.0517  0.0856
   67POPC   C2B 1235   0.241   5.654   7.023  0.0508  0.0678  0.0108
   67POPC   C3B 1236   0.438   5.553   6.672  0.1982  0.1478  0.2493
   67POPC   C4B 1237   0.601   5.248   6.538 -0.0977  0.0069  0.2442
   68POPC   NC3 1238   5.901   9.814   8.387  0.1338  0.0855  0.2701
   68POPC   PO4 1239   5.600   9.469   8.237  0.0234  0.2163 -0.0751
   68POPC   GL1 1240   5.891   9.547   7.896 -0.2371  0.0662 -0.2181
   68POPC   GL2 1241   6.010   9.885   7.895 -0.0923  0.0020  0.0923
   68POPC   C1A 1242   5.917   9.415   7.418  0.2233 -0.0351 -0.0804
   68POPC   D2A 1243   6.156   9.455   6.937 -0.3407  0.3936  0.2926
   68POPC   C3A 1244   6.049   9.109   6.622  0.1405 -0.0071 -0.2998
   68POPC   C4A 1245   6.296   8.960   6.294  0.1228  0.2216  0.0846
   68POPC   C1B 1246   6.245   9.758   7.534  0.0183  0.3488  0.1257
   68POPC   C2B 1247   6.536   9.507   7.238 -0.0714 -0.1199  0.2028
   68POPC   C3B 1248   6.864   9.287   7.042  0.0390 -0.0748  0.2989
   68POPC   C4B 1249   7.158   9.122   6.821  0.0928 -0.0231 -0.0158
   69POPC   NC3 1250   8.934   9.017   9.318 -0.0593 -0.3742  0.1047
   69POPC   PO4 1251   9.374   9.042   9.104  0.0093 -0.1125 -0.2834
   69POPC   GL1 1252   9.416   8.776   8.632 -0.2219  0.2690  0.2493
   69POPC   GL2 1253   9.559   8.912   8.452  0.1417 -0.0522  0.1250
   69POPC   C1A 1254   9.139   8.528   8.335 -0.1571  0.1393  0.0856
   69POPC   D2A 1255   9.107   8.566   7.883 -0.1033  0.0088 -0.0507
   69POPC   C3A 1256   9.115   8.991   7.655  0.0637 -0.3845  0.1255
   69POPC   C4A 1257   9.036   9.181   7.192 -0.0376  0.0269 -0.0859
   69POPC   C1B 1258   9.630   8.788   8.112 -0.1473  0.2704  0.1019
   69POPC   C2B 1259   9.619   8.723   7.686 -0.1143  0.0944 -0.2066
   69POPC   C3B 1260   9.506   8.938   7.236  0.2312  0.0541  0.0886
   69POPC   C4B 1261   9.455   8.909   6.819 -0.0347  0.6238 -0.0360
   70POPC   NC3 1262   9.226   5.452   8.882 -0.2157  0.0407  0.1171
   70POPC   PO4 1263   8.765   5.429   9.066 -0.1241 -0.1021 -0.1097
   70POPC   GL1 1264   8.725   5.612   8.730 -0.0202 -0.3459  0.2343
   70POPC   GL2 1265   8.443   5.591   8.585 -0.0876 -0.1363  0.3174
   70POPC   C1A 1266   8.992   5.766   8.399  0.2095 -0.4446  0.1694
   70POPC   D2A 1267   8.905   6.070   8.024  0.0619 -0.3412 -0.0308
   70POPC   C3A 1268   8.988   5.932   7.560 -0.0048  0.0391  0.1215
   70POPC   C4A 1269   8.751   6.281   7.251 -0.0794  0.1022  0.0682
   70POPC   C1B 1270   7.984   5.524   8.482 -0.1307 -0.3008 -0.1412
   70POPC   C2B 1271   7.682   5.459   8.164  0.2743  0.0313 -0.3658
   70POPC   C3B 1272   7.529   5.205   7.750 -0.1061 -0.2592  0.0779
   70POPC   C4B 1273   7.713   4.871   7.472 -0.0242 -0.0678 -0.3744
   71POPC   NC3 1274   5.872   5.384   9.231  0.3107  0.1867  0.1039
   71POPC   PO4 1275   5.997   5.552   8.826 -0.0815  0.3639 -0.1699
   71POPC   GL1 1276   6.176   5.620   8.428  0.1733  0.1102  0.2477
   71POPC   GL2 1277   5.952   5.471   8.336 -0.2571  0.2785  0.3189
   71POPC   C1A 1278   6.316   5.598   7.992  0.0878 -0.0474 -0.1534
   71POPC   D2A 1279   6.170   5.381   7.586 -0.0875  0.2823 -0.2029
   71POPC   C3A 1280   6.384   5.387   7.194  0.3636 -0.1920 -0.0534
   71POPC   C4A 1281   6.691   5.215   7.075  0.0431 -0.0429  0.3257
   71POPC   C1B 1282   5.746   5.556   7.888  0.0067  0.4378 -0.0835
   71POPC   C2B 1283   5.842   5.698   7.410  0.2147  0.2070 -0.1891
   71POPC   C3B 1284   5.947   5.784   7.055  0.3356 -0.1495 -0.0585
   71POPC   C4B 1285   6.333   5.756   6.871 -0.1565 -0.1752  0.2028
   72POPC   NC3 1286   4.501   0.312   8.442  0.1056 -0.0959 -0.1201
   72POPC   PO4 1287   4.294  -0.036   8.246 -0.0116 -0.0935 -0.0506
   72POPC   GL1 1288   4.512  -0.198   7.857  0.0428 -0.0339  0.0672
   72POPC   GL2 1289   4.633  -0.573   7.947  0.0266  0.4732 -0.1755
   72POPC   C1A 1290   4.741  -0.092   7.439  0.0376 -0.0838  0.2311
   72POPC   D2A 1291   5.120  -0.009   7.267  0.2900 -0.0485 -0.2154
   72POPC   C3A 1292   5.360  -0.140   6.874 -0.1891  0.1136 -0.0025
   72POPC   C4A 1293   5.216  -0.334   6.607  0.0488 -0.0940 -0.0079
   72POPC   C1B 1294   4.398  -0.816   7.707 -0.1296  0.2214  0.0317
   72POPC   C2B 1295   4.382  -0.898   7.198 -0.2179  0.1041 -0.0516
   72POPC   C3B 1296   4.406  -0.738   6.710  0.0697 -0.0036  0.0554
   72POPC   C4B 1297   4.251  -0.649   6.249 -0.2184 -0.0594  0.2386
   73POPC   NC3 1298   9.323   7.913   9.093 -0.1431  0.1818 -0.1493
   73POPC   PO4 1299   9.739   7.988   8.752 -0.2017  0.0744 -0.0436
   73POPC   GL1 1300   9.666   8.329   8.465  0.0257  0.0678  0.0434
   73POPC   GL2 1301  10.008   8.417   8.233 -0.2669 -0.1652  0.0344
   73POPC   C1A 1302   9.487   8.333   8.028 -0.0118 -0.1707  0.0443
   73POPC   D2A 1303   9.475   8.175   7.578  0.2938 -0.2177  0.1024
   73POPC   C3A 1304   9.457   7.903   7.201  0.0869  0.2446 -0.4486
   73POPC   C4A 1305   9.775   8.124   7.035 -0.2831 -0.2055  0.1296
   73POPC   C1B 1306   9.945   8.338   7.735 -0.0791 -0.2382 -0.0505
   73POPC   C2B 1307   9.923   8.540   7.255 -0.0416 -0.0140  0.3928
   73POPC   C3B 1308   9.856   8.637   6.917 -0.1669 -0.0138  0.0393
   73POPC   C4B 1309   9.790   8.767   6.438 -0.4212  0.1956  0.1828
   74POPC   NC3 1310   8.750   3.783   8.895 -0.1007  0.0415 -0.0077
   74POPC   PO4 1311   8.457   3.782   8.600 -0.0253  0.0392  0.4547
   74POPC   GL1 1312   8.348   3.906   8.101 -0.2945  0.1508 -0.2858
   74POPC   GL2 1313   8.432   3.657   7.976  0.0450 -0.2188 -0.0232
   74POPC   C1A 1314   8.071   3.906   7.699 -0.0184  0.3801 -0.1862
   74POPC   D2A 1315   7.822   3.765   7.207  0.3553 -0.1929  0.0472
   74POPC   C3A 1316   7.734   4.068   6.830 -0.0625  0.0046 -0.0526
   74POPC   C4A 1317   7.515   4.361   6.445  0.1468 -0.4389 -0.1890
   74POPC   C1B 1318   8.421   3.325   7.586 -0.1986  0.0851  0.2157
   74POPC   C2B 1319   8.133   3.306   7.335 -0.0021 -0.1933 -0.0664
   74POPC   C3B 1320   8.113   3.330   6.909 -0.1259 -0.3772 -0.0365
   74POPC   C4B 1321   8.035   3.662   6.733 -0.1595 -0.0449 -0.0848
   75POPC   NC3 1322   9.198   2.710   8.768  0.0511 -0.2117  0.0170
   75POPC   PO4 1323   9.108   3.104   8.567  0.1034 -0.0546 -0.0700
   75POPC   GL1 1324   9.079   2.998   8.153 -0.0124  0.0367 -0.0651
   75POPC   GL2 1325   8.879   2.760   8.168  0.1514 -0.0483  0.1331
   75POPC   C1A 1326   9.285   3.138   7.691  0.2509 -0.3343 -0.1495
   75POPC   D2A 1327   9.384   3.193   7.334 -0.0330  0.1143 -0.2130
   75POPC   C3A 1328   9.157   3.377   7.052 -0.4944  0.2898  0.1927
   75POPC   C4A 1329   9.298   3.730   6.869  0.2609  0.3574 -0.1621
   75POPC   C1B 1330   8.697   2.906   7.848 -0.1852  0.1522  0.0618
   75POPC   C2B 1331   8.844   3.083   7.446  0.1626 -0.1356  0.2799
   75POPC   C3B 1332   8.612   3.400   7.170  0.2033 -0.0362  0.2165
   75POPC   C4B 1333   8.350   3.710   7.173  0.2725 -0.0808  0.3299
   76POPC   NC3 1334   7.767   0.519   8.695 -0.4067 -0.3099  0.1517
   76POPC   PO4 1335   7.338   0.618   8.680  0.0284  0.1710 -0.1709
   76POPC   GL1 1336   7.478   0.285   8.286 -0.0026  0.0425 -0.2238
   76POPC   GL2 1337   7.291  -0.085   8.205  0.3203  0.1292 -0.1686
   76POPC   C1A 1338   7.464   0.290   7.960  0.4442  0.1638 -0.1302
   76POPC   D2A 1339   7.459   0.411   7.526 -0.1359  0.1530  0.0022
   76POPC   C3A 1340   7.760   0.233   7.204 -0.1695  0.0295  0.1470
   76POPC   C4A 1341   8.064   0.282   6.847  0.0349 -0.0024  0.0664
   76POPC   C1B 1342   7.221  -0.148   7.784  0.1955  0.1737 -0.0389
   76POPC   C2B 1343   7.530  -0.206   7.488 -0.3054  0.0228 -0.0820
   76POPC   C3B 1344   7.860  -0.464   7.259 -0.1631 -0.1275  0.1606
   76POPC   C4B 1345   8.121  -0.634   7.055 -0.3883 -0.3414  0.0114
   77POPC   NC3 1346   1.973   1.600   8.380  0.0990  0.0160 -0.0564
   77POPC   PO4 1347   2.412   1.558   8.567  0.1631  0.0898 -0.3758
   77POPC   GL1 1348   2.546   1.574   8.086  0.4380  0.1355  0.2963
   77POPC   GL2 1349   2.182   1.355   7.941  0.3137  0.1424 -0.2304
   77POPC   C1A 1350   2.414   1.524   7.537  0.1381 -0.2191  0.1136
   77POPC   D2A 1351   2.489   1.707   7.140  0.4578  0.2326  0.0896
   77POPC   C3A 1352   2.557   1.828   6.715 -0.1085  0.2999 -0.1370
   77POPC   C4A 1353   2.908   1.656   6.365 -0.0711 -0.1452  0.2682
   77POPC   C1B 1354   2.059   1.199   7.590  0.1801  0.1978  0.0743
   77POPC   C2B 1355   1.818   1.129   7.204  0.0335 -0.0310 -0.1796
   77POPC   C3B 1356   1.789   1.172   6.661  0.2143 -0.2827 -0.0653
   77POPC   C4B 1357   1.752   1.403   6.258 -0.1533 -0.0169  0.0582
   78POPC   NC3 1358   6.224   9.934   9.201 -0.0530  0.0260 -0.1461
   78POPC   PO4 1359   6.170   9.818   8.793  0.0287 -0.0123  0.0847
   78POPC   GL1 1360   6.371   9.845   8.384 -0.1684 -0.1215  0.3693
   78POPC   GL2 1361   6.342   9.649   8.148 -0.1340 -0.0459 -0.0378
   78POPC   C1A 1362   6.350  10.196   8.002 -0.1904 -0.2772  0.2125
   78POPC   D2A 1363   6.079  10.306   7.656  0.2517  0.0874  0.0541
   78POPC   C3A 1364   6.044  10.125   7.317  0.0704 -0.0775  0.2625
   78POPC   C4A 1365   5.848   9.833   7.083  0.0959 -0.0322 -0.2257
   78POPC   C1B 1366   6.438   9.362   7.828  0.1042 -0.0663  0.0745
   78POPC   C2B 1367   6.166   9.040   7.625  0.2002 -0.2331  0.0404
   78POPC   C3B 1368   6.161   8.570   7.760 -0.2698 -0.2833  0.0353
   78POPC   C4B 1369   6.137   8.162   7.480  0.0882  0.2220  0.1225
   79POPC   NC3 1370   2.898   9.275   8.509  0.3129 -0.0083 -0.0694
   79POPC   PO4 1371   2.906   9.778   8.486  0.1670 -0.3244 -0.2433
   79POPC   GL1 1372   3.025   9.961   8.066 -0.1610  0.0731  0.0824
   79POPC   GL2 1373   2.780  10.154   7.974  0.2042 -0.0478  0.0097
   79POPC   C1A 1374   2.926   9.708   7.701  0.1494  0.0649 -0.1054
   79POPC   D2A 1375   2.865   9.655   7.263 -0.0801 -0.1264 -0.0336
   79POPC   C3A 1376   2.581   9.585   7.052 -0.1057  0.0165  0.0261
   79POPC   C4A 1377   2.372   9.296   7.115  0.0346  0.1804 -0.2258
   79POPC   C1B 1378   2.622  10.052   7.529 -0.1414  0.1105  0.1751
   79POPC   C2B 1379   2.359  10.124   7.160  0.0265  0.0054 -0.1938
   79POPC   C3B 1380   2.118   9.930   6.843  0.2310 -0.2071  0.2489
   79POPC   C4B 1381   2.048  10.016   6.422 -0.1193 -0.1990 -0.1333
   80POPC   NC3 1382   7.206   9.273   8.919  0.0460 -0.2539  0.0517
   80POPC   PO4 1383   7.603   9.034   9.028 -0.2468 -0.0694 -0.1141
   80POPC   GL1 1384   7.489   9.061   8.620  0.0630  0.0309  0.0160
   80POPC   GL2 1385   7.164   9.011   8.505  0.1646 -0.0648 -0.0843
   80POPC   C1A 1386   7.684   9.063   8.313 -0.2287  0.1332 -0.0910
   80POPC   D2A 1387   7.900   8.893   7.923  0.0750 -0.0533 -0.3497
   80POPC   C3A 1388   7.854   8.542   7.731 -0.0132 -0.2138 -0.1886
   80POPC   C4A 1389   7.990   8.067   7.788 -0.4638  0.0983 -0.1274
   80POPC   C1B 1390   7.377   8.652   8.321 -0.1974  0.1608 -0.1411
   80POPC   C2B 1391   7.271   8.401   8.085  0.5163  0.2341  0.0469
   80POPC   C3B 1392   6.950   8.157   7.832 -0.0261  0.3402  0.0503
   80POPC   C4B 1393   6.706   7.742   7.598 -0.2434 -0.1699  0.0761
   81POPC   NC3 1394   2.033   4.601   8.795  0.1437  0.0591  0.0585
   81POPC   PO4 1395   2.210   4.454   8.376  0.0055 -0.0326 -0.0309
   81POPC   GL1 1396   2.407   4.331   8.003  0.0298 -0.1421  0.0316
   81POPC   GL2 1397   2.354   4.500   7.646  0.0248 -0.0616 -0.0193
   81POPC   C1A 1398   2.783   4.145   7.779 -0.1071  0.2658 -0.3244
   81POPC   D2A 1399   3.135   4.227   7.498 -0.0895  0.0682 -0.2144
   81POPC   C3A 1400   3.404   4.261   7.138  0.1883 -0.4638  0.1719
   81POPC   C4A 1401   3.542   4.622   6.830  0.0081 -0.4130 -0.0384
   81POPC   C1B 1402   2.555   4.275   7.292 -0.3309 -0.1006 -0.0780
   81POPC   C2B 1403   2.882   4.079   7.093  0.1677  0.0241  0.1271
   81POPC   C3B 1404   3.030   3.667   7.196 -0.2421 -0.2931  0.0208
   81POPC   C4B 1405   3.303   3.505   7.038 -0.0028 -0.1364  0.5037
   82POPC   NC3 1406   1.530   7.610   8.075  0.2972 -0.0467 -0.0323
   82POPC   PO4 1407   1.299   7.913   7.939  0.4280 -0.2029  0.1816
   82POPC   GL1 1408   1.397   7.873   7.612  0.0628  0.0673  0.0390
   82POPC   GL2 1409   1.586   8.119   7.453  0.0981  0.0755 -0.1789
   82POPC   C1A 1410   1.266   7.615   7.295  0.2342 -0.0352 -0.1886
   82POPC   D2A 1411   0.976   7.493   6.940  0.1584 -0.0237 -0.3065
   82POPC   C3A 1412   1.201   7.462   6.654  0.0143 -0.1328  0.1949
   82POPC   C4A 1413   1.586   7.334   6.587  0.2576  0.1243 -0.0490
   82POPC   C1B 1414   1.619   8.331   6.978 -0.1274 -0.3616  0.0955
   82POPC   C2B 1415   1.834   8.556   6.656 -0.0506  0.5185  0.1153
   82POPC   C3B 1416   1.662   8.784   6.282  0.0749 -0.2146 -0.0575
   82POPC   C4B 1417   1.304   8.976   6.233  0.0154  0.1406 -0.1924
   83POPC   NC3 1418   0.410   5.367   8.295 -0.0177  0.2909  0.1609
   83POPC   PO4 1419   0.599   5.239   7.945  0.0541  0.0107  0.0656
   83POPC   GL1 1420   0.500   5.142   7.627 -0.1086  0.2590  0.2016
   83POPC   GL2 1421   0.183   5.059   7.463  0.1344  0.1715  0.0788
   83POPC   C1A 1422   0.511   5.239   7.166  0.3301 -0.0220 -0.1243
   83POPC   D2A 1423   0.988   5.032   6.966  0.0989 -0.0297  0.2822
   83POPC   C3A 1424   1.096   4.979   6.675  0.0811 -0.1760 -0.2129
   83POPC   C4A 1425   1.082   5.266   6.292  0.0860  0.2133 -0.1704
   83POPC   C1B 1426   0.092   5.068   7.025  0.1425  0.0121 -0.1552
   83POPC   C2B 1427   0.063   4.961   6.539 -0.1768 -0.0168  0.0387
   83POPC   C3B 1428   0.190   4.533   6.358  0.2403  0.0537 -0.1770
   83POPC   C4B 1429  -0.064   4.308   6.114  0.0511 -0.2419  0.3385
   84POPC   NC3 1430   5.453   5.284   8.349 -0.2716 -0.2466  0.1718
   84POPC   PO4 1431   5.421   4.824   8.559  0.1573 -0.0471  0.2308
   84POPC   GL1 1432   5.331   4.797   8.216 -0.0831 -0.0678  0.0867
   84POPC   GL2 1433   5.544   4.418   8.213  0.1344 -0.0582  0.3519
   84POPC   C1A 1434   5.263   4.972   7.763  0.4106  0.4041  0.0668
   84POPC   D2A 1435   5.088   5.122   7.439 -0.2183  0.1148 -0.1649
   84POPC   C3A 1436   5.369   5.032   7.034 -0.1238 -0.1196  0.0004
   84POPC   C4A 1437   5.630   4.738   6.986  0.0180 -0.2980  0.1675
   84POPC   C1B 1438   5.656   4.646   7.885 -0.1425 -0.0939 -0.1262
   84POPC   C2B 1439   5.760   4.553   7.448  0.1923  0.1264 -0.2721
   84POPC   C3B 1440   5.872   4.291   7.105  0.2091  0.1031  0.0584
   84POPC   C4B 1441   5.973   4.202   6.537 -0.2211 -0.0523 -0.1421
   85POPC   NC3 1442   0.955   7.729   8.771 -0.2245 -0.2401  0.1932
   85POPC   PO4 1443   0.511   7.756   8.791 -0.1732  0.2159 -0.0815
   85POPC   GL1 1444   0.405   7.696   8.398 -0.0259  0.0318  0.1089
   85POPC   GL2 1445   0.186   7.868   8.405  0.5226  0.0623 -0.0595
   85POPC   C1A 1446   0.539   7.549   7.884 -0.0770  0.1957 -0.3024
   85POPC   D2A 1447   0.437   7.506   7.456 -0.1194 -0.3162 -0.0838
   85POPC   C3A 1448   0.376   7.415   6.991 -0.0914 -0.0154  0.4412
   85POPC   C4A 1449   0.516   7.188   6.576 -0.2411 -0.0199 -0.2031
   85POPC   C1B 1450  -0.034   7.977   8.125  0.4535  0.2426  0.1679
   85POPC   C2B 1451  -0.325   7.816   7.901  0.0987  0.0501 -0.2680
   85POPC   C3B 1452  -0.559   7.570   7.622 -0.0537  0.2679  0.2487
   85POPC   C4B 1453  -0.954   7.640   7.425  0.2586 -0.1439 -0.0021
   86POPC   NC3 1454   6.648   1.083   8.492  0.1685  0.4422  0.0726
   86POPC   PO4 1455   6.857   1.595   8.580 -0.4320 -0.0311  0.1635
   86POPC   GL1 1456   6.796   1.434   8.157  0.2428  0.4651 -0.0060
   86POPC   GL2 1457   6.882   1.052   7.994 -0.2544 -0.1306  0.0082
   86POPC   C1A 1458   6.470   1.261   7.868 -0.0221 -0.0603 -0.1622
   86POPC   D2A 1459   6.368   1.307   7.480  0.2386 -0.4172  0.0058
   86POPC   C3A 1460   6.145   1.004   7.235 -0.2023 -0.0401 -0.1504
   86POPC   C4A 1461   5.859   0.750   7.170  0.2617 -0.1232  0.4651
   86POPC   C1B 1462   7.138   0.752   7.809 -0.3922  0.2256 -0.3124
   86POPC   C2B 1463   7.107   0.702   7.347  0.1219  0.1174  0.1254
   86POPC   C3B 1464   7.010   0.363   7.066  0.1889 -0.4919 -0.0332
   86POPC   C4B 1465   6.857   0.026   6.864  0.0671 -0.0806  0.3296
   87POPC   NC3 1466   1.807   6.889   8.096  0.1095 -0.2950 -0.3236
   87POPC   PO4 1467   1.519   6.588   8.387  0.0163  0.2651  0.0187
   87POPC   GL1 1468   1.485   6.529   7.942  0.3293 -0.0165 -0.0720
   87POPC   GL2 1469   1.377   6.155   7.893 -0.2150  0.2255 -0.0408
   87POPC   C1A 1470   1.203   6.486   7.511 -0.4681  0.2337  0.0008
   87POPC   D2A 1471   0.750   6.427   7.261 -0.2065  0.4603  0.2156
   87POPC   C3A 1472   0.820   6.453   6.840  0.0207 -0.1147  0.0784
   87POPC   C4A 1473   0.844   6.466   6.443  0.0599 -0.0420  0.0465
   87POPC   C1B 1474   1.235   5.977   7.537 -0.2303  0.2296 -0.2439
   87POPC   C2B 1475   1.123   6.043   7.113 -0.0280 -0.3287  0.0656
   87POPC   C3B 1476   1.263   6.297   6.752 -0.1713  0.2576 -0.2692
   87POPC   C4B 1477   1.270   6.306   6.348 -0.2135  0.2005 -0.0211
   88POPC   NC3 1478   9.291   4.621   8.995 -0.0118 -0.0440 -0.1281
   88POPC   PO4 1479   9.012   4.591   8.590 -0.1418 -0.0243 -0.1755
   88POPC   GL1 1480   8.886   4.699   8.212  0.2355 -0.1110 -0.0668
   88POPC   GL2 1481   8.645   4.927   8.120 -0.0332  0.0758 -0.1014
   88POPC   C1A 1482   9.015   4.897   7.800  0.0806  0.3917 -0.2017
   88POPC   D2A 1483   9.207   5.097   7.444  0.0137 -0.1750  0.2771
   88POPC   C3A 1484   9.250   5.392   7.196  0.1466  0.0163 -0.0812
   88POPC   C4A 1485   9.365   5.710   6.828  0.0932 -0.2142 -0.1648
   88POPC   C1B 1486   8.581   5.061   7.735 -0.0399 -0.1230  0.0988
   88POPC   C2B 1487   8.613   5.169   7.218 -0.5357 -0.0043 -0.2456
   88POPC   C3B 1488   8.866   4.992   6.947  0.1833 -0.1706  0.0428
   88POPC   C4B 1489   8.740   4.860   6.552  0.1383 -0.1349  0.1525
   89POPC   NC3 1490   8.616   7.130   9.590  0.0254 -0.1840  0.0977
   89POPC   PO4 1491   8.749   7.455   9.518 -0.0543 -0.0117 -0.0643
   89POPC   GL1 1492   8.621   7.318   9.143 -0.1586  0.0429 -0.0487
   89POPC   GL2 1493   8.375   7.334   8.961 -0.0423 -0.0349 -0.0326
   89POPC   C1A 1494   8.803   7.355   8.776 -0.1867  0.0626 -0.2337
   89POPC   D2A 1495   8.838   7.697   8.610 -0.1283  0.1368 -0.1082
   89POPC   C3A 1496   8.719   7.737   8.254 -0.0789  0.3541  0.0639
   89POPC   C4A 1497   8.444   7.824   8.048 -0.0499 -0.1081  0.2838
   89POPC   C1B 1498   8.485   7.018   8.693  0.3602  0.2994 -0.1618
   89POPC   C2B 1499   8.722   6.701   8.421  0.3402  0.0338 -0.2134
   89POPC   C3B 1500   8.812   6.626   8.007  0.0526  0.1056 -0.1128
   89POPC   C4B 1501   8.913   6.426   7.654 -0.0144  0.2294 -0.0318
   90POPC   NC3 1502   0.026   7.488   8.717 -0.0562 -0.3470 -0.0113
   90POPC   PO4 1503  -0.366   7.508   9.022 -0.1427  0.0649 -0.3639
   90POPC   GL1 1504  -0.560   7.553   8.563  0.0831  0.2362  0.1138
   90POPC   GL2 1505  -0.252   7.591   8.294  0.0523 -0.0502  0.3396
   90POPC   C1A 1506  -0.776   7.414   8.162  0.2867 -0.1519 -0.1900
   90POPC   D2A 1507  -0.968   7.324   7.812  0.1007 -0.1768 -0.0038
   90POPC   C3A 1508  -1.123   6.915   7.517 -0.0486 -0.2998 -0.2037
   90POPC   C4A 1509  -1.087   6.730   7.158  0.2257 -0.2382 -0.0021
   90POPC   C1B 1510   0.078   7.514   8.000  0.2812  0.3435 -0.2188
   90POPC   C2B 1511   0.294   7.115   7.697 -0.1238 -0.1954  0.1859
   90POPC   C3B 1512   0.490   7.029   7.295 -0.0845  0.0477 -0.1082
   90POPC   C4B 1513   0.784   6.967   6.973 -0.1520  0.0457  0.1755
   91POPC   NC3 1514   5.104   1.360   8.747 -0.1201 -0.3845  0.2774
   91POPC   PO4 1515   4.939   1.727   8.822 -0.0479 -0.0076  0.1271
   91POPC   GL1 1516   4.861   1.649   8.352 -0.0289  0.1946 -0.1847
   91POPC   GL2 1517   4.809   1.950   8.073  0.3800 -0.2801  0.2857
   91POPC   C1A 1518   4.799   1.461   7.873 -0.1232 -0.2405 -0.3472
   91POPC   D2A 1519   4.944   1.236   7.578 -0.1183 -0.0803  0.1446
   91POPC   C3A 1520   4.609   1.101   7.131  0.0959  0.0086  0.0106
   91POPC   C4A 1521   4.380   1.047   6.697 -0.2314  0.2601 -0.0555
   91POPC   C1B 1522   4.854   2.219   7.683  0.0083 -0.3011  0.2339
   91POPC   C2B 1523   5.000   2.244   7.272  0.2066  0.3762 -0.2371
   91POPC   C3B 1524   5.007   1.974   7.070 -0.1966  0.0102 -0.1844
   91POPC   C4B 1525   5.116   1.887   6.775 -0.1262  0.1768 -0.1098
   92POPC   NC3 1526   3.934   6.800   8.182 -0.1549  0.2546 -0.3084
   92POPC   PO4 1527   3.681   7.163   8.064 -0.1737  0.1193  0.0940
   92POPC   GL1 1528   3.692   7.033   7.628 -0.2298  0.0793 -0.2096
   92POPC   GL2 1529   3.936   7.258   7.465  0.0606  0.2542  0.2724
   92POPC   C1A 1530   3.595   6.993   7.225  0.1488 -0.0184  0.0687
   92POPC   D2A 1531   3.348   7.199   6.959  0.0264 -0.0124  0.1227
   92POPC   C3A 1532   3.333   7.535   6.819 -0.1430  0.1268  0.2800
   92POPC   C4A 1533   3.369   7.582   6.383  0.5072 -0.1956 -0.1697
   92POPC   C1B 1534   4.215   7.251   7.088  0.0757 -0.2503  0.5499
   92POPC   C2B 1535   4.180   7.084   6.700  0.0986  0.2241  0.1126
   92POPC   C3B 1536   3.858   7.135   6.440 -0.2180 -0.0710  0.1731
   92POPC   C4B 1537   3.501   7.094   6.473  0.2774 -0.1555 -0.1783
   93POPC   NC3 1538   4.487   5.973   8.400 -0.1358  0.1335  0.1356
   93POPC   PO4 1539   4.004   5.946   8.353  0.0575  0.0335 -0.0551
   93POPC   GL1 1540   3.837   5.774   7.947 -0.4347 -0.0200 -0.1509
   93POPC   GL2 1541   3.894   5.366   8.069  0.0681 -0.1750 -0.1399
   93POPC   C1A 1542   3.709   5.861   7.564 -0.0481  0.0044 -0.0283
   93POPC   D2A 1543   3.554   6.113   7.259 -0.3895  0.1575  0.2300
   93POPC   C3A 1544   3.554   6.127   6.864  0.1593  0.0216 -0.2386
   93POPC   C4A 1545   3.333   6.211   6.528  0.0263  0.0944  0.3098
   93POPC   C1B 1546   3.836   5.355   7.635 -0.0914  0.2344 -0.2978
   93POPC   C2B 1547   3.689   5.489   7.143 -0.0202  0.0340 -0.1795
   93POPC   C3B 1548   3.495   5.188   6.721  0.2247  0.0017 -0.1304
   93POPC   C4B 1549   3.264   5.284   6.284 -0.2346 -0.2520 -0.0690
   94POPC   NC3 1550   9.478   4.619   8.469  0.1306  0.3478  0.4414
   94POPC   PO4 1551   9.327   4.201   8.280  0.0416 -0.0684  0.2169
   94POPC   GL1 1552   9.098   4.175   7.940  0.0924  0.0427 -0.0708
   94POPC   GL2 1553   8.851   3.942   7.891  0.1678 -0.0852 -0.0167
   94POPC   C1A 1554   9.158   4.262   7.502  0.1347 -0.2353 -0.2806
   94POPC   D2A 1555   9.129   4.192   7.141  0.1238  0.0929  0.1131
   94POPC   C3A 1556   8.829   3.853   7.003 -0.2910 -0.2311  0.0330
   94POPC   C4A 1557   8.541   3.856   6.715  0.1250 -0.0195  0.1811
   94POPC   C1B 1558   8.674   3.836   7.563 -0.3036  0.2267 -0.2174
   94POPC   C2B 1559   8.453   4.161   7.437 -0.1685 -0.0927  0.1085
   94POPC   C3B 1560   8.216   4.209   6.960 -0.3437 -0.0545  0.1070
   94POPC   C4B 1561   8.217   4.566   6.607  0.1241  0.1551 -0.0983
   95POPC   NC3 1562   2.302   6.017   8.196  0.3626  0.1070 -0.0906
   95POPC   PO4 1563   2.470   5.644   8.188 -0.0402  0.3449  0.1762
   95POPC   GL1 1564   2.622   5.579   7.785  0.2024 -0.3245 -0.1207
   95POPC   GL2 1565   2.631   5.283   7.653 -0.0208 -0.2460 -0.0362
   95POPC   C1A 1566   2.757   5.804   7.439  0.1733 -0.0899 -0.1154
   95POPC   D2A 1567   2.634   6.079   7.074  0.0991  0.1978  0.0879
   95POPC   C3A 1568   2.455   6.105   6.596 -0.0868 -0.2250 -0.1657
   95POPC   C4A 1569   2.324   6.272   6.198  0.0116  0.0127  0.1895
   95POPC   C1B 1570   2.515   5.378   7.341 -0.1487 -0.1106 -0.3263
   95POPC   C2B 1571   2.779   5.522   7.034  0.0460 -0.2121 -0.0837
   95POPC   C3B 1572   3.161   5.546   6.694 -0.2090 -0.0193  0.3606
   95POPC   C4B 1573   3.459   5.672   6.690 -0.3633  0.2960  0.1779
   96POPC   NC3 1574   8.340   2.413   8.894  0.1758 -0.0406 -0.0062
   96POPC   PO4 1575   8.700   2.454   8.572  0.0365  0.1133  0.0854
   96POPC   GL1 1576   8.621   2.120   8.284  0.1299  0.4523  0.0652
   96POPC   GL2 1577   8.918   2.039   8.088 -0.1893  0.0601  0.1032
   96POPC   C1A 1578   8.401   1.805   8.095 -0.0906  0.0172 -0.0574
   96POPC   D2A 1579   8.140   1.492   7.838  0.1992 -0.1246 -0.0166
   96POPC   C3A 1580   7.763   1.470   7.718  0.2186 -0.0182 -0.1553
   96POPC   C4A 1581   7.585   1.641   7.236  0.0139  0.2207 -0.0344
   96POPC   C1B 1582   9.288   2.155   7.694  0.0224 -0.0544  0.1493
   96POPC   C2B 1583   9.581   1.916   7.543 -0.0008  0.0652  0.0083
   96POPC   C3B 1584   9.547   1.777   7.230 -0.0189 -0.0287 -0.0748
   96POPC   C4B 1585   9.208   1.637   6.913  0.1328  0.1150 -0.2245
   97POPC   NC3 1586   4.369   0.689   9.129  0.2833 -0.0257  0.1804
   97POPC   PO4 1587   4.481   0.735   8.720  0.4363  0.1413 -0.2781
   97POPC   GL1 1588   4.405   0.809   8.217 -0.4743  0.0604 -0.1343
   97POPC   GL2 1589   4.018   0.839   8.090 -0.2656  0.1387 -0.1431
   97POPC   C1A 1590   4.714   0.827   7.908  0.0422  0.1981 -0.1584
   97POPC   D2A 1591   4.742   0.803   7.515 -0.2587  0.0929  0.0839
   97POPC   C3A 1592   4.450   0.679   7.212 -0.0685 -0.1400 -0.3238
   97POPC   C4A 1593   4.258   0.446   6.895 -0.1044 -0.1973 -0.2129
   97POPC   C1B 1594   4.279   0.672   7.704  0.1505  0.2881 -0.1068
   97POPC   C2B 1595   4.515   0.324   7.573 -0.1569  0.0714 -0.1620
   97POPC   C3B 1596   4.285   0.051   7.248 -0.1022  0.0542  0.0154
   97POPC   C4B 1597   4.325  -0.142   6.804 -0.0606  0.1403 -0.1866
   98POPC   NC3 1598   4.456   3.931   8.402  0.1444 -0.2919 -0.0804
   98POPC   PO4 1599   4.347   4.333   8.481 -0.1176  0.0140 -0.0084
   98POPC   GL1 1600   4.456   4.546   8.232  0.0538  0.0474  0.1591
   98POPC   GL2 1601   4.766   4.706   8.090  0.1128  0.0958 -0.1403
   98POPC   C1A 1602   4.379   4.506   7.818  0.1638  0.1375  0.2213
   98POPC   D2A 1603   4.268   4.599   7.322  0.1158  0.0666 -0.0879
   98POPC   C3A 1604   4.345   4.965   7.090  0.0359 -0.1146  0.0792
   98POPC   C4A 1605   4.471   5.210   6.798 -0.1673  0.1387  0.1266
   98POPC   C1B 1606   4.810   4.744   7.614  0.1638 -0.0548  0.0835
   98POPC   C2B 1607   4.729   4.411   7.364  0.1246 -0.3385 -0.2496
   98POPC   C3B 1608   4.513   4.449   6.877 -0.0277  0.2407  0.1208
   98POPC   C4B 1609   4.373   4.812   6.569  0.0455 -0.0765  0.0725
   99POPC   NC3 1610   6.473   1.297   8.902 -0.1791  0.1301  0.1273
   99POPC   PO4 1611   6.135   1.147   8.664  0.3715 -0.1243 -0.2119
   99POPC   GL1 1612   6.139   0.862   8.315 -0.1836 -0.0501 -0.1502
   99POPC   GL2 1613   6.450   0.713   8.194  0.0882 -0.1337 -0.0297
   99POPC   C1A 1614   6.090   0.893   7.842  0.0874  0.2589  0.0364
   99POPC   D2A 1615   5.715   0.813   7.630 -0.0429  0.1089  0.2739
   99POPC   C3A 1616   5.597   0.367   7.628  0.2080 -0.1682  0.2166
   99POPC   C4A 1617   5.665  -0.062   7.543  0.0338  0.1034 -0.0697
   99POPC   C1B 1618   6.582   0.713   7.804 -0.2213  0.1083 -0.1813
   99POPC   C2B 1619   6.619   0.725   7.431  0.3735  0.1280  0.4681
   99POPC   C3B 1620   6.477   0.540   7.040  0.2011 -0.3154  0.1600
   99POPC   C4B 1621   6.057   0.403   6.906 -0.0045 -0.1043  0.0842
  100POPC   NC3 1622   0.089   2.632   7.895 -0.2223 -0.0750  0.2397
  100POPC   PO4 1623  -0.265   2.441   8.195  0.3408 -0.0746 -0.3636
  100POPC   GL1 1624  -0.192   2.259   7.877  0.1877  0.0299 -0.0418
  100POPC   GL2 1625   0.132   2.108   7.812 -0.0076 -0.1347 -0.0155
  100POPC   C1A 1626  -0.051   2.240   7.356 -0.2517  0.1442 -0.0263
  100POPC   D2A 1627  -0.121   2.405   6.928  0.3270  0.1701  0.2556
  100POPC   C3A 1628   0.030   2.792   6.736  0.0579 -0.2330 -0.0429
  100POPC   C4A 1629   0.155   3.146   6.946  0.2381 -0.3383 -0.2546
  100POPC   C1B 1630   0.088   1.734   7.445 -0.1526 -0.1274 -0.0698
  100POPC   C2B 1631  -0.008   1.404   7.291 -0.0589 -0.2190  0.0871
  100POPC   C3B 1632   0.095   1.056   7.417 -0.1072  0.2154  0.1516
  100POPC   C4B 1633   0.111   0.635   7.335  0.4436  0.2936  0.2163
  101POPC   NC3 1634   0.889   2.933   8.431 -0.0591 -0.2988 -0.4699
  101POPC   PO4 1635   0.941   3.410   8.250 -0.0510  0.1615 -0.1314
  101POPC   GL1 1636   0.914   3.194   7.768 -0.3343  0.0030 -0.3522
  101POPC   GL2 1637   0.864   3.369   7.650  0.1190 -0.1132  0.1577
  101POPC   C1A 1638   0.934   2.805   7.422  0.0277 -0.0962  0.2152
  101POPC   D2A 1639   1.045   2.409   7.169 -0.1767 -0.0024 -0.2834
  101POPC   C3A 1640   0.823   2.290   6.812  0.2572  0.1103 -0.1789
  101POPC   C4A 1641   0.779   2.545   6.367  0.1903  0.1482  0.0255
  101POPC   C1B 1642   1.097   3.266   7.311  0.2575  0.0686 -0.0711
  101POPC   C2B 1643   1.208   3.357   6.946  0.2286 -0.2952  0.2074
  101POPC   C3B 1644   1.325   3.430   6.506 -0.0146 -0.3252 -0.0263
  101POPC   C4B 1645   1.213   3.336   6.097  0.1099  0.1131 -0.2105
  102POPC   NC3 1646   0.977   3.892   8.091 -0.2970  0.0709  0.3322
  102POPC   PO4 1647   1.358   3.926   8.206 -0.0266 -0.3053  0.0698
  102POPC   GL1 1648   1.320   4.016   7.762 -0.0882 -0.0906  0.4120
  102POPC   GL2 1649   1.083   3.907   7.582  0.0016 -0.0711 -0.1195
  102POPC   C1A 1650   1.445   3.675   7.422 -0.0942  0.0539  0.2378
  102POPC   D2A 1651   1.668   3.369   7.160 -0.2104  0.1940  0.3413
  102POPC   C3A 1652   1.643   3.156   6.774  0.0362 -0.2819  0.0297
  102POPC   C4A 1653   1.822   3.057   6.470  0.2552 -0.0437  0.1231
  102POPC   C1B 1654   0.994   3.730   7.231 -0.1752  0.1348 -0.2263
  102POPC   C2B 1655   0.903   3.754   6.814 -0.3057  0.1492 -0.1423
  102POPC   C3B 1656   0.927   3.977   6.451 -0.1643 -0.2517 -0.2031
  102POPC   C4B 1657   0.740   4.323   6.082  0.1295 -0.0910 -0.6226
  103POPC   NC3 1658   1.832   3.675   8.256  0.2710  0.1606 -0.0356
  103POPC   PO4 1659   2.189   3.624   8.470 -0.2500 -0.3221  0.3232
  103POPC   GL1 1660   2.375   3.572   8.066 -0.1398 -0.1454  0.2971
  103POPC   GL2 1661   2.698   3.464   8.021 -0.1074  0.3264 -0.0236
  103POPC   C1A 1662   2.315   3.468   7.674  0.1735 -0.2559 -0.0890
  103POPC   D2A 1663   2.217   3.325   7.212  0.1639  0.4445 -0.0388
  103POPC   C3A 1664   2.472   3.035   6.871 -0.0881 -0.0883  0.2520
  103POPC   C4A 1665   2.707   2.683   6.657 -0.1374 -0.0626  0.3556
  103POPC   C1B 1666   2.753   3.628   7.665  0.1148 -0.0854 -0.2481
  103POPC   C2B 1667   2.547   3.779   7.276  0.2918  0.0723  0.0074
  103POPC   C3B 1668   2.527   3.583   6.908  0.1327 -0.0944  0.1231
  103POPC   C4B 1669   2.857   3.550   6.658 -0.0785 -0.2422 -0.0843
  104POPC   NC3 1670   5.848   1.798   8.600 -0.1534 -0.0568  0.1061
  104POPC   PO4 1671   5.956   2.246   8.688 -0.1263  0.0958 -0.3774
  104POPC   GL1 1672   6.161   2.339   8.347 -0.3732  0.1138  0.1222
  104POPC   GL2 1673   6.081   2.035   8.132 -0.4069 -0.2956 -0.3099
  104POPC   C1A 1674   6.289   2.537   7.955  0.0707  0.1007  0.2361
  104POPC   D2A 1675   6.451   2.369   7.483  0.0942 -0.0688  0.0417
  104POPC   C3A 1676   6.711   2.023   7.472 -0.1519 -0.1374  0.1859
  104POPC   C4A 1677   6.701   1.715   7.744 -0.2552  0.2223 -0.2712
  104POPC   C1B 1678   6.244   2.011   7.731  0.0449 -0.2813  0.2494
  104POPC   C2B 1679   6.261   1.944   7.243  0.0378 -0.1809 -0.0247
  104POPC   C3B 1680   6.218   1.745   6.917 -0.0934 -0.2483  0.3291
  104POPC   C4B 1681   6.280   1.371   6.945 -0.1292 -0.0771 -0.1994
  105POPC   NC3 1682   9.899   6.019   9.038  0.1413 -0.3104  0.1252
  105POPC   PO4 1683   9.757   5.647   8.808 -0.0442 -0.2527 -0.0867
  105POPC   GL1 1684   9.826   5.685   8.279  0.1092 -0.0532  0.1161
  105POPC   GL2 1685   9.752   5.451   8.061 -0.0000  0.1381 -0.0428
  105POPC   C1A 1686   9.887   6.005   7.813 -0.1551 -0.1002  0.1273
  105POPC   D2A 1687   9.823   6.209   7.400 -0.4825  0.3962 -0.0367
  105POPC   C3A 1688   9.500   6.413   7.229  0.0055 -0.2175 -0.4210
  105POPC   C4A 1689   9.344   6.680   6.935 -0.0795  0.1088 -0.3332
  105POPC   C1B 1690   9.711   5.425   7.607  0.1814  0.0913 -0.2492
  105POPC   C2B 1691   9.766   5.458   7.178 -0.0710  0.1241  0.2994
  105POPC   C3B 1692   9.770   5.884   7.026 -0.1761 -0.1510 -0.0172
  105POPC   C4B 1693   9.914   6.321   6.903 -0.0293  0.0358 -0.1448
  106POPC   NC3 1694   3.179   5.163   8.380 -0.0358 -0.2509 -0.2955
  106POPC   PO4 1695   3.525   5.432   8.412 -0.1102 -0.2001  0.0463
  106POPC   GL1 1696   3.282   5.490   7.973 -0.2808  0.2710 -0.1465
  106POPC   GL2 1697   3.168   5.201   7.823 -0.1873 -0.2697 -0.4188
  106POPC   C1A 1698   3.224   5.715   7.617 -0.3346  0.1279  0.3929
  106POPC   D2A 1699   3.244   5.664   7.198  0.0810  0.2497 -0.1010
  106POPC   C3A 1700   3.146   5.219   7.128  0.0688  0.1495 -0.1594
  106POPC   C4A 1701   3.120   4.716   7.116  0.0792  0.0957  0.2778
  106POPC   C1B 1702   3.434   5.124   7.463 -0.0988 -0.1865 -0.2307
  106POPC   C2B 1703   3.781   4.985   7.155  0.0967  0.3082 -0.2695
  106POPC   C3B 1704   3.994   5.222   6.782  0.0625 -0.1229 -0.1823
  106POPC   C4B 1705   4.230   5.308   6.378 -0.1428 -0.1210 -0.1336
  107POPC   NC3 1706   4.108   7.343   7.943  0.0273 -0.2386  0.0295
  107POPC   PO4 1707   4.383   6.918   8.111 -0.2323 -0.5301  0.0654
  107POPC   GL1 1708   4.317   6.987   7.661  0.4074 -0.3648 -0.2539
  107POPC   GL2 1709   4.044   6.699   7.657  0.3491 -0.2288  0.3266
  107POPC   C1A 1710   4.688   7.128   7.365 -0.0454  0.0843  0.0198
  107POPC   D2A 1711   4.748   7.160   6.889  0.1492  0.0722 -0.2825
  107POPC   C3A 1712   4.478   7.505   6.645  0.0131 -0.1931 -0.2748
  107POPC   C4A 1713   4.670   7.885   6.490 -0.0194  0.1211  0.2865
  107POPC   C1B 1714   3.763   6.544   7.344 -0.0680 -0.0598  0.0241
  107POPC   C2B 1715   3.813   6.631   6.922  0.1493  0.1704  0.2658
  107POPC   C3B 1716   3.724   6.625   6.500 -0.2830 -0.3372 -0.3080
  107POPC   C4B 1717   3.439   6.514   6.105  0.2243 -0.1500  0.0470
  108POPC   NC3 1718   0.856   1.806   8.483 -0.0687 -0.0728  0.0397
  108POPC   PO4 1719   0.414   1.865   8.379  0.0413 -0.1223 -0.0492
  108POPC   GL1 1720   0.348   1.638   7.975  0.2536 -0.1527 -0.0197
  108POPC   GL2 1721   0.050   1.517   7.999  0.2073  0.0226 -0.1737
  108POPC   C1A 1722   0.456   1.292   7.792  0.3296 -0.0995 -0.2183
  108POPC   D2A 1723   0.356   0.872   7.836 -0.2954  0.1258  0.1041
  108POPC   C3A 1724   0.006   0.672   7.823  0.1764  0.4263 -0.0796
  108POPC   C4A 1725  -0.396   0.592   8.080  0.1241 -0.1085 -0.0777
  108POPC   C1B 1726  -0.113   1.133   7.993 -0.2051  0.0473  0.0220
  108POPC   C2B 1727  -0.410   0.964   7.686 -0.0921  0.2488  0.0832
  108POPC   C3B 1728  -0.371   0.873   7.227  0.0916 -0.0269  0.2099
  108POPC   C4B 1729  -0.636   0.995   6.807  0.0473 -0.2379 -0.2233
  109POPC   NC3 1730   6.594   8.456   9.697 -0.0528 -0.2885 -0.4281
  109POPC   PO4 1731   6.683   8.747   9.296  0.1895  0.1125 -0.1631
  109POPC   GL1 1732   6.665   9.039   9.006 -0.2892  0.2454 -0.0448
  109POPC   GL2 1733   6.363   9.141   8.893  0.2394 -0.3088  0.0322
  109POPC   C1A 1734   6.659   8.794   8.677  0.1858  0.0618 -0.0511
  109POPC   D2A 1735   6.812   8.653   8.261 -0.3316 -0.2576  0.0287
  109POPC   C3A 1736   6.379   8.961   8.125 -0.2087  0.0403 -0.2181
  109POPC   C4A 1737   5.990   8.996   8.039  0.2659 -0.1453 -0.1632
  109POPC   C1B 1738   6.568   9.289   8.541 -0.1989 -0.3518  0.3721
  109POPC   C2B 1739   6.758   9.320   8.172 -0.0390 -0.1028 -0.1082
  109POPC   C3B 1740   7.095   9.022   8.031  0.2004 -0.0771  0.1228
  109POPC   C4B 1741   7.436   8.834   7.842 -0.0930 -0.2095  0.1990
  110POPC   NC3 1742   1.793   9.195   8.495  0.0520 -0.0468  0.1031
  110POPC   PO4 1743   2.102   9.465   8.350 -0.3320 -0.1524  0.3104
  110POPC   GL1 1744   2.391   9.519   7.970 -0.0033 -0.0658  0.4172
  110POPC   GL2 1745   2.376   9.807   7.817 -0.0939  0.3206  0.2864
  110POPC   C1A 1746   2.618   9.375   7.563  0.0914 -0.0481 -0.0760
  110POPC   D2A 1747   3.112   9.291   7.515 -0.1053  0.1025  0.1479
  110POPC   C3A 1748   3.341   9.699   7.429  0.0324  0.0191  0.3498
  110POPC   C4A 1749   3.353   9.975   7.185 -0.0512 -0.0928  0.0365
  110POPC   C1B 1750   2.273   9.722   7.417 -0.1127  0.2248  0.1613
  110POPC   C2B 1751   1.915   9.531   7.239 -0.1288  0.4742  0.1113
  110POPC   C3B 1752   1.462   9.373   7.113 -0.2213  0.0250 -0.1284
  110POPC   C4B 1753   1.353   9.257   6.660  0.2617  0.3488  0.2191
  111POPC   NC3 1754   9.743   5.836   9.486  0.0597  0.0143 -0.0012
  111POPC   PO4 1755   9.475   5.800   9.161 -0.0697 -0.0263 -0.1128
  111POPC   GL1 1756   9.343   6.008   8.774  0.1693  0.1924  0.0186
  111POPC   GL2 1757   9.556   6.129   8.552 -0.0652 -0.3877  0.0097
  111POPC   C1A 1758   8.979   6.250   8.558  0.0280  0.0181 -0.0355
  111POPC   D2A 1759   8.534   6.229   8.401  0.0250 -0.2287  0.0705
  111POPC   C3A 1760   8.319   6.270   8.043  0.0731  0.2915 -0.2102
  111POPC   C4A 1761   8.404   6.560   7.600  0.0917  0.2805 -0.0653
  111POPC   C1B 1762   9.459   6.001   8.223 -0.1359 -0.0391  0.0856
  111POPC   C2B 1763   9.399   5.795   7.936  0.3217 -0.0843  0.1850
  111POPC   C3B 1764   9.193   5.486   7.706 -0.0231 -0.0986 -0.0974
  111POPC   C4B 1765   8.835   5.452   7.486  0.2616  0.3307 -0.0598
  112POPC   NC3 1766   0.385   6.878   9.390 -0.0771 -0.0697  0.2279
  112POPC   PO4 1767   0.362   6.737   8.931  0.1644 -0.4811 -0.0617
  112POPC   GL1 1768   0.269   6.806   8.506  0.2905 -0.0980 -0.0522
  112POPC   GL2 1769   0.392   6.699   8.181 -0.0739 -0.0878  0.0230
  112POPC   C1A 1770   0.033   7.022   8.142 -0.0030 -0.0806  0.1875
  112POPC   D2A 1771  -0.385   7.164   7.829 -0.0148  0.0062  0.1211
  112POPC   C3A 1772  -0.140   7.269   7.382 -0.3040  0.0331 -0.0365
  112POPC   C4A 1773  -0.129   7.466   7.005 -0.2392 -0.2404  0.3593
  112POPC   C1B 1774   0.177   6.605   7.876  0.1144  0.1313 -0.3025
  112POPC   C2B 1775  -0.262   6.703   7.682 -0.0153 -0.1700  0.1096
  112POPC   C3B 1776  -0.200   6.844   7.189 -0.0771  0.2308  0.3009
  112POPC   C4B 1777   0.064   7.035   6.855  0.0899  0.1954 -0.1584
  113POPC   NC3 1778   0.330   9.590   8.519  0.0819 -0.2418  0.2190
  113POPC   PO4 1779   0.720   9.846   8.339  0.0639 -0.1970 -0.1847
  113POPC   GL1 1780   0.575   9.871   7.931 -0.1228 -0.3942  0.0539
  113POPC   GL2 1781   0.738  10.028   7.763  0.0219 -0.4925  0.1268
  113POPC   C1A 1782   0.420   9.718   7.531  0.0068 -0.0457 -0.2585
  113POPC   D2A 1783   0.427   9.616   7.135 -0.3925  0.1988  0.1893
  113POPC   C3A 1784   0.459   9.930   6.790 -0.0154 -0.6300 -0.0185
  113POPC   C4A 1785   0.786  10.179   6.557  0.0655  0.3193  0.3079
  113POPC   C1B 1786   0.839   9.924   7.349  0.1903  0.0855 -0.0715
  113POPC   C2B 1787   0.945  10.015   6.978 -0.3365  0.2385 -0.4104
  113POPC   C3B 1788   1.196  10.346   6.792  0.1050 -0.0076 -0.0275
  113POPC   C4B 1789   1.437  10.692   6.621 -0.2871  0.0585  0.3912
  114POPC   NC3 1790   3.424   0.159   8.398  0.0797  0.0714  0.2831
  114POPC   PO4 1791   3.888   0.155   8.497  0.1321 -0.1264 -0.0087
  114POPC   GL1 1792   3.870   0.286   8.072 -0.0866  0.0601  0.1214
  114POPC   GL2 1793   4.013   0.152   7.806  0.3066 -0.2582 -0.2257
  114POPC   C1A 1794   3.636   0.487   7.814 -0.1907 -0.2047  0.1709
  114POPC   D2A 1795   3.685   0.866   7.574  0.2332  0.0417 -0.1705
  114POPC   C3A 1796   3.552   0.974   7.146 -0.1571  0.0710 -0.4657
  114POPC   C4A 1797   3.475   0.912   6.704  0.2232 -0.2661 -0.0862
  114POPC   C1B 1798   3.893   0.351   7.438  0.2134 -0.0597 -0.0933
  114POPC   C2B 1799   3.530   0.500   7.267 -0.2699  0.0286  0.0866
  114POPC   C3B 1800   3.204   0.762   7.462 -0.1770  0.1327  0.4157
  114POPC   C4B 1801   2.833   0.568   7.515 -0.0655  0.0835 -0.0059
  115POPC   NC3 1802   6.911   3.701   8.392 -0.1404 -0.2289 -0.0363
  115POPC   PO4 1803   7.336   3.360   8.410 -0.0271 -0.0496 -0.1204
  115POPC   GL1 1804   7.430   3.071   8.058 -0.1021 -0.3585 -0.1161
  115POPC   GL2 1805   7.123   2.955   7.797  0.1154  0.0444 -0.0857
  115POPC   C1A 1806   7.706   2.952   7.749  0.3010  0.1130  0.0345
  115POPC   D2A 1807   7.811   2.934   7.320  0.1569  0.0221  0.2834
  115POPC   C3A 1808   7.706   3.201   7.122 -0.1682  0.0275  0.0623
  115POPC   C4A 1809   7.585   3.507   6.775 -0.1201  0.0086  0.0182
  115POPC   C1B 1810   7.308   3.211   7.424  0.2044  0.0853 -0.0105
  115POPC   C2B 1811   7.017   3.560   7.285 -0.0741  0.3705 -0.0424
  115POPC   C3B 1812   6.942   3.705   6.949  0.3141 -0.5168  0.2900
  115POPC   C4B 1813   6.749   3.896   6.703 -0.0839  0.0042 -0.1085
  116POPC   NC3 1814   0.944   8.960   8.660  0.1515 -0.1511  0.3136
  116POPC   PO4 1815   1.353   8.923   8.399  0.1032  0.2482 -0.0306
  116POPC   GL1 1816   1.139   8.852   8.060  0.3254  0.0401  0.0787
  116POPC   GL2 1817   1.178   9.105   7.922  0.2027 -0.3050 -0.0446
  116POPC   C1A 1818   0.738   8.913   7.880  0.1827  0.1347 -0.0985
  116POPC   D2A 1819   0.634   9.225   7.598  0.0648  0.1374 -0.3171
  116POPC   C3A 1820   0.518   9.156   7.069 -0.1307  0.1562  0.0765
  116POPC   C4A 1821   0.396   9.398   6.701  0.0693 -0.0904 -0.0318
  116POPC   C1B 1822   1.071   9.070   7.418 -0.1429 -0.2076 -0.1048
  116POPC   C2B 1823   1.022   9.001   6.968 -0.3654  0.3085 -0.2711
  116POPC   C3B 1824   0.825   8.831   6.647 -0.2196 -0.2018 -0.2672
  116POPC   C4B 1825   1.090   8.482   6.362  0.1399  0.0703  0.0110
  117POPC   NC3 1826   3.955   0.727   8.618  0.1150 -0.0430 -0.2798
  117POPC   PO4 1827   3.838   1.169   8.465 -0.2525 -0.0800  0.2754
  117POPC   GL1 1828   3.823   1.367   8.124 -0.2730 -0.2409  0.1299
  117POPC   GL2 1829   3.563   1.455   7.955  0.1359  0.1355  0.0653
  117POPC   C1A 1830   3.847   1.367   7.540 -0.0870  0.2211  0.0904
  117POPC   D2A 1831   3.780   1.426   7.150 -0.2496 -0.0374  0.0651
  117POPC   C3A 1832   3.869   1.247   6.818  0.0572  0.1497 -0.2107
  117POPC   C4A 1833   3.919   1.023   6.448  0.2068 -0.1968 -0.0694
  117POPC   C1B 1834   3.337   1.690   7.716 -0.2034  0.2208 -0.3206
  117POPC   C2B 1835   3.419   1.797   7.288 -0.1726  0.0642 -0.1145
  117POPC   C3B 1836   3.529   2.076   6.917  0.2032  0.0259  0.0757
  117POPC   C4B 1837   3.670   2.492   6.914  0.2072 -0.4813  0.1533
  118POPC   NC3 1838   9.127   6.375   9.698  0.0499 -0.1836 -0.0456
  118POPC   PO4 1839   8.847   6.609   9.546 -0.1580 -0.2019  0.1434
  118POPC   GL1 1840   9.086   6.477   9.078 -0.0453  0.0125 -0.1713
  118POPC   GL2 1841   8.936   6.809   8.928  0.0974  0.0922  0.4318
  118POPC   C1A 1842   9.309   6.621   8.685 -0.1737 -0.1318  0.3030
  118POPC   D2A 1843   9.256   6.492   8.185  0.0571 -0.1347  0.1973
  118POPC   C3A 1844   9.375   6.277   7.765  0.2024  0.0281 -0.2739
  118POPC   C4A 1845   9.425   5.885   7.404  0.0730  0.0728 -0.1700
  118POPC   C1B 1846   9.143   7.092   8.551  0.3049 -0.2464  0.2699
  118POPC   C2B 1847   9.393   6.977   8.233  0.3309  0.3395 -0.0184
  118POPC   C3B 1848   9.702   6.611   8.249 -0.3049 -0.2014  0.1109
  118POPC   C4B 1849  10.030   6.256   8.210 -0.0442 -0.0314  0.0839
  119POPC   NC3 1850   5.289   7.279   9.156  0.2795  0.0915  0.0483
  119POPC   PO4 1851   5.490   7.194   8.753  0.2412 -0.1680 -0.1074
  119POPC   GL1 1852   5.597   7.187   8.254 -0.3258 -0.1436  0.1111
  119POPC   GL2 1853   5.435   7.160   7.988  0.3690  0.2660  0.2842
  119POPC   C1A 1854   5.922   7.097   7.973 -0.0604  0.0905  0.3208
  119POPC   D2A 1855   6.099   6.728   7.674 -0.3420 -0.2040 -0.2979
  119POPC   C3A 1856   6.264   6.902   7.371  0.1276 -0.0542 -0.1205
  119POPC   C4A 1857   6.570   6.839   6.956  0.0558  0.0904 -0.0608
  119POPC   C1B 1858   5.571   6.832   7.750 -0.3670  0.1458 -0.1054
  119POPC   C2B 1859   5.570   6.597   7.370 -0.0318 -0.0935  0.1382
  119POPC   C3B 1860   5.282   6.394   7.148  0.1300  0.2484  0.0609
  119POPC   C4B 1861   5.054   6.278   6.769  0.0375 -0.0335  0.1488
  120POPC   NC3 1862   6.774   3.659   8.865 -0.0909 -0.2485 -0.2878
  120POPC   PO4 1863   6.503   3.513   8.546  0.0239 -0.1611  0.3466
  120POPC   GL1 1864   6.517   3.491   8.139 -0.2302  0.2019  0.0868
  120POPC   GL2 1865   6.821   3.323   8.047 -0.1940 -0.4222  0.1368
  120POPC   C1A 1866   6.375   3.597   7.722 -0.1518 -0.2635  0.0488
  120POPC   D2A 1867   6.145   3.887   7.624  0.0048  0.0526 -0.0075
  120POPC   C3A 1868   5.777   3.779   7.384  0.2961 -0.1829  0.1622
  120POPC   C4A 1869   5.390   3.597   7.298 -0.0321  0.0805  0.2696
  120POPC   C1B 1870   6.756   3.287   7.624  0.2878 -0.1157 -0.1262
  120POPC   C2B 1871   6.851   3.104   7.283 -0.2757  0.1510 -0.0440
  120POPC   C3B 1872   7.107   3.243   6.919 -0.0735  0.0866  0.2353
  120POPC   C4B 1873   7.284   3.209   6.492  0.1939 -0.0250 -0.1871
  121POPC   NC3 1874   0.541   4.802   8.201 -0.2714  0.0361  0.0819
  121POPC   PO4 1875   0.911   4.786   7.982 -0.0120  0.2368 -0.4584
  121POPC   GL1 1876   0.945   4.713   7.613  0.1409 -0.1836 -0.0381
  121POPC   GL2 1877   1.037   4.443   7.687 -0.1695  0.2229  0.0711
  121POPC   C1A 1878   1.200   4.623   7.208 -0.1785  0.0822  0.1095
  121POPC   D2A 1879   1.536   4.584   6.910 -0.1271  0.1103 -0.2043
  121POPC   C3A 1880   1.763   4.216   6.687  0.1335 -0.0374  0.1960
  121POPC   C4A 1881   2.034   4.333   6.254  0.0201 -0.1019 -0.0865
  121POPC   C1B 1882   0.934   4.246   7.222 -0.2807  0.2726 -0.2225
  121POPC   C2B 1883   0.683   4.262   6.888 -0.1374 -0.0092  0.0448
  121POPC   C3B 1884   0.469   4.162   6.541  0.1367 -0.1867 -0.1767
  121POPC   C4B 1885   0.338   3.907   6.258 -0.0400  0.0908  0.0251
  122POPC   NC3 1886   1.282   2.635   9.185 -0.2291 -0.1602  0.1061
  122POPC   PO4 1887   1.324   2.793   8.784 -0.0208 -0.1544  0.0508
  122POPC   GL1 1888   1.415   3.004   8.442 -0.0910  0.0371 -0.1173
  122POPC   GL2 1889   1.257   3.016   8.100 -0.1554 -0.1404 -0.0528
  122POPC   C1A 1890   1.703   2.853   8.061 -0.1873  0.2003  0.1849
  122POPC   D2A 1891   1.956   2.622   7.637 -0.0034  0.0301  0.0646
  122POPC   C3A 1892   1.760   2.380   7.200 -0.2777  0.0492 -0.0648
  122POPC   C4A 1893   1.500   2.002   7.217 -0.3091 -0.0184 -0.2230
  122POPC   C1B 1894   1.396   3.052   7.733 -0.0194  0.1214 -0.0544
  122POPC   C2B 1895   1.674   3.048   7.496  0.0617  0.0998  0.2706
  122POPC   C3B 1896   1.876   2.847   7.212  0.3438 -0.0555  0.2211
  122POPC   C4B 1897   2.016   2.757   6.873  0.0476 -0.1610 -0.0625
  123POPC   NC3 1898   4.548   9.495   8.405 -0.2029 -0.0637  0.0708
  123POPC   PO4 1899   4.965   9.425   8.496 -0.0496  0.1670  0.0718
  123POPC   GL1 1900   5.111   9.524   8.079 -0.1878 -0.0931  0.1281
  123POPC   GL2 1901   5.250   9.232   7.989  0.1119  0.0594  0.0866
  123POPC   C1A 1902   5.030   9.899   7.833 -0.3320  0.1503 -0.1877
  123POPC   D2A 1903   5.085  10.285   7.595 -0.0714  0.0178 -0.3429
  123POPC   C3A 1904   4.998  10.420   7.097 -0.0247 -0.0735  0.1949
  123POPC   C4A 1905   5.123  10.438   6.632 -0.0142 -0.5528 -0.1076
  123POPC   C1B 1906   5.284   9.531   7.590  0.2004 -0.0509 -0.3850
  123POPC   C2B 1907   5.296   9.364   7.106 -0.2308 -0.0837  0.1113
  123POPC   C3B 1908   5.648   9.422   6.806  0.0789 -0.5719  0.3181
  123POPC   C4B 1909   5.930   9.724   6.568  0.2624 -0.0793  0.2732
  124POPC   NC3 1910   2.197   4.980   8.387 -0.2042  0.0380 -0.0928
  124POPC   PO4 1911   2.464   4.800   8.083 -0.0501 -0.2828 -0.2335
  124POPC   GL1 1912   2.323   4.957   7.835 -0.1581  0.0269  0.1364
  124POPC   GL2 1913   2.205   5.248   7.964  0.1206  0.1013  0.1731
  124POPC   C1A 1914   2.133   5.104   7.354 -0.1064  0.1344  0.2236
  124POPC   D2A 1915   2.244   5.220   7.003 -0.0671  0.1455  0.0568
  124POPC   C3A 1916   2.447   4.955   6.656 -0.3589  0.2905  0.0159
  124POPC   C4A 1917   2.558   4.633   6.418  0.0509 -0.1753 -0.1089
  124POPC   C1B 1918   2.157   5.531   7.629  0.3356 -0.2580 -0.0805
  124POPC   C2B 1919   1.861   5.565   7.262 -0.1844 -0.0412  0.2616
  124POPC   C3B 1920   1.782   5.709   6.804 -0.1618  0.0486  0.0826
  124POPC   C4B 1921   1.455   5.767   6.464 -0.1927  0.1043  0.1127
  125POPC   NC3 1922   8.599   2.981   8.559  0.0082 -0.0313  0.2761
  125POPC   PO4 1923   8.192   2.860   8.856  0.0456  0.0688 -0.0620
  125POPC   GL1 1924   8.191   2.714   8.409 -0.2003  0.2716 -0.1345
  125POPC   GL2 1925   7.858   2.818   8.247 -0.0153 -0.0852  0.0374
  125POPC   C1A 1926   8.366   2.635   8.047  0.0973 -0.0448 -0.0519
  125POPC   D2A 1927   8.410   2.367   7.741  0.0151  0.2630 -0.4230
  125POPC   C3A 1928   8.687   2.370   7.486 -0.2766  0.0293 -0.3240
  125POPC   C4A 1929   8.960   2.128   7.308  0.2758 -0.0100 -0.1025
  125POPC   C1B 1930   7.907   2.486   7.833 -0.2122 -0.0777 -0.1586
  125POPC   C2B 1931   7.866   2.409   7.416  0.0175 -0.1267 -0.1844
  125POPC   C3B 1932   7.893   2.306   6.917  0.3121 -0.0226  0.1216
  125POPC   C4B 1933   7.590   2.159   6.677 -0.0750 -0.1115 -0.2028
  126POPC   NC3 1934   1.290   5.348   8.690  0.0504 -0.0391 -0.0401
  126POPC   PO4 1935   1.164   5.611   8.393  0.0818 -0.0676 -0.2108
  126POPC   GL1 1936   0.869   5.762   8.085  0.2827 -0.0531  0.1015
  126POPC   GL2 1937   0.893   5.610   7.737 -0.1930 -0.1922  0.3365
  126POPC   C1A 1938   0.904   6.137   7.887  0.0192  0.0287 -0.0834
  126POPC   D2A 1939   0.753   6.564   7.805 -0.0237  0.0461 -0.2111
  126POPC   C3A 1940   0.865   6.888   7.599 -0.0893 -0.1805  0.1600
  126POPC   C4A 1941   1.117   7.119   7.339 -0.2009 -0.0200 -0.1358
  126POPC   C1B 1942   0.687   5.926   7.476  0.3551 -0.0514  0.2361
  126POPC   C2B 1943   0.349   6.081   7.203  0.3036  0.0384  0.2764
  126POPC   C3B 1944   0.308   6.088   6.695  0.0761  0.3549 -0.0137
  126POPC   C4B 1945   0.373   6.018   6.258  0.0204  0.1321 -0.2756
  127POPC   NC3 1946   0.987   0.246   8.206 -0.1369 -0.0882 -0.1572
  127POPC   PO4 1947   0.888   0.665   8.463 -0.1244  0.0923  0.2705
  127POPC   GL1 1948   0.919   0.863   8.015  0.0111  0.1123 -0.0420
  127POPC   GL2 1949   0.982   0.519   7.761 -0.2896  0.1147  0.2107
  127POPC   C1A 1950   0.751   0.960   7.533 -0.2159 -0.2300 -0.0474
  127POPC   D2A 1951   0.531   1.022   7.161  0.1726 -0.0363 -0.1896
  127POPC   C3A 1952   0.289   0.927   6.975  0.1840 -0.2686  0.0558
  127POPC   C4A 1953  -0.115   0.918   6.743 -0.0683  0.1966 -0.0158
  127POPC   C1B 1954   1.184   0.791   7.516 -0.1380  0.4188  0.0433
  127POPC   C2B 1955   1.394   1.119   7.450 -0.1211  0.1627  0.2075
  127POPC   C3B 1956   1.452   1.524   7.076 -0.0460  0.0364 -0.3070
  127POPC   C4B 1957   1.695   1.907   6.789  0.2624  0.1523  0.1416
  128POPC   NC3 1958   1.209   9.767   8.481 -0.2448 -0.0425  0.0003
  128POPC   PO4 1959   1.412   9.413   8.236  0.0954 -0.1916 -0.0466
  128POPC   GL1 1960   1.583   9.511   7.882  0.2736 -0.0139  0.0372
  128POPC   GL2 1961   1.540   9.267   7.633  0.1834 -0.1074 -0.0978
  128POPC   C1A 1962   1.567   9.813   7.474 -0.1194 -0.0155  0.1981
  128POPC   D2A 1963   1.391   9.902   7.124 -0.4441  0.2051 -0.0434
  128POPC   C3A 1964   1.654   9.757   6.852 -0.1656  0.0838 -0.1703
  128POPC   C4A 1965   1.714   9.679   6.507 -0.1073  0.1540 -0.0075
  128POPC   C1B 1966   1.175   9.548   7.494  0.5336  0.1449  0.0316
  128POPC   C2B 1967   0.997   9.494   7.078 -0.0700  0.2220  0.0347
  128POPC   C3B 1968   0.889   9.467   6.729  0.3576  0.1042 -0.0335
  128POPC   C4B 1969   0.817   9.201   6.348  0.0614 -0.0432  0.0800
  129POPC   NC3 1970   0.989   6.701   8.205 -0.1089 -0.3033 -0.3275
  129POPC   PO4 1971   1.245   7.104   8.180 -0.4253 -0.2193 -0.2714
  129POPC   GL1 1972   1.473   7.039   7.754 -0.0055  0.2136  0.1493
  129POPC   GL2 1973   1.551   7.351   7.620 -0.0332 -0.0361  0.0190
  129POPC   C1A 1974   1.568   6.847   7.412  0.0118  0.3350  0.0998
  129POPC   D2A 1975   1.527   6.535   7.083 -0.4003 -0.0649  0.1258
  129POPC   C3A 1976   1.765   6.282   6.764 -0.2326 -0.1832  0.2593
  129POPC   C4A 1977   1.826   6.161   6.422 -0.0276  0.1075 -0.2187
  129POPC   C1B 1978   1.652   7.320   7.224  0.0064 -0.3081 -0.0773
  129POPC   C2B 1979   1.481   7.107   7.020  0.0795 -0.3112 -0.0745
  129POPC   C3B 1980   1.239   6.854   6.740 -0.1503  0.0039 -0.0479
  129POPC   C4B 1981   1.105   7.016   6.352 -0.0103 -0.0941 -0.2817
  130POPC   NC3 1982   3.558   1.950   8.894  0.4119 -0.3927 -0.0928
  130POPC   PO4 1983   4.038   1.682   8.838  0.3763 -0.1856 -0.0435
  130POPC   GL1 1984   4.255   1.501   8.535  0.2211 -0.0319  0.1342
  130POPC   GL2 1985   4.047   1.764   8.314 -0.1446  0.0560  0.0009
  130POPC   C1A 1986   4.347   1.262   8.070 -0.1219  0.0688  0.0942
  130POPC   D2A 1987   4.408   1.311   7.619  0.2156 -0.2781  0.4144
  130POPC   C3A 1988   4.164   1.026   7.352 -0.2472 -0.1091  0.3218
  130POPC   C4A 1989   3.985   0.769   7.091  0.2106 -0.0243 -0.0408
  130POPC   C1B 1990   4.153   1.695   7.897 -0.0641  0.2981 -0.1368
  130POPC   C2B 1991   4.493   1.832   7.634  0.0586 -0.1548 -0.1683
  130POPC   C3B 1992   4.487   1.978   7.272 -0.0954  0.0648 -0.1278
  130POPC   C4B 1993   4.610   2.298   6.949 -0.0174 -0.1197 -0.1333
  131POPC   NC3 1994   5.652   0.276   8.598  0.2814 -0.1998  0.2331
  131POPC   PO4 1995   5.225   0.372   8.567 -0.1477 -0.1087 -0.0631
  131POPC   GL1 1996   5.424   0.573   8.198  0.0098  0.2671 -0.0145
  131POPC   GL2 1997   5.257   0.469   8.019  0.1732  0.0984 -0.1321
  131POPC   C1A 1998   5.570   0.962   8.088  0.1111  0.0372 -0.0024
  131POPC   D2A 1999   5.388   1.279   7.860  0.1758 -0.0012  0.0930
  131POPC   C3A 2000   5.446   1.308   7.436 -0.2477 -0.0342  0.0353
  131POPC   C4A 2001   5.328   1.432   7.024  0.0410  0.1797  0.2677
  131POPC   C1B 2002   5.206   0.824   7.825 -0.0662  0.0467 -0.1556
  131POPC   C2B 2003   5.277   0.761   7.433 -0.2375 -0.1169 -0.1069
  131POPC   C3B 2004   5.250   0.914   7.051  0.0124 -0.2366  0.2704
  131POPC   C4B 2005   4.955   0.995   6.681  0.1206 -0.1453 -0.0904
  132POPC   NC3 2006   7.699   8.629   9.311 -0.1664 -0.1938 -0.0556
  132POPC   PO4 2007   8.055   8.466   9.108  0.5009 -0.3621 -0.0165
  132POPC   GL1 2008   8.266   8.328   8.927 -0.3349 -0.2383 -0.1406
  132POPC   GL2 2009   8.371   8.619   8.650 -0.1570  0.1633  0.0535
  132POPC   C1A 2010   8.408   7.972   8.732 -0.1537 -0.3642 -0.2168
  132POPC   D2A 2011   8.306   7.616   8.478  0.1216 -0.0965 -0.1469
  132POPC   C3A 2012   8.351   7.322   8.236  0.1411 -0.2730  0.0038
  132POPC   C4A 2013   8.736   7.146   8.166 -0.2142 -0.0190  0.0925
  132POPC   C1B 2014   8.700   8.711   8.231  0.1200 -0.2315  0.1756
  132POPC   C2B 2015   8.995   9.011   8.174 -0.4276 -0.1012 -0.0444
  132POPC   C3B 2016   9.358   9.222   8.092 -0.1235  0.2109 -0.1034
  132POPC   C4B 2017   9.746   9.227   7.817 -0.0782  0.0041  0.0727
  133POPC   NC3 2018   8.377   0.965   8.973 -0.1021 -0.1773 -0.2317
  133POPC   PO4 2019   8.251   1.019   8.554  0.3665  0.2549 -0.1059
  133POPC   GL1 2020   8.267   0.831   8.253 -0.1481 -0.2143 -0.0703
  133POPC   GL2 2021   8.588   0.911   8.137 -0.0877 -0.1368 -0.2616
  133POPC   C1A 2022   8.216   0.970   7.788  0.0086  0.1757 -0.1263
  133POPC   D2A 2023   8.361   1.244   7.434 -0.1500  0.0027  0.1149
  133POPC   C3A 2024   8.359   1.196   7.000  0.1682  0.1231  0.0460
  133POPC   C4A 2025   8.167   1.220   6.617 -0.3117  0.1621 -0.2223
  133POPC   C1B 2026   8.516   0.565   7.922 -0.3013 -0.0829 -0.0506
  133POPC   C2B 2027   8.618   0.331   7.522 -0.1276 -0.2420 -0.0620
  133POPC   C3B 2028   8.903   0.219   7.238  0.1007  0.2783 -0.0255
  133POPC   C4B 2029   9.062   0.206   6.753 -0.1457  0.3897 -0.0901
  134POPC   NC3 2030   6.597   4.746   9.106  0.3710 -0.2994  0.2200
  134POPC   PO4 2031   6.639   4.979   8.836 -0.1491 -0.0642 -0.0059
  134POPC   GL1 2032   6.599   5.087   8.466 -0.2422 -0.2334 -0.0277
  134POPC   GL2 2033   6.292   5.054   8.448 -0.1137 -0.0225  0.1198
  134POPC   C1A 2034   6.672   5.331   8.208  0.0070  0.0229 -0.3934
  134POPC   D2A 2035   6.837   5.723   8.010 -0.2926  0.0990  0.0770
  134POPC   C3A 2036   6.969   6.113   8.195 -0.0772 -0.2642 -0.1193
  134POPC   C4A 2037   7.146   6.418   8.565 -0.0582  0.1867 -0.2938
  134POPC   C1B 2038   6.201   5.097   8.012 -0.1517  0.0978  0.1378
  134POPC   C2B 2039   6.269   4.878   7.701  0.1237  0.0211  0.1932
  134POPC   C3B 2040   6.664   4.787   7.481 -0.1632 -0.0801 -0.1790
  134POPC   C4B 2041   6.653   4.694   7.014 -0.0872  0.2163 -0.4980
  135POPC   NC3 2042   0.083   8.681   8.656 -0.0326  0.2272  0.3516
  135POPC   PO4 2043   0.228   9.060   8.516 -0.0248  0.1060  0.1321
  135POPC   GL1 2044   0.286   9.110   8.063  0.0420  0.2125  0.1159
  135POPC   GL2 2045   0.217   9.498   7.917  0.0027  0.1723  0.3131
  135POPC   C1A 2046   0.187   8.811   7.770  0.2177  0.1354  0.3524
  135POPC   D2A 2047   0.461   8.739   7.314  0.0367 -0.1719  0.2542
  135POPC   C3A 2048   0.927   8.572   7.151  0.1519  0.2087  0.0646
  135POPC   C4A 2049   1.258   8.617   6.790 -0.4619  0.0807  0.2832
  135POPC   C1B 2050   0.065   9.351   7.471 -0.0126  0.0921  0.1781
  135POPC   C2B 2051   0.056   9.071   7.175  0.0096  0.0744 -0.0334
  135POPC   C3B 2052   0.245   8.932   6.713  0.0390  0.2515  0.5026
  135POPC   C4B 2053   0.308   8.986   6.372  0.1855 -0.0436  0.1159
  136POPC   NC3 2054   3.032   3.142   8.248 -0.2594 -0.0495  0.2106
  136POPC   PO4 2055   2.682   2.948   8.418  0.1350  0.0131 -0.1917
  136POPC   GL1 2056   2.575   2.875   8.033 -0.1188 -0.0801  0.0247
  136POPC   GL2 2057   2.300   3.013   7.797  0.1000  0.0824  0.2681
  136POPC   C1A 2058   2.755   3.048   7.637 -0.2125  0.0371 -0.2552
  136POPC   D2A 2059   2.750   3.279   7.230  0.1088 -0.1310  0.3644
  136POPC   C3A 2060   2.957   3.144   6.895 -0.1881 -0.2385  0.3552
  136POPC   C4A 2061   3.172   2.860   6.657 -0.0324  0.4816  0.0699
  136POPC   C1B 2062   2.273   2.919   7.437 -0.0663 -0.0073  0.0897
  136POPC   C2B 2063   2.269   2.509   7.212 -0.1691  0.3883  0.0462
  136POPC   C3B 2064   2.621   2.184   7.223  0.2173  0.1152 -0.1094
  136POPC   C4B 2065   2.896   2.248   7.411 -0.1773 -0.0671 -0.1001
  137POPC   NC3 2066   8.074   8.975   8.886 -0.0559  0.1415  0.0354
  137POPC   PO4 2067   8.579   9.124   8.950  0.2807 -0.0192 -0.3085
  137POPC   GL1 2068   8.494   9.186   8.492 -0.0415  0.1324 -0.0392
  137POPC   GL2 2069   8.564   9.248   8.133  0.0431  0.2161  0.2849
  137POPC   C1A 2070   8.255   8.908   8.234  0.0733 -0.0053 -0.4347
  137POPC   D2A 2071   8.290   8.544   7.947  0.1907 -0.4021  0.2499
  137POPC   C3A 2072   8.229   8.233   8.225 -0.3877  0.2498  0.0013
  137POPC   C4A 2073   7.891   7.954   8.479  0.0357  0.2425 -0.0914
  137POPC   C1B 2074   8.535   8.918   7.754 -0.0068 -0.0629 -0.0382
  137POPC   C2B 2075   8.728   8.679   7.440 -0.1344 -0.2148  0.0231
  137POPC   C3B 2076   9.000   8.695   6.951  0.2433 -0.0027 -0.0388
  137POPC   C4B 2077   8.891   8.636   6.670 -0.0331  0.2111 -0.0280
  138POPC   NC3 2078   2.151   1.103   8.776 -0.1943 -0.0537 -0.2519
  138POPC   PO4 2079   1.884   1.062   8.340 -0.2128  0.0654  0.2617
  138POPC   GL1 2080   1.716   1.042   7.893 -0.0614 -0.2395 -0.0847
  138POPC   GL2 2081   1.541   1.354   7.867  0.0166  0.0272 -0.2495
  138POPC   C1A 2082   1.748   0.751   7.484 -0.1150  0.1779  0.0433
  138POPC   D2A 2083   1.420   0.651   7.125  0.3206  0.0441 -0.0202
  138POPC   C3A 2084   1.177   0.957   7.022 -0.1043  0.0481  0.1684
  138POPC   C4A 2085   1.242   1.191   6.626 -0.0654 -0.1487 -0.1592
  138POPC   C1B 2086   1.757   1.612   7.615 -0.3857  0.1473  0.3412
  138POPC   C2B 2087   1.949   1.711   7.253  0.1973  0.0160 -0.1963
  138POPC   C3B 2088   2.147   2.024   6.960  0.0305 -0.1610 -0.0184
  138POPC   C4B 2089   2.414   2.304   6.694  0.0934 -0.4069 -0.4435
  139POPC   NC3 2090   5.022   5.148   8.794  0.2182  0.0819 -0.3655
  139POPC   PO4 2091   5.020   5.518   8.538 -0.0771 -0.0774 -0.1448
  139POPC   GL1 2092   5.042   5.676   8.076  0.0677  0.1875 -0.0160
  139POPC   GL2 2093   5.204   5.479   7.964 -0.1302 -0.1429 -0.0141
  139POPC   C1A 2094   4.817   5.956   7.904 -0.0458 -0.1222 -0.1261
  139POPC   D2A 2095   4.683   5.796   7.500 -0.0748  0.5284  0.2017
  139POPC   C3A 2096   5.041   5.857   7.109 -0.0963 -0.0894 -0.0003
  139POPC   C4A 2097   5.417   5.872   6.858 -0.5158 -0.1291  0.1326
  139POPC   C1B 2098   5.373   5.493   7.523  0.1131  0.0727 -0.2551
  139POPC   C2B 2099   5.448   5.484   7.141  0.1050 -0.0189 -0.1058
  139POPC   C3B 2100   5.426   5.465   6.671  0.0245 -0.0123  0.0663
  139POPC   C4B 2101   5.336   5.299   6.273  0.1112  0.1087 -0.0353
  140POPC   NC3 2102   8.105   6.089   9.206  0.0340 -0.0281 -0.3246
  140POPC   PO4 2103   7.880   6.285   9.068 -0.1226 -0.2600  0.1592
  140POPC   GL1 2104   7.712   6.263   8.738 -0.1638 -0.1760  0.0443
  140POPC   GL2 2105   7.889   6.365   8.444 -0.2908  0.0537  0.1334
  140POPC   C1A 2106   7.522   5.871   8.580  0.0317  0.0067  0.0322
  140POPC   D2A 2107   7.199   5.663   8.333  0.2916 -0.0099 -0.1713
  140POPC   C3A 2108   7.364   5.791   7.903 -0.0915  0.0614  0.0052
  140POPC   C4A 2109   7.495   6.093   7.670  0.1231  0.1077 -0.2236
  140POPC   C1B 2110   8.216   6.652   8.385 -0.3463 -0.2447 -0.2431
  140POPC   C2B 2111   8.328   6.765   8.042 -0.2646 -0.3659 -0.0480
  140POPC   C3B 2112   8.381   7.131   7.721 -0.1808 -0.1816  0.0847
  140POPC   C4B 2113   8.575   7.370   7.512 -0.1021  0.1093 -0.5315
  141POPC   NC3 2114   1.801   6.332   8.692  0.0516 -0.0775 -0.2887
  141POPC   PO4 2115   1.995   6.434   8.293  0.0855 -0.1361 -0.0430
  141POPC   GL1 2116   1.903   6.291   7.928 -0.0114 -0.0653  0.2042
  141POPC   GL2 2117   2.173   6.062   7.757  0.1892  0.2907 -0.2090
  141POPC   C1A 2118   1.715   6.237   7.536 -0.1912 -0.1387 -0.0294
  141POPC   D2A 2119   1.623   6.050   7.234 -0.2379  0.1167 -0.1727
  141POPC   C3A 2120   1.407   5.609   7.136 -0.2974 -0.2189 -0.1446
  141POPC   C4A 2121   1.402   5.378   6.748  0.3228  0.0663  0.1206
  141POPC   C1B 2122   2.240   5.970   7.355 -0.0868  0.0199 -0.3476
  141POPC   C2B 2123   2.252   5.702   6.986  0.1355  0.2441 -0.3505
  141POPC   C3B 2124   2.345   5.608   6.593 -0.2690 -0.3727 -0.0684
  141POPC   C4B 2125   2.511   5.776   6.139 -0.1015 -0.2406  0.2553
  142POPC   NC3 2126   1.246   1.134   8.274 -0.0460  0.0965  0.1871
  142POPC   PO4 2127   1.281   1.610   8.294 -0.1125 -0.1826 -0.2394
  142POPC   GL1 2128   1.581   1.861   8.118 -0.0582  0.1833  0.0587
  142POPC   GL2 2129   1.713   2.109   8.218 -0.1061  0.2420 -0.0767
  142POPC   C1A 2130   1.699   2.104   7.688 -0.1815 -0.2256 -0.0503
  142POPC   D2A 2131   2.150   2.150   7.547 -0.1474  0.1379  0.1135
  142POPC   C3A 2132   2.520   2.045   7.735  0.0377 -0.0095  0.1196
  142POPC   C4A 2133   2.840   1.949   7.869  0.0194 -0.3345 -0.1763
  142POPC   C1B 2134   2.071   2.333   8.026 -0.2499  0.2700 -0.1364
  142POPC   C2B 2135   2.343   2.486   7.903  0.0022  0.1674 -0.1452
  142POPC   C3B 2136   2.605   2.544   7.614 -0.0823 -0.0516 -0.3419
  142POPC   C4B 2137   2.758   2.695   7.197 -0.0350  0.1278  0.1555
  143POPC   NC3 2138   3.127   7.155   8.255 -0.3171  0.2998  0.2698
  143POPC   PO4 2139   2.922   7.562   8.138 -0.1560 -0.1299  0.1106
  143POPC   GL1 2140   2.753   7.512   7.839 -0.4802 -0.0583 -0.1631
  143POPC   GL2 2141   2.473   7.390   7.701 -0.3243  0.1939  0.1347
  143POPC   C1A 2142   2.874   7.320   7.426 -0.0429 -0.0853  0.3706
  143POPC   D2A 2143   3.257   7.528   7.347  0.3528  0.2163  0.1271
  143POPC   C3A 2144   3.543   7.920   7.296  0.1437  0.2051 -0.3878
  143POPC   C4A 2145   3.479   8.285   7.042  0.1226 -0.4688 -0.2572
  143POPC   C1B 2146   2.261   7.353   7.391  0.0501 -0.3722  0.0627
  143POPC   C2B 2147   2.104   7.536   7.047 -0.3118 -0.0783  0.0005
  143POPC   C3B 2148   2.035   7.299   6.777 -0.2869  0.2386 -0.1250
  143POPC   C4B 2149   2.039   7.358   6.337 -0.1577 -0.2002  0.3331
  144POPC   NC3 2150   0.029   5.203   8.996  0.0412  0.2369 -0.1108
  144POPC   PO4 2151  -0.430   5.065   8.822 -0.0475 -0.0910 -0.1439
  144POPC   GL1 2152  -0.578   5.127   8.493 -0.4293  0.0540 -0.2970
  144POPC   GL2 2153  -0.557   5.442   8.365 -0.2695  0.0155 -0.1949
  144POPC   C1A 2154  -0.541   5.137   7.977  0.0554  0.3194  0.0118
  144POPC   D2A 2155  -0.324   4.961   7.771 -0.3589 -0.0232  0.2501
  144POPC   C3A 2156  -0.286   4.997   7.314  0.0102 -0.0480  0.2161
  144POPC   C4A 2157  -0.369   5.041   6.814 -0.1617  0.1857 -0.0110
  144POPC   C1B 2158  -0.999   5.378   8.133  0.0207  0.1962  0.0790
  144POPC   C2B 2159  -1.426   5.532   8.068 -0.0048  0.2080 -0.3625
  144POPC   C3B 2160  -1.782   5.693   7.841 -0.2784 -0.0136 -0.2288
  144POPC   C4B 2161  -2.101   5.605   7.635 -0.0372 -0.0677  0.0606
  145POPC   NC3 2162   3.155   8.405   8.180  0.1706 -0.0170  0.0047
  145POPC   PO4 2163   2.819   8.041   8.130  0.1869  0.1128  0.0229
  145POPC   GL1 2164   2.925   8.377   7.740  0.2579 -0.0806  0.1085
  145POPC   GL2 2165   3.057   8.699   7.724  0.2192 -0.2217 -0.1913
  145POPC   C1A 2166   3.082   8.388   7.310  0.2929 -0.4429  0.0173
  145POPC   D2A 2167   2.997   8.389   6.893  0.0774 -0.1760  0.0070
  145POPC   C3A 2168   3.207   8.096   6.561  0.0507 -0.3178 -0.2136
  145POPC   C4A 2169   3.661   7.963   6.694  0.2129  0.1794 -0.1031
  145POPC   C1B 2170   2.916   8.899   7.289  0.1873  0.0880  0.3602
  145POPC   C2B 2171   2.899   9.168   7.058  0.2021 -0.2175  0.0269
  145POPC   C3B 2172   2.956   9.471   6.692  0.1178  0.1435 -0.2239
  145POPC   C4B 2173   2.902   9.646   6.287 -0.2026  0.0604 -0.5418
  146POPC   NC3 2174   1.596   8.848   7.923  0.1460  0.0460  0.0559
  146POPC   PO4 2175   1.996   8.641   8.026  0.3385 -0.4172 -0.0263
  146POPC   GL1 2176   1.914   8.545   7.554 -0.1417  0.0597 -0.1458
  146POPC   GL2 2177   2.032   8.273   7.519  0.0829  0.1952 -0.1739
  146POPC   C1A 2178   2.172   8.585   7.152  0.0864  0.0229  0.2990
  146POPC   D2A 2179   2.554   8.775   6.980 -0.0299 -0.0990  0.0915
  146POPC   C3A 2180   2.842   8.803   6.561 -0.0252  0.0961  0.1040
  146POPC   C4A 2181   3.177   8.609   6.329  0.1987  0.3559 -0.2607
  146POPC   C1B 2182   2.022   8.074   7.186 -0.0092  0.0499  0.1807
  146POPC   C2B 2183   2.023   8.010   6.750  0.0506 -0.1404 -0.0507
  146POPC   C3B 2184   1.979   7.883   6.329 -0.3503  0.2516 -0.0733
  146POPC   C4B 2185   2.308   7.730   6.054 -0.2091  0.0125  0.0643
  147POPC   NC3 2186   3.761   4.482   8.689  0.1330 -0.0876  0.1396
  147POPC   PO4 2187   3.380   4.597   8.481  0.0980 -0.2297 -0.1842
  147POPC   GL1 2188   3.198   4.633   8.042  0.3115 -0.1184 -0.2473
  147POPC   GL2 2189   2.877   4.693   7.921 -0.2088 -0.2275  0.0044
  147POPC   C1A 2190   3.282   4.732   7.682  0.0820  0.0300 -0.1533
  147POPC   D2A 2191   3.632   4.630   7.440  0.0922  0.3733 -0.1868
  147POPC   C3A 2192   3.920   4.843   7.678 -0.3815 -0.0196 -0.0981
  147POPC   C4A 2193   4.311   5.011   7.621  0.0057 -0.0456 -0.3052
  147POPC   C1B 2194   2.799   4.755   7.493  0.0713  0.1250 -0.0474
  147POPC   C2B 2195   2.693   4.989   7.097 -0.3691  0.0058  0.1096
  147POPC   C3B 2196   3.035   4.982   6.678 -0.1807 -0.1334  0.0986
  147POPC   C4B 2197   3.415   4.801   6.347  0.0859  0.4551  0.0963
  148POPC   NC3 2198   7.941   9.765   9.179  0.1070 -0.0900  0.1304
  148POPC   PO4 2199   7.607   9.550   8.854  0.2372 -0.0846 -0.1239
  148POPC   GL1 2200   7.618   9.561   8.423  0.1202 -0.3683  0.0927
  148POPC   GL2 2201   7.804   9.830   8.266  0.3634 -0.0957 -0.0173
  148POPC   C1A 2202   7.478   9.362   7.986 -0.1516 -0.0707 -0.0884
  148POPC   D2A 2203   7.302   9.303   7.620 -0.0814 -0.0154  0.1617
  148POPC   C3A 2204   7.402   9.375   7.094 -0.0885 -0.0411 -0.0384
  148POPC   C4A 2205   7.506   9.388   6.594 -0.0192  0.0945  0.0176
  148POPC   C1B 2206   7.811   9.802   7.921 -0.0706  0.0475  0.0104
  148POPC   C2B 2207   8.075   9.955   7.510  0.0230  0.1132 -0.2050
  148POPC   C3B 2208   8.453   9.814   7.375 -0.0535 -0.1386  0.1731
  148POPC   C4B 2209   8.530   9.896   7.031  0.0677  0.0553  0.0157
  149POPC   NC3 2210   6.331   5.986   8.926  0.3080  0.1835  0.0384
  149POPC   PO4 2211   6.123   6.430   8.845  0.0046  0.0955 -0.0296
  149POPC   GL1 2212   6.111   6.477   8.414 -0.0450  0.2465  0.0592
  149POPC   GL2 2213   5.851   6.688   8.193 -0.2040  0.1355 -0.3885
  149POPC   C1A 2214   6.445   6.831   8.216 -0.0739  0.1993  0.0293
  149POPC   D2A 2215   6.592   6.876   7.841 -0.0171 -0.0770  0.2266
  149POPC   C3A 2216   6.384   7.242   7.759 -0.0181 -0.1505  0.0563
  149POPC   C4A 2217   6.226   7.482   7.449  0.0833 -0.0125 -0.0026
  149POPC   C1B 2218   5.633   6.274   7.999  0.2244  0.0205  0.1944
  149POPC   C2B 2219   5.340   5.921   7.756  0.0716 -0.0408 -0.1449
  149POPC   C3B 2220   5.433   6.002   7.345  0.1191 -0.0021 -0.1074
  149POPC   C4B 2221   5.734   6.196   7.090  0.4693  0.0308 -0.2908
  150POPC   NC3 2222   6.971   0.443   4.350  0.2200 -0.1863 -0.1204
  150POPC   PO4 2223   7.448   0.214   4.422  0.2384 -0.1681  0.0833
  150POPC   GL1 2224   7.414  -0.081   4.756  0.0118  0.1465  0.1943
  150POPC   GL2 2225   7.674   0.127   4.979 -0.0090 -0.0820 -0.1941
  150POPC   C1A 2226   7.149  -0.095   5.137 -0.0003 -0.3085  0.0827
  150POPC   D2A 2227   7.031  -0.420   5.477  0.0934 -0.0849  0.2607
  150POPC   C3A 2228   6.773  -0.330   5.833  0.1319 -0.0447 -0.0842
  150POPC   C4A 2229   6.739  -0.133   6.188  0.1401 -0.1881  0.1844
  150POPC   C1B 2230   7.738   0.056   5.451 -0.1914 -0.1857 -0.0918
  150POPC   C2B 2231   7.650   0.046   5.902 -0.0862 -0.1112 -0.0956
  150POPC   C3B 2232   7.786  -0.126   6.371  0.0060 -0.1510 -0.1622
  150POPC   C4B 2233   7.785  -0.181   6.783 -0.1500 -0.0225 -0.1888
  151POPC   NC3 2234   0.625   5.258   3.921  0.0601 -0.1221 -0.1519
  151POPC   PO4 2235   0.652   4.789   3.925  0.0537 -0.0944  0.1178
  151POPC   GL1 2236   0.667   5.024   4.394  0.0460 -0.2539 -0.0093
  151POPC   GL2 2237   0.546   4.799   4.633 -0.0021 -0.1843 -0.0068
  151POPC   C1A 2238   0.766   5.392   4.610  0.2014 -0.0212 -0.0540
  151POPC   D2A 2239   0.545   5.638   4.834  0.3219 -0.1390 -0.1966
  151POPC   C3A 2240   0.667   5.997   5.024  0.1927  0.1067 -0.2798
  151POPC   C4A 2241   0.697   6.241   5.389  0.0649  0.3100 -0.0060
  151POPC   C1B 2242   0.281   4.663   4.924 -0.1982  0.0065  0.0731
  151POPC   C2B 2243  -0.044   4.694   5.072 -0.0476  0.2974  0.0308
  151POPC   C3B 2244  -0.075   4.924   5.505 -0.2600  0.1111  0.0675
  151POPC   C4B 2245   0.001   5.072   5.883 -0.1805 -0.1657  0.3233
  152POPC   NC3 2246   8.147   4.432   4.244 -0.4198 -0.1441 -0.0191
  152POPC   PO4 2247   7.739   4.572   4.318  0.0337 -0.0628  0.2434
  152POPC   GL1 2248   7.498   4.786   4.551 -0.0484  0.0076  0.0520
  152POPC   GL2 2249   7.666   4.751   4.860  0.0281 -0.1419  0.1431
  152POPC   C1A 2250   7.106   4.952   4.613 -0.0262 -0.2038  0.0972
  152POPC   D2A 2251   6.744   5.099   4.824  0.1060 -0.1794 -0.0136
  152POPC   C3A 2252   6.862   5.042   5.222  0.1128  0.3535 -0.1995
  152POPC   C4A 2253   6.853   4.609   5.437 -0.1753  0.0334  0.0100
  152POPC   C1B 2254   7.813   4.844   5.252  0.0900 -0.1996  0.1902
  152POPC   C2B 2255   8.194   5.091   5.417  0.0694 -0.2418 -0.1055
  152POPC   C3B 2256   8.240   5.153   5.877 -0.1086 -0.0861  0.0959
  152POPC   C4B 2257   8.138   4.978   6.245  0.2054  0.2918 -0.1416
  153POPC   NC3 2258   1.735   2.210   4.247  0.0621 -0.0924  0.0064
  153POPC   PO4 2259   1.869   2.060   4.706  0.0511 -0.4243 -0.0293
  153POPC   GL1 2260   1.704   2.281   5.076 -0.0449  0.2596  0.1166
  153POPC   GL2 2261   1.433   2.104   5.305 -0.1870  0.0690  0.1609
  153POPC   C1A 2262   1.902   2.482   5.388  0.2887  0.0358 -0.4216
  153POPC   D2A 2263   2.189   2.757   5.527  0.1579 -0.0287  0.1180
  153POPC   C3A 2264   2.399   2.687   5.882  0.0490  0.1421 -0.2684
  153POPC   C4A 2265   2.331   2.319   6.123  0.3154 -0.2037  0.3395
  153POPC   C1B 2266   1.722   2.023   5.619  0.1840  0.0599  0.1921
  153POPC   C2B 2267   1.973   1.905   5.967 -0.0594  0.1385  0.3115
  153POPC   C3B 2268   2.281   1.747   6.269 -0.0892  0.0068 -0.0516
  153POPC   C4B 2269   2.093   1.657   6.674 -0.0464  0.3327  0.0917
  154POPC   NC3 2270   7.856   0.597   4.928  0.2248  0.1239  0.3285
  154POPC   PO4 2271   7.778   0.992   5.137  0.0176  0.1133 -0.0007
  154POPC   GL1 2272   7.650   0.917   5.601  0.2158  0.1336  0.0760
  154POPC   GL2 2273   7.808   1.140   5.858  0.0676 -0.0175  0.0731
  154POPC   C1A 2274   7.385   0.569   5.809 -0.1414  0.1581 -0.0405
  154POPC   D2A 2275   7.426   0.312   6.292  0.0927  0.2204  0.0601
  154POPC   C3A 2276   7.288  -0.111   6.498  0.0732  0.0284 -0.3356
  154POPC   C4A 2277   6.986  -0.419   6.554 -0.2046 -0.1112  0.1790
  154POPC   C1B 2278   7.873   1.087   6.294 -0.0056  0.0715 -0.0143
  154POPC   C2B 2279   7.684   1.085   6.687 -0.0395  0.0417 -0.1699
  154POPC   C3B 2280   7.393   1.284   7.028  0.2234  0.2002 -0.0941
  154POPC   C4B 2281   7.247   1.643   6.886 -0.2387 -0.0016 -0.0593
  155POPC   NC3 2282   4.373   7.333   4.028 -0.2670 -0.0668  0.2921
  155POPC   PO4 2283   4.288   7.807   4.131 -0.2274  0.0956  0.1669
  155POPC   GL1 2284   4.382   7.689   4.573 -0.1380  0.0969  0.2223
  155POPC   GL2 2285   4.020   7.823   4.785 -0.1135 -0.1687  0.0914
  155POPC   C1A 2286   4.530   7.699   4.980 -0.0887  0.0366 -0.0110
  155POPC   D2A 2287   4.626   7.546   5.363 -0.1106  0.0294  0.0595
  155POPC   C3A 2288   4.982   7.410   5.556 -0.0486  0.2048  0.0354
  155POPC   C4A 2289   5.205   7.239   5.758  0.3003 -0.0500  0.2694
  155POPC   C1B 2290   4.100   7.903   5.201 -0.1362 -0.1844  0.0368
  155POPC   C2B 2291   4.329   8.080   5.525  0.2747 -0.0149  0.1949
  155POPC   C3B 2292   4.278   8.455   5.842  0.1350  0.2279 -0.0459
  155POPC   C4B 2293   4.007   8.429   6.121 -0.1883 -0.1989 -0.0776
  156POPC   NC3 2294   0.930   2.622   4.065 -0.0184 -0.1934 -0.2128
  156POPC   PO4 2295   0.560   2.686   4.298 -0.0049  0.0217  0.3220
  156POPC   GL1 2296   0.715   2.780   4.784  0.0516 -0.2246 -0.1010
  156POPC   GL2 2297   0.510   3.021   4.857 -0.2289 -0.1957 -0.0348
  156POPC   C1A 2298   0.823   2.442   5.139 -0.0086  0.2431 -0.0682
  156POPC   D2A 2299   0.981   2.241   5.429  0.0714 -0.1223  0.0063
  156POPC   C3A 2300   0.857   2.177   5.784  0.2304  0.0007 -0.2089
  156POPC   C4A 2301   0.692   2.068   6.186 -0.0663 -0.1922 -0.0880
  156POPC   C1B 2302   0.315   2.620   5.144 -0.1627 -0.0868 -0.0801
  156POPC   C2B 2303   0.033   2.338   5.360 -0.2260  0.1841 -0.0328
  156POPC   C3B 2304   0.050   1.877   5.324 -0.0097 -0.2305 -0.0947
  156POPC   C4B 2305   0.165   1.415   5.076  0.0665 -0.3379 -0.0725
  157POPC   NC3 2306   4.679   3.986   4.662 -0.0794  0.1414  0.0937
  157POPC   PO4 2307   4.402   4.428   4.593  0.0085 -0.1027  0.0108
  157POPC   GL1 2308   4.409   4.401   5.015  0.2791 -0.4831 -0.0981
  157POPC   GL2 2309   4.471   3.918   5.152 -0.2883 -0.2909  0.0701
  157POPC   C1A 2310   4.365   4.570   5.369  0.1072 -0.3320  0.1367
  157POPC   D2A 2311   4.243   4.441   5.723 -0.1202 -0.1891  0.0521
  157POPC   C3A 2312   4.021   4.668   6.024 -0.1232  0.0421  0.1140
  157POPC   C4A 2313   3.935   4.756   6.448 -0.0622  0.0445  0.0174
  157POPC   C1B 2314   4.550   3.958   5.605 -0.1218 -0.5216  0.4670
  157POPC   C2B 2315   5.039   3.949   5.962  0.0617 -0.1498 -0.0409
  157POPC   C3B 2316   5.205   4.129   6.362 -0.0002  0.0260  0.0953
  157POPC   C4B 2317   5.439   4.188   6.626  0.0568  0.3801  0.1274
  158POPC   NC3 2318   7.757   3.460   4.503 -0.4157 -0.1468 -0.1918
  158POPC   PO4 2319   7.705   3.633   4.775  0.1465 -0.0157  0.2158
  158POPC   GL1 2320   7.579   3.580   5.162  0.0063  0.1194 -0.1852
  158POPC   GL2 2321   7.497   3.810   5.205 -0.1949 -0.1922 -0.1116
  158POPC   C1A 2322   7.613   3.604   5.656 -0.0489 -0.1650  0.1670
  158POPC   D2A 2323   7.489   3.488   6.069 -0.0772  0.0161 -0.0973
  158POPC   C3A 2324   7.111   3.587   6.243  0.2340  0.1250 -0.0550
  158POPC   C4A 2325   6.697   3.572   6.180 -0.2463 -0.1597  0.0454
  158POPC   C1B 2326   7.205   4.146   5.236 -0.0172 -0.0455 -0.0732
  158POPC   C2B 2327   7.245   4.699   5.157 -0.0961  0.0701 -0.1026
  158POPC   C3B 2328   7.400   5.057   5.059 -0.0385 -0.0545  0.0982
  158POPC   C4B 2329   7.312   5.503   4.893 -0.0180  0.0452  0.2041
  159POPC   NC3 2330   3.903   2.207   4.739 -0.0678 -0.1048  0.0201
  159POPC   PO4 2331   4.338   2.222   4.908  0.1789 -0.1196 -0.0085
  159POPC   GL1 2332   4.081   2.132   5.286 -0.1505  0.0644  0.0635
  159POPC   GL2 2333   4.365   1.879   5.383  0.2048 -0.1299  0.0333
  159POPC   C1A 2334   3.768   2.027   5.432  0.1420  0.2669  0.4660
  159POPC   D2A 2335   3.360   2.187   5.397 -0.2095  0.0038 -0.1981
  159POPC   C3A 2336   3.152   2.638   5.466  0.2311  0.4915 -0.0228
  159POPC   C4A 2337   2.815   2.833   5.530 -0.0130  0.1326  0.1721
  159POPC   C1B 2338   4.403   2.090   5.754 -0.0923  0.1088  0.1061
  159POPC   C2B 2339   4.434   2.176   6.085  0.1987 -0.2136  0.5001
  159POPC   C3B 2340   4.095   2.254   6.274  0.4140 -0.1171 -0.0197
  159POPC   C4B 2341   3.817   2.050   6.512  0.0160 -0.1021  0.1554
  160POPC   NC3 2342   8.830   4.845   3.823  0.0732 -0.0693  0.0563
  160POPC   PO4 2343   9.237   5.103   4.042  0.2213 -0.2296 -0.3311
  160POPC   GL1 2344   9.194   5.120   4.454 -0.0448 -0.1892  0.2025
  160POPC   GL2 2345   9.416   4.955   4.645  0.2059 -0.0433  0.1404
  160POPC   C1A 2346   9.015   5.219   4.831 -0.1926  0.2179 -0.2142
  160POPC   D2A 2347   8.626   5.134   5.073  0.0960  0.0081  0.0689
  160POPC   C3A 2348   8.762   4.925   5.393  0.0807  0.0250  0.1184
  160POPC   C4A 2349   8.924   5.095   5.832 -0.1176  0.2463  0.2251
  160POPC   C1B 2350   9.351   4.824   5.109  0.0132  0.3008 -0.2566
  160POPC   C2B 2351   9.324   4.900   5.519 -0.2355  0.1454  0.0535
  160POPC   C3B 2352   9.498   4.718   5.933 -0.0171 -0.0075  0.2282
  160POPC   C4B 2353   9.624   4.702   6.385 -0.1410  0.2621  0.1230
  161POPC   NC3 2354   5.104   8.218   3.601 -0.0623  0.1633 -0.0726
  161POPC   PO4 2355   4.728   7.943   3.709 -0.2386  0.1822  0.2599
  161POPC   GL1 2356   4.864   7.882   4.111  0.1372  0.0517 -0.3129
  161POPC   GL2 2357   4.807   7.566   4.246  0.1750 -0.2026  0.4757
  161POPC   C1A 2358   5.274   7.810   4.396 -0.2414 -0.0153 -0.3054
  161POPC   D2A 2359   5.623   8.081   4.470 -0.1103  0.2134 -0.0013
  161POPC   C3A 2360   5.771   8.309   4.172 -0.0807  0.0716  0.1689
  161POPC   C4A 2361   5.978   8.706   4.257 -0.0349  0.0198 -0.1792
  161POPC   C1B 2362   4.880   7.621   4.625 -0.0054 -0.1828 -0.3465
  161POPC   C2B 2363   5.029   7.568   4.978  0.0132  0.2445 -0.2780
  161POPC   C3B 2364   5.223   7.826   5.273  0.0759  0.0462  0.0077
  161POPC   C4B 2365   5.436   7.667   5.610 -0.1364  0.1683 -0.1135
  162POPC   NC3 2366   3.138   1.806   4.511  0.0330  0.1774 -0.1929
  162POPC   PO4 2367   3.402   2.006   4.726 -0.1255 -0.2253 -0.2441
  162POPC   GL1 2368   3.154   1.857   5.072  0.1984  0.1589 -0.2026
  162POPC   GL2 2369   2.807   1.983   5.229  0.4978  0.0978  0.2929
  162POPC   C1A 2370   3.359   1.735   5.541  0.2041 -0.1608 -0.2250
  162POPC   D2A 2371   3.186   1.548   5.947  0.1725  0.0365  0.0720
  162POPC   C3A 2372   3.530   1.716   6.219  0.2101  0.3946 -0.0267
  162POPC   C4A 2373   3.662   1.629   6.673 -0.0972  0.0694  0.2257
  162POPC   C1B 2374   2.769   2.203   5.586  0.3126  0.0445  0.4617
  162POPC   C2B 2375   2.849   2.452   5.868 -0.1300 -0.0469  0.0437
  162POPC   C3B 2376   2.861   2.780   6.075 -0.1431 -0.1210  0.3648
  162POPC   C4B 2377   2.769   3.132   6.363 -0.1811  0.3143  0.2221
  163POPC   NC3 2378   8.860   1.841   4.392  0.1767 -0.0335 -0.1925
  163POPC   PO4 2379   8.741   1.470   4.800  0.1554  0.0811 -0.3394
  163POPC   GL1 2380   8.736   1.158   5.125 -0.1600 -0.3034 -0.0686
  163POPC   GL2 2381   8.446   1.197   5.297  0.2201 -0.3392  0.0822
  163POPC   C1A 2382   8.861   0.950   5.566 -0.0033 -0.1443  0.2160
  163POPC   D2A 2383   8.980   0.911   5.869 -0.0705 -0.0933  0.0921
  163POPC   C3A 2384   8.999   0.624   6.305  0.0355  0.0168  0.2095
  163POPC   C4A 2385   8.809   0.216   6.279 -0.0541  0.0414 -0.0894
  163POPC   C1B 2386   8.357   1.110   5.691 -0.0751  0.0490  0.2009
  163POPC   C2B 2387   8.334   1.304   6.106 -0.2185  0.0443  0.1073
  163POPC   C3B 2388   8.230   1.713   6.340 -0.3811 -0.2956 -0.3174
  163POPC   C4B 2389   8.318   2.003   6.639 -0.0317 -0.3044  0.0210
  164POPC   NC3 2390   5.210   5.303   3.894 -0.2524 -0.0347 -0.2116
  164POPC   PO4 2391   4.915   4.943   3.950  0.0095 -0.0235  0.0764
  164POPC   GL1 2392   4.826   4.844   4.440  0.3460 -0.1561  0.0439
  164POPC   GL2 2393   4.547   4.938   4.648 -0.2046  0.0526 -0.1216
  164POPC   C1A 2394   5.051   4.896   4.821  0.3155  0.0100  0.4601
  164POPC   D2A 2395   4.958   4.866   5.216 -0.0388  0.1286 -0.0440
  164POPC   C3A 2396   4.674   4.857   5.675 -0.1204 -0.0535  0.0111
  164POPC   C4A 2397   4.559   4.863   6.061 -0.1139  0.1404 -0.0692
  164POPC   C1B 2398   4.693   5.333   4.820 -0.0438 -0.0033 -0.0078
  164POPC   C2B 2399   4.797   5.495   5.083  0.2947  0.0042 -0.0043
  164POPC   C3B 2400   5.152   5.692   5.234 -0.1586  0.2085  0.2008
  164POPC   C4B 2401   5.583   5.780   5.432  0.0940  0.1063  0.0813
  165POPC   NC3 2402   4.786   6.527   3.799  0.1075  0.1754  0.0378
  165POPC   PO4 2403   4.624   6.887   4.076 -0.1479 -0.3169  0.1128
  165POPC   GL1 2404   4.697   6.964   4.447 -0.0942 -0.2080  0.0886
  165POPC   GL2 2405   4.515   7.183   4.598 -0.2027  0.0112  0.1264
  165POPC   C1A 2406   4.797   6.799   4.823 -0.1145 -0.1618 -0.0854
  165POPC   D2A 2407   4.837   6.588   5.295  0.2468 -0.1860 -0.0564
  165POPC   C3A 2408   5.043   6.779   5.588  0.0484  0.2441  0.0210
  165POPC   C4A 2409   5.570   6.873   5.563  0.0541  0.1894  0.0053
  165POPC   C1B 2410   4.630   7.224   5.008 -0.2248 -0.2849 -0.3082
  165POPC   C2B 2411   4.644   6.988   5.386  0.3699  0.0685  0.0747
  165POPC   C3B 2412   4.760   7.061   5.854 -0.2063  0.1064 -0.1085
  165POPC   C4B 2413   5.042   6.868   6.124 -0.1987 -0.1172 -0.0890
  166POPC   NC3 2414   3.715   0.069   4.351  0.2211  0.0764 -0.1347
  166POPC   PO4 2415   3.430  -0.153   4.680 -0.2725  0.4376 -0.2500
  166POPC   GL1 2416   3.306  -0.130   5.082 -0.0980  0.1785  0.1418
  166POPC   GL2 2417   3.418   0.087   5.319  0.2278 -0.1262  0.2383
  166POPC   C1A 2418   3.242  -0.372   5.398  0.1280 -0.0913 -0.1818
  166POPC   D2A 2419   2.992  -0.437   5.737  0.0956  0.0385 -0.1669
  166POPC   C3A 2420   2.563  -0.539   5.549  0.4253  0.2871 -0.4658
  166POPC   C4A 2421   2.201  -0.795   5.521  0.0571  0.1456 -0.1919
  166POPC   C1B 2422   3.579  -0.021   5.667  0.0157  0.0295 -0.0208
  166POPC   C2B 2423   3.833   0.057   6.008 -0.2221 -0.1857  0.0811
  166POPC   C3B 2424   4.038  -0.194   6.289 -0.1514  0.1149 -0.1529
  166POPC   C4B 2425   3.913  -0.209   6.618 -0.0284  0.1961 -0.0685
  167POPC   NC3 2426   9.921   8.158   3.815  0.0799 -0.1980 -0.0346
  167POPC   PO4 2427   9.630   8.600   3.770 -0.0571  0.0664  0.1310
  167POPC   GL1 2428   9.366   8.296   3.974  0.1059  0.1107  0.4132
  167POPC   GL2 2429   9.500   8.207   4.267 -0.0397 -0.0001 -0.1510
  167POPC   C1A 2430   9.041   8.375   4.200 -0.0947 -0.0056 -0.0105
  167POPC   D2A 2431   8.700   8.309   4.532  0.1086  0.2027 -0.0696
  167POPC   C3A 2432   8.845   8.221   4.915 -0.0685 -0.0784 -0.0669
  167POPC   C4A 2433   8.964   7.982   5.265  0.0484  0.0989 -0.1389
  167POPC   C1B 2434   9.516   8.077   4.648  0.0016 -0.3428 -0.2998
  167POPC   C2B 2435   9.347   8.143   5.032  0.0972 -0.0385 -0.2455
  167POPC   C3B 2436   9.099   8.485   5.264  0.0933  0.0921 -0.0584
  167POPC   C4B 2437   8.934   8.651   5.572 -0.5884 -0.2808 -0.1766
  168POPC   NC3 2438   8.332   1.798   4.764 -0.0830 -0.1063 -0.0634
  168POPC   PO4 2439   8.381   2.248   5.022 -0.0232  0.1125 -0.0332
  168POPC   GL1 2440   8.486   2.225   5.484 -0.2949  0.1997 -0.0359
  168POPC   GL2 2441   8.830   2.441   5.496  0.1199  0.1960  0.2608
  168POPC   C1A 2442   8.353   2.393   5.765 -0.0901 -0.2561  0.1090
  168POPC   D2A 2443   8.103   2.741   6.012  0.0799  0.1068  0.2657
  168POPC   C3A 2444   7.675   2.566   5.995  0.1667 -0.1749 -0.1445
  168POPC   C4A 2445   7.504   2.175   6.177  0.0567  0.1156  0.3054
  168POPC   C1B 2446   9.174   2.445   5.661 -0.1489  0.2218  0.1113
  168POPC   C2B 2447   9.539   2.747   5.782  0.0017 -0.0233 -0.2105
  168POPC   C3B 2448   9.554   3.092   6.028 -0.2497 -0.0561 -0.1239
  168POPC   C4B 2449   9.348   3.293   6.265  0.1242 -0.0636 -0.1324
  169POPC   NC3 2450   3.973   0.970   4.435 -0.0481  0.0659  0.1428
  169POPC   PO4 2451   4.036   1.227   4.719 -0.0605  0.0894  0.0479
  169POPC   GL1 2452   3.938   0.969   5.144 -0.4852 -0.2542 -0.1341
  169POPC   GL2 2453   4.245   0.845   5.264 -0.1499  0.0336  0.2519
  169POPC   C1A 2454   3.776   1.069   5.555  0.0456 -0.1566 -0.1137
  169POPC   D2A 2455   3.761   1.352   5.897 -0.1371  0.4874 -0.1906
  169POPC   C3A 2456   3.422   1.173   6.251  0.1630 -0.0224 -0.1002
  169POPC   C4A 2457   3.391   0.655   6.341  0.1560  0.0732  0.2636
  169POPC   C1B 2458   4.357   1.192   5.498 -0.2616 -0.0555  0.1544
  169POPC   C2B 2459   4.224   1.516   5.758 -0.2023  0.1528 -0.1846
  169POPC   C3B 2460   4.010   1.791   5.995  0.2291  0.0354  0.1020
  169POPC   C4B 2461   3.661   2.098   5.924 -0.1266 -0.0306 -0.1280
  170POPC   NC3 2462   9.022   3.975   4.548 -0.0894 -0.3529  0.1966
  170POPC   PO4 2463   9.305   3.792   4.572  0.0848 -0.0642 -0.0998
  170POPC   GL1 2464   9.594   3.606   4.883 -0.0828 -0.1320  0.1733
  170POPC   GL2 2465   9.829   3.790   4.953  0.0129  0.1826  0.0660
  170POPC   C1A 2466   9.771   3.402   5.250  0.0214 -0.3263 -0.3173
  170POPC   D2A 2467   9.950   3.379   5.621 -0.0283  0.1424 -0.0712
  170POPC   C3A 2468   9.755   3.528   6.024 -0.0890  0.0988 -0.1038
  170POPC   C4A 2469   9.692   3.631   6.466 -0.2453 -0.0414  0.0242
  170POPC   C1B 2470   9.734   3.893   5.381  0.0807 -0.1224 -0.0038
  170POPC   C2B 2471  10.018   3.969   5.762  0.0940  0.0946  0.2292
  170POPC   C3B 2472  10.427   4.087   5.799  0.3230  0.1921  0.4718
  170POPC   C4B 2473  10.819   4.003   5.740  0.1664 -0.2971  0.0380
  171POPC   NC3 2474   1.582   4.829   4.194 -0.2347  0.0808  0.0521
  171POPC   PO4 2475   1.197   4.946   4.191 -0.2291  0.2626  0.4364
  171POPC   GL1 2476   1.238   4.978   4.627 -0.0334  0.1719  0.0126
  171POPC   GL2 2477   1.031   4.685   4.749  0.0750  0.0567 -0.2404
  171POPC   C1A 2478   1.370   4.727   5.082  0.2260 -0.3219 -0.1600
  171POPC   D2A 2479   1.454   4.549   5.474 -0.1359 -0.1608  0.1170
  171POPC   C3A 2480   1.270   4.334   5.856  0.0109  0.0661 -0.0440
  171POPC   C4A 2481   1.480   4.437   6.273  0.3737 -0.2145  0.3479
  171POPC   C1B 2482   0.911   4.959   5.082 -0.0125 -0.0068  0.0644
  171POPC   C2B 2483   0.841   5.327   5.277 -0.0763 -0.2982 -0.0794
  171POPC   C3B 2484   0.698   5.694   5.416  0.4255  0.3926  0.0935
  171POPC   C4B 2485   0.510   5.995   5.780  0.3064  0.1138 -0.2302
  172POPC   NC3 2486   0.372   6.513   3.837  0.1063 -0.4894 -0.2768
  172POPC   PO4 2487   0.588   6.154   4.111  0.2421 -0.0019 -0.2863
  172POPC   GL1 2488   0.356   6.198   4.584 -0.1487  0.1156  0.1964
  172POPC   GL2 2489   0.221   5.951   4.644  0.2212 -0.3030 -0.0351
  172POPC   C1A 2490   0.413   6.458   4.857 -0.1113  0.0101 -0.1141
  172POPC   D2A 2491   0.011   6.517   5.181  0.0066  0.0630  0.1416
  172POPC   C3A 2492   0.173   6.463   5.487  0.0614 -0.2275 -0.1009
  172POPC   C4A 2493   0.356   6.513   5.894 -0.0279 -0.1247  0.1046
  172POPC   C1B 2494   0.105   6.064   4.996 -0.2674  0.0293  0.0146
  172POPC   C2B 2495   0.208   5.942   5.376 -0.2021 -0.0556  0.1135
  172POPC   C3B 2496   0.050   6.145   5.849  0.0584  0.1278 -0.0931
  172POPC   C4B 2497  -0.408   6.237   6.034 -0.0732 -0.1527  0.0592
  173POPC   NC3 2498   2.983   5.460   4.020  0.0800 -0.0169 -0.0066
  173POPC   PO4 2499   3.192   5.321   4.411  0.1916 -0.0008 -0.2233
  173POPC   GL1 2500   3.077   5.386   4.839  0.0823  0.0575  0.1438
  173POPC   GL2 2501   3.235   5.627   4.937  0.0710 -0.1252  0.1486
  173POPC   C1A 2502   3.259   5.113   5.105 -0.0627  0.0077 -0.0034
  173POPC   D2A 2503   3.667   5.000   5.354  0.0091 -0.0566  0.0006
  173POPC   C3A 2504   4.110   5.012   5.534  0.0443  0.1307  0.0815
  173POPC   C4A 2505   4.182   5.105   5.912  0.0713 -0.0543  0.1921
  173POPC   C1B 2506   3.328   5.570   5.437 -0.0382 -0.1226 -0.1832
  173POPC   C2B 2507   3.287   5.549   5.844  0.0464 -0.0261  0.0657
  173POPC   C3B 2508   3.470   5.775   6.190 -0.1232  0.1868  0.2774
  173POPC   C4B 2509   3.747   6.113   6.281 -0.0944  0.0306  0.1256
  174POPC   NC3 2510   5.696   4.207   4.613  0.2583 -0.2351  0.0396
  174POPC   PO4 2511   6.029   3.947   4.767  0.1338  0.0254  0.0479
  174POPC   GL1 2512   6.244   4.281   5.052  0.1156  0.1992 -0.1370
  174POPC   GL2 2513   5.979   4.400   5.049 -0.0292  0.0203 -0.1640
  174POPC   C1A 2514   6.318   4.648   5.406  0.0253 -0.0460 -0.1233
  174POPC   D2A 2515   6.106   4.984   5.681  0.1238  0.1723  0.1564
  174POPC   C3A 2516   6.071   5.033   6.194  0.0090  0.0435  0.0343
  174POPC   C4A 2517   5.714   5.021   6.545  0.0066 -0.3082 -0.1299
  174POPC   C1B 2518   5.849   4.337   5.512 -0.1411 -0.0022 -0.1167
  174POPC   C2B 2519   5.800   4.539   5.708  0.0900  0.0023 -0.2078
  174POPC   C3B 2520   5.758   4.627   6.251 -0.4352  0.1130 -0.0780
  174POPC   C4B 2521   5.388   4.645   6.501 -0.1185  0.1147  0.0197
  175POPC   NC3 2522   5.654   3.256   4.111  0.2965  0.1727  0.1584
  175POPC   PO4 2523   5.463   3.254   4.638  0.0251 -0.1064  0.0908
  175POPC   GL1 2524   5.431   3.309   5.153 -0.0476 -0.2335  0.4500
  175POPC   GL2 2525   5.080   3.470   5.178 -0.0919 -0.0326 -0.1729
  175POPC   C1A 2526   5.182   3.236   5.662 -0.2792  0.0384  0.2586
  175POPC   D2A 2527   4.987   2.876   5.841 -0.0376  0.0868  0.0533
  175POPC   C3A 2528   5.145   2.532   5.700 -0.1785 -0.0477  0.0364
  175POPC   C4A 2529   5.282   2.197   5.489  0.0496  0.0679  0.0107
  175POPC   C1B 2530   5.452   3.650   5.510  0.3571 -0.3166 -0.1605
  175POPC   C2B 2531   5.547   3.846   5.971 -0.0791  0.1013 -0.2188
  175POPC   C3B 2532   5.918   4.151   6.026  0.2498 -0.1431  0.0395
  175POPC   C4B 2533   6.179   4.448   6.099  0.2154 -0.3069  0.1028
  176POPC   NC3 2534   7.098   5.238   3.294  0.2027 -0.0399 -0.1728
  176POPC   PO4 2535   6.918   5.388   3.643  0.2434  0.1806  0.0474
  176POPC   GL1 2536   7.032   5.760   3.808 -0.2082 -0.1935  0.0630
  176POPC   GL2 2537   7.077   6.063   3.761  0.4743 -0.1107  0.0789
  176POPC   C1A 2538   6.971   5.922   4.286  0.2818 -0.0322  0.1613
  176POPC   D2A 2539   6.901   6.122   4.805 -0.0084  0.0217 -0.1883
  176POPC   C3A 2540   7.161   5.892   5.127  0.1276 -0.0761 -0.1377
  176POPC   C4A 2541   7.421   5.608   5.393 -0.1878 -0.1374  0.0877
  176POPC   C1B 2542   7.123   6.506   3.965  0.2584 -0.2157 -0.2469
  176POPC   C2B 2543   7.242   6.862   4.024  0.2483 -0.1469  0.1810
  176POPC   C3B 2544   7.489   7.166   4.185 -0.0442  0.0906  0.1130
  176POPC   C4B 2545   7.815   7.422   4.405 -0.2646 -0.0172  0.0705
  177POPC   NC3 2546   5.087   9.109   4.357  0.0945 -0.1542 -0.0381
  177POPC   PO4 2547   4.788   9.291   4.480  0.3143  0.0562 -0.1245
  177POPC   GL1 2548   4.929   9.104   4.871 -0.1863  0.0042  0.0855
  177POPC   GL2 2549   5.290   9.023   4.811 -0.1712  0.0787 -0.1299
  177POPC   C1A 2550   5.071   9.023   5.408 -0.2919  0.0969  0.1714
  177POPC   D2A 2551   4.966   8.893   5.825 -0.0767 -0.2834 -0.2313
  177POPC   C3A 2552   5.324   8.777   6.159 -0.2090 -0.0577 -0.1229
  177POPC   C4A 2553   5.552   9.184   6.325  0.1584  0.3837  0.0689
  177POPC   C1B 2554   5.239   8.576   4.829  0.0701  0.1720 -0.2228
  177POPC   C2B 2555   5.347   8.165   4.923 -0.0206 -0.0587  0.2557
  177POPC   C3B 2556   5.553   7.734   4.861  0.1933  0.1387 -0.1530
  177POPC   C4B 2557   5.983   7.412   4.801  0.0225 -0.2335  0.0209
  178POPC   NC3 2558   7.770   9.443   3.890 -0.3216 -0.0070 -0.5402
  178POPC   PO4 2559   7.398   9.282   3.651 -0.1645 -0.1630  0.0829
  178POPC   GL1 2560   7.417   8.965   4.057  0.0329 -0.1511 -0.0175
  178POPC   GL2 2561   7.465   9.247   4.301 -0.0220  0.1800 -0.0190
  178POPC   C1A 2562   7.472   8.698   4.431  0.0327  0.0479  0.1559
  178POPC   D2A 2563   7.305   8.454   4.816 -0.4228  0.0916 -0.1780
  178POPC   C3A 2564   7.202   8.511   5.189  0.0248 -0.0942 -0.1666
  178POPC   C4A 2565   7.525   8.562   5.553 -0.2471 -0.2535  0.1754
  178POPC   C1B 2566   7.081   9.108   4.459 -0.2180  0.1857 -0.1055
  178POPC   C2B 2567   6.573   8.991   4.500 -0.0053 -0.1532  0.0981
  178POPC   C3B 2568   6.352   8.711   4.683  0.3485 -0.3781 -0.0334
  178POPC   C4B 2569   6.216   8.289   4.722  0.0274 -0.0250 -0.2917
  179POPC   NC3 2570   5.996   5.443   3.303 -0.2899  0.1677 -0.0268
  179POPC   PO4 2571   5.655   5.458   3.679 -0.1108  0.0526 -0.1686
  179POPC   GL1 2572   5.617   5.611   4.092 -0.0669  0.0368  0.1089
  179POPC   GL2 2573   5.559   5.978   4.011 -0.3833  0.2190 -0.2680
  179POPC   C1A 2574   5.551   5.558   4.492  0.1453 -0.1754  0.2039
  179POPC   D2A 2575   5.535   5.727   4.856  0.2826 -0.1804 -0.0302
  179POPC   C3A 2576   5.402   6.086   5.102  0.0532 -0.2677  0.1323
  179POPC   C4A 2577   5.236   6.259   5.419 -0.0741  0.1344  0.0466
  179POPC   C1B 2578   5.706   6.033   4.481 -0.0903 -0.0740  0.0002
  179POPC   C2B 2579   5.637   6.402   4.743  0.2728  0.4981 -0.3187
  179POPC   C3B 2580   5.280   6.652   4.973 -0.2941  0.2513  0.2030
  179POPC   C4B 2581   5.129   7.105   5.177  0.1712 -0.1273 -0.0706
  180POPC   NC3 2582   1.433   7.024   3.967 -0.2365  0.0021  0.0481
  180POPC   PO4 2583   1.503   6.645   3.891  0.1870  0.0803 -0.3708
  180POPC   GL1 2584   1.733   6.702   4.261  0.2773 -0.1481 -0.5508
  180POPC   GL2 2585   2.018   6.748   4.077  0.3012  0.0518  0.2921
  180POPC   C1A 2586   1.861   6.938   4.675 -0.0826  0.1856 -0.0328
  180POPC   D2A 2587   1.799   6.728   5.075 -0.0365 -0.0001 -0.0216
  180POPC   C3A 2588   1.803   7.086   5.277 -0.2477  0.0400  0.1203
  180POPC   C4A 2589   1.517   7.311   5.561  0.0085 -0.1138 -0.1391
  180POPC   C1B 2590   2.260   6.831   4.421  0.1674 -0.1189 -0.1145
  180POPC   C2B 2591   2.239   6.665   4.848 -0.3290 -0.1710 -0.2384
  180POPC   C3B 2592   2.271   6.942   5.207 -0.3236  0.0617 -0.3681
  180POPC   C4B 2593   2.672   7.044   5.364  0.0881 -0.1861  0.2301
  181POPC   NC3 2594   8.394   0.239   4.288  0.3222  0.1913 -0.1064
  181POPC   PO4 2595   8.402  -0.193   4.383 -0.1976  0.0782 -0.1246
  181POPC   GL1 2596   8.221  -0.277   4.794  0.1202 -0.0360  0.0183
  181POPC   GL2 2597   8.536  -0.359   5.017  0.0904 -0.0567  0.0977
  181POPC   C1A 2598   7.989  -0.598   5.034  0.0785  0.1000 -0.2058
  181POPC   D2A 2599   7.723  -0.846   5.370 -0.2183 -0.1059 -0.0330
  181POPC   C3A 2600   7.782  -1.004   5.767 -0.1217  0.0497  0.0958
  181POPC   C4A 2601   7.694  -0.776   6.165 -0.0116 -0.1025  0.0791
  181POPC   C1B 2602   8.514  -0.481   5.338  0.0306 -0.1735 -0.0288
  181POPC   C2B 2603   8.476  -0.376   5.800 -0.2837  0.0326 -0.1788
  181POPC   C3B 2604   8.478  -0.187   6.285  0.1237  0.2464  0.3388
  181POPC   C4B 2605   8.241  -0.118   6.609  0.5681  0.0058  0.4612
  182POPC   NC3 2606   0.062   3.437   4.000 -0.2217  0.1786 -0.1722
  182POPC   PO4 2607   0.424   3.631   4.148 -0.1083  0.1284  0.1590
  182POPC   GL1 2608   0.568   3.447   4.590 -0.0126 -0.4926  0.1934
  182POPC   GL2 2609   0.483   3.692   4.793  0.1951 -0.0302 -0.1702
  182POPC   C1A 2610   0.790   3.419   5.013 -0.2543 -0.0725 -0.0855
  182POPC   D2A 2611   0.845   3.067   5.268  0.0957  0.0831 -0.2736
  182POPC   C3A 2612   0.728   2.763   5.532  0.1675  0.3725 -0.1536
  182POPC   C4A 2613   0.566   2.511   5.938 -0.1827  0.2467  0.2660
  182POPC   C1B 2614   0.372   3.716   5.250  0.0083  0.2231 -0.2693
  182POPC   C2B 2615   0.424   3.608   5.626 -0.1737  0.0176 -0.2036
  182POPC   C3B 2616   0.713   3.638   6.042  0.0021  0.0614  0.4869
  182POPC   C4B 2617   0.803   3.438   6.429  0.1012 -0.1465 -0.0880
  183POPC   NC3 2618   9.259   4.618   4.056  0.0556  0.1616 -0.0944
  183POPC   PO4 2619   9.361   4.387   4.433  0.1933 -0.1528 -0.2218
  183POPC   GL1 2620   9.405   4.333   4.924  0.0853  0.2013 -0.0039
  183POPC   GL2 2621   9.425   4.059   4.986  0.3243 -0.0211 -0.0942
  183POPC   C1A 2622   9.580   4.396   5.339  0.3207 -0.1987  0.0490
  183POPC   D2A 2623   9.524   4.181   5.809  0.0091  0.0078  0.1498
  183POPC   C3A 2624   9.360   4.266   6.190 -0.1149 -0.0688  0.2625
  183POPC   C4A 2625   9.492   4.217   6.598 -0.1708 -0.1386 -0.0261
  183POPC   C1B 2626   9.257   4.007   5.368 -0.2310 -0.3948 -0.2632
  183POPC   C2B 2627   9.077   4.122   5.759  0.0871  0.2643  0.1811
  183POPC   C3B 2628   8.812   4.222   6.116 -0.2083 -0.0495  0.1391
  183POPC   C4B 2629   8.593   4.384   6.322 -0.0766  0.0650 -0.2526
  184POPC   NC3 2630   4.416   9.624   4.355 -0.1650 -0.1748 -0.0077
  184POPC   PO4 2631   4.563   9.890   4.560 -0.0904 -0.2048 -0.0603
  184POPC   GL1 2632   4.897   9.685   4.928 -0.1263 -0.1995  0.2925
  184POPC   GL2 2633   5.101   9.634   4.826 -0.1409 -0.1046 -0.0190
  184POPC   C1A 2634   4.882   9.611   5.273  0.3095  0.1787 -0.2000
  184POPC   D2A 2635   4.697   9.652   5.627  0.2057  0.0926  0.0786
  184POPC   C3A 2636   4.660   9.312   5.881  0.2889 -0.3377  0.3171
  184POPC   C4A 2637   4.430   8.916   5.812  0.1516  0.1189 -0.1357
  184POPC   C1B 2638   5.312   9.485   5.127 -0.1644  0.1241  0.3741
  184POPC   C2B 2639   5.532   9.289   5.397 -0.0314 -0.0563 -0.2179
  184POPC   C3B 2640   5.819   9.511   5.728 -0.0975 -0.1988 -0.2423
  184POPC   C4B 2641   5.580   9.723   6.088 -0.2016  0.1366  0.1903
  185POPC   NC3 2642   4.475   2.565   4.538 -0.1359  0.1193 -0.1043
  185POPC   PO4 2643   4.062   2.620   4.567 -0.1608  0.1513 -0.1309
  185POPC   GL1 2644   4.058   2.642   5.027 -0.2548  0.0849  0.0287
  185POPC   GL2 2645   4.159   2.940   5.079 -0.1114  0.0744 -0.3831
  185POPC   C1A 2646   3.875   2.599   5.321 -0.0942  0.3017  0.0140
  185POPC   D2A 2647   3.666   2.724   5.583 -0.0110  0.1849 -0.0666
  185POPC   C3A 2648   3.340   2.484   5.899 -0.1466 -0.1740 -0.0243
  185POPC   C4A 2649   3.247   2.431   6.247 -0.2879  0.4556 -0.2778
  185POPC   C1B 2650   4.028   3.040   5.520  0.0347 -0.1995 -0.0466
  185POPC   C2B 2651   3.813   2.989   5.956 -0.2832 -0.0740 -0.0914
  185POPC   C3B 2652   3.479   3.030   6.208 -0.0366  0.1868 -0.2060
  185POPC   C4B 2653   3.248   3.365   6.529 -0.0026 -0.0407  0.2399
  186POPC   NC3 2654   1.914   1.545   4.646 -0.1916  0.0378  0.1577
  186POPC   PO4 2655   1.643   1.757   4.360 -0.1549 -0.2937 -0.0613
  186POPC   GL1 2656   1.429   1.870   4.833 -0.0722  0.0081 -0.0737
  186POPC   GL2 2657   1.652   1.733   4.992 -0.3061  0.0278  0.2501
  186POPC   C1A 2658   1.108   1.767   5.144  0.0347 -0.1014 -0.0863
  186POPC   D2A 2659   1.138   1.779   5.607  0.2769 -0.2300 -0.0127
  186POPC   C3A 2660   0.748   1.658   5.898  0.1845 -0.0924  0.0355
  186POPC   C4A 2661   0.707   1.502   6.357 -0.0230  0.0244  0.3433
  186POPC   C1B 2662   1.459   1.566   5.370  0.2215  0.1275 -0.0239
  186POPC   C2B 2663   1.534   1.538   5.815 -0.2894 -0.1646  0.0466
  186POPC   C3B 2664   1.584   1.877   6.217  0.0405 -0.2366  0.0098
  186POPC   C4B 2665   1.926   2.118   6.401 -0.4068  0.1527 -0.1923
  187POPC   NC3 2666   8.782   3.975   4.052  0.1908 -0.0019  0.2705
  187POPC   PO4 2667   8.824   4.479   4.135 -0.0937  0.2989  0.0213
  187POPC   GL1 2668   8.913   4.455   4.622 -0.0141  0.0744  0.2191
  187POPC   GL2 2669   8.879   4.210   4.954  0.0975  0.1140  0.0506
  187POPC   C1A 2670   8.929   4.745   4.929  0.2770  0.0646 -0.1100
  187POPC   D2A 2671   8.918   4.444   5.374  0.0309 -0.1682 -0.2681
  187POPC   C3A 2672   9.041   4.604   5.801 -0.0858 -0.0557 -0.2289
  187POPC   C4A 2673   9.073   4.689   6.244 -0.3155  0.1779 -0.1371
  187POPC   C1B 2674   8.742   3.967   5.348  0.2460 -0.0744 -0.0077
  187POPC   C2B 2675   8.556   4.147   5.669  0.1048 -0.1027 -0.0946
  187POPC   C3B 2676   8.244   3.980   5.994 -0.0205 -0.4501  0.1118
  187POPC   C4B 2677   8.189   4.091   6.474  0.1525  0.0596 -0.2751
  188POPC   NC3 2678   3.657   7.770   4.394 -0.2960 -0.0660 -0.1874
  188POPC   PO4 2679   3.941   7.448   4.290  0.0770 -0.0892  0.0096
  188POPC   GL1 2680   3.729   7.361   4.701  0.0415  0.3930 -0.0158
  188POPC   GL2 2681   3.986   7.289   4.888 -0.3445 -0.0234  0.0764
  188POPC   C1A 2682   3.593   7.431   5.168 -0.2100 -0.1498  0.1794
  188POPC   D2A 2683   3.328   7.381   5.519 -0.1339 -0.1987 -0.3305
  188POPC   C3A 2684   3.338   7.713   5.843  0.0040 -0.0214  0.1028
  188POPC   C4A 2685   2.894   7.837   6.144 -0.0747 -0.0205 -0.3767
  188POPC   C1B 2686   4.054   7.369   5.299  0.4313  0.0451  0.1657
  188POPC   C2B 2687   4.203   7.168   5.643  0.0573  0.0985 -0.3076
  188POPC   C3B 2688   4.325   7.018   6.068 -0.0526 -0.1715 -0.2239
  188POPC   C4B 2689   4.618   6.944   6.446  0.1067  0.4290  0.1703
  189POPC   NC3 2690   0.552   2.202   4.532  0.0661 -0.1178  0.1189
  189POPC   PO4 2691   0.583   1.761   4.312 -0.2665  0.0320  0.1171
  189POPC   GL1 2692   0.510   1.717   4.782 -0.1606 -0.2769  0.0639
  189POPC   GL2 2693   0.703   1.533   4.856 -0.1546  0.3032  0.1612
  189POPC   C1A 2694   0.610   1.979   5.124 -0.0065 -0.1164 -0.0282
  189POPC   D2A 2695   0.485   2.300   5.522  0.2020  0.2620 -0.0881
  189POPC   C3A 2696   0.183   2.124   5.772 -0.5530  0.2688 -0.3103
  189POPC   C4A 2697  -0.260   2.270   5.757 -0.3567  0.0332  0.0519
  189POPC   C1B 2698   0.639   1.426   5.204  0.0412 -0.0648  0.0412
  189POPC   C2B 2699   0.420   1.636   5.510 -0.0889  0.1989  0.1815
  189POPC   C3B 2700   0.228   1.560   5.879 -0.1647 -0.0947  0.0844
  189POPC   C4B 2701   0.280   1.712   6.247  0.2153  0.0661 -0.2473
  190POPC   NC3 2702   2.622   6.037   3.777  0.1073 -0.5915  0.1625
  190POPC   PO4 2703   3.010   5.936   4.059  0.5313 -0.0135 -0.0557
  190POPC   GL1 2704   2.849   6.113   4.541  0.0010  0.0242  0.0736
  190POPC   GL2 2705   2.997   6.027   4.761  0.0435  0.4178 -0.0976
  190POPC   C1A 2706   2.545   6.164   4.948  0.0221 -0.0081  0.1632
  190POPC   D2A 2707   2.382   5.872   5.311 -0.3476 -0.1644  0.2176
  190POPC   C3A 2708   2.250   5.839   5.655 -0.1516 -0.2459  0.0818
  190POPC   C4A 2709   1.980   6.058   5.964 -0.1583  0.0687 -0.1451
  190POPC   C1B 2710   3.002   6.138   5.158  0.3138  0.0047  0.2052
  190POPC   C2B 2711   2.959   6.388   5.455 -0.1460  0.2252  0.0016
  190POPC   C3B 2712   2.791   6.717   5.747  0.1161  0.0220  0.3509
  190POPC   C4B 2713   2.914   7.083   5.883  0.1340 -0.0661 -0.1481
  191POPC   NC3 2714   3.586   1.327   5.003 -0.0388  0.0524  0.4598
  191POPC   PO4 2715   3.202   1.378   4.755  0.0561  0.2048  0.0049
  191POPC   GL1 2716   2.853   1.442   5.109  0.0301  0.1957  0.1945
  191POPC   GL2 2717   2.890   1.597   5.462  0.0744  0.1424 -0.1347
  191POPC   C1A 2718   2.445   1.252   5.359  0.0166  0.1169  0.1626
  191POPC   D2A 2719   2.552   1.106   5.810 -0.2136  0.0073 -0.2413
  191POPC   C3A 2720   2.311   0.765   6.000 -0.0898 -0.0752  0.1129
  191POPC   C4A 2721   1.958   0.516   5.922 -0.0351 -0.1910 -0.0542
  191POPC   C1B 2722   2.983   1.192   5.602 -0.0443  0.0883  0.1896
  191POPC   C2B 2723   3.263   0.896   5.674  0.2918  0.1758 -0.1211
  191POPC   C3B 2724   3.628   0.873   5.970  0.0225  0.1131 -0.1555
  191POPC   C4B 2725   3.933   0.552   6.124 -0.2781 -0.2845 -0.1622
  192POPC   NC3 2726   1.107   1.765   4.207 -0.2444  0.2937 -0.0825
  192POPC   PO4 2727   1.102   1.514   4.544 -0.4068  0.1970 -0.2609
  192POPC   GL1 2728   1.255   1.381   4.845  0.0019  0.0335  0.0781
  192POPC   GL2 2729   1.543   1.213   4.891  0.3117 -0.0695 -0.1304
  192POPC   C1A 2730   1.106   1.154   5.070  0.2716  0.2419  0.0710
  192POPC   D2A 2731   1.039   1.209   5.529 -0.1060  0.1983 -0.2586
  192POPC   C3A 2732   0.606   1.200   5.694  0.5371  0.1907 -0.0071
  192POPC   C4A 2733   0.233   1.052   5.441 -0.0958 -0.1181 -0.3380
  192POPC   C1B 2734   1.606   1.055   5.333 -0.0194  0.1832  0.3602
  192POPC   C2B 2735   1.491   1.059   5.736 -0.1363 -0.2807 -0.3163
  192POPC   C3B 2736   1.603   0.912   6.162  0.0870  0.0649 -0.1955
  192POPC   C4B 2737   1.962   0.684   6.457 -0.2327  0.0025 -0.0032
  193POPC   NC3 2738   9.417   6.931   3.743  0.1602 -0.2039  0.2240
  193POPC   PO4 2739   9.071   6.754   3.400 -0.1703  0.2064  0.0670
  193POPC   GL1 2740   8.890   6.815   3.701 -0.0205  0.0581 -0.0218
  193POPC   GL2 2741   9.015   7.055   3.975  0.1418  0.1921  0.0982
  193POPC   C1A 2742   8.597   6.752   4.070  0.0402 -0.3864 -0.2604
  193POPC   D2A 2743   8.232   6.887   4.257 -0.1497 -0.0727 -0.0331
  193POPC   C3A 2744   8.138   7.133   4.536 -0.0349 -0.0607  0.0234
  193POPC   C4A 2745   8.109   7.546   4.793  0.0174 -0.1222 -0.0415
  193POPC   C1B 2746   9.093   6.811   4.330  0.4363  0.3512  0.1770
  193POPC   C2B 2747   9.260   6.796   4.733  0.4956  0.1297 -0.5826
  193POPC   C3B 2748   9.380   6.658   5.123  0.2484 -0.3405 -0.0037
  193POPC   C4B 2749   9.732   6.883   5.316 -0.0191 -0.3440 -0.1145
  194POPC   NC3 2750   9.461   1.998   4.623 -0.3012 -0.0415  0.0389
  194POPC   PO4 2751   9.664   2.407   4.691 -0.0572  0.3870  0.0779
  194POPC   GL1 2752   9.330   2.410   4.926 -0.1199  0.1837  0.0093
  194POPC   GL2 2753   9.231   2.223   4.981  0.0009 -0.1980  0.1930
  194POPC   C1A 2754   9.402   2.622   5.305  0.2356  0.2397  0.0171
  194POPC   D2A 2755   9.070   2.903   5.558 -0.0833  0.0342 -0.1110
  194POPC   C3A 2756   9.047   2.922   6.038 -0.1663 -0.2015  0.1895
  194POPC   C4A 2757   9.006   2.877   6.446  0.0642 -0.4878  0.4360
  194POPC   C1B 2758   9.497   2.031   5.306 -0.0171  0.0196  0.0024
  194POPC   C2B 2759   9.467   1.764   5.533 -0.0665 -0.0967  0.2348
  194POPC   C3B 2760   9.659   1.693   5.882  0.0521  0.0166 -0.1359
  194POPC   C4B 2761   9.794   1.925   6.211  0.0196  0.1534 -0.2218
  195POPC   NC3 2762   1.369   0.810   4.298  0.1074  0.0168  0.0523
  195POPC   PO4 2763   1.095   0.523   4.482  0.2382  0.2042  0.2287
  195POPC   GL1 2764   1.091   0.514   4.891 -0.1644  0.0942 -0.1905
  195POPC   GL2 2765   1.230   0.673   5.101 -0.0631  0.2594 -0.1468
  195POPC   C1A 2766   0.750   0.329   5.233  0.0714  0.1729 -0.2444
  195POPC   D2A 2767   0.715   0.200   5.662  0.1216 -0.1225  0.2468
  195POPC   C3A 2768   0.758   0.441   6.073  0.4230  0.1929 -0.1823
  195POPC   C4A 2769   1.091   0.551   6.298 -0.2732 -0.0665 -0.2153
  195POPC   C1B 2770   1.063   0.733   5.507  0.4459 -0.2172  0.0476
  195POPC   C2B 2771   0.974   0.870   5.929  0.2822 -0.2215  0.0088
  195POPC   C3B 2772   1.041   1.256   6.072  0.1283  0.1152 -0.1225
  195POPC   C4B 2773   1.215   1.553   6.197  0.2842 -0.1124 -0.0260
  196POPC   NC3 2774   1.487   8.192   4.388 -0.0160  0.2578  0.1444
  196POPC   PO4 2775   1.175   8.465   4.302  0.0786  0.0255  0.0599
  196POPC   GL1 2776   1.083   8.276   4.663  0.3067  0.1165 -0.0876
  196POPC   GL2 2777   0.956   8.405   4.816 -0.1388 -0.1930 -0.1222
  196POPC   C1A 2778   1.017   7.888   4.955 -0.0647  0.2098 -0.0776
  196POPC   D2A 2779   1.231   7.725   5.351  0.3202 -0.2652 -0.0740
  196POPC   C3A 2780   1.053   7.654   5.757  0.2941 -0.1423 -0.1810
  196POPC   C4A 2781   0.859   7.182   5.921 -0.0882  0.1196  0.1336
  196POPC   C1B 2782   0.766   8.352   5.141  0.1462 -0.1190  0.1767
  196POPC   C2B 2783   0.642   7.906   5.468  0.1304  0.3156  0.0713
  196POPC   C3B 2784   0.557   7.580   5.732 -0.0373  0.1731 -0.0913
  196POPC   C4B 2785   0.315   7.350   6.012 -0.0097  0.0147  0.3270
  197POPC   NC3 2786   7.535   2.630   4.808 -0.0279 -0.0885 -0.1812
  197POPC   PO4 2787   7.576   3.073   4.830  0.6171 -0.2818  0.0786
  197POPC   GL1 2788   7.408   2.920   5.208  0.0845 -0.0084 -0.0626
  197POPC   GL2 2789   7.523   2.672   5.425  0.0359  0.2687  0.0111
  197POPC   C1A 2790   7.098   2.716   5.615 -0.1861  0.0255 -0.0420
  197POPC   D2A 2791   6.680   2.343   5.661 -0.3043  0.2331  0.1336
  197POPC   C3A 2792   6.443   2.382   6.026  0.0642  0.1006 -0.0731
  197POPC   C4A 2793   6.578   2.366   6.488  0.1988 -0.1519 -0.0529
  197POPC   C1B 2794   7.652   3.022   5.683  0.0395 -0.1988 -0.1640
  197POPC   C2B 2795   7.689   3.049   6.128 -0.1494 -0.0016 -0.0139
  197POPC   C3B 2796   7.918   3.146   6.454  0.1227  0.0300 -0.0680
  197POPC   C4B 2797   8.326   3.134   6.401 -0.3405  0.0262 -0.0889
  198POPC   NC3 2798   2.937   8.962   4.453  0.2796  0.0526 -0.0691
  198POPC   PO4 2799   3.330   8.874   4.683 -0.0378  0.0361 -0.0074
  198POPC   GL1 2800   3.539   9.004   4.933 -0.0990  0.1804 -0.0998
  198POPC   GL2 2801   3.372   9.216   5.061 -0.0209  0.1451  0.2423
  198POPC   C1A 2802   3.616   8.710   5.290  0.1447  0.1448 -0.0530
  198POPC   D2A 2803   3.888   8.317   5.398  0.0239 -0.2927 -0.0130
  198POPC   C3A 2804   3.873   8.117   5.800 -0.1152  0.0778 -0.2028
  198POPC   C4A 2805   3.782   7.795   6.216  0.0192  0.0391 -0.2733
  198POPC   C1B 2806   3.535   9.214   5.411  0.2464 -0.0775  0.0945
  198POPC   C2B 2807   3.531   8.911   5.780 -0.0658 -0.0207 -0.2965
  198POPC   C3B 2808   3.557   8.505   5.817 -0.3828  0.3582  0.1667
  198POPC   C4B 2809   3.401   8.110   5.542  0.2926 -0.0153 -0.0764
  199POPC   NC3 2810   5.891   6.296   2.902 -0.0824  0.0441 -0.0689
  199POPC   PO4 2811   5.991   5.951   3.164 -0.0384  0.3138 -0.1684
  199POPC   GL1 2812   6.010   5.874   3.635  0.1645 -0.3329 -0.0937
  199POPC   GL2 2813   6.044   5.684   3.870 -0.0969 -0.0069 -0.0092
  199POPC   C1A 2814   6.040   6.144   4.036 -0.0346  0.2518  0.2915
  199POPC   D2A 2815   6.405   6.090   4.293  0.1993 -0.0610 -0.0924
  199POPC   C3A 2816   6.687   6.392   4.439 -0.0492 -0.2304  0.1696
  199POPC   C4A 2817   7.047   6.446   4.473  0.0562  0.2037  0.1977
  199POPC   C1B 2818   6.085   5.636   4.350  0.4393  0.0884  0.2686
  199POPC   C2B 2819   6.012   5.826   4.770 -0.1405  0.1453 -0.2291
  199POPC   C3B 2820   5.859   6.123   5.103  0.1252 -0.1691 -0.4987
  199POPC   C4B 2821   5.877   6.144   5.518  0.5101 -0.0006  0.0184
  200POPC   NC3 2822   3.751   0.195   4.895  0.2461  0.0199 -0.1868
  200POPC   PO4 2823   3.674   0.584   5.015  0.2040  0.2917 -0.1142
  200POPC   GL1 2824   3.707   0.493   5.503  0.1382 -0.1636 -0.0831
  200POPC   GL2 2825   4.002   0.579   5.615 -0.1017 -0.1935 -0.4419
  200POPC   C1A 2826   3.480   0.429   5.838  0.0518  0.1416  0.0265
  200POPC   D2A 2827   3.429   0.154   6.224 -0.2189 -0.1318  0.1977
  200POPC   C3A 2828   3.370  -0.285   6.221 -0.0263 -0.1447  0.2855
  200POPC   C4A 2829   3.380  -0.652   6.110  0.0717  0.0685  0.3039
  200POPC   C1B 2830   4.138   1.031   5.928 -0.0205 -0.0181  0.2024
  200POPC   C2B 2831   4.180   1.381   6.234 -0.0308  0.0879  0.2088
  200POPC   C3B 2832   4.197   1.609   6.635 -0.1865 -0.3310 -0.0493
  200POPC   C4B 2833   4.285   1.466   7.145  0.1797 -0.3226 -0.0445
  201POPC   NC3 2834   2.008   5.606   4.078  0.1076  0.0961 -0.1179
  201POPC   PO4 2835   2.181   5.238   4.269 -0.1557  0.3102 -0.3227
  201POPC   GL1 2836   1.942   5.113   4.669  0.0297 -0.1217  0.3611
  201POPC   GL2 2837   1.684   4.804   4.670 -0.4222  0.0525 -0.1165
  201POPC   C1A 2838   1.731   5.246   4.904  0.1949  0.0228 -0.0776
  201POPC   D2A 2839   1.349   5.257   5.105  0.1859 -0.0577  0.1710
  201POPC   C3A 2840   1.349   5.023   5.481  0.0894 -0.2094  0.2040
  201POPC   C4A 2841   1.494   4.847   5.872  0.2601  0.1195  0.0223
  201POPC   C1B 2842   1.872   4.826   5.178  0.0165  0.1115  0.0948
  201POPC   C2B 2843   1.908   4.953   5.627  0.2101 -0.1534 -0.1647
  201POPC   C3B 2844   1.830   5.094   6.095 -0.0935  0.3031 -0.0979
  201POPC   C4B 2845   1.541   4.914   6.412 -0.0444  0.1032 -0.1117
  202POPC   NC3 2846   6.285   9.542   4.000 -0.2685  0.0295  0.2015
  202POPC   PO4 2847   5.986   9.578   4.318 -0.0716 -0.3283  0.0139
  202POPC   GL1 2848   6.124   9.645   4.746 -0.1671 -0.0805  0.0617
  202POPC   GL2 2849   5.830   9.847   4.765 -0.0833 -0.0721 -0.1417
  202POPC   C1A 2850   6.179   9.627   5.121 -0.1086  0.0537  0.2080
  202POPC   D2A 2851   6.399   9.667   5.537  0.1337  0.3222  0.3982
  202POPC   C3A 2852   6.302   9.487   5.951 -0.3027  0.0243  0.0531
  202POPC   C4A 2853   5.968   9.332   6.140  0.0190  0.2993  0.1177
  202POPC   C1B 2854   5.680   9.800   5.221 -0.0128 -0.0906 -0.0312
  202POPC   C2B 2855   5.626  10.033   5.635 -0.1563  0.0411  0.2456
  202POPC   C3B 2856   5.337  10.220   5.938  0.0622  0.1054  0.0259
  202POPC   C4B 2857   5.332  10.109   6.273  0.0002  0.0148 -0.1391
  203POPC   NC3 2858   3.051   3.417   4.564  0.2979 -0.0466 -0.0517
  203POPC   PO4 2859   3.485   3.286   4.495  0.1534 -0.3658  0.1929
  203POPC   GL1 2860   3.464   3.365   4.979 -0.1833  0.0081 -0.1586
  203POPC   GL2 2861   3.796   3.332   5.114  0.1036  0.0414 -0.0395
  203POPC   C1A 2862   3.331   3.611   5.247 -0.0358 -0.1269 -0.0526
  203POPC   D2A 2863   3.341   3.548   5.688 -0.1802 -0.0581 -0.0582
  203POPC   C3A 2864   3.537   3.488   6.030  0.2831  0.0547 -0.2933
  203POPC   C4A 2865   3.703   3.461   6.407 -0.1442 -0.2417 -0.1814
  203POPC   C1B 2866   3.781   3.529   5.501  0.0558  0.0766  0.1715
  203POPC   C2B 2867   3.967   3.598   5.980 -0.1910  0.1584 -0.2662
  203POPC   C3B 2868   4.158   3.272   6.248 -0.0182 -0.1784  0.0231
  203POPC   C4B 2869   4.456   3.314   6.381  0.0682  0.0708  0.1260
  204POPC   NC3 2870   5.491   3.733   4.800  0.0682  0.4193 -0.1659
  204POPC   PO4 2871   5.199   4.084   4.649 -0.0998 -0.1284  0.1530
  204POPC   GL1 2872   5.402   4.271   5.067  0.0654  0.1395 -0.2964
  204POPC   GL2 2873   5.367   4.591   4.947 -0.2051 -0.0578 -0.4754
  204POPC   C1A 2874   5.408   4.166   5.582  0.0147 -0.0796  0.1344
  204POPC   D2A 2875   5.399   4.454   5.977  0.0539 -0.1143  0.0216
  204POPC   C3A 2876   5.064   4.764   5.991  0.1302 -0.0058 -0.1304
  204POPC   C4A 2877   4.908   5.004   6.397 -0.0597 -0.0379 -0.0246
  204POPC   C1B 2878   5.420   4.684   5.458  0.4074  0.1566  0.0888
  204POPC   C2B 2879   5.584   5.014   5.817 -0.0695 -0.3580 -0.2965
  204POPC   C3B 2880   5.337   5.475   5.747  0.0119  0.0626  0.1833
  204POPC   C4B 2881   5.355   5.893   5.893 -0.2748 -0.1492  0.0397
  205POPC   NC3 2882   5.433   1.350   4.771  0.0281 -0.0617 -0.0329
  205POPC   PO4 2883   5.852   1.396   4.981  0.0540  0.1494 -0.2977
  205POPC   GL1 2884   5.786   1.578   5.318  0.0530 -0.1573 -0.1235
  205POPC   GL2 2885   5.926   1.593   5.671 -0.2659 -0.0899 -0.2745
  205POPC   C1A 2886   5.756   2.010   5.469 -0.1371  0.1870  0.3592
  205POPC   D2A 2887   5.674   2.298   5.705  0.1248 -0.1856 -0.1980
  205POPC   C3A 2888   5.853   2.329   6.078  0.0213 -0.0323 -0.3349
  205POPC   C4A 2889   6.091   2.217   6.398  0.3043 -0.0079 -0.2516
  205POPC   C1B 2890   5.663   1.463   6.033 -0.2185  0.1570  0.3732
  205POPC   C2B 2891   5.217   1.312   5.977  0.1280  0.1417 -0.1604
  205POPC   C3B 2892   4.916   1.402   6.314 -0.1746 -0.1138 -0.2561
  205POPC   C4B 2893   4.716   1.540   6.745  0.0967 -0.3638 -0.0257
  206POPC   NC3 2894   1.866   6.285   3.880 -0.4414 -0.0227 -0.0201
  206POPC   PO4 2895   2.132   6.028   3.860  0.1426  0.1915  0.1659
  206POPC   GL1 2896   2.037   6.127   4.291  0.3157  0.0874  0.1831
  206POPC   GL2 2897   2.315   6.219   4.488 -0.0183  0.3589  0.2817
  206POPC   C1A 2898   1.789   6.382   4.626  0.1186  0.1567  0.0164
  206POPC   D2A 2899   1.431   6.579   4.801  0.2935 -0.0648 -0.0912
  206POPC   C3A 2900   1.342   7.021   4.838 -0.1109 -0.0575  0.2330
  206POPC   C4A 2901   1.432   7.354   5.063 -0.0410 -0.1228  0.1274
  206POPC   C1B 2902   2.044   6.026   4.906 -0.1007  0.0250  0.0132
  206POPC   C2B 2903   2.035   6.241   5.298  0.2547  0.1498 -0.3120
  206POPC   C3B 2904   1.946   6.543   5.535  0.0590 -0.3444  0.2303
  206POPC   C4B 2905   1.858   6.929   5.725  0.2164 -0.0497 -0.0127
  207POPC   NC3 2906   0.701   7.520   3.582 -0.2461 -0.0136  0.0871
  207POPC   PO4 2907   0.427   7.922   3.728  0.1195  0.1343 -0.0523
  207POPC   GL1 2908   0.106   7.788   4.086 -0.3504 -0.2374  0.1324
  207POPC   GL2 2909   0.203   7.453   4.262  0.0909  0.0180  0.1725
  207POPC   C1A 2910   0.062   7.943   4.470 -0.0953  0.0584 -0.1940
  207POPC   D2A 2911   0.117   7.844   4.847  0.0736 -0.2704 -0.0344
  207POPC   C3A 2912   0.121   7.436   4.935  0.1005 -0.0318 -0.1051
  207POPC   C4A 2913   0.282   7.006   5.064 -0.0675  0.0370  0.1779
  207POPC   C1B 2914  -0.102   7.202   4.417  0.0698  0.1688  0.0413
  207POPC   C2B 2915  -0.515   7.192   4.348 -0.1033  0.0073 -0.2938
  207POPC   C3B 2916  -0.783   7.336   4.580  0.0643 -0.0385  0.2832
  207POPC   C4B 2917  -0.835   7.737   4.869  0.2406  0.0785 -0.3709
  208POPC   NC3 2918   6.047   0.937   5.014  0.2189 -0.1014 -0.1694
  208POPC   PO4 2919   5.682   0.560   4.905  0.1098 -0.0252 -0.1798
  208POPC   GL1 2920   5.658   0.538   5.345  0.1883  0.1340 -0.1569
  208POPC   GL2 2921   5.330   0.529   5.339 -0.2557  0.0863  0.1616
  208POPC   C1A 2922   5.558   0.669   5.754  0.1954  0.2835  0.0445
  208POPC   D2A 2923   5.365   0.765   6.184 -0.0152  0.3093 -0.2732
  208POPC   C3A 2924   5.416   1.172   6.519  0.2226 -0.2429  0.0942
  208POPC   C4A 2925   5.317   1.616   6.452  0.1275 -0.0474  0.3125
  208POPC   C1B 2926   5.031   0.606   5.669 -0.2540  0.1119  0.3303
  208POPC   C2B 2927   4.903   0.545   6.109 -0.3712 -0.0726  0.1455
  208POPC   C3B 2928   4.830   0.172   6.377  0.0054 -0.1167  0.0896
  208POPC   C4B 2929   4.853   0.037   6.820 -0.1454  0.1579  0.2884
  209POPC   NC3 2930   6.168   1.761   4.631 -0.0866  0.0849 -0.0227
  209POPC   PO4 2931   6.394   2.185   4.818  0.1556  0.2457  0.2391
  209POPC   GL1 2932   6.224   2.275   5.164 -0.0010 -0.0239 -0.3640
  209POPC   GL2 2933   6.094   2.493   5.272 -0.2346  0.2246  0.1331
  209POPC   C1A 2934   6.149   2.164   5.696  0.0314 -0.1273  0.3637
  209POPC   D2A 2935   6.099   1.874   6.011  0.1527  0.1647  0.0752
  209POPC   C3A 2936   5.749   1.886   6.267  0.1256 -0.0653 -0.0805
  209POPC   C4A 2937   5.539   2.114   6.584  0.1590  0.1733  0.0834
  209POPC   C1B 2938   5.999   2.683   5.658  0.0988  0.1745  0.0224
  209POPC   C2B 2939   6.031   2.870   6.048 -0.0251 -0.0821  0.0988
  209POPC   C3B 2940   5.764   2.939   6.384  0.0074 -0.3099  0.0586
  209POPC   C4B 2941   5.480   3.246   6.610  0.0223  0.0978  0.0966
  210POPC   NC3 2942   8.970   6.091   3.354  0.0000 -0.1116  0.0886
  210POPC   PO4 2943   8.940   5.658   3.380  0.2353 -0.0276 -0.2449
  210POPC   GL1 2944   8.678   5.897   3.739 -0.1101 -0.0926  0.0106
  210POPC   GL2 2945   8.470   5.601   3.692  0.3724 -0.1244 -0.0440
  210POPC   C1A 2946   8.768   5.976   4.229 -0.0212 -0.2129  0.0004
  210POPC   D2A 2947   9.053   5.935   4.615 -0.0843  0.0071 -0.0388
  210POPC   C3A 2948   9.050   6.217   4.954 -0.6706 -0.1660  0.1841
  210POPC   C4A 2949   8.854   6.601   5.169 -0.1619  0.1145 -0.3563
  210POPC   C1B 2950   8.320   5.635   4.077 -0.0957 -0.0352 -0.1165
  210POPC   C2B 2951   8.340   5.753   4.487 -0.1288 -0.0741  0.0148
  210POPC   C3B 2952   8.445   6.059   4.734  0.0298  0.1865  0.3742
  210POPC   C4B 2953   8.573   6.193   5.065 -0.1267  0.0312  0.0269
  211POPC   NC3 2954   2.601   4.739   4.579 -0.0750  0.3636 -0.0872
  211POPC   PO4 2955   3.038   4.479   4.443 -0.1895 -0.2923  0.0245
  211POPC   GL1 2956   3.007   4.456   4.933  0.1778  0.1873 -0.2558
  211POPC   GL2 2957   2.763   4.427   5.124  0.0981  0.3231  0.1187
  211POPC   C1A 2958   2.860   4.892   5.252 -0.0144 -0.1423 -0.4121
  211POPC   D2A 2959   2.727   4.987   5.635 -0.1423 -0.3564 -0.0395
  211POPC   C3A 2960   2.730   5.493   5.802 -0.1825 -0.0879 -0.2788
  211POPC   C4A 2961   2.887   5.872   5.597 -0.0151  0.2472 -0.1961
  211POPC   C1B 2962   2.925   4.486   5.539 -0.0037 -0.0137  0.1364
  211POPC   C2B 2963   2.632   4.470   5.879  0.0980 -0.3959 -0.0431
  211POPC   C3B 2964   2.448   4.088   6.089  0.0199  0.1634  0.1686
  211POPC   C4B 2965   2.264   3.862   6.420 -0.0658  0.3191 -0.0724
  212POPC   NC3 2966   3.518   2.797   4.357  0.1472  0.0573 -0.1806
  212POPC   PO4 2967   3.190   2.911   4.670 -0.1372 -0.3573 -0.0362
  212POPC   GL1 2968   3.154   2.952   5.063  0.0646 -0.0541  0.0806
  212POPC   GL2 2969   2.869   3.215   5.094  0.0369 -0.1114  0.2579
  212POPC   C1A 2970   3.338   3.129   5.398  0.0912  0.4087 -0.5053
  212POPC   D2A 2971   3.162   3.060   5.791  0.0563 -0.1734  0.1851
  212POPC   C3A 2972   2.927   3.422   5.995  0.0715 -0.0353  0.1323
  212POPC   C4A 2973   2.652   3.615   6.216 -0.0511 -0.0392  0.0480
  212POPC   C1B 2974   2.819   3.354   5.504 -0.1127  0.1733 -0.1116
  212POPC   C2B 2975   2.568   3.148   5.758  0.2659  0.1576  0.3066
  212POPC   C3B 2976   2.063   3.157   5.966 -0.3024 -0.0911 -0.1518
  212POPC   C4B 2977   1.724   3.391   6.128  0.0100 -0.1872 -0.0754
  213POPC   NC3 2978   6.486   3.588   5.069 -0.0458  0.0782  0.1100
  213POPC   PO4 2979   6.255   3.849   5.243  0.0499  0.0121  0.0008
  213POPC   GL1 2980   6.585   4.174   5.421 -0.0827  0.2793 -0.1154
  213POPC   GL2 2981   6.364   4.132   5.710  0.2671  0.0828 -0.1108
  213POPC   C1A 2982   7.019   4.251   5.687  0.0203  0.1425 -0.1004
  213POPC   D2A 2983   7.417   4.573   5.589 -0.0351 -0.0564  0.1935
  213POPC   C3A 2984   7.499   4.878   6.019  0.0134  0.2036  0.2156
  213POPC   C4A 2985   7.328   4.797   6.467 -0.3552 -0.2302  0.0478
  213POPC   C1B 2986   6.595   4.572   5.852  0.3910  0.1307  0.1401
  213POPC   C2B 2987   6.636   5.057   5.705  0.0755 -0.0275  0.1711
  213POPC   C3B 2988   6.538   5.313   6.016  0.1564  0.0568  0.1774
  213POPC   C4B 2989   6.322   5.663   6.182  0.0130  0.0631 -0.0330
  214POPC   NC3 2990   3.962   6.376   4.321 -0.0379  0.0559  0.1635
  214POPC   PO4 2991   3.793   6.098   4.471  0.1466  0.1882 -0.2245
  214POPC   GL1 2992   3.521   6.091   4.755 -0.1366 -0.0325 -0.1207
  214POPC   GL2 2993   3.461   6.437   4.763 -0.1112  0.0205 -0.2765
  214POPC   C1A 2994   3.444   6.011   5.131 -0.0287 -0.2910 -0.0268
  214POPC   D2A 2995   3.492   6.054   5.634  0.1422 -0.0490 -0.0443
  214POPC   C3A 2996   3.079   6.174   5.948 -0.0618 -0.2669 -0.0205
  214POPC   C4A 2997   2.812   6.281   6.270 -0.0292  0.0286 -0.0586
  214POPC   C1B 2998   3.125   6.624   4.913 -0.0862  0.1674 -0.2077
  214POPC   C2B 2999   2.783   6.626   4.996  0.2468 -0.5174  0.2313
  214POPC   C3B 3000   2.479   6.458   5.401  0.2447 -0.0128 -0.2776
  214POPC   C4B 3001   2.596   6.232   5.818 -0.1383 -0.3944 -0.2985
  215POPC   NC3 3002   0.311   9.426   4.291  0.0189  0.3590  0.4616
  215POPC   PO4 3003   0.189   9.858   4.405  0.1738  0.2005  0.0364
  215POPC   GL1 3004   0.065   9.920   4.757 -0.0940 -0.0601 -0.0744
  215POPC   GL2 3005   0.202   9.957   4.993 -0.2780  0.2816  0.2623
  215POPC   C1A 3006  -0.179  10.296   5.002  0.1841  0.0802  0.1693
  215POPC   D2A 3007  -0.128  10.666   5.264 -0.2927  0.0563 -0.1326
  215POPC   C3A 3008  -0.063  10.590   5.657  0.1370 -0.0772 -0.0228
  215POPC   C4A 3009  -0.033  10.521   6.087 -0.1084  0.1641 -0.0216
  215POPC   C1B 3010   0.427   9.742   5.402  0.1232  0.0584  0.0520
  215POPC   C2B 3011   0.336   9.340   5.480 -0.1486  0.0185 -0.3235
  215POPC   C3B 3012   0.467   8.896   5.693  0.4156  0.2068  0.2708
  215POPC   C4B 3013   0.633   8.770   6.047  0.2809 -0.1328  0.0925
  216POPC   NC3 3014   5.600   2.734   4.701 -0.0910  0.1535  0.0146
  216POPC   PO4 3015   5.369   2.870   4.956 -0.1625 -0.0636  0.1491
  216POPC   GL1 3016   5.490   2.820   5.448 -0.2589 -0.2019 -0.1934
  216POPC   GL2 3017   5.646   3.099   5.633  0.0078  0.1733  0.3463
  216POPC   C1A 3018   5.515   2.756   5.970  0.2889  0.0091 -0.2842
  216POPC   D2A 3019   5.325   3.068   6.223 -0.1925 -0.2249  0.0552
  216POPC   C3A 3020   5.675   3.391   6.152  0.1008 -0.0040 -0.0237
  216POPC   C4A 3021   5.789   3.735   6.382  0.1767  0.0760  0.0333
  216POPC   C1B 3022   5.850   3.315   5.651  0.0984  0.0204 -0.0485
  216POPC   C2B 3023   6.067   3.669   5.882  0.0032  0.0036 -0.0443
  216POPC   C3B 3024   6.263   3.847   6.277  0.0200  0.1222  0.2075
  216POPC   C4B 3025   6.291   3.673   6.663 -0.0079 -0.2262 -0.2821
  217POPC   NC3 3026   6.804   8.103   3.182  0.0913 -0.0902  0.0248
  217POPC   PO4 3027   6.796   7.748   3.382 -0.1170  0.0896 -0.1583
  217POPC   GL1 3028   6.972   7.745   3.745  0.0181 -0.0787 -0.0024
  217POPC   GL2 3029   7.178   7.413   3.803  0.0632  0.1504 -0.3997
  217POPC   C1A 3030   6.821   7.935   4.112  0.0455 -0.0050 -0.0181
  217POPC   D2A 3031   6.561   8.027   4.445 -0.2239  0.1467  0.1001
  217POPC   C3A 3032   6.591   7.864   4.839 -0.2327  0.3724 -0.2311
  217POPC   C4A 3033   6.648   7.824   5.246  0.0407 -0.0325 -0.0711
  217POPC   C1B 3034   6.990   7.418   4.173 -0.0200 -0.2767  0.1410
  217POPC   C2B 3035   6.903   7.403   4.615 -0.3240 -0.1834 -0.0092
  217POPC   C3B 3036   6.618   7.397   4.966 -0.1409  0.0210 -0.0851
  217POPC   C4B 3037   6.254   7.404   5.188 -0.0922 -0.0844 -0.0589
  218POPC   NC3 3038   1.705   0.275   4.773  0.4021 -0.1705 -0.2996
  218POPC   PO4 3039   1.509   0.600   4.706  0.1860  0.0827  0.0645
  218POPC   GL1 3040   1.850   0.660   5.114  0.0077  0.1345 -0.0059
  218POPC   GL2 3041   2.084   0.519   5.320  0.1859 -0.2775  0.0314
  218POPC   C1A 3042   1.592   0.568   5.496  0.0435  0.1620  0.0759
  218POPC   D2A 3043   1.365   0.568   5.843  0.1385 -0.2249  0.1821
  218POPC   C3A 3044   1.585   0.282   6.156  0.1771 -0.1745  0.3639
  218POPC   C4A 3045   1.656   0.274   6.624 -0.0453 -0.0698  0.1577
  218POPC   C1B 3046   2.067   0.852   5.548  0.2917 -0.0709 -0.1730
  218POPC   C2B 3047   1.984   1.251   5.857 -0.0279  0.1595 -0.2759
  218POPC   C3B 3048   2.218   1.244   6.255 -0.0545 -0.1610 -0.2966
  218POPC   C4B 3049   2.532   0.931   6.431  0.0366  0.3390 -0.0207
  219POPC   NC3 3050   0.617   0.378   4.230 -0.0728 -0.2214  0.2377
  219POPC   PO4 3051   0.389   0.785   4.297  0.0029  0.1344 -0.0476
  219POPC   GL1 3052   0.516   0.676   4.658 -0.1686  0.0727 -0.1562
  219POPC   GL2 3053   0.504   1.014   4.813  0.1024 -0.2367  0.0107
  219POPC   C1A 3054   0.335   0.519   5.057  0.2184  0.2774  0.2290
  219POPC   D2A 3055   0.122   0.257   5.451 -0.2037 -0.0682  0.1958
  219POPC   C3A 3056   0.236   0.205   5.856  0.0437  0.0715  0.1098
  219POPC   C4A 3057   0.309   0.205   6.289 -0.1734  0.2636  0.0918
  219POPC   C1B 3058   0.634   0.867   5.214  0.1826 -0.1381  0.1811
  219POPC   C2B 3059   0.566   0.681   5.562 -0.0959 -0.2264  0.1584
  219POPC   C3B 3060   0.406   0.747   5.988 -0.0181 -0.3880 -0.1497
  219POPC   C4B 3061   0.288   1.149   6.152  0.0457  0.3514 -0.1135
  220POPC   NC3 3062   9.163   7.768   3.468 -0.0505  0.0605 -0.1073
  220POPC   PO4 3063   9.088   8.020   3.677  0.1233 -0.2014  0.0683
  220POPC   GL1 3064   9.207   7.796   3.973 -0.0454 -0.0756  0.1182
  220POPC   GL2 3065   9.278   7.536   3.999  0.3001  0.2341  0.1537
  220POPC   C1A 3066   9.084   7.843   4.402  0.0291 -0.0949  0.2740
  220POPC   D2A 3067   8.756   7.767   4.559  0.0789 -0.0373 -0.0374
  220POPC   C3A 3068   8.592   7.704   4.968  0.0700 -0.0125 -0.2574
  220POPC   C4A 3069   8.822   7.476   5.235 -0.0746  0.0176 -0.2166
  220POPC   C1B 3070   9.597   7.667   4.274 -0.0629 -0.0009 -0.0426
  220POPC   C2B 3071   9.684   7.634   4.642  0.3908 -0.2051 -0.2406
  220POPC   C3B 3072   9.599   7.670   5.056 -0.1100  0.1061  0.3078
  220POPC   C4B 3073   9.825   7.970   5.277  0.0850 -0.0454  0.3576
  221POPC   NC3 3074   3.595   9.358   4.619  0.1210 -0.2783  0.0023
  221POPC   PO4 3075   3.932   9.698   4.616  0.2677  0.0940 -0.1744
  221POPC   GL1 3076   4.099   9.430   4.716 -0.1268 -0.2412  0.0991
  221POPC   GL2 3077   4.366   9.379   4.765  0.1812 -0.1669 -0.1206
  221POPC   C1A 3078   4.052   9.091   5.139  0.3034  0.2340 -0.2704
  221POPC   D2A 3079   4.062   8.882   5.495  0.3659  0.2331 -0.0517
  221POPC   C3A 3080   3.986   8.952   5.998  0.0072  0.4096  0.0890
  221POPC   C4A 3081   4.076   8.818   6.500 -0.2782 -0.0584 -0.1641
  221POPC   C1B 3082   4.451   9.369   5.062  0.1304 -0.1481 -0.0213
  221POPC   C2B 3083   4.400   9.318   5.467  0.1413  0.0816  0.1749
  221POPC   C3B 3084   4.119   9.393   5.717  0.0421 -0.2062  0.0575
  221POPC   C4B 3085   3.803   9.497   5.953  0.0333  0.0442 -0.2326
  222POPC   NC3 3086   9.352   9.208   4.062  0.0888  0.3687 -0.0758
  222POPC   PO4 3087   8.947   9.367   4.089 -0.3047 -0.0815  0.1626
  222POPC   GL1 3088   8.675   8.992   4.071 -0.0563 -0.1270 -0.0432
  222POPC   GL2 3089   8.739   8.896   4.375  0.0824 -0.1758  0.2419
  222POPC   C1A 3090   8.644   8.559   4.046 -0.1663 -0.0326  0.2652
  222POPC   D2A 3091   8.291   8.243   4.177 -0.0009 -0.0933  0.1159
  222POPC   C3A 3092   8.272   8.090   4.628  0.0257 -0.2402 -0.0940
  222POPC   C4A 3093   8.317   8.423   4.893 -0.2149  0.2183  0.0569
  222POPC   C1B 3094   8.360   8.750   4.491  0.0164  0.1359 -0.1662
  222POPC   C2B 3095   8.029   8.504   4.496  0.0425 -0.1974  0.2012
  222POPC   C3B 3096   7.826   8.212   4.785 -0.5293 -0.2872  0.0267
  222POPC   C4B 3097   7.904   7.885   5.151 -0.0894  0.1008 -0.0428
  223POPC   NC3 3098   9.765   0.958   4.404 -0.1690  0.3248 -0.1456
  223POPC   PO4 3099   9.589   1.319   4.633  0.0167  0.0489 -0.3110
  223POPC   GL1 3100   9.614   1.250   5.060 -0.1236  0.0189 -0.2327
  223POPC   GL2 3101   9.403   1.114   5.357  0.2760  0.2291  0.2002
  223POPC   C1A 3102   9.846   1.450   5.483  0.0883 -0.0229  0.0829
  223POPC   D2A 3103   9.823   1.149   5.772 -0.1936 -0.1858 -0.0987
  223POPC   C3A 3104   9.665   1.197   6.147  0.1105 -0.3818  0.0984
  223POPC   C4A 3105   9.238   1.077   6.294 -0.1113 -0.0907 -0.0525
  223POPC   C1B 3106   9.278   1.319   5.758 -0.2359 -0.3720 -0.0523
  223POPC   C2B 3107   9.203   1.714   6.022  0.1746 -0.2522  0.0280
  223POPC   C3B 3108   9.377   2.112   6.202  0.0400 -0.0696 -0.1084
  223POPC   C4B 3109   9.289   2.546   6.233 -0.1022  0.1764  0.0521
  224POPC   NC3 3110   7.684   6.160   2.989  0.0753  0.1388  0.5393
  224POPC   PO4 3111   7.599   5.791   3.309  0.1118  0.1138  0.0004
  224POPC   GL1 3112   7.491   5.898   3.573  0.0075  0.0745 -0.1948
  224POPC   GL2 3113   7.641   6.236   3.752  0.0672 -0.0081  0.0843
  224POPC   C1A 3114   7.482   5.732   4.000  0.2485 -0.0423  0.2324
  224POPC   D2A 3115   7.470   5.766   4.426  0.1935  0.3829  0.0315
  224POPC   C3A 3116   7.822   5.828   4.707 -0.1592  0.1226 -0.1034
  224POPC   C4A 3117   8.012   6.109   4.964  0.2608 -0.2127 -0.1994
  224POPC   C1B 3118   7.470   6.297   4.209  0.0986  0.1077 -0.1838
  224POPC   C2B 3119   7.497   6.209   4.698 -0.3537 -0.1053  0.1616
  224POPC   C3B 3120   7.233   6.474   5.024  0.0218  0.0059  0.1322
  224POPC   C4B 3121   6.860   6.288   5.260  0.1498 -0.3221  0.0106
  225POPC   NC3 3122   1.570   7.713   4.032 -0.0973  0.2931  0.0262
  225POPC   PO4 3123   1.867   7.738   4.376  0.1115 -0.0114  0.0467
  225POPC   GL1 3124   2.091   7.446   4.697 -0.0622 -0.2232  0.0076
  225POPC   GL2 3125   1.858   7.540   4.970 -0.3160  0.1466  0.3589
  225POPC   C1A 3126   2.202   7.439   5.213 -0.0319  0.0958  0.1607
  225POPC   D2A 3127   2.234   7.348   5.663 -0.2511  0.0704  0.1906
  225POPC   C3A 3128   1.966   7.455   5.840  0.2481 -0.1285 -0.0477
  225POPC   C4A 3129   1.684   7.806   5.830 -0.1144  0.0580 -0.3838
  225POPC   C1B 3130   1.791   7.783   5.384 -0.1028 -0.0030 -0.1572
  225POPC   C2B 3131   1.584   8.125   5.483  0.2743 -0.0460  0.1203
  225POPC   C3B 3132   1.587   8.472   5.770 -0.0551  0.4751  0.2720
  225POPC   C4B 3133   1.567   8.958   5.715 -0.2378 -0.1420 -0.1294
  226POPC   NC3 3134   8.695   0.133   4.677  0.2423  0.0170 -0.0689
  226POPC   PO4 3135   8.587   0.585   4.952  0.2339  0.1182  0.0023
  226POPC   GL1 3136   8.468   0.690   5.337  0.1171 -0.0456  0.0388
  226POPC   GL2 3137   8.148   0.796   5.404 -0.3654 -0.2525  0.0109
  226POPC   C1A 3138   8.427   0.642   5.745  0.1838  0.0314  0.0503
  226POPC   D2A 3139   8.499   0.795   6.054 -0.0437 -0.1702 -0.2088
  226POPC   C3A 3140   8.467   0.690   6.386  0.2252 -0.1480  0.2751
  226POPC   C4A 3141   8.178   0.773   6.770  0.4617 -0.1698  0.0996
  226POPC   C1B 3142   7.992   0.526   5.661 -0.0497 -0.1482 -0.0067
  226POPC   C2B 3143   7.877   0.531   6.118  0.0871 -0.1926 -0.0942
  226POPC   C3B 3144   7.757   0.551   6.546 -0.4306  0.2190 -0.0260
  226POPC   C4B 3145   7.486   0.346   6.773  0.1154  0.1031 -0.4554
  227POPC   NC3 3146   3.178   0.257   4.805 -0.1345 -0.3480  0.0892
  227POPC   PO4 3147   2.914   0.004   4.629  0.2610  0.2838  0.1382
  227POPC   GL1 3148   2.823  -0.058   4.989 -0.0421 -0.0234 -0.1219
  227POPC   GL2 3149   2.810  -0.432   5.029 -0.0191 -0.2419  0.2377
  227POPC   C1A 3150   2.936  -0.014   5.400  0.2071 -0.1657 -0.0175
  227POPC   D2A 3151   3.062   0.034   5.862  0.3439  0.3752  0.0699
  227POPC   C3A 3152   2.903   0.184   6.240  0.0938 -0.3242 -0.1458
  227POPC   C4A 3153   2.886   0.617   6.548 -0.2746  0.3182  0.0604
  227POPC   C1B 3154   2.444  -0.190   5.218 -0.1911  0.2271  0.0585
  227POPC   C2B 3155   2.144  -0.287   5.486  0.0226  0.0115  0.1105
  227POPC   C3B 3156   1.832  -0.553   5.779 -0.2269  0.0868  0.2147
  227POPC   C4B 3157   1.727  -0.674   6.215 -0.0618 -0.1622 -0.0475
  228POPC   NC3 3158   4.805   1.803   5.108 -0.1493 -0.1260 -0.2390
  228POPC   PO4 3159   5.175   1.762   4.934  0.0619  0.0038 -0.0066
  228POPC   GL1 3160   5.290   1.731   5.365 -0.2610 -0.1113  0.2139
  228POPC   GL2 3161   5.112   1.567   5.521 -0.1087  0.0751 -0.1182
  228POPC   C1A 3162   5.441   1.887   5.812 -0.1881 -0.2020 -0.0205
  228POPC   D2A 3163   5.355   2.195   6.107 -0.0512 -0.2735 -0.2388
  228POPC   C3A 3164   4.972   2.516   6.147  0.2122  0.0153 -0.0590
  228POPC   C4A 3165   4.800   2.860   6.330  0.1052 -0.2837 -0.1246
  228POPC   C1B 3166   4.762   1.650   5.859  0.0339  0.2691  0.3115
  228POPC   C2B 3167   4.525   1.715   6.245  0.3885 -0.1154 -0.0459
  228POPC   C3B 3168   4.470   2.004   6.613 -0.2898 -0.0007  0.1824
  228POPC   C4B 3169   4.565   2.505   6.516 -0.2502 -0.3562 -0.1404
  229POPC   NC3 3170   0.710   8.622   4.423  0.2235 -0.0122  0.1528
  229POPC   PO4 3171   0.405   8.878   4.213  0.0315  0.1860 -0.4312
  229POPC   GL1 3172   0.208   8.476   4.469 -0.2944 -0.1137  0.2274
  229POPC   GL2 3173  -0.051   8.547   4.258  0.0479  0.3845  0.0243
  229POPC   C1A 3174   0.227   8.295   4.888 -0.0974 -0.2030  0.0826
  229POPC   D2A 3175   0.276   8.346   5.295  0.2649  0.4317  0.3758
  229POPC   C3A 3176   0.599   8.377   5.596  0.3877  0.0903  0.0386
  229POPC   C4A 3177   0.726   8.272   6.033 -0.3443  0.0841 -0.1358
  229POPC   C1B 3178  -0.258   8.511   4.858 -0.0737 -0.0613 -0.2748
  229POPC   C2B 3179  -0.398   8.421   5.399 -0.4500 -0.2366  0.1858
  229POPC   C3B 3180  -0.542   8.078   5.549  0.3095  0.0539 -0.1751
  229POPC   C4B 3181  -0.692   7.638   5.442  0.0982  0.2577 -0.2196
  230POPC   NC3 3182   4.674   6.192   4.222  0.0551 -0.4618 -0.0770
  230POPC   PO4 3183   4.335   6.512   4.090 -0.0858 -0.0060  0.0932
  230POPC   GL1 3184   4.337   6.578   4.540 -0.1895  0.1813 -0.3068
  230POPC   GL2 3185   4.194   6.806   4.696  0.0107  0.0348 -0.0666
  230POPC   C1A 3186   4.437   6.451   4.970 -0.1823 -0.2179 -0.1670
  230POPC   D2A 3187   4.435   6.167   5.252  0.0774  0.0074 -0.0338
  230POPC   C3A 3188   4.097   6.266   5.492  0.1184  0.0459 -0.0698
  230POPC   C4A 3189   3.946   6.109   5.846  0.2465 -0.1075 -0.1891
  230POPC   C1B 3190   4.212   6.810   5.205  0.0803 -0.1115  0.0082
  230POPC   C2B 3191   4.431   6.653   5.661  0.0484 -0.0320 -0.0529
  230POPC   C3B 3192   4.519   6.570   6.075 -0.2549  0.2771 -0.0668
  230POPC   C4B 3193   4.832   6.420   6.327  0.1818  0.4882  0.1407
  231POPC   NC3 3194   5.453   9.690   4.442 -0.2248  0.3714 -0.1127
  231POPC   PO4 3195   5.537   9.237   4.410 -0.4006 -0.0749 -0.0692
  231POPC   GL1 3196   5.727   9.238   4.701  0.0389  0.0335  0.1169
  231POPC   GL2 3197   5.801   9.359   4.995 -0.2789 -0.4799  0.0201
  231POPC   C1A 3198   5.710   8.872   5.086 -0.0201  0.0571  0.0752
  231POPC   D2A 3199   5.810   8.652   5.501 -0.0251  0.0810  0.2078
  231POPC   C3A 3200   5.512   8.582   5.767 -0.2559 -0.0769  0.0297
  231POPC   C4A 3201   5.307   8.274   6.031  0.1104 -0.0521  0.1831
  231POPC   C1B 3202   6.023   9.192   5.373 -0.0521  0.3056 -0.0435
  231POPC   C2B 3203   6.355   9.064   5.422 -0.1654 -0.1646 -0.1884
  231POPC   C3B 3204   6.759   9.157   5.291 -0.0988 -0.0214  0.0903
  231POPC   C4B 3205   7.222   8.992   5.379 -0.3559 -0.0842  0.0483
  232POPC   NC3 3206   9.625   6.641   3.375  0.1657 -0.2754 -0.3825
  232POPC   PO4 3207   9.901   6.382   3.616  0.0347 -0.1849  0.0620
  232POPC   GL1 3208   9.581   6.416   3.946 -0.1634 -0.3439 -0.1177
  232POPC   GL2 3209   9.458   6.225   4.041 -0.2589  0.4585 -0.0034
  232POPC   C1A 3210   9.596   6.722   4.339 -0.1146  0.1043 -0.0672
  232POPC   D2A 3211   9.736   6.303   4.607 -0.1996 -0.0660  0.1382
  232POPC   C3A 3212   9.556   6.080   4.944 -0.1051 -0.2720 -0.1248
  232POPC   C4A 3213   9.640   5.869   5.230  0.1338  0.0146  0.1178
  232POPC   C1B 3214   9.252   6.325   4.434  0.1422 -0.3617  0.0393
  232POPC   C2B 3215   8.825   6.414   4.512 -0.3799 -0.0542  0.0517
  232POPC   C3B 3216   8.437   6.336   4.277  0.0755  0.1758 -0.1293
  232POPC   C4B 3217   8.106   6.326   3.951  0.1118  0.1857  0.1798
  233POPC   NC3 3218   1.346   6.153   3.858  0.0966 -0.2746 -0.0327
  233POPC   PO4 3219   1.052   5.955   4.009 -0.0202  0.4000 -0.3349
  233POPC   GL1 3220   1.093   6.010   4.451  0.0128  0.0173 -0.1037
  233POPC   GL2 3221   0.773   5.997   4.573 -0.1226  0.0054  0.0676
  233POPC   C1A 3222   1.414   5.989   4.698  0.3067  0.0307 -0.3527
  233POPC   D2A 3223   1.585   6.242   5.162  0.2342 -0.0811  0.0187
  233POPC   C3A 3224   1.604   6.121   5.541  0.0774 -0.3192  0.0644
  233POPC   C4A 3225   1.512   6.057   5.981  0.1484 -0.0742 -0.1354
  233POPC   C1B 3226   0.990   6.386   4.794  0.3468 -0.0373  0.2142
  233POPC   C2B 3227   1.068   6.598   5.183 -0.1846  0.1434  0.3113
  233POPC   C3B 3228   1.394   6.834   5.384 -0.1300  0.0717  0.1679
  233POPC   C4B 3229   1.391   6.874   5.885 -0.0044  0.2707  0.2115
  234POPC   NC3 3230   2.687   5.276   4.542  0.3711 -0.0342  0.1404
  234POPC   PO4 3231   2.812   5.652   4.480 -0.0845  0.2494  0.4448
  234POPC   GL1 3232   2.612   5.672   4.862 -0.3906 -0.1591 -0.2736
  234POPC   GL2 3233   2.783   5.653   5.103  0.0415 -0.2459 -0.2079
  234POPC   C1A 3234   2.173   5.535   5.064  0.0322 -0.0469 -0.0463
  234POPC   D2A 3235   1.850   5.421   5.424 -0.0576 -0.0076  0.1501
  234POPC   C3A 3236   1.759   5.665   5.718 -0.0373  0.2237  0.3458
  234POPC   C4A 3237   1.470   5.545   6.047 -0.1731  0.0445  0.0376
  234POPC   C1B 3238   2.869   5.374   5.352  0.0674  0.2064  0.1631
  234POPC   C2B 3239   3.212   5.106   5.622 -0.1674  0.2118  0.1519
  234POPC   C3B 3240   3.620   5.011   5.871  0.2794  0.0918 -0.1180
  234POPC   C4B 3241   3.782   5.201   6.214  0.2234  0.3055  0.0905
  235POPC   NC3 3242   4.991   8.941   3.469  0.0529  0.1986 -0.1234
  235POPC   PO4 3243   5.219   8.670   3.770  0.2800  0.1202  0.4111
  235POPC   GL1 3244   5.334   8.574   4.181  0.1785  0.0805 -0.2272
  235POPC   GL2 3245   5.407   8.734   4.410 -0.3449 -0.0789 -0.0723
  235POPC   C1A 3246   5.112   8.329   4.414 -0.0092 -0.1891 -0.1354
  235POPC   D2A 3247   4.826   8.203   4.700 -0.2217  0.2623 -0.0918
  235POPC   C3A 3248   4.742   8.516   4.986  0.0540 -0.1435  0.0348
  235POPC   C4A 3249   4.569   8.893   5.221 -0.0516  0.0456 -0.1210
  235POPC   C1B 3250   5.749   8.587   4.697 -0.2579 -0.0296 -0.0151
  235POPC   C2B 3251   5.860   8.270   5.084  0.2119  0.1286 -0.0721
  235POPC   C3B 3252   6.181   8.271   5.535  0.2092  0.0418 -0.0668
  235POPC   C4B 3253   6.204   8.282   5.915  0.0702  0.0094  0.0079
  236POPC   NC3 3254   6.770   4.474   3.677 -0.1458 -0.0589 -0.2684
  236POPC   PO4 3255   6.879   4.669   4.043 -0.3811 -0.0650 -0.2645
  236POPC   GL1 3256   6.914   5.070   4.174 -0.1614  0.1701  0.3068
  236POPC   GL2 3257   7.131   5.329   4.100 -0.0452 -0.0396  0.5144
  236POPC   C1A 3258   6.902   5.495   4.514  0.1572  0.1351  0.0924
  236POPC   D2A 3259   6.846   5.546   4.965  0.0262 -0.2399  0.1066
  236POPC   C3A 3260   6.642   5.782   5.254 -0.2905 -0.0538  0.1169
  236POPC   C4A 3261   6.279   5.913   5.374  0.0424 -0.1331 -0.1030
  236POPC   C1B 3262   7.508   5.290   4.506  0.0924  0.2168  0.0166
  236POPC   C2B 3263   7.903   5.135   4.750  0.0311 -0.0574 -0.0898
  236POPC   C3B 3264   8.173   4.822   4.912  0.1683  0.3013 -0.0326
  236POPC   C4B 3265   8.520   4.524   4.868 -0.0360  0.0599 -0.0709
  237POPC   NC3 3266   1.676   5.297   3.519 -0.1618 -0.0292  0.1153
  237POPC   PO4 3267   1.587   5.325   3.912  0.1232 -0.3040  0.3933
  237POPC   GL1 3268   1.594   5.375   4.388 -0.3205  0.3315  0.2726
  237POPC   GL2 3269   1.737   5.662   4.604  0.0683 -0.2938  0.1827
  237POPC   C1A 3270   1.247   5.494   4.605  0.1145  0.0812  0.1549
  237POPC   D2A 3271   1.078   5.663   5.028  0.0900 -0.1935  0.0018
  237POPC   C3A 3272   1.122   6.100   5.212  0.1835 -0.1228 -0.1117
  237POPC   C4A 3273   1.209   6.440   5.618 -0.0129 -0.1539 -0.0896
  237POPC   C1B 3274   1.613   5.770   5.158  0.0744  0.1457 -0.1173
  237POPC   C2B 3275   1.281   5.702   5.476 -0.5215  0.1740 -0.0770
  237POPC   C3B 3276   1.011   5.927   5.729 -0.0109 -0.1858  0.0944
  237POPC   C4B 3277   0.858   6.290   5.953  0.2046  0.0436 -0.0650
  238POPC   NC3 3278   8.481   9.267   3.576 -0.3251  0.0382  0.0419
  238POPC   PO4 3279   8.327   9.392   3.939 -0.0516 -0.2701 -0.0270
  238POPC   GL1 3280   8.320   9.232   4.443  0.1338 -0.1272  0.4144
  238POPC   GL2 3281   7.927   9.489   4.426 -0.0599 -0.0935 -0.2736
  238POPC   C1A 3282   8.632   9.146   4.800  0.3056  0.1940 -0.2347
  238POPC   D2A 3283   8.752   8.727   4.874 -0.2020 -0.0330 -0.0116
  238POPC   C3A 3284   8.613   8.571   5.233  0.0355  0.1709  0.1082
  238POPC   C4A 3285   8.569   8.298   5.594  0.1110  0.3532 -0.0710
  238POPC   C1B 3286   7.604   9.425   4.729  0.1011 -0.1216 -0.3075
  238POPC   C2B 3287   7.591   9.615   5.195 -0.0291  0.0079 -0.2488
  238POPC   C3B 3288   7.523   9.531   5.538 -0.1904  0.2150 -0.0936
  238POPC   C4B 3289   7.370   9.545   5.893  0.2566  0.3463  0.0827
  239POPC   NC3 3290   3.241   4.577   4.006  0.0945  0.1360 -0.2388
  239POPC   PO4 3291   3.525   4.259   4.297 -0.1128 -0.2784  0.0431
  239POPC   GL1 3292   3.529   4.312   4.748 -0.4087 -0.3251 -0.1888
  239POPC   GL2 3293   3.520   4.621   4.883 -0.0636 -0.0715  0.1273
  239POPC   C1A 3294   3.607   4.016   4.955 -0.3534 -0.0900 -0.2500
  239POPC   D2A 3295   3.995   3.828   5.140  0.1731 -0.3477  0.0563
  239POPC   C3A 3296   4.029   3.965   5.561 -0.3813  0.0097  0.3495
  239POPC   C4A 3297   4.131   4.050   5.954 -0.2093 -0.0711  0.0732
  239POPC   C1B 3298   3.377   4.443   5.233 -0.0645 -0.1276  0.0432
  239POPC   C2B 3299   3.400   4.096   5.527 -0.1316  0.1550  0.2839
  239POPC   C3B 3300   3.533   4.008   5.874  0.6153  0.0918 -0.3330
  239POPC   C4B 3301   3.656   4.404   6.161  0.1065  0.1535 -0.0089
  240POPC   NC3 3302   6.699   6.295   3.428 -0.2429 -0.1108 -0.0137
  240POPC   PO4 3303   6.647   6.671   3.169 -0.0087  0.1592  0.3404
  240POPC   GL1 3304   6.715   6.938   3.504  0.1804  0.0229  0.0998
  240POPC   GL2 3305   7.017   6.820   3.562 -0.3117 -0.3585 -0.4424
  240POPC   C1A 3306   6.509   7.223   3.847 -0.1113  0.0220 -0.0632
  240POPC   D2A 3307   6.490   7.529   4.290  0.1379 -0.0477  0.4716
  240POPC   C3A 3308   6.386   7.410   4.546 -0.1232  0.3897 -0.0094
  240POPC   C4A 3309   6.277   7.031   4.886 -0.0514  0.0455 -0.0713
  240POPC   C1B 3310   6.618   6.796   4.026 -0.0062 -0.1097  0.1608
  240POPC   C2B 3311   6.268   7.001   4.251 -0.2714  0.0218  0.1327
  240POPC   C3B 3312   6.007   7.347   4.078  0.2867  0.2099  0.2054
  240POPC   C4B 3313   5.708   7.457   4.411 -0.0446  0.2608  0.2284
  241POPC   NC3 3314   6.661   1.325   5.246 -0.0754  0.0313 -0.3347
  241POPC   PO4 3315   6.562   0.948   5.039  0.0890 -0.4188  0.1792
  241POPC   GL1 3316   6.493   0.806   5.389  0.0370 -0.0536  0.2250
  241POPC   GL2 3317   6.162   0.667   5.392 -0.4244 -0.0164 -0.0362
  241POPC   C1A 3318   6.525   0.962   5.812  0.1433 -0.0599 -0.2022
  241POPC   D2A 3319   6.759   1.265   6.200 -0.1486 -0.0654  0.3307
  241POPC   C3A 3320   6.453   1.216   6.505  0.0969 -0.2790  0.1702
  241POPC   C4A 3321   6.159   0.901   6.773 -0.1812  0.1774  0.2410
  241POPC   C1B 3322   6.130   0.548   5.848  0.1693  0.1129 -0.0414
  241POPC   C2B 3323   5.814   0.422   6.147  0.0024 -0.3034 -0.0542
  241POPC   C3B 3324   5.680   0.255   6.588 -0.0020 -0.2647  0.1518
  241POPC   C4B 3325   5.545   0.258   7.076  0.0138  0.0195 -0.0180
  242POPC   NC3 3326   7.587   2.234   5.131  0.0132  0.1153  0.0241
  242POPC   PO4 3327   7.249   2.072   5.008 -0.3665 -0.0662  0.1291
  242POPC   GL1 3328   7.223   2.176   5.480 -0.0200 -0.0699  0.1944
  242POPC   GL2 3329   7.557   2.173   5.651 -0.1919 -0.0188  0.1900
  242POPC   C1A 3330   7.066   2.079   5.919  0.1995  0.0382 -0.0173
  242POPC   D2A 3331   6.937   2.381   6.082  0.2573  0.1308 -0.2468
  242POPC   C3A 3332   7.085   2.734   6.172 -0.0375 -0.0344 -0.0594
  242POPC   C4A 3333   7.210   3.105   5.929  0.1137  0.0612 -0.0489
  242POPC   C1B 3334   7.928   2.097   5.979  0.0146  0.3016 -0.0628
  242POPC   C2B 3335   7.975   2.284   6.391 -0.2272  0.0305 -0.0713
  242POPC   C3B 3336   7.820   2.603   6.550  0.1554  0.0032  0.0332
  242POPC   C4B 3337   7.465   2.782   6.495 -0.1228  0.2263 -0.4912
  243POPC   NC3 3338   9.286   5.590   4.255 -0.1544 -0.1446  0.0407
  243POPC   PO4 3339   9.678   5.862   4.335  0.0642 -0.3222  0.1661
  243POPC   GL1 3340   9.774   5.648   4.632  0.0390  0.0408  0.2525
  243POPC   GL2 3341   9.583   5.441   4.584  0.3704  0.1277  0.0709
  243POPC   C1A 3342   9.986   5.547   4.996  0.3039 -0.2526 -0.0937
  243POPC   D2A 3343  10.063   5.404   5.359  0.0083 -0.0402 -0.3614
  243POPC   C3A 3344  10.022   5.601   5.811 -0.0938 -0.2378  0.1515
  243POPC   C4A 3345  10.079   5.458   6.209 -0.1786  0.3588 -0.0741
  243POPC   C1B 3346   9.335   5.574   4.964 -0.1457  0.0880  0.3476
  243POPC   C2B 3347   9.159   5.746   5.218  0.3310 -0.3563  0.0556
  243POPC   C3B 3348   9.248   6.155   5.384  0.1190 -0.1566  0.0751
  243POPC   C4B 3349   9.578   6.329   5.528  0.0988  0.4177 -0.0168
  244POPC   NC3 3350   2.778   0.417   4.470 -0.1261  0.0592 -0.0819
  244POPC   PO4 3351   2.631   0.534   4.904  0.0679  0.1971  0.3047
  244POPC   GL1 3352   2.634   0.390   5.295 -0.2562  0.1666  0.0949
  244POPC   GL2 3353   2.512   0.610   5.538 -0.1198 -0.0836 -0.1728
  244POPC   C1A 3354   2.500   0.163   5.679 -0.1604  0.1216 -0.0104
  244POPC   D2A 3355   2.480  -0.225   5.927 -0.0959  0.1543  0.1124
  244POPC   C3A 3356   2.152  -0.436   6.280 -0.1094 -0.1185 -0.2024
  244POPC   C4A 3357   2.096  -0.529   6.756  0.4425 -0.0301 -0.1339
  244POPC   C1B 3358   2.831   0.549   5.852 -0.0197 -0.3125  0.1798
  244POPC   C2B 3359   3.007   0.893   6.091 -0.0106  0.1363 -0.1885
  244POPC   C3B 3360   2.985   1.126   6.522  0.0895 -0.1746 -0.2335
  244POPC   C4B 3361   3.252   1.391   6.671  0.3618 -0.0712 -0.0781
  245POPC   NC3 3362   8.225   0.943   4.919  0.0644  0.1621 -0.0946
  245POPC   PO4 3363   8.093   1.434   4.959 -0.0091 -0.0783 -0.2509
  245POPC   GL1 3364   7.980   1.425   5.391  0.4410 -0.0759  0.1060
  245POPC   GL2 3365   7.804   1.635   5.616  0.3708  0.2172 -0.1324
  245POPC   C1A 3366   8.256   1.569   5.709  0.2531  0.0168 -0.0852
  245POPC   D2A 3367   8.519   1.808   5.977 -0.0506  0.1414 -0.2388
  245POPC   C3A 3368   8.710   1.851   6.383 -0.2587  0.0423 -0.2933
  245POPC   C4A 3369   8.952   1.942   6.728  0.4114 -0.2121  0.2701
  245POPC   C1B 3370   7.801   1.600   6.107  0.1885 -0.1997 -0.2630
  245POPC   C2B 3371   7.735   1.747   6.464 -0.1450 -0.0080  0.0031
  245POPC   C3B 3372   7.905   1.698   6.839 -0.0667 -0.1596  0.0855
  245POPC   C4B 3373   8.190   1.643   7.179  0.0986  0.0905  0.3780
  246POPC   NC3 3374   0.250   9.241   3.786  0.3818 -0.0198  0.0840
  246POPC   PO4 3375  -0.037   9.069   4.211  0.2425  0.0856  0.1108
  246POPC   GL1 3376   0.061   9.019   4.688  0.1530  0.0027 -0.0284
  246POPC   GL2 3377  -0.259   8.931   4.674  0.0761  0.1352  0.2605
  246POPC   C1A 3378   0.297   8.922   4.918  0.2565 -0.0222  0.1534
  246POPC   D2A 3379   0.572   8.785   5.237 -0.0363  0.1603  0.3390
  246POPC   C3A 3380   0.877   8.769   5.391  0.1953  0.1439  0.0050
  246POPC   C4A 3381   1.124   8.693   5.736 -0.1448 -0.1245 -0.1302
  246POPC   C1B 3382  -0.581   8.882   5.059  0.2305  0.1462 -0.4192
  246POPC   C2B 3383  -0.625   8.964   5.513  0.2474  0.1363  0.3876
  246POPC   C3B 3384  -0.473   9.244   5.887 -0.2735  0.1820  0.0252
  246POPC   C4B 3385  -0.395   9.640   5.968 -0.1312 -0.1579 -0.0963
  247POPC   NC3 3386   7.407   7.290   3.260 -0.1030  0.0388 -0.0092
  247POPC   PO4 3387   7.781   7.549   3.408  0.2052  0.2143 -0.2242
  247POPC   GL1 3388   7.934   7.340   3.800  0.0956  0.2541  0.0783
  247POPC   GL2 3389   7.701   7.100   3.705 -0.0870  0.1237  0.0409
  247POPC   C1A 3390   8.265   7.428   4.038 -0.1356  0.0705  0.3445
  247POPC   D2A 3391   8.332   7.739   4.337 -0.0300 -0.2662  0.1585
  247POPC   C3A 3392   7.896   7.958   4.341 -0.1442  0.0359 -0.1615
  247POPC   C4A 3393   7.584   8.226   4.362 -0.0165 -0.0701 -0.0349
  247POPC   C1B 3394   7.755   6.730   4.041 -0.0886  0.0194 -0.0267
  247POPC   C2B 3395   7.515   6.726   4.404  0.0007 -0.0474  0.3666
  247POPC   C3B 3396   7.178   6.900   4.655  0.1626 -0.2212  0.2548
  247POPC   C4B 3397   6.764   6.995   4.461  0.2414 -0.1315 -0.0242
  248POPC   NC3 3398   6.466   3.994   4.478  0.3413  0.4590  0.0681
  248POPC   PO4 3399   6.801   4.293   4.503  0.0893  0.1426  0.0457
  248POPC   GL1 3400   6.622   4.650   4.708 -0.5470  0.1629  0.3037
  248POPC   GL2 3401   6.532   4.858   4.405 -0.0648  0.0559 -0.2898
  248POPC   C1A 3402   6.280   4.875   4.909 -0.4017 -0.0206 -0.2297
  248POPC   D2A 3403   5.911   4.864   5.146 -0.3182 -0.0807 -0.1020
  248POPC   C3A 3404   5.487   5.171   5.335 -0.5083  0.1470  0.2346
  248POPC   C4A 3405   5.025   5.258   5.461  0.0240  0.1361 -0.2356
  248POPC   C1B 3406   6.405   5.257   4.531 -0.0121  0.0646  0.1498
  248POPC   C2B 3407   6.448   5.642   4.668 -0.0979  0.1738 -0.0099
  248POPC   C3B 3408   6.426   6.074   4.862  0.2049  0.5249  0.0777
  248POPC   C4B 3409   6.391   6.470   5.187  0.0141 -0.1019  0.4122
  249POPC   NC3 3410   6.485   0.335   3.572  0.1819  0.4419 -0.1435
  249POPC   PO4 3411   6.599   0.189   4.096 -0.0048  0.2799  0.0299
  249POPC   GL1 3412   6.694   0.011   4.504  0.0792  0.1842 -0.0651
  249POPC   GL2 3413   7.006  -0.271   4.585  0.1263  0.1278  0.2195
  249POPC   C1A 3414   6.557  -0.071   4.816  0.1552  0.0197 -0.0295
  249POPC   D2A 3415   6.647  -0.549   4.817 -0.1140 -0.1342  0.1023
  249POPC   C3A 3416   6.234  -0.779   4.924 -0.0033 -0.3806 -0.2146
  249POPC   C4A 3417   6.152  -1.241   5.129 -0.1702 -0.0840 -0.1633
  249POPC   C1B 3418   7.102  -0.595   4.887  0.0783 -0.2748  0.1588
  249POPC   C2B 3419   6.933  -1.089   4.881 -0.2251 -0.1990 -0.0968
  249POPC   C3B 3420   6.669  -1.316   5.195  0.2128 -0.0358  0.0633
  249POPC   C4B 3421   6.515  -1.619   5.123 -0.1749  0.2710  0.0139
  250POPC   NC3 3422   8.924   9.878   4.224 -0.3031  0.0318 -0.1584
  250POPC   PO4 3423   9.246  10.075   4.306 -0.1026 -0.1646 -0.0614
  250POPC   GL1 3424   9.479  10.049   4.656 -0.1166 -0.1064 -0.0749
  250POPC   GL2 3425   9.278  10.217   4.958  0.2485  0.0580 -0.2053
  250POPC   C1A 3426   9.656   9.820   5.082  0.1315  0.4031 -0.0624
  250POPC   D2A 3427   9.877   9.660   5.443  0.0548  0.2800  0.0740
  250POPC   C3A 3428   9.853   9.187   5.539 -0.1182  0.1460 -0.3409
  250POPC   C4A 3429   9.798   8.839   5.251  0.2931  0.0613  0.2885
  250POPC   C1B 3430   9.378  10.094   5.352 -0.1104 -0.1056  0.0603
  250POPC   C2B 3431   9.637  10.023   5.709  0.0424 -0.4717 -0.0422
  250POPC   C3B 3432   9.759  10.041   6.129 -0.2318 -0.0647 -0.1572
  250POPC   C4B 3433   9.996   9.638   6.346  0.1050  0.1545  0.0091
  251POPC   NC3 3434   2.308   3.805   4.071  0.0007  0.0807  0.0679
  251POPC   PO4 3435   2.484   3.542   4.320 -0.2158 -0.1743  0.2418
  251POPC   GL1 3436   2.644   3.683   4.768 -0.0593  0.0511 -0.1399
  251POPC   GL2 3437   3.012   3.805   4.864  0.2196 -0.0994 -0.1497
  251POPC   C1A 3438   2.532   4.015   5.046  0.2749 -0.2622  0.0996
  251POPC   D2A 3439   2.547   4.171   5.475 -0.2150 -0.1309  0.2644
  251POPC   C3A 3440   2.145   4.322   5.732  0.1408  0.1764 -0.1659
  251POPC   C4A 3441   1.806   4.448   5.865  0.2656  0.1711 -0.1304
  251POPC   C1B 3442   2.951   3.921   5.336  0.0013  0.0290 -0.3410
  251POPC   C2B 3443   3.009   3.892   5.795  0.0558 -0.1252 -0.0773
  251POPC   C3B 3444   3.231   3.785   6.276 -0.0810  0.1339 -0.0898
  251POPC   C4B 3445   3.261   3.931   6.693  0.2739  0.0699  0.0722
  252POPC   NC3 3446   5.010   0.141   4.528  0.0838  0.0563  0.1803
  252POPC   PO4 3447   4.974   0.338   4.877  0.2993  0.1743 -0.0330
  252POPC   GL1 3448   4.889   0.114   5.306  0.2417 -0.1560  0.1325
  252POPC   GL2 3449   5.135   0.078   5.407  0.2621  0.0560  0.2853
  252POPC   C1A 3450   4.873   0.118   5.807 -0.1968 -0.1540  0.1379
  252POPC   D2A 3451   4.995  -0.239   6.132  0.0403  0.0079 -0.0081
  252POPC   C3A 3452   4.992  -0.644   6.246 -0.0769  0.0655  0.0012
  252POPC   C4A 3453   5.113  -0.801   6.658  0.2425 -0.3190 -0.2190
  252POPC   C1B 3454   5.218  -0.190   5.636  0.0221  0.2249 -0.2030
  252POPC   C2B 3455   5.239  -0.605   5.844 -0.3112  0.2107 -0.2943
  252POPC   C3B 3456   5.638  -0.923   5.870 -0.0180 -0.4866  0.1235
  252POPC   C4B 3457   6.068  -1.079   5.824 -0.0872 -0.1660 -0.1556
  253POPC   NC3 3458   2.595   9.543   4.583  0.0503 -0.0392  0.0775
  253POPC   PO4 3459   2.623   9.140   4.777 -0.1712  0.2608 -0.2491
  253POPC   GL1 3460   2.785   8.992   5.184  0.2090  0.0369  0.0106
  253POPC   GL2 3461   3.098   8.780   5.130  0.0480  0.1870  0.1358
  253POPC   C1A 3462   2.915   9.018   5.575 -0.2125  0.2014 -0.2322
  253POPC   D2A 3463   3.049   8.903   5.969  0.0505  0.1023 -0.2613
  253POPC   C3A 3464   2.894   9.173   6.247 -0.0310  0.4011  0.1805
  253POPC   C4A 3465   2.548   9.255   6.513 -0.1372  0.0425  0.2139
  253POPC   C1B 3466   3.046   8.509   5.562  0.1778  0.0907  0.2762
  253POPC   C2B 3467   3.160   8.209   5.960  0.0586  0.0015 -0.2219
  253POPC   C3B 3468   3.468   8.191   6.181 -0.1037 -0.2034 -0.0071
  253POPC   C4B 3469   3.696   8.477   6.513  0.0805  0.0535 -0.1651
  254POPC   NC3 3470   4.891   0.812   4.709  0.1049  0.0707 -0.5126
  254POPC   PO4 3471   5.311   0.907   4.949 -0.0968 -0.2316  0.0590
  254POPC   GL1 3472   5.573   1.061   5.212  0.3248  0.1699 -0.1521
  254POPC   GL2 3473   5.296   1.097   5.481 -0.0771 -0.0647 -0.2234
  254POPC   C1A 3474   5.779   1.118   5.613 -0.0320 -0.3580 -0.2112
  254POPC   D2A 3475   5.982   1.072   5.934 -0.0672 -0.2781 -0.1837
  254POPC   C3A 3476   5.846   0.949   6.318  0.3216  0.1025  0.1484
  254POPC   C4A 3477   5.624   0.737   6.731 -0.1068 -0.4475  0.0659
  254POPC   C1B 3478   4.860   1.074   5.606 -0.0480 -0.1674 -0.0047
  254POPC   C2B 3479   4.643   1.076   5.969  0.3818  0.2071  0.1256
  254POPC   C3B 3480   4.516   0.783   6.289 -0.1448  0.3081 -0.1765
  254POPC   C4B 3481   4.643   0.579   6.629  0.2206 -0.1221  0.1608
  255POPC   NC3 3482   2.042   4.078   4.594  0.0937 -0.4096  0.1111
  255POPC   PO4 3483   2.134   4.528   4.627  0.1708  0.2789  0.2001
  255POPC   GL1 3484   2.357   4.732   5.020 -0.1600 -0.1008  0.1355
  255POPC   GL2 3485   2.476   5.133   5.007 -0.2301  0.1353  0.2113
  255POPC   C1A 3486   2.370   4.669   5.448  0.2310 -0.0336 -0.0778
  255POPC   D2A 3487   2.252   4.785   6.017  0.1540  0.0486 -0.1671
  255POPC   C3A 3488   2.030   4.801   6.413 -0.1059 -0.1699 -0.1178
  255POPC   C4A 3489   2.150   4.537   6.743 -0.3963 -0.1478 -0.1645
  255POPC   C1B 3490   2.313   5.164   5.410 -0.0168  0.0461 -0.0629
  255POPC   C2B 3491   2.263   5.292   5.815 -0.0791  0.1568 -0.0714
  255POPC   C3B 3492   2.322   5.249   6.223 -0.1705  0.1232 -0.2382
  255POPC   C4B 3493   2.728   5.372   6.454  0.0111 -0.1069 -0.0458
  256POPC   NC3 3494   1.069   9.489   4.389 -0.4590  0.1128 -0.0804
  256POPC   PO4 3495   1.401   9.223   4.473  0.0559 -0.0412 -0.0597
  256POPC   GL1 3496   1.305   8.802   4.750  0.0172  0.0197  0.4102
  256POPC   GL2 3497   1.521   8.475   4.758  0.1287  0.0004  0.1771
  256POPC   C1A 3498   1.268   8.428   5.204 -0.3391 -0.1826  0.3240
  256POPC   D2A 3499   1.033   8.263   5.516 -0.0282 -0.0432  0.2097
  256POPC   C3A 3500   1.191   8.104   5.914 -0.1317 -0.2652  0.0163
  256POPC   C4A 3501   1.527   8.226   6.259 -0.3023 -0.0863  0.0690
  256POPC   C1B 3502   1.728   8.225   5.031 -0.3070 -0.3267 -0.2422
  256POPC   C2B 3503   2.062   8.196   5.375 -0.2527 -0.2836 -0.0604
  256POPC   C3B 3504   2.084   8.098   5.866  0.0152  0.2566 -0.1385
  256POPC   C4B 3505   2.172   8.381   6.319  0.1781 -0.1118  0.0436
  257POPC   NC3 3506   7.189   3.395   4.964 -0.2955 -0.0680  0.1136
  257POPC   PO4 3507   6.841   3.105   5.070 -0.1373  0.0520 -0.0548
  257POPC   GL1 3508   7.070   3.235   5.420 -0.0484  0.0606 -0.0467
  257POPC   GL2 3509   6.797   3.264   5.621 -0.3889  0.0435  0.0717
  257POPC   C1A 3510   7.114   3.700   5.756  0.2012  0.3910  0.0201
  257POPC   D2A 3511   7.259   4.012   6.102  0.0321 -0.0020 -0.0475
  257POPC   C3A 3512   7.134   4.505   6.079  0.0336 -0.1670  0.2365
  257POPC   C4A 3513   6.997   4.996   6.131  0.1460 -0.1775  0.3539
  257POPC   C1B 3514   6.562   3.681   5.737 -0.0245  0.1411 -0.0904
  257POPC   C2B 3515   6.690   4.081   6.092  0.0320 -0.2783  0.1446
  257POPC   C3B 3516   6.448   4.233   6.465  0.7623 -0.0588 -0.0648
  257POPC   C4B 3517   6.332   4.233   6.885 -0.1663 -0.0536  0.1603
  258POPC   NC3 3518   8.539   8.478   3.179  0.0896  0.0898  0.0475
  258POPC   PO4 3519   8.304   8.783   3.570 -0.3574 -0.1950 -0.0118
  258POPC   GL1 3520   8.203   8.784   4.009  0.0848 -0.3868  0.4111
  258POPC   GL2 3521   7.919   9.047   4.136 -0.1120  0.2320  0.0342
  258POPC   C1A 3522   7.800   8.543   4.056 -0.2915  0.1715  0.3004
  258POPC   D2A 3523   7.368   8.418   3.883  0.0330 -0.1070 -0.1556
  258POPC   C3A 3524   7.145   8.242   4.210 -0.2106  0.0547 -0.0770
  258POPC   C4A 3525   7.037   7.943   4.537  0.0302 -0.1616  0.1872
  258POPC   C1B 3526   7.989   9.008   4.615  0.1120  0.0835  0.1426
  258POPC   C2B 3527   8.231   8.878   5.029  0.0819 -0.2063  0.1327
  258POPC   C3B 3528   8.231   8.920   5.425 -0.1780  0.1370 -0.0836
  258POPC   C4B 3529   8.193   8.729   5.718  0.1610  0.2858 -0.1371
  259POPC   NC3 3530   5.015   0.631   4.129 -0.0001 -0.0290 -0.0502
  259POPC   PO4 3531   4.655   0.463   4.502 -0.2998  0.2888  0.2595
  259POPC   GL1 3532   4.484   0.296   4.902  0.0576  0.0414  0.2839
  259POPC   GL2 3533   4.264  -0.053   4.964 -0.2517 -0.0604 -0.0579
  259POPC   C1A 3534   4.495   0.348   5.492  0.2929 -0.0129  0.2978
  259POPC   D2A 3535   4.524   0.648   5.784 -0.2067  0.1799 -0.0145
  259POPC   C3A 3536   4.410   0.334   6.066  0.2008  0.1391  0.0492
  259POPC   C4A 3537   4.347   0.232   6.422 -0.0794  0.0113  0.1561
  259POPC   C1B 3538   4.276  -0.107   5.328 -0.1753 -0.0299 -0.2097
  259POPC   C2B 3539   4.249  -0.034   5.740  0.0294 -0.3326 -0.2465
  259POPC   C3B 3540   4.483  -0.188   6.087  0.0986  0.2475 -0.0610
  259POPC   C4B 3541   4.623  -0.310   6.472 -0.0718 -0.0217 -0.1772
  260POPC   NC3 3542   1.603   8.777   4.309  0.0472 -0.3806  0.2418
  260POPC   PO4 3543   2.002   8.633   4.489  0.0434 -0.2852  0.2969
  260POPC   GL1 3544   1.942   8.682   4.903 -0.1343 -0.1773  0.0113
  260POPC   GL2 3545   2.208   8.852   5.034  0.3782  0.1182  0.2350
  260POPC   C1A 3546   1.769   8.664   5.343  0.2074 -0.1618  0.3606
  260POPC   D2A 3547   2.057   8.654   5.640 -0.4778 -0.2267 -0.3538
  260POPC   C3A 3548   2.009   8.922   5.960  0.0197  0.0604  0.0188
  260POPC   C4A 3549   2.448   9.148   5.995 -0.3030  0.1001  0.0118
  260POPC   C1B 3550   2.429   8.613   5.338  0.1317  0.1796 -0.0340
  260POPC   C2B 3551   2.548   8.691   5.730  0.0069 -0.1505  0.3368
  260POPC   C3B 3552   2.613   8.693   6.101  0.1240  0.1432  0.1460
  260POPC   C4B 3553   2.708   8.367   6.375  0.0050  0.0166  0.0879
  261POPC   NC3 3554   8.792   3.239   4.222 -0.3494  0.1202  0.1021
  261POPC   PO4 3555   8.600   3.654   4.404 -0.0733 -0.1080  0.1243
  261POPC   GL1 3556   8.637   3.734   4.865 -0.0752 -0.0802  0.2147
  261POPC   GL2 3557   9.018   3.688   5.029 -0.0342 -0.2256 -0.0551
  261POPC   C1A 3558   8.402   3.536   5.161  0.2155  0.2019 -0.0131
  261POPC   D2A 3559   8.420   3.633   5.579 -0.3100  0.1827 -0.3125
  261POPC   C3A 3560   8.696   3.767   5.956 -0.2211  0.4454  0.1437
  261POPC   C4A 3561   8.824   3.667   6.306 -0.2009 -0.0228  0.0284
  261POPC   C1B 3562   9.014   3.547   5.402  0.0554 -0.0986 -0.1721
  261POPC   C2B 3563   9.024   3.370   5.823 -0.1415  0.1982  0.0080
  261POPC   C3B 3564   8.713   3.249   6.057  0.2041 -0.1596  0.2981
  261POPC   C4B 3565   8.307   3.605   6.315 -0.1471 -0.1457  0.0562
  262POPC   NC3 3566   6.521   5.027   3.928  0.4068  0.1988  0.4297
  262POPC   PO4 3567   6.137   4.837   4.093 -0.2775  0.0911  0.1009
  262POPC   GL1 3568   6.016   4.947   4.459  0.0264 -0.1772 -0.0164
  262POPC   GL2 3569   5.743   4.905   4.579  0.0234  0.0649 -0.1044
  262POPC   C1A 3570   5.944   5.375   4.817  0.1705  0.2717 -0.1685
  262POPC   D2A 3571   5.918   5.577   5.171 -0.3023  0.2508  0.0667
  262POPC   C3A 3572   5.849   5.381   5.598 -0.0692 -0.0464  0.2637
  262POPC   C4A 3573   5.743   5.421   6.029 -0.2468 -0.0013  0.1933
  262POPC   C1B 3574   5.486   5.090   4.842  0.2008 -0.0229 -0.0091
  262POPC   C2B 3575   5.231   5.351   4.854  0.3229  0.1191  0.2000
  262POPC   C3B 3576   5.068   5.676   4.733  0.2250 -0.1431  0.3876
  262POPC   C4B 3577   5.242   6.087   4.626  0.1700  0.0833  0.0317
  263POPC   NC3 3578   7.631   4.069   4.585  0.1207 -0.1314 -0.1088
  263POPC   PO4 3579   8.065   3.931   4.464  0.1089 -0.0307 -0.2715
  263POPC   GL1 3580   8.200   4.020   4.909 -0.0174 -0.0101 -0.0039
  263POPC   GL2 3581   7.955   4.369   4.807  0.3442 -0.0010  0.0797
  263POPC   C1A 3582   8.248   4.319   5.214 -0.2153  0.0616  0.1006
  263POPC   D2A 3583   8.404   4.615   5.358  0.1259  0.2992 -0.2425
  263POPC   C3A 3584   8.477   4.623   5.750  0.0691 -0.0213  0.1154
  263POPC   C4A 3585   8.542   4.838   6.080 -0.3088  0.1176 -0.1803
  263POPC   C1B 3586   7.711   4.304   5.190  0.0631 -0.1995 -0.3397
  263POPC   C2B 3587   7.592   4.131   5.571 -0.0361  0.3328 -0.1047
  263POPC   C3B 3588   7.737   4.124   5.917 -0.0483 -0.1239 -0.1315
  263POPC   C4B 3589   8.002   4.361   6.126  0.0963  0.0277  0.2105
  264POPC   NC3 3590   1.438   3.522   4.051  0.3404 -0.2475 -0.0579
  264POPC   PO4 3591   1.612   3.935   4.207 -0.0437 -0.2483  0.1120
  264POPC   GL1 3592   1.563   3.927   4.647  0.1071  0.3155 -0.2483
  264POPC   GL2 3593   1.177   3.946   4.543 -0.0758 -0.0720  0.1205
  264POPC   C1A 3594   1.644   3.832   5.137  0.1429  0.0608 -0.0728
  264POPC   D2A 3595   1.680   4.051   5.567 -0.1197 -0.0761  0.1347
  264POPC   C3A 3596   1.730   3.983   6.007  0.3384  0.0093 -0.2449
  264POPC   C4A 3597   1.722   3.819   6.364  0.4436 -0.3628  0.1024
  264POPC   C1B 3598   1.143   3.738   4.874  0.0484  0.0539 -0.1112
  264POPC   C2B 3599   1.364   3.323   5.100  0.1413  0.3602  0.1838
  264POPC   C3B 3600   1.254   3.085   5.585 -0.1514  0.1059  0.1303
  264POPC   C4B 3601   1.106   2.674   5.935 -0.1093 -0.0982  0.0150
  265POPC   NC3 3602   0.217   7.449   3.720  0.1782 -0.0795 -0.0861
  265POPC   PO4 3603   0.395   7.074   3.814  0.0401 -0.0357 -0.0935
  265POPC   GL1 3604   0.396   6.985   4.207 -0.0638 -0.0373  0.0518
  265POPC   GL2 3605   0.511   6.608   4.297 -0.2229 -0.1755 -0.4341
  265POPC   C1A 3606   0.546   7.021   4.659  0.1539 -0.1091  0.0324
  265POPC   D2A 3607   0.738   6.877   4.934  0.0103  0.1965 -0.0661
  265POPC   C3A 3608   0.599   6.697   5.312 -0.0486 -0.0307  0.1465
  265POPC   C4A 3609   0.831   6.745   5.732  0.2659 -0.3763  0.0642
  265POPC   C1B 3610   0.178   6.718   4.529  0.3184 -0.3707  0.1073
  265POPC   C2B 3611  -0.089   6.827   4.767 -0.1588  0.0783 -0.0028
  265POPC   C3B 3612  -0.335   7.193   4.851 -0.0076 -0.0771  0.2323
  265POPC   C4B 3613  -0.697   7.208   5.087 -0.3340 -0.1874 -0.4182
  266POPC   NC3 3614   5.481   7.240   3.023 -0.2339  0.2768 -0.1066
  266POPC   PO4 3615   5.706   7.632   3.013 -0.2380  0.1173  0.0454
  266POPC   GL1 3616   5.507   7.745   3.486  0.0755  0.0018  0.0137
  266POPC   GL2 3617   5.144   7.714   3.673 -0.4521  0.2488 -0.2547
  266POPC   C1A 3618   5.758   7.748   3.958 -0.1028  0.1611 -0.1381
  266POPC   D2A 3619   6.060   7.883   4.203  0.1200 -0.4919 -0.1030
  266POPC   C3A 3620   5.998   7.853   4.566  0.0414  0.1243 -0.1645
  266POPC   C4A 3621   6.115   7.887   4.962 -0.0089  0.0540  0.4978
  266POPC   C1B 3622   5.307   7.429   4.037 -0.1517  0.0893 -0.1331
  266POPC   C2B 3623   5.535   7.009   4.093 -0.1887 -0.3702  0.0155
  266POPC   C3B 3624   5.914   6.784   3.908 -0.3307 -0.0157 -0.0039
  266POPC   C4B 3625   6.251   6.544   3.874 -0.1832 -0.4253 -0.0514
  267POPC   NC3 3626   0.686   0.149   4.621 -0.0292 -0.2061 -0.4541
  267POPC   PO4 3627   0.683  -0.239   4.617  0.2242  0.0798 -0.0415
  267POPC   GL1 3628   0.436  -0.456   4.828 -0.0466 -0.1802 -0.3572
  267POPC   GL2 3629   0.576  -0.583   4.970 -0.1984  0.0038 -0.0514
  267POPC   C1A 3630   0.070  -0.545   5.000  0.0576 -0.0399 -0.0383
  267POPC   D2A 3631  -0.313  -0.612   5.081 -0.0879  0.1931  0.3129
  267POPC   C3A 3632  -0.578  -0.404   5.386  0.3124  0.0191  0.0973
  267POPC   C4A 3633  -0.942  -0.554   5.662 -0.0366  0.0639 -0.0808
  267POPC   C1B 3634   0.798  -0.622   5.336 -0.2663  0.1900 -0.0831
  267POPC   C2B 3635   0.758  -0.708   5.846  0.0774  0.0140  0.0646
  267POPC   C3B 3636   0.403  -0.592   6.038  0.2360 -0.4849 -0.3057
  267POPC   C4B 3637   0.124  -0.325   5.863  0.0613  0.0567  0.0458
  268POPC   NC3 3638   2.690   1.201   4.704 -0.2038  0.2711  0.1112
  268POPC   PO4 3639   2.345   1.336   4.705  0.0526  0.1090  0.3250
  268POPC   GL1 3640   2.252   1.591   5.022  0.3683  0.0241 -0.0403
  268POPC   GL2 3641   1.973   1.288   5.092 -0.1269 -0.3944  0.0701
  268POPC   C1A 3642   2.262   1.956   5.232 -0.1360  0.0091  0.1146
  268POPC   D2A 3643   2.241   2.174   5.665 -0.2430  0.0206  0.1135
  268POPC   C3A 3644   1.825   2.452   5.896 -0.4913  0.0851  0.2513
  268POPC   C4A 3645   1.684   2.570   6.387 -0.1355  0.1851  0.0875
  268POPC   C1B 3646   2.010   1.534   5.480 -0.0327  0.0012  0.0120
  268POPC   C2B 3647   2.385   1.608   5.737  0.3131 -0.3696  0.1243
  268POPC   C3B 3648   2.730   1.807   5.936 -0.0077 -0.0991  0.1809
  268POPC   C4B 3649   3.087   2.036   5.968 -0.1611  0.2244  0.1128
  269POPC   NC3 3650   0.177   5.826   4.138 -0.0462 -0.0240 -0.0044
  269POPC   PO4 3651   0.155   5.309   4.178  0.2181  0.3007  0.2201
  269POPC   GL1 3652   0.257   5.250   4.578  0.0223 -0.3537  0.3515
  269POPC   GL2 3653   0.054   5.084   4.647  0.0184 -0.1874 -0.0080
  269POPC   C1A 3654   0.422   5.170   4.977  0.1858  0.1723 -0.0932
  269POPC   D2A 3655   0.451   5.025   5.323  0.2050  0.2002  0.2508
  269POPC   C3A 3656   0.507   5.230   5.750  0.2387  0.1311  0.3852
  269POPC   C4A 3657   0.629   5.487   6.067 -0.1747 -0.2876  0.0205
  269POPC   C1B 3658  -0.273   5.169   5.050  0.0468 -0.0670  0.0020
  269POPC   C2B 3659  -0.430   5.337   5.442  0.4337  0.1434 -0.0890
  269POPC   C3B 3660  -0.485   5.283   5.903 -0.2309  0.0976  0.2957
  269POPC   C4B 3661  -0.287   5.169   6.222 -0.0206 -0.2007  0.0339
  270POPC   NC3 3662   3.979   3.477   4.720 -0.2357 -0.2425  0.4942
  270POPC   PO4 3663   4.485   3.496   4.871 -0.1298  0.1169  0.1067
  270POPC   GL1 3664   4.457   3.391   5.149 -0.2562  0.2016 -0.1086
  270POPC   GL2 3665   4.632   3.229   5.348  0.1145  0.1038  0.1193
  270POPC   C1A 3666   4.254   3.531   5.568 -0.1769  0.1709  0.1735
  270POPC   D2A 3667   4.435   3.599   5.970  0.1293 -0.3905 -0.2186
  270POPC   C3A 3668   4.559   3.947   6.163 -0.0582 -0.2094  0.5373
  270POPC   C4A 3669   4.339   4.371   6.339 -0.1602 -0.2188 -0.0764
  270POPC   C1B 3670   4.613   3.217   5.733  0.0166  0.2691  0.5343
  270POPC   C2B 3671   4.437   2.956   5.911 -0.0726  0.1540 -0.1311
  270POPC   C3B 3672   4.248   2.796   6.274  0.4635 -0.1287 -0.0823
  270POPC   C4B 3673   4.244   2.971   6.719 -0.2064 -0.1921  0.0429
  271POPC   NC3 3674   0.893   8.504   3.921 -0.1585 -0.0651 -0.4135
  271POPC   PO4 3675   0.747   8.086   4.099  0.1856 -0.0239  0.0098
  271POPC   GL1 3676   0.516   7.889   4.376  0.0167 -0.0699  0.0087
  271POPC   GL2 3677   0.627   8.031   4.618 -0.2164  0.1374  0.0267
  271POPC   C1A 3678   0.540   7.482   4.585 -0.1058 -0.1247 -0.1602
  271POPC   D2A 3679   0.966   7.255   4.568 -0.3287  0.0277 -0.0859
  271POPC   C3A 3680   0.976   7.352   4.965  0.1829  0.2364 -0.0291
  271POPC   C4A 3681   1.050   7.211   5.462 -0.0816  0.5193  0.2257
  271POPC   C1B 3682   0.559   7.828   4.992  0.1112 -0.1488  0.0074
  271POPC   C2B 3683   0.530   7.420   5.263 -0.2801 -0.0713 -0.0965
  271POPC   C3B 3684   0.369   7.097   5.554  0.1113 -0.0920 -0.0287
  271POPC   C4B 3685  -0.038   7.085   5.734 -0.0317  0.1047  0.2817
  272POPC   NC3 3686   0.572   4.283   3.888  0.2499 -0.1826 -0.1508
  272POPC   PO4 3687   0.267   4.233   4.218  0.2442 -0.0345 -0.1815
  272POPC   GL1 3688   0.280   4.258   4.673 -0.2211 -0.1888  0.0521
  272POPC   GL2 3689   0.616   4.325   4.826  0.0704  0.1834 -0.0069
  272POPC   C1A 3690   0.240   4.149   5.093 -0.1162 -0.1269  0.0414
  272POPC   D2A 3691   0.131   4.437   5.445 -0.1129  0.1111 -0.1706
  272POPC   C3A 3692   0.411   4.638   5.789  0.1308  0.0780 -0.0431
  272POPC   C4A 3693   0.399   4.941   6.115 -0.2527  0.0771 -0.1898
  272POPC   C1B 3694   0.633   4.352   5.271  0.2877 -0.0648 -0.0525
  272POPC   C2B 3695   0.956   4.573   5.478  0.0683  0.1138 -0.2752
  272POPC   C3B 3696   0.891   4.924   5.668  0.1355  0.1340  0.1794
  272POPC   C4B 3697   0.985   5.362   5.740 -0.0467 -0.0775  0.0249
  273POPC   NC3 3698   9.284   9.213   4.520  0.0716 -0.0476  0.3550
  273POPC   PO4 3699   9.304   9.590   4.364 -0.3524 -0.1293 -0.4588
  273POPC   GL1 3700   9.192   9.595   4.902  0.0249  0.0816 -0.1119
  273POPC   GL2 3701   8.956   9.829   5.047 -0.1486 -0.2241  0.2368
  273POPC   C1A 3702   9.036   9.250   5.163 -0.2403 -0.5622  0.0516
  273POPC   D2A 3703   8.730   9.031   5.349 -0.0542 -0.3180  0.0679
  273POPC   C3A 3704   8.699   9.048   5.780  0.2665  0.1380 -0.2628
  273POPC   C4A 3705   8.644   9.123   6.290 -0.0543  0.2353  0.1931
  273POPC   C1B 3706   8.956   9.893   5.542  0.0767  0.4165  0.1849
  273POPC   C2B 3707   9.002   9.761   5.987 -0.0210 -0.0065  0.0577
  273POPC   C3B 3708   9.053   9.396   6.233  0.0667 -0.2271  0.2744
  273POPC   C4B 3709   8.981   9.094   6.599 -0.1489 -0.0476 -0.0184
  274POPC   NC3 3710   9.142   1.167   4.827  0.1855 -0.0481 -0.0728
  274POPC   PO4 3711   9.229   1.665   4.873 -0.0131  0.1448 -0.1153
  274POPC   GL1 3712   9.116   1.527   5.244  0.1748  0.1509 -0.2241
  274POPC   GL2 3713   9.056   1.848   5.293  0.2994  0.2467 -0.1659
  274POPC   C1A 3714   8.810   1.510   5.702  0.1104  0.0586 -0.0520
  274POPC   D2A 3715   8.804   1.420   6.126  0.3127  0.2180  0.0623
  274POPC   C3A 3716   9.003   1.483   6.511 -0.0332  0.1072 -0.1301
  274POPC   C4A 3717   9.440   1.641   6.449 -0.2593  0.0918 -0.0685
  274POPC   C1B 3718   8.965   1.982   5.685 -0.0589  0.1818  0.3040
  274POPC   C2B 3719   8.898   2.216   6.042 -0.0933 -0.3438 -0.1172
  274POPC   C3B 3720   8.869   2.372   6.408  0.0258 -0.0619  0.3801
  274POPC   C4B 3721   9.187   2.472   6.693 -0.1436  0.0772 -0.0020
  275POPC   NC3 3722   9.724   2.897   4.291 -0.0709 -0.0520 -0.0490
  275POPC   PO4 3723   9.583   3.299   4.487 -0.0157  0.2195  0.0319
  275POPC   GL1 3724   9.780   3.156   4.813  0.0384  0.0280  0.1128
  275POPC   GL2 3725  10.058   3.295   4.849  0.1241  0.1210 -0.2718
  275POPC   C1A 3726   9.861   2.915   5.245 -0.2903 -0.1132 -0.0550
  275POPC   D2A 3727  10.065   2.728   5.680  0.0899  0.2626  0.1090
  275POPC   C3A 3728   9.935   2.670   6.070  0.1282 -0.3122  0.0338
  275POPC   C4A 3729   9.731   2.403   6.355 -0.0094  0.2533  0.0762
  275POPC   C1B 3730  10.294   3.217   5.328 -0.1055 -0.1795  0.3115
  275POPC   C2B 3731  10.286   3.108   5.833 -0.1726 -0.0909 -0.0885
  275POPC   C3B 3732  10.084   3.255   6.324 -0.0529  0.5244  0.3464
  275POPC   C4B 3733  10.334   3.562   6.617 -0.0674  0.3414  0.3483
  276POPC   NC3 3734   8.277   7.375   3.266  0.2714  0.2382  0.0522
  276POPC   PO4 3735   8.699   7.542   3.239  0.3305 -0.1814  0.2094
  276POPC   GL1 3736   8.697   7.801   3.591  0.2738 -0.1239  0.0126
  276POPC   GL2 3737   8.755   7.537   3.817 -0.0498  0.0658 -0.0463
  276POPC   C1A 3738   8.262   7.889   3.855  0.2432 -0.1900 -0.3840
  276POPC   D2A 3739   7.763   8.001   3.761 -0.2414  0.2118  0.2287
  276POPC   C3A 3740   7.443   7.909   3.932  0.1079 -0.0563 -0.0468
  276POPC   C4A 3741   7.424   7.711   4.301  0.0625  0.0086  0.1381
  276POPC   C1B 3742   8.731   7.466   4.192  0.2318  0.1111  0.2312
  276POPC   C2B 3743   8.674   7.146   4.495 -0.0958 -0.0725 -0.4444
  276POPC   C3B 3744   8.528   6.788   4.619 -0.1040 -0.1764  0.1008
  276POPC   C4B 3745   8.323   6.512   4.813  0.5275 -0.4226 -0.1835
  277POPC   NC3 3746   7.916   0.029   4.508 -0.0208 -0.2756 -0.1216
  277POPC   PO4 3747   8.214   0.287   4.797 -0.2021 -0.3200  0.1764
  277POPC   GL1 3748   8.206   0.224   5.194  0.0896 -0.0246 -0.1389
  277POPC   GL2 3749   8.533   0.110   5.190  0.3395 -0.0065 -0.0802
  277POPC   C1A 3750   8.166  -0.140   5.337  0.0098  0.0639  0.0477
  277POPC   D2A 3751   8.072  -0.551   5.590 -0.1104  0.0576  0.1743
  277POPC   C3A 3752   8.032  -0.366   6.060 -0.0532 -0.0410 -0.6751
  277POPC   C4A 3753   8.127  -0.540   6.455  0.3131  0.0435  0.2661
  277POPC   C1B 3754   8.463   0.153   5.662  0.1623  0.3012 -0.0977
  277POPC   C2B 3755   8.114   0.119   5.990  0.1638  0.2110 -0.1820
  277POPC   C3B 3756   8.254   0.272   6.330  0.0275  0.0098  0.0790
  277POPC   C4B 3757   8.512   0.270   6.671 -0.0420  0.0563 -0.4088
  278POPC   NC3 3758   8.791   2.517   4.886  0.0224 -0.0786  0.0833
  278POPC   PO4 3759   8.896   2.793   4.588  0.0603  0.2927  0.0239
  278POPC   GL1 3760   8.977   2.929   4.999 -0.1015  0.0311 -0.1258
  278POPC   GL2 3761   8.830   3.217   5.116  0.0463 -0.1038  0.3265
  278POPC   C1A 3762   9.301   3.092   5.158 -0.1801  0.2075  0.2155
  278POPC   D2A 3763   9.443   3.270   5.590 -0.0137  0.2050 -0.1312
  278POPC   C3A 3764   9.430   3.665   5.668  0.3479  0.2486 -0.1261
  278POPC   C4A 3765   9.247   3.799   6.042  0.0809 -0.0146 -0.2389
  278POPC   C1B 3766   8.654   3.152   5.430  0.0687  0.0694  0.1900
  278POPC   C2B 3767   8.539   2.821   5.653 -0.3018  0.0392 -0.1895
  278POPC   C3B 3768   8.548   2.685   6.120 -0.2192  0.1385  0.1727
  278POPC   C4B 3769   8.426   2.245   6.230  0.1208  0.4562  0.0404
  279POPC   NC3 3770   4.869   3.469   4.412  0.0753 -0.0838 -0.4084
  279POPC   PO4 3771   5.001   3.573   4.736  0.0329  0.0018  0.2800
  279POPC   GL1 3772   4.977   4.011   5.084  0.0394  0.1631  0.2683
  279POPC   GL2 3773   5.047   3.888   5.440  0.0796 -0.0216  0.1380
  279POPC   C1A 3774   4.887   4.316   5.325 -0.0117  0.2406  0.1142
  279POPC   D2A 3775   4.861   4.392   5.692 -0.0826 -0.0027 -0.1859
  279POPC   C3A 3776   4.820   4.382   6.178  0.3367  0.0146 -0.1530
  279POPC   C4A 3777   4.825   4.509   6.563 -0.1162  0.2516 -0.2299
  279POPC   C1B 3778   4.870   3.618   5.655  0.0358  0.2490 -0.2211
  279POPC   C2B 3779   4.930   3.399   6.089 -0.2176 -0.0264  0.1435
  279POPC   C3B 3780   4.920   3.364   6.604  0.0831 -0.1509 -0.2238
  279POPC   C4B 3781   4.753   3.534   6.851  0.0460 -0.0910 -0.0421
  280POPC   NC3 3782   6.735   2.104   5.179 -0.0613 -0.0993 -0.1826
  280POPC   PO4 3783   6.838   1.745   5.369  0.0270 -0.1046  0.2066
  280POPC   GL1 3784   6.534   1.842   5.662  0.5868 -0.1816 -0.0069
  280POPC   GL2 3785   6.531   1.466   5.754  0.0141 -0.1682 -0.1319
  280POPC   C1A 3786   6.609   1.875   6.074  0.0972  0.1546  0.0976
  280POPC   D2A 3787   6.526   1.817   6.520  0.1249 -0.0976 -0.0783
  280POPC   C3A 3788   6.805   1.523   6.673  0.1240  0.0761 -0.0059
  280POPC   C4A 3789   7.083   1.212   6.609  0.0127  0.0057 -0.0087
  280POPC   C1B 3790   6.326   1.429   6.059 -0.0489 -0.0186  0.3290
  280POPC   C2B 3791   6.123   1.572   6.460 -0.0430 -0.3750 -0.0237
  280POPC   C3B 3792   5.798   1.566   6.814 -0.1479  0.1352 -0.0928
  280POPC   C4B 3793   5.718   1.199   6.957  0.1601 -0.3257 -0.1704
  281POPC   NC3 3794   3.688   5.343   4.431 -0.0628 -0.2594  0.3381
  281POPC   PO4 3795   3.821   5.619   4.703  0.2576  0.1556  0.1875
  281POPC   GL1 3796   3.797   5.598   5.048 -0.1557  0.2379 -0.2132
  281POPC   GL2 3797   3.956   5.346   5.177 -0.1808 -0.0330  0.0587
  281POPC   C1A 3798   3.852   5.803   5.363 -0.2608  0.1554  0.0491
  281POPC   D2A 3799   4.221   5.795   5.573  0.4302  0.0400 -0.0950
  281POPC   C3A 3800   4.495   6.155   5.762  0.3520 -0.1360 -0.1924
  281POPC   C4A 3801   4.900   6.339   5.816 -0.0313  0.2860 -0.0784
  281POPC   C1B 3802   3.828   5.428   5.660 -0.1402 -0.2531 -0.1071
  281POPC   C2B 3803   4.065   5.575   5.995  0.1857 -0.2063  0.2603
  281POPC   C3B 3804   4.321   5.747   6.139 -0.0132 -0.3817 -0.0014
  281POPC   C4B 3805   4.319   6.168   6.290 -0.2298  0.0832 -0.3203
  282POPC   NC3 3806   1.824   9.395   4.256  0.1672  0.2932  0.1951
  282POPC   PO4 3807   2.103   9.611   4.537 -0.1612 -0.1320  0.0348
  282POPC   GL1 3808   1.967   9.819   4.964 -0.2416 -0.0426 -0.0560
  282POPC   GL2 3809   2.049  10.025   5.091  0.0475  0.0026 -0.1865
  282POPC   C1A 3810   1.733   9.576   5.205 -0.4633  0.1204  0.0182
  282POPC   D2A 3811   1.494   9.294   5.376 -0.1646 -0.2524 -0.0736
  282POPC   C3A 3812   1.336   8.966   5.166  0.0431  0.0532  0.0414
  282POPC   C4A 3813   0.880   9.017   4.945 -0.2257  0.1683 -0.2614
  282POPC   C1B 3814   1.842  10.064   5.466 -0.4586  0.0380 -0.2012
  282POPC   C2B 3815   1.875   9.863   5.944 -0.3747 -0.3395 -0.2615
  282POPC   C3B 3816   1.594   9.738   6.051  0.0897  0.1395  0.5084
  282POPC   C4B 3817   1.217   9.514   6.245  0.1834 -0.1603  0.2046
  283POPC   NC3 3818   2.672   2.697   4.853 -0.2877  0.1805  0.0600
  283POPC   PO4 3819   2.276   2.682   4.609  0.0597  0.3487  0.5815
  283POPC   GL1 3820   2.177   2.938   4.944  0.0169  0.0650  0.0953
  283POPC   GL2 3821   2.431   3.074   5.234 -0.2571 -0.2322 -0.2617
  283POPC   C1A 3822   1.776   2.963   5.184 -0.2131 -0.0247  0.1334
  283POPC   D2A 3823   1.726   2.943   5.645  0.0016 -0.0833  0.1837
  283POPC   C3A 3824   1.508   2.940   6.008 -0.1666  0.2782  0.1047
  283POPC   C4A 3825   1.265   2.888   6.428 -0.0095 -0.4440  0.0276
  283POPC   C1B 3826   2.143   3.260   5.465  0.0442 -0.1715  0.1182
  283POPC   C2B 3827   1.758   3.465   5.516  0.3469  0.1471 -0.2714
  283POPC   C3B 3828   1.413   3.685   5.695 -0.1207 -0.0521 -0.2798
  283POPC   C4B 3829   1.226   3.873   6.063  0.0813  0.2247 -0.1365
  284POPC   NC3 3830   1.715   4.378   4.402  0.1864 -0.0495 -0.0064
  284POPC   PO4 3831   1.236   4.432   4.370 -0.2119 -0.1876  0.1748
  284POPC   GL1 3832   1.336   4.343   4.793 -0.2097 -0.1011 -0.3481
  284POPC   GL2 3833   1.194   4.222   5.013 -0.2563  0.2864 -0.3856
  284POPC   C1A 3834   1.682   4.328   5.105 -0.0212  0.0577 -0.0199
  284POPC   D2A 3835   2.034   4.190   5.284 -0.0388 -0.0339 -0.1177
  284POPC   C3A 3836   2.080   3.844   5.404  0.0365 -0.2603  0.0258
  284POPC   C4A 3837   2.089   3.677   5.864 -0.1346 -0.1139  0.0480
  284POPC   C1B 3838   1.201   3.999   5.356  0.0063  0.1201  0.0535
  284POPC   C2B 3839   1.017   3.564   5.419 -0.0574 -0.2190  0.1033
  284POPC   C3B 3840   0.828   3.211   5.714  0.2702 -0.3388  0.1094
  284POPC   C4B 3841   0.726   3.043   6.156 -0.1277  0.0292  0.0241
  285POPC   NC3 3842   7.090   1.489   5.055 -0.0100 -0.1343  0.3595
  285POPC   PO4 3843   7.129   1.113   5.045 -0.2447 -0.0938 -0.3161
  285POPC   GL1 3844   7.292   0.741   5.206  0.0641 -0.1090 -0.4559
  285POPC   GL2 3845   6.987   0.668   5.204 -0.0277 -0.0771  0.0106
  285POPC   C1A 3846   7.349   0.350   5.358  0.1274 -0.0303 -0.1323
  285POPC   D2A 3847   7.041   0.106   5.567 -0.1208  0.1592  0.2569
  285POPC   C3A 3848   7.058   0.214   5.958 -0.0973 -0.0425 -0.0039
  285POPC   C4A 3849   6.936   0.370   6.351 -0.2523  0.1600 -0.1720
  285POPC   C1B 3850   6.894   0.606   5.643 -0.1924 -0.1889 -0.2721
  285POPC   C2B 3851   6.959   0.790   6.081  0.0666  0.2118  0.0112
  285POPC   C3B 3852   6.765   0.810   6.548 -0.1750 -0.1314  0.1808
  285POPC   C4B 3853   6.721   1.017   7.001 -0.2833  0.2792  0.1690
  286POPC   NC3 3854   2.092   3.095   4.402  0.0233 -0.1423  0.0773
  286POPC   PO4 3855   1.749   3.161   4.039  0.0660 -0.1873 -0.2301
  286POPC   GL1 3856   1.562   3.130   4.409 -0.3134 -0.0772  0.6280
  286POPC   GL2 3857   1.498   3.440   4.527 -0.1299  0.1104 -0.3651
  286POPC   C1A 3858   1.488   2.953   4.791 -0.1020 -0.1631  0.1316
  286POPC   D2A 3859   1.264   2.692   5.089  0.0502 -0.1913  0.3273
  286POPC   C3A 3860   1.408   2.540   5.585  0.0199  0.0509 -0.0694
  286POPC   C4A 3861   1.319   2.215   5.919  0.0201  0.2523 -0.0366
  286POPC   C1B 3862   1.805   3.464   4.828  0.1402  0.2926  0.3048
  286POPC   C2B 3863   2.189   3.499   4.946 -0.0262  0.0158  0.0289
  286POPC   C3B 3864   2.488   3.550   5.200 -0.0120  0.2486  0.1482
  286POPC   C4B 3865   2.509   3.674   5.674  0.2589  0.0043  0.0552
  287POPC   NC3 3866   3.967   4.444   4.384  0.0809  0.0128  0.2186
  287POPC   PO4 3867   4.041   4.951   4.487 -0.0718  0.0836  0.1041
  287POPC   GL1 3868   4.055   4.710   4.826 -0.3024  0.0782  0.0736
  287POPC   GL2 3869   4.139   4.922   5.026 -0.5469  0.0444 -0.0527
  287POPC   C1A 3870   3.918   4.423   5.173  0.0418 -0.2145  0.0787
  287POPC   D2A 3871   3.737   4.447   5.597  0.1399  0.1069  0.0738
  287POPC   C3A 3872   3.292   4.599   5.784 -0.1264  0.0871 -0.1148
  287POPC   C4A 3873   3.005   4.931   6.118 -0.0993  0.2898 -0.1389
  287POPC   C1B 3874   4.483   5.100   5.187 -0.1326  0.0494  0.0679
  287POPC   C2B 3875   4.495   5.356   5.642 -0.0418 -0.0124  0.0360
  287POPC   C3B 3876   4.645   5.344   6.023 -0.2307  0.1841 -0.0177
  287POPC   C4B 3877   4.689   5.539   6.450 -0.1289  0.1645 -0.1625
  288POPC   NC3 3878   4.778   6.512   3.294 -0.0863 -0.1427 -0.0313
  288POPC   PO4 3879   5.148   6.301   3.540  0.1442 -0.0310  0.0523
  288POPC   GL1 3880   5.334   6.511   3.940  0.0650  0.2868 -0.1524
  288POPC   GL2 3881   5.193   6.282   4.150  0.0463 -0.2586 -0.1244
  288POPC   C1A 3882   5.654   6.535   4.266 -0.0666 -0.1181 -0.0442
  288POPC   D2A 3883   5.802   6.884   4.522  0.1898 -0.1906  0.3247
  288POPC   C3A 3884   5.761   6.905   4.924  0.1967 -0.0798  0.1507
  288POPC   C4A 3885   5.782   6.605   5.194 -0.3193 -0.1392 -0.1239
  288POPC   C1B 3886   5.189   6.634   4.483 -0.0349  0.1539  0.1423
  288POPC   C2B 3887   5.197   7.074   4.531 -0.0291 -0.0682 -0.0251
  288POPC   C3B 3888   5.453   7.251   4.810 -0.2679  0.3114  0.0107
  288POPC   C4B 3889   5.509   7.394   5.223  0.0716  0.1807  0.0194
  289POPC   NC3 3890   4.351   5.276   4.207  0.1388  0.2702 -0.0792
  289POPC   PO4 3891   4.665   5.684   4.043  0.0251  0.0516  0.2480
  289POPC   GL1 3892   4.617   5.699   4.540 -0.0883  0.1167 -0.1589
  289POPC   GL2 3893   4.691   6.101   4.678 -0.0835  0.1080  0.0069
  289POPC   C1A 3894   4.410   5.763   4.956 -0.0628  0.0217  0.0425
  289POPC   D2A 3895   4.028   6.078   4.935 -0.0131  0.3148  0.0618
  289POPC   C3A 3896   3.936   6.481   5.034 -0.0858 -0.1610 -0.0605
  289POPC   C4A 3897   3.573   6.504   5.309 -0.2156  0.0746 -0.3587
  289POPC   C1B 3898   4.865   6.036   5.026 -0.1440 -0.2383  0.4047
  289POPC   C2B 3899   4.811   5.924   5.421  0.1085 -0.1869  0.0095
  289POPC   C3B 3900   4.842   5.721   5.773 -0.0061  0.3462  0.1947
  289POPC   C4B 3901   4.791   5.939   6.139  0.1830  0.0413 -0.0351
  290POPC   NC3 3902   6.154   2.629   4.771 -0.0162  0.0322  0.1301
  290POPC   PO4 3903   6.349   3.064   4.920 -0.1859 -0.0271 -0.0240
  290POPC   GL1 3904   6.341   3.166   5.405  0.2163 -0.1207  0.2009
  290POPC   GL2 3905   6.458   2.767   5.515 -0.0624 -0.0634 -0.1020
  290POPC   C1A 3906   6.407   3.277   5.903  0.3082 -0.2514 -0.3407
  290POPC   D2A 3907   6.206   3.289   6.300 -0.4338 -0.0388  0.0782
  290POPC   C3A 3908   5.942   3.306   6.695 -0.0190 -0.0372 -0.1739
  290POPC   C4A 3909   5.802   3.382   7.031  0.1197  0.0138 -0.0851
  290POPC   C1B 3910   6.590   2.803   5.859  0.2074 -0.0303 -0.1910
  290POPC   C2B 3911   6.754   3.079   6.286  0.0137 -0.1791  0.0677
  290POPC   C3B 3912   6.734   3.334   6.614 -0.0384  0.0036 -0.0305
  290POPC   C4B 3913   6.519   3.322   7.023 -0.2549 -0.1341 -0.4379
  291POPC   NC3 3914   3.110   6.392   4.227 -0.0900 -0.1275 -0.1590
  291POPC   PO4 3915   3.226   6.855   4.265 -0.0576  0.0362 -0.2811
  291POPC   GL1 3916   3.242   7.012   4.704  0.1790 -0.5028 -0.1688
  291POPC   GL2 3917   3.232   7.472   4.821 -0.0436 -0.0885 -0.1236
  291POPC   C1A 3918   3.633   6.915   4.983 -0.1116  0.0646  0.3159
  291POPC   D2A 3919   3.687   6.978   5.423  0.3489 -0.1809  0.2457
  291POPC   C3A 3920   3.936   6.763   5.634 -0.1039 -0.1595 -0.1570
  291POPC   C4A 3921   3.962   6.528   6.017 -0.1239  0.0932  0.0498
  291POPC   C1B 3922   3.145   7.217   5.141  0.0435 -0.2051  0.3087
  291POPC   C2B 3923   3.180   6.861   5.467  0.0601  0.0503 -0.1452
  291POPC   C3B 3924   3.406   6.967   5.920  0.1530 -0.1094  0.1996
  291POPC   C4B 3925   3.726   7.302   5.896  0.0748 -0.3595  0.3449
  292POPC   NC3 3926   4.495   8.209   4.390 -0.1240 -0.0253 -0.4179
  292POPC   PO4 3927   4.307   8.625   4.546  0.0135  0.1252 -0.0675
  292POPC   GL1 3928   4.168   8.379   4.862  0.0614  0.0555 -0.0861
  292POPC   GL2 3929   4.414   8.159   4.907 -0.0126 -0.2374  0.2060
  292POPC   C1A 3930   4.335   8.463   5.298 -0.0011  0.0958  0.2369
  292POPC   D2A 3931   4.701   8.524   5.611 -0.0496 -0.2235  0.1222
  292POPC   C3A 3932   4.753   8.276   6.044  0.2993  0.1835  0.1779
  292POPC   C4A 3933   4.531   8.399   6.388 -0.0622 -0.0743 -0.5125
  292POPC   C1B 3934   4.786   8.033   5.230 -0.0552 -0.0402  0.2325
  292POPC   C2B 3935   4.782   7.966   5.629  0.1156 -0.0260  0.3269
  292POPC   C3B 3936   4.979   7.678   5.962 -0.2005 -0.0947  0.0896
  292POPC   C4B 3937   4.830   7.456   6.333 -0.1096 -0.0912 -0.0647
  293POPC   NC3 3938   8.893   0.458   4.226  0.0564 -0.0152  0.0052
  293POPC   PO4 3939   9.031   0.590   4.624 -0.0079  0.0321 -0.2333
  293POPC   GL1 3940   9.047   0.715   5.115 -0.1414 -0.4334 -0.0518
  293POPC   GL2 3941   8.949   0.405   5.290  0.0316  0.0528  0.1225
  293POPC   C1A 3942   9.312   0.664   5.533 -0.3082 -0.0060  0.3860
  293POPC   D2A 3943   9.460   0.803   5.898  0.2017 -0.1673 -0.0359
  293POPC   C3A 3944   9.490   0.596   6.363 -0.1446  0.1000  0.0700
  293POPC   C4A 3945   9.451   0.538   6.849 -0.1437  0.2308 -0.0581
  293POPC   C1B 3946   8.926   0.380   5.704  0.3832 -0.2247  0.0374
  293POPC   C2B 3947   9.279   0.266   6.037 -0.1062 -0.0487 -0.0316
  293POPC   C3B 3948   9.366   0.067   6.408  0.0224 -0.1521 -0.0325
  293POPC   C4B 3949   9.440  -0.318   6.467  0.0853 -0.1560 -0.0987
  294POPC   NC3 3950   6.076   0.578   4.519 -0.3121 -0.1678 -0.1481
  294POPC   PO4 3951   6.501   0.478   4.566 -0.2643 -0.0273  0.0443
  294POPC   GL1 3952   6.448   0.457   4.942  0.0335 -0.0582  0.2037
  294POPC   GL2 3953   6.183   0.155   5.039  0.0892  0.0291  0.2240
  294POPC   C1A 3954   6.603   0.339   5.266 -0.0364 -0.1103  0.3087
  294POPC   D2A 3955   6.586   0.146   5.748  0.2334  0.4718 -0.0335
  294POPC   C3A 3956   6.573   0.471   6.018  0.2308  0.0400 -0.2178
  294POPC   C4A 3957   6.293   0.767   6.241  0.1641  0.1183  0.0169
  294POPC   C1B 3958   6.055   0.133   5.449 -0.2829  0.0251 -0.1283
  294POPC   C2B 3959   6.066  -0.027   5.900 -0.0424  0.1759  0.0740
  294POPC   C3B 3960   6.228   0.124   6.194  0.1672 -0.1240  0.0461
  294POPC   C4B 3961   6.408   0.365   6.524  0.1707  0.0071  0.2133
  295POPC   NC3 3962   8.358   2.665   4.607  0.0980  0.6802 -0.0248
  295POPC   PO4 3963   8.011   2.359   4.738  0.2416 -0.2108  0.1111
  295POPC   GL1 3964   7.987   2.771   5.012  0.0987  0.0246 -0.0284
  295POPC   GL2 3965   8.091   3.071   5.042 -0.1193  0.2059  0.1971
  295POPC   C1A 3966   8.046   2.829   5.451  0.1533  0.2236 -0.1060
  295POPC   D2A 3967   8.251   3.185   5.776  0.1069 -0.3074 -0.1699
  295POPC   C3A 3968   8.024   3.517   5.965  0.0630  0.3751  0.2777
  295POPC   C4A 3969   7.777   3.787   6.309  0.0994 -0.0261  0.0439
  295POPC   C1B 3970   7.993   3.392   5.371  0.0570 -0.0143  0.0782
  295POPC   C2B 3971   8.013   3.902   5.416  0.2483  0.2153 -0.2648
  295POPC   C3B 3972   7.959   4.451   5.570  0.1466  0.1596 -0.3284
  295POPC   C4B 3973   7.919   4.797   5.788  0.0460  0.1022  0.2228
  296POPC   NC3 3974   4.607   2.840   4.992  0.0225  0.1521  0.2849
  296POPC   PO4 3975   4.658   2.395   5.205 -0.0486  0.1718 -0.2623
  296POPC   GL1 3976   4.413   2.658   5.437 -0.2731  0.2581  0.0724
  296POPC   GL2 3977   4.629   2.539   5.687 -0.0406  0.0436 -0.0572
  296POPC   C1A 3978   4.129   2.573   5.803  0.1223  0.1275 -0.1555
  296POPC   D2A 3979   3.765   2.599   6.236 -0.0886 -0.2881  0.3166
  296POPC   C3A 3980   3.763   2.881   6.601 -0.0311 -0.2303  0.4597
  296POPC   C4A 3981   3.508   2.985   6.937 -0.2796 -0.1125  0.1544
  296POPC   C1B 3982   4.876   2.137   5.841  0.4180 -0.1585  0.1689
  296POPC   C2B 3983   4.894   2.023   6.306  0.1858 -0.1998 -0.0213
  296POPC   C3B 3984   5.044   2.353   6.679  0.1669  0.1338 -0.1049
  296POPC   C4B 3985   5.425   2.368   6.989 -0.0823 -0.2854  0.2759
  297POPC   NC3 3986   1.604   9.670   4.623  0.1316  0.0823 -0.1524
  297POPC   PO4 3987   1.228   9.858   4.691  0.0920  0.0175 -0.0651
  297POPC   GL1 3988   1.475   9.928   5.114  0.4516 -0.3075 -0.0280
  297POPC   GL2 3989   1.342  10.153   5.173 -0.5116 -0.1827  0.2330
  297POPC   C1A 3990   1.484   9.806   5.565  0.2397 -0.3459 -0.3098
  297POPC   D2A 3991   1.120   9.611   5.712 -0.0018 -0.0191  0.2505
  297POPC   C3A 3992   0.758   9.758   5.994 -0.3432  0.2016 -0.0640
  297POPC   C4A 3993   0.613   9.680   6.380  0.0962 -0.2516 -0.1118
  297POPC   C1B 3994   1.197  10.172   5.482 -0.2327  0.3188 -0.1766
  297POPC   C2B 3995   1.208  10.064   5.873 -0.2097  0.2747  0.2319
  297POPC   C3B 3996   1.149  10.011   6.259 -0.0770  0.0417 -0.0623
  297POPC   C4B 3997   1.248   9.868   6.628 -0.0563 -0.2851 -0.2904
  298POPC   NC3 3998   7.444   1.311   5.396  0.0995  0.1973 -0.0731
  298POPC   PO4 3999   7.370   1.710   5.371  0.0485  0.0742 -0.1722
  298POPC   GL1 4000   7.339   1.577   5.804 -0.0851  0.1304 -0.2547
  298POPC   GL2 4001   6.964   1.614   5.913 -0.2137  0.0599 -0.4056
  298POPC   C1A 4002   7.418   1.245   6.155 -0.2329  0.3485  0.1186
  298POPC   D2A 4003   7.355   0.826   6.386 -0.0113 -0.0966  0.0615
  298POPC   C3A 4004   7.235   0.720   6.782  0.1613 -0.2156 -0.0496
  298POPC   C4A 4005   7.498   0.757   7.054  0.0086  0.1840 -0.3125
  298POPC   C1B 4006   7.229   1.670   6.271 -0.0947 -0.4403 -0.0718
  298POPC   C2B 4007   7.051   2.014   6.508 -0.0092 -0.3336  0.1282
  298POPC   C3B 4008   7.056   2.453   6.623  0.1950  0.0442  0.0642
  298POPC   C4B 4009   6.831   2.808   6.680 -0.2625 -0.2299 -0.1068
  299POPC   NC3 4010   3.086   7.660   3.650  0.1568  0.2027  0.0115
  299POPC   PO4 4011   2.557   7.668   3.758  0.0824 -0.0045 -0.0083
  299POPC   GL1 4012   2.657   7.630   4.183  0.0184 -0.2537 -0.1020
  299POPC   GL2 4013   2.375   7.584   4.336 -0.1214 -0.1333  0.2002
  299POPC   C1A 4014   2.645   7.248   4.517  0.2976 -0.1998 -0.1152
  299POPC   D2A 4015   2.649   7.130   4.909 -0.1242 -0.0785 -0.0706
  299POPC   C3A 4016   2.681   7.547   5.110 -0.1869  0.0330  0.0716
  299POPC   C4A 4017   3.145   7.729   5.287 -0.0199 -0.0494  0.0194
  299POPC   C1B 4018   2.477   7.860   4.652 -0.1554 -0.0524 -0.1434
  299POPC   C2B 4019   2.254   7.921   4.992 -0.0041 -0.1572 -0.3167
  299POPC   C3B 4020   2.374   7.816   5.475 -0.2780 -0.0387 -0.2137
  299POPC   C4B 4021   2.702   7.558   5.737  0.1834  0.0119 -0.1479
  300POPC   NC3 4022   7.984   4.716   3.913 -0.1303 -0.2425 -0.0961
  300POPC   PO4 4023   8.388   4.820   4.004 -0.1081 -0.0001 -0.1256
  300POPC   GL1 4024   8.535   5.238   4.184  0.0818  0.3751  0.0297
  300POPC   GL2 4025   8.758   5.366   4.336 -0.2366  0.0175 -0.0387
  300POPC   C1A 4026   8.342   5.288   4.576  0.2169  0.5169  0.1902
  300POPC   D2A 4027   8.193   5.590   4.937 -0.0507  0.1776 -0.2047
  300POPC   C3A 4028   7.801   5.523   5.079  0.4439  0.3343 -0.1024
  300POPC   C4A 4029   7.734   5.263   5.515  0.0418  0.2682 -0.1646
  300POPC   C1B 4030   8.714   5.567   4.775  0.0989  0.2162  0.2871
  300POPC   C2B 4031   8.622   5.728   5.176  0.2367 -0.0245  0.1342
  300POPC   C3B 4032   8.747   6.058   5.553 -0.1748 -0.0199  0.0349
  300POPC   C4B 4033   9.061   6.071   5.838  0.2778 -0.1548  0.0351
  301POPC   NC3 4034   3.189   8.447   3.832  0.0021  0.5029  0.1672
  301POPC   PO4 4035   3.375   8.154   4.099  0.0052 -0.0128  0.0378
  301POPC   GL1 4036   3.411   8.211   4.579 -0.0611 -0.0805 -0.0410
  301POPC   GL2 4037   3.656   8.391   4.719  0.3497  0.2193 -0.0243
  301POPC   C1A 4038   3.187   8.158   4.950  0.0850  0.0652 -0.0674
  301POPC   D2A 4039   2.804   8.062   5.151 -0.2684  0.2498 -0.2068
  301POPC   C3A 4040   2.831   7.998   5.591  0.1875 -0.2571 -0.1296
  301POPC   C4A 4041   2.588   8.147   5.871 -0.2585 -0.2810 -0.0136
  301POPC   C1B 4042   3.650   8.017   5.051 -0.1209 -0.2101 -0.1012
  301POPC   C2B 4043   3.730   7.775   5.469 -0.0320 -0.4239 -0.0049
  301POPC   C3B 4044   4.085   7.670   5.730  0.1758 -0.0257 -0.0043
  301POPC   C4B 4045   4.517   7.500   5.851  0.2278  0.2469  0.0629
  302W        W 4046   2.105   4.646  12.808 -0.1575 -0.1017  0.0780
  303W        W 4047   3.476   1.862  10.416  0.1716  0.0674 -0.1798
  304W        W 4048   2.964   9.913   9.314 -0.0477  0.0111  0.0065
  305W        W 4049   6.266   3.205  10.026  0.0012 -0.0741  0.2249
  306W        W 4050   0.373   1.070   0.300 -0.0249  0.0186  0.0691
  307W        W 4051   2.068   5.094   3.722  0.0432  0.2650  0.0338
  308W        W 4052   6.344   1.488   9.343  0.1163  0.0121 -0.3307
  309W        W 4053   0.130   7.892   9.119 -0.0989  0.1483  0.0418
  310W        W 4054   4.139   5.778   0.640  0.0157  0.2828 -0.1509
  311W        W 4055   1.531   1.531   3.299  0.1764  0.3237 -0.0900
  312W        W 4056   4.039   3.274  12.554  0.1883 -0.2164  0.0223
  313W        W 4057   2.922   4.371   2.888 -0.1414 -0.1873 -0.0875
  314W        W 4058   7.562   8.466   3.379 -0.0068  0.0528 -0.1669
  315W        W 4059   1.539   9.031   1.093 -0.1808 -0.4143 -0.1608
  316W        W 4060   7.000   3.281   0.649 -0.3673 -0.1531  0.1711
  317W        W 4061   0.599   9.222   2.700  0.1411 -0.2169 -0.1184
  318W        W 4062   9.727   2.077   4.110  0.1000 -0.1150  0.1733
  319W        W 4063   3.792   6.471   1.484 -0.3185  0.2120  0.1163
  320W        W 4064   9.782   9.149   2.078 -0.1669  0.1156  0.0205
  321W        W 4065   0.041   3.533   8.998 -0.0800  0.0466  0.1298
  322W        W 4066   7.897   3.795  12.026 -0.1644 -0.1942  0.0011
  323W        W 4067   3.490   2.539   3.800  0.1185  0.0395 -0.0347
  324W        W 4068   2.615   6.210   9.090  0.3650 -0.1449  0.1035
  325W        W 4069   8.350   0.596   3.390 -0.3614 -0.3104  0.4001
  326W        W 4070   6.645   8.532   3.017  0.1952  0.1887  0.0377
  327W        W 4071   7.530   2.935   1.649 -0.0292 -0.2072 -0.0965
  328W        W 4072   4.534   9.756   1.005  0.0868 -0.3041  0.0361
  329W        W 4073   6.635   1.933  10.848  0.0576  0.1139  0.1352
  330W        W 4074   8.520   9.536   1.766  0.2398 -0.1379  0.0158
  331W        W 4075   4.493   8.118   3.317  0.3768 -0.0333  0.0892
  332W        W 4076   6.181   8.275   0.892  0.0695 -0.0100  0.0467
  333W        W 4077   4.554   1.906  11.899 -0.1105 -0.0810 -0.0612
  334W        W 4078   3.236   3.643   1.749 -0.0170 -0.1206 -0.0669
  335W        W 4079   9.922   0.738  11.921  0.2960  0.2233  0.0070
  336W        W 4080   2.199   5.787  11.449 -0.1993 -0.0515  0.4285
  337W        W 4081   1.336   1.497   0.313 -0.0094 -0.0071 -0.2204
  338W        W 4082   4.064   4.919  10.929  0.0438  0.0927 -0.0460
  339W        W 4083   2.032   3.197   1.326 -0.2829  0.0944 -0.2080
  340W        W 4084   6.611   1.768   3.319 -0.3474 -0.0685 -0.0160
  341W        W 4085   2.124   9.417   1.825 -0.3679 -0.0460  0.0302
  342W        W 4086   8.663   2.997   3.634 -0.3149  0.2458  0.0178
  343W        W 4087   7.583   6.144  11.426  0.0823  0.1890 -0.0132
  344W        W 4088   0.885   6.554   8.665 -0.1728  0.2473  0.0781
  345W        W 4089   5.465   5.311   1.537 -0.1584  0.0876  0.0464
  346W        W 4090   4.886   0.537   1.317  0.2360 -0.4404 -0.0011
  347W        W 4091   4.860   8.983   8.853 -0.1933 -0.4061 -0.1406
  348W        W 4092   5.582   5.699   3.005  0.2297  0.1943  0.0191
  349W        W 4093   1.637   3.088   9.464 -0.1919 -0.0979  0.0305
  350W        W 4094   9.332   8.647   9.583  0.2570  0.1933 -0.0721
  351W        W 4095   2.291   4.886   1.811  0.0569 -0.1208  0.3184
  352W        W 4096   6.081   6.297  10.924 -0.1346 -0.3248  0.2933
  353W        W 4097   7.149   8.767  12.219 -0.0895 -0.2676  0.1116
  354W        W 4098   3.509   0.195   2.842  0.0322  0.0133  0.0612
  355W        W 4099   9.622   6.743   2.747  0.0775 -0.1954  0.2142
  356W        W 4100   6.259   4.648  11.730  0.2145  0.0389  0.2014
  357W        W 4101   7.233   1.795  11.651 -0.1301 -0.4149  0.1159
  358W        W 4102   3.497   6.344   1.140  0.1302 -0.2039  0.1790
  359W        W 4103   4.944   7.414   1.516 -0.2441 -0.1001  0.1249
  360W        W 4104   3.333   7.013   2.095  0.0132  0.2474  0.1105
  361W        W 4105   9.478   1.938   2.091  0.0495 -0.2881 -0.0456
  362W        W 4106   3.109   6.322  12.464  0.3386 -0.0325  0.1714
  363W        W 4107   4.615   7.785   2.800 -0.0930  0.1083 -0.4655
  364W        W 4108   3.478   9.653   4.121  0.3771  0.1196 -0.3836
  365W        W 4109   8.473   9.234   0.247 -0.2306 -0.2750  0.0537
  366W        W 4110   3.809   1.805   9.342  0.3395 -0.0509  0.0792
  367W        W 4111   6.759   2.319   0.710  0.0020 -0.2234  0.0156
  368W        W 4112   7.991   2.895   0.545 -0.0011  0.0635 -0.3197
  369W        W 4113   1.906   5.706   0.734 -0.1200  0.0018 -0.0875
  370W        W 4114   8.421   1.900   2.811  0.0973 -0.0132  0.0597
  371W        W 4115   7.314   9.467   2.378  0.0346 -0.0285 -0.3841
  372W        W 4116   6.083   6.120   2.030  0.1853  0.0009 -0.0679
  373W        W 4117   1.163   1.668   2.565  0.0279  0.0005 -0.1560
  374W        W 4118   4.682   0.746  11.566 -0.0158 -0.1972 -0.0013
  375W        W 4119   8.902   2.865   2.085 -0.1561 -0.1403 -0.2267
  376W        W 4120   8.811   0.129   0.372 -0.0364  0.0646 -0.0989
  377W        W 4121   5.503   9.818   0.308  0.0659 -0.3408 -0.0304
  378W        W 4122   9.750   7.507   9.922  0.3165  0.4543  0.0663
  379W        W 4123   3.732   1.780   1.564  0.2213  0.1844  0.0324
  380W        W 4124   4.572   7.914   9.644 -0.0384  0.3713  0.2634
  381W        W 4125   9.267   0.306   0.691  0.1504 -0.0133 -0.2840
  382W        W 4126   4.264   3.361  10.271  0.1997 -0.0803 -0.0022
  383W        W 4127   9.731   3.950   2.049  0.1828 -0.1508 -0.1600
  384W        W 4128   6.867   6.620  10.669  0.0308  0.0614  0.0548
  385W        W 4129   2.424   3.470   2.162  0.2298 -0.0452  0.1788
  386W        W 4130   1.049   2.275  10.493 -0.1898  0.5488  0.0069
  387W        W 4131   0.508   4.302  11.314 -0.0662  0.0519  0.3150
  388W        W 4132   3.731   8.853   8.473  0.0244  0.2286  0.0911
  389W        W 4133   4.010   2.481   0.628  0.1035  0.3911  0.0582
  390W        W 4134   8.006   0.964  12.361 -0.2250 -0.1809 -0.0887
  391W        W 4135   0.061   8.274   0.328 -0.0033 -0.1032  0.0578
  392W        W 4136   2.181   8.244   0.570 -0.0430  0.1440 -0.2547
  393W        W 4137   7.689   6.041   1.890 -0.2075  0.2874 -0.0179
  394W        W 4138   5.793   3.521   9.204 -0.1918 -0.5068 -0.3518
  395W        W 4139   2.949   2.438  12.358 -0.1888  0.0951 -0.0523
  396W        W 4140   0.141   6.611   0.131 -0.1315 -0.1948 -0.2666
  397W        W 4141   0.127   5.190   1.901 -0.0358 -0.0754 -0.1482
  398W        W 4142   4.139   1.922   0.856  0.1339  0.3182  0.1271
  399W        W 4143   7.312   1.873   2.653  0.0083 -0.0152 -0.0380
  400W        W 4144   1.211   6.425   9.303 -0.0671  0.2815 -0.2504
  401W        W 4145   9.836   1.673   3.723 -0.4703 -0.0846 -0.1503
  402W        W 4146   6.680   5.887  11.620  0.0105  0.1509  0.1955
  403W        W 4147   7.244   4.890   1.212 -0.3179  0.4091  0.0658
  404W        W 4148   6.998   9.842   1.876  0.2675 -0.4966  0.0733
  405W        W 4149   9.774   1.411   4.157  0.2815 -0.0406  0.0305
  406W        W 4150   5.651   6.561   2.124  0.3748  0.2966 -0.0086
  407W        W 4151   6.942   7.684   9.959  0.0335 -0.2859 -0.1186
  408W        W 4152   2.976   6.590   8.019 -0.2559 -0.0257  0.1847
  409W        W 4153   1.159   6.625  12.483 -0.1598 -0.0253  0.0885
  410W        W 4154   8.304   7.281  12.182 -0.1042 -0.1463 -0.1326
  411W        W 4155   2.850   4.652   2.067 -0.0309  0.1460 -0.0417
  412W        W 4156   8.204   6.983  12.567 -0.1917 -0.2901 -0.1348
  413W        W 4157   5.185   8.336   2.637  0.0867 -0.2897  0.0044
  414W        W 4158   5.667   0.401   1.450 -0.0274  0.0653 -0.1348
  415W        W 4159   4.543   1.649   0.728 -0.0272 -0.0369 -0.1806
  416W        W 4160   0.005   1.590   3.222  0.2264  0.0455  0.1823
  417W        W 4161   8.985   3.082   0.526 -0.0914  0.1412  0.2712
  418W        W 4162   0.141   6.784   3.368 -0.0656  0.1166 -0.1190
  419W        W 4163   4.566   7.003  10.782  0.2383 -0.2482 -0.0403
  420W        W 4164   3.639   1.207   0.913 -0.4441 -0.0347  0.0974
  421W        W 4165   7.494   3.906   9.800 -0.0156 -0.0258 -0.2856
  422W        W 4166   5.640   0.993   2.590 -0.2817 -0.2180 -0.2327
  423W        W 4167   8.280   4.760   3.489  0.1131 -0.3738  0.1186
  424W        W 4168   4.450   5.999  11.572  0.4105 -0.1465 -0.2378
  425W        W 4169   8.887   7.498   2.291 -0.2387 -0.0566  0.0357
  426W        W 4170   0.249   0.896   0.735  0.1181  0.0185 -0.3598
  427W        W 4171   8.645   1.547  11.308  0.0407 -0.0659  0.3355
  428W        W 4172   4.595   0.806   3.767  0.1894 -0.0555  0.1668
  429W        W 4173   4.039   8.642   1.974 -0.1387  0.2833 -0.0139
  430W        W 4174   3.978   6.485   2.688  0.3196  0.0200  0.1646
  431W        W 4175   0.048   5.284   1.395  0.1241 -0.1244  0.2171
  432W        W 4176   9.835   5.449   3.392 -0.2820  0.0060  0.2859
  433W        W 4177   1.621   7.846   1.098  0.0360  0.2330  0.1384
  434W        W 4178   6.463   7.016  11.668  0.0027  0.1392  0.3571
  435W        W 4179   8.268   4.277   8.615  0.0299  0.2189  0.2015
  436W        W 4180   2.455   3.920   2.250 -0.1537  0.1144 -0.2068
  437W        W 4181   9.447   7.245   0.047 -0.0977  0.2940  0.1270
  438W        W 4182   2.807   8.359   2.574 -0.0665  0.2076 -0.0463
  439W        W 4183   1.855   8.722   3.580  0.0381 -0.1975 -0.0742
  440W        W 4184   5.528   6.990  11.549  0.0542 -0.1598 -0.0191
  441W        W 4185   6.394   6.761  10.406  0.1303  0.0140 -0.1699
  442W        W 4186   1.692   8.271   2.750  0.2677 -0.0319  0.0118
  443W        W 4187   9.076   3.643  12.117  0.1359 -0.0883  0.2841
  444W        W 4188   3.348   4.375  12.244  0.1192 -0.1136  0.0961
  445W        W 4189   0.317   7.885   1.533 -0.0298  0.1378 -0.3748
  446W        W 4190   8.855   9.749   9.595  0.1999  0.1997 -0.0136
  447W        W 4191   7.088   5.664  12.489  0.1445  0.0093 -0.1084
  448W        W 4192   5.830   2.031  11.312 -0.1021 -0.0264  0.0944
  449W        W 4193   9.691   1.274   3.482 -0.2214  0.2389 -0.1153
  450W        W 4194   0.128   8.366   9.157 -0.2375 -0.0857  0.1104
  451W        W 4195   4.959   8.159  10.954  0.1147  0.1768 -0.1105
  452W        W 4196   3.502   0.578   2.297  0.1496  0.2037  0.0234
  453W        W 4197   3.967   4.699   8.184  0.2719 -0.0008 -0.3053
  454W        W 4198   4.052   2.585   8.292 -0.0312 -0.2121  0.0673
  455W        W 4199   3.778   8.192  10.010  0.0840  0.0911  0.0140
  456W        W 4200   3.305   3.262   9.239  0.2761  0.3271  0.3014
  457W        W 4201   1.405   7.264   2.989 -0.0806 -0.6264  0.0067
  458W        W 4202   3.157   5.236  11.054  0.0269 -0.0577 -0.1040
  459W        W 4203   4.436   8.641   3.157 -0.0591 -0.0587  0.1508
  460W        W 4204   3.328   4.913   8.892 -0.3322  0.0476 -0.2820
  461W        W 4205   6.280   3.532   4.601 -0.0745 -0.0025 -0.4870
  462W        W 4206   6.808   9.334   2.642  0.2411 -0.0416  0.0777
  463W        W 4207   2.658   0.339  12.442  0.2047 -0.2367  0.0292
  464W        W 4208   6.182   3.736   3.373 -0.1560  0.1240  0.3218
  465W        W 4209   9.730   8.166   1.405 -0.1295 -0.3228  0.2415
  466W        W 4210   4.502   7.985   1.166  0.1366  0.1704 -0.2442
  467W        W 4211   3.494   5.535   1.885  0.2179  0.1276 -0.3408
  468W        W 4212   6.889   4.205  12.424  0.1419  0.3950 -0.0905
  469W        W 4213   1.435   3.456  12.539  0.2359 -0.0535  0.1492
  470W        W 4214   9.742   2.820  12.834  0.2225 -0.0110  0.2162
  471W        W 4215   4.599   3.626   9.860  0.2289  0.1623  0.0902
  472W        W 4216   1.627   3.619  10.682  0.0925 -0.1957 -0.0692
  473W        W 4217   1.885   0.565   4.292  0.1391  0.2236 -0.1701
  474W        W 4218   2.927   2.941  12.402  0.2850 -0.2167 -0.0882
  475W        W 4219   2.955   3.907   2.368  0.2338  0.3640 -0.1223
  476W        W 4220   0.834   6.324   3.022 -0.1505 -0.0940  0.1266
  477W        W 4221   4.571   2.610   3.703 -0.2461 -0.0088 -0.1228
  478W        W 4222   0.127   0.245   9.115 -0.0071  0.0725  0.1985
  479W        W 4223   7.830   1.792   2.767  0.2987 -0.3674  0.1099
  480W        W 4224   2.519   5.694  10.492 -0.0251  0.0219 -0.2180
  481W        W 4225   4.363   6.417   2.174  0.0225  0.1438  0.1474
  482W        W 4226   5.926   4.416   9.760 -0.2612  0.1049 -0.0141
  483W        W 4227   1.336   6.314   8.857 -0.1228 -0.1352  0.3290
  484W        W 4228   9.478   8.532  10.253  0.1515 -0.0052 -0.0836
  485W        W 4229   5.731   3.807   0.565  0.0217 -0.2098 -0.2210
  486W        W 4230   9.031   1.744   2.412 -0.1422  0.0613 -0.1020
  487W        W 4231   3.266   1.015  12.254  0.2982 -0.1745  0.1168
  488W        W 4232   1.826   4.144   2.277 -0.1485 -0.2551  0.0636
  489W        W 4233   0.063   1.580   1.307  0.0058 -0.2954  0.0149
  490W        W 4234   8.189   9.019   2.633  0.0656 -0.2711 -0.3591
  491W        W 4235   7.940   2.831  10.961 -0.0773 -0.0345  0.2003
  492W        W 4236   2.296   1.904   4.488 -0.0036 -0.0521  0.0626
  493W        W 4237   2.868   3.606  12.621 -0.2644  0.0853  0.1512
  494W        W 4238   2.417   6.125  10.692 -0.1731 -0.0667  0.0071
  495W        W 4239   7.349   0.289   3.956 -0.0747  0.2483  0.0828
  496W        W 4240   2.646   6.553  10.096 -0.2806 -0.0388 -0.1962
  497W        W 4241   8.409   6.332  10.655  0.0783 -0.0958 -0.1082
  498W        W 4242   8.500   9.741   2.588  0.0962  0.1566 -0.2100
  499W        W 4243   7.217   5.685   1.109 -0.0068 -0.2752  0.1007
  500W        W 4244   5.321   7.039  12.267  0.4007  0.0175 -0.4822
  501W        W 4245   1.042   7.827   3.795  0.0692 -0.1124  0.1621
  502W        W 4246   5.075   6.609   1.479  0.2188  0.3480 -0.1871
  503W        W 4247   3.808   4.490  10.613  0.1788  0.2057  0.3097
  504W        W 4248   0.375   7.296   9.040  0.1347 -0.2580 -0.1199
  505W        W 4249   1.597   3.102  10.744  0.0510  0.1989 -0.2979
  506W        W 4250   3.692   6.794   3.504 -0.1080 -0.2830  0.1816
  507W        W 4251   9.382   0.458  10.175  0.0207 -0.0266 -0.4759
  508W        W 4252   9.905   2.805   9.834 -0.1395 -0.4039 -0.4274
  509W        W 4253   0.309   0.918  10.919 -0.1006  0.0401  0.3535
  510W        W 4254   6.314   0.423  12.427  0.2988 -0.0826  0.4427
  511W        W 4255   1.828   2.442   2.259 -0.1152  0.2955  0.1047
  512W        W 4256   8.736   5.575  10.057 -0.2511  0.2917  0.0808
  513W        W 4257   7.528   6.281  12.833  0.1361  0.0448 -0.0054
  514W        W 4258   4.035   0.010   0.943 -0.5381 -0.2787  0.1865
  515W        W 4259   5.596   1.549  12.231  0.1049  0.0074  0.0342
  516W        W 4260   9.641   6.062   2.168  0.0071 -0.0537 -0.1928
  517W        W 4261   8.613   0.874   4.160  0.0288  0.0639  0.0065
  518W        W 4262   1.369   7.197   2.239  0.0930  0.0617 -0.2095
  519W        W 4263   9.816   5.981  12.712 -0.1989  0.2455  0.0780
  520W        W 4264   7.984   2.027  12.192  0.1074 -0.1187  0.0191
  521W        W 4265   7.900   7.172   0.956 -0.3519 -0.1776  0.0206
  522W        W 4266   7.999   5.711   1.075 -0.0925  0.0808 -0.1648
  523W        W 4267   5.273   3.218   0.598 -0.2240  0.3624  0.0271
  524W        W 4268   4.756   8.378   3.983 -0.1572  0.2673  0.0481
  525W        W 4269   7.830   9.779   3.514  0.1591  0.1001  0.0438
  526W        W 4270   8.217   3.367   4.226 -0.0111  0.1823 -0.1427
  527W        W 4271   7.613   6.026   9.427 -0.0447  0.1981 -0.3706
  528W        W 4272   2.058   2.054   0.591  0.1950 -0.0438 -0.2511
  529W        W 4273   8.367   8.275  10.020 -0.0272 -0.0211 -0.1011
  530W        W 4274   5.733   8.679   3.793 -0.0578 -0.1274  0.1511
  531W        W 4275   7.946   8.498   0.303 -0.1372  0.2813  0.1952
  532W        W 4276   1.534   2.950  12.355  0.2097 -0.0070  0.0476
  533W        W 4277   4.767   7.293   3.704 -0.0892 -0.0401 -0.0872
  534W        W 4278   4.823   5.011  10.781  0.1393  0.0066  0.2226
  535W        W 4279   0.686   6.457  12.392 -0.1607 -0.0515  0.0073
  536W        W 4280   4.410   0.639   3.165 -0.0351 -0.0691  0.0168
  537W        W 4281   7.973   8.685   1.830 -0.4542 -0.1811  0.2529
  538W        W 4282   2.591   4.918   3.374 -0.0947  0.3952 -0.2138
  539W        W 4283   4.270   7.744   3.639 -0.1435  0.1013 -0.2765
  540W        W 4284   8.064   9.246   2.025 -0.2348  0.1220  0.2360
  541W        W 4285   4.039   6.946  11.564  0.0450 -0.0439  0.1745
  542W        W 4286   0.934   3.291  12.357 -0.0364 -0.2429 -0.0028
  543W        W 4287   3.448   0.554   1.736  0.1814  0.2722  0.0105
  544W        W 4288   4.324   7.950   2.410  0.0268  0.1512  0.1712
  545W        W 4289   0.839   5.498  12.836  0.1152  0.1571  0.0986
  546W        W 4290   5.433   4.547   0.805 -0.0934 -0.1955 -0.1752
  547W        W 4291   7.660   3.731  10.472 -0.1672 -0.1309 -0.4763
  548W        W 4292   5.306   9.270   8.795  0.0995  0.4143  0.1485
  549W        W 4293   4.604   9.700  12.506  0.1812 -0.1395  0.2477
  550W        W 4294   3.138   4.910   4.698  0.2432  0.4177  0.1987
  551W        W 4295   1.644   9.394   3.134 -0.1746 -0.1740  0.1588
  552W        W 4296   8.064   7.981   9.275 -0.2840 -0.0655 -0.1678
  553W        W 4297   3.060   7.400   2.333  0.0140  0.2347 -0.0154
  554W        W 4298   8.244   8.778   9.480  0.3384  0.1902 -0.2257
  555W        W 4299   0.043   6.120   0.962 -0.1569 -0.0436  0.1641
  556W        W 4300   4.878   2.270   2.600  0.2330 -0.1151 -0.1462
  557W        W 4301   9.577   4.261   9.984 -0.2764 -0.0976 -0.1276
  558W        W 4302   1.950   9.259  12.264 -0.1658 -0.0135  0.0913
  559W        W 4303   2.729   5.549   9.050 -0.1963 -0.1174  0.3377
  560W        W 4304   0.726   8.648   0.997  0.0546 -0.1194  0.2864
  561W        W 4305   9.325   0.605   1.137 -0.2124 -0.0995  0.2400
  562W        W 4306   2.775   2.881   3.554 -0.1386  0.4306  0.0752
  563W        W 4307   7.946   0.720   0.151  0.0354 -0.1448 -0.0732
  564W        W 4308   7.886   5.681   1.606  0.3949 -0.0374  0.1699
  565W        W 4309   5.084   2.122   1.359  0.2331 -0.0518 -0.1764
  566W        W 4310   2.838   7.682   9.999  0.0134 -0.2709 -0.4540
  567W        W 4311   0.249   1.862   1.880 -0.2778  0.1082  0.1571
  568W        W 4312   5.415   2.562   9.856  0.2470 -0.0350  0.2435
  569W        W 4313   9.093   2.917  11.336 -0.0394 -0.2634  0.1299
  570W        W 4314   8.319   2.739   1.602 -0.1427  0.3455  0.0053
  571W        W 4315   2.680   8.802   0.162 -0.0293  0.0432  0.0660
  572W        W 4316   9.439   4.777  10.781 -0.1305 -0.0019 -0.2142
  573W        W 4317   1.748   1.743   0.285  0.3531 -0.2177 -0.1542
  574W        W 4318   0.061   0.386   3.573  0.1284 -0.3245  0.0987
  575W        W 4319   4.388   8.293  10.931  0.0676 -0.0063 -0.0557
  576W        W 4320   6.954   6.968  12.057 -0.2105 -0.0902  0.0688
  577W        W 4321   6.771   1.749   3.924  0.2076  0.2320  0.0805
  578W        W 4322   9.323   1.987  11.825  0.0769 -0.1627  0.1695
  579W        W 4323   8.026   2.288   2.154  0.0204  0.1700  0.0342
  580W        W 4324   1.441   8.112  11.619 -0.0579  0.2647 -0.3006
  581W        W 4325   0.927   4.619  11.004 -0.0188  0.2052 -0.3141
  582W        W 4326   8.426   0.718   1.693  0.2400 -0.1910  0.2178
  583W        W 4327   1.596   3.308   2.301 -0.0940  0.0307  0.0004
  584W        W 4328   5.406   4.117  11.673  0.2797 -0.0093 -0.1248
  585W        W 4329   4.657   7.879  10.206  0.0827 -0.1201 -0.0014
  586W        W 4330   1.388   2.217   1.974  0.3333  0.2600  0.1915
  587W        W 4331   5.215   2.612   9.117 -0.1215 -0.1287  0.0739
  588W        W 4332   5.080   5.766   1.195 -0.1145  0.1310  0.0106
  589W        W 4333   0.724   3.435   3.321 -0.0531  0.1305 -0.3015
  590W        W 4334   8.098   2.629   9.359  0.1479  0.1778  0.2034
  591W        W 4335   2.579   1.049   9.049  0.1090  0.3856 -0.2381
  592W        W 4336   3.283   0.689   0.275  0.1048  0.1137  0.1100
  593W        W 4337   7.085   1.882   3.442  0.3658 -0.0665  0.1258
  594W        W 4338   0.361   6.169   2.814  0.2764  0.3347 -0.1269
  595W        W 4339   6.358   8.943   4.054  0.2753 -0.3752 -0.0038
  596W        W 4340   5.783   8.959   0.957 -0.0308 -0.2467  0.0950
  597W        W 4341   1.122   9.267   1.695 -0.2509 -0.2268 -0.0184
  598W        W 4342   8.237   0.705   2.581  0.1238 -0.2950  0.0884
  599W        W 4343   8.341   3.888   2.850 -0.1933  0.1554 -0.2586
  600W        W 4344   3.847   7.226   2.221  0.2102 -0.2755 -0.1358
  601W        W 4345   5.093   5.805   3.761  0.2990 -0.2445 -0.0253
  602W        W 4346   8.279   7.111  10.610  0.1017 -0.1149 -0.0782
  603W        W 4347   6.201   6.502   9.618  0.0236 -0.2154 -0.0420
  604W        W 4348   6.768   9.071   9.768  0.0265 -0.1389  0.1186
  605W        W 4349   3.466   7.458   1.908 -0.0584  0.1784  0.3051
  606W        W 4350   9.527   8.798  12.434 -0.1005 -0.1753 -0.0646
  607W        W 4351   9.614   0.203  10.561  0.2104  0.0729 -0.1947
  608W        W 4352   3.305   0.057  12.185  0.0621 -0.0957  0.0521
  609W        W 4353   2.418   0.444   0.168  0.2549  0.3053  0.1765
  610W        W 4354   4.438   8.712  11.692  0.1715 -0.0026 -0.0814
  611W        W 4355   9.069   6.357   3.792 -0.1587  0.2217  0.2285
  612W        W 4356   9.587   9.028   9.874  0.4970  0.3478  0.0864
  613W        W 4357   2.089   6.763   2.729 -0.3425  0.2924  0.1405
  614W        W 4358   1.783   9.337   8.957 -0.2963  0.2976 -0.1553
  615W        W 4359   1.189   3.085   3.995 -0.3026 -0.0162  0.0031
  616W        W 4360   4.796   6.565   9.126 -0.1015 -0.0266  0.4639
  617W        W 4361   0.716   1.246   4.307  0.2451 -0.0570 -0.5670
  618W        W 4362   8.387   4.283   2.492  0.3011 -0.1635  0.1092
  619W        W 4363   7.144   3.639  10.556  0.1344 -0.2066 -0.0190
  620W        W 4364   6.487   8.628   3.629  0.1720  0.0092  0.0825
  621W        W 4365   7.522   5.102   0.526  0.0410  0.1515 -0.1537
  622W        W 4366   0.553   2.589   0.034 -0.2989  0.0413 -0.0064
  623W        W 4367   9.279   0.876   0.702  0.4374  0.2492 -0.1951
  624W        W 4368   1.495   6.972   3.425 -0.2562 -0.2682 -0.0067
  625W        W 4369   3.108   8.573  11.644  0.2138 -0.1551  0.1225
  626W        W 4370   1.048   0.415   3.915 -0.1928  0.0969  0.0751
  627W        W 4371   6.612   3.214   9.550 -0.1529 -0.1998  0.1854
  628W        W 4372   9.828   6.649   1.695 -0.1432 -0.0483  0.0497
  629W        W 4373   6.838   9.825  12.263 -0.0820 -0.2471 -0.2157
  630W        W 4374   2.028   9.387   0.211 -0.0442  0.3566  0.0573
  631W        W 4375   8.324   3.617   3.342  0.1280 -0.3296 -0.1804
  632W        W 4376   1.318   0.896  12.388  0.1042 -0.0793 -0.1185
  633W        W 4377   6.226   3.733   8.963 -0.2849 -0.1292  0.1553
  634W        W 4378   6.774   3.582   2.448 -0.2671  0.2636 -0.0439
  635W        W 4379   4.358   0.747   4.204 -0.0364  0.1799 -0.2670
  636W        W 4380   9.076   0.008   1.871  0.1267  0.1954  0.0265
  637W        W 4381   5.744   4.608   1.228 -0.0069 -0.2489 -0.1851
  638W        W 4382   2.531   3.886   2.786  0.2093  0.1468 -0.0886
  639W        W 4383   4.918   2.657   3.367 -0.0576 -0.1685  0.0043
  640W        W 4384   4.134   5.495   9.959  0.1457  0.0850  0.3162
  641W        W 4385   5.160   4.933   3.542  0.1736  0.1687  0.3162
  642W        W 4386   5.428   7.595   1.435 -0.0913  0.2287  0.2522
  643W        W 4387   3.846   5.791   9.155 -0.2476  0.0593 -0.0039
  644W        W 4388   2.666   7.917   2.789  0.2485  0.0118 -0.1742
  645W        W 4389   6.875   6.750  12.516  0.2556  0.1600  0.0764
  646W        W 4390   1.810   7.632   2.711 -0.0901  0.0170 -0.0309
  647W        W 4391   5.897   2.844   9.825 -0.1128  0.1543  0.1269
  648W        W 4392   3.531   4.750   4.406 -0.0060 -0.1573 -0.0119
  649W        W 4393   9.183   9.551   1.491  0.1200 -0.0246  0.2709
  650W        W 4394   6.020   6.951   1.870  0.1076 -0.1440  0.1879
  651W        W 4395   1.729   1.668  10.127  0.1573 -0.1009  0.1644
  652W        W 4396   3.032   9.894   2.925 -0.1337 -0.3603 -0.0049
  653W        W 4397   0.155   8.629  10.709 -0.0349 -0.2300  0.3010
  654W        W 4398   3.127   7.664  11.187  0.3562  0.0255 -0.1926
  655W        W 4399   3.431   3.841   2.182  0.0417 -0.0677 -0.0118
  656W        W 4400   4.859   0.261   2.007  0.0936 -0.3176 -0.3387
  657W        W 4401   4.666   2.249   0.024 -0.0411 -0.0915 -0.1635
  658W        W 4402   2.267   9.576   3.490 -0.1304 -0.0605 -0.0196
  659W        W 4403   9.208   0.609   0.243 -0.0256 -0.0725  0.2715
  660W        W 4404   4.796   0.289   0.875  0.2034  0.0142  0.0830
  661W        W 4405   8.324   1.220  11.033  0.4111  0.0187  0.2526
  662W        W 4406   8.464   7.326   2.074  0.3959  0.1703 -0.0443
  663W        W 4407   2.494   9.846   2.723  0.0775 -0.1084  0.2203
  664W        W 4408   9.651   6.544  11.341 -0.2069  0.1334  0.3424
  665W        W 4409   4.991   0.429   3.661  0.1061  0.1365 -0.2154
  666W        W 4410   9.075   5.475   0.287 -0.1706 -0.0259 -0.0959
  667W        W 4411   0.316   0.805   3.406 -0.1493 -0.0522  0.0097
  668W        W 4412   2.564   1.642   3.367  0.0507  0.4530 -0.0874
  669W        W 4413   9.160   4.399   3.084  0.2655 -0.2105  0.1568
  670W        W 4414   1.289   2.266  10.930 -0.1572 -0.1183 -0.1183
  671W        W 4415   1.184   5.398  11.373  0.0551 -0.1084  0.1427
  672W        W 4416   7.633   5.630  10.343  0.0309 -0.0599 -0.2095
  673W        W 4417   0.991   8.239   8.794  0.0228 -0.1003 -0.1283
  674W        W 4418   5.453   3.676   7.868  0.1409  0.0045 -0.0500
  675W        W 4419   9.746   9.334  10.381 -0.1883 -0.2210 -0.0795
  676W        W 4420   1.638   7.152   9.520  0.1005  0.2123 -0.0773
  677W        W 4421   9.877   4.843   2.797  0.3627  0.0785 -0.1500
  678W        W 4422   4.106   6.309  11.305  0.1499 -0.3354  0.2360
  679W        W 4423   1.757   4.102   8.565 -0.2668 -0.1284  0.2189
  680W        W 4424   3.132   0.349   0.791  0.1491  0.0109  0.1569
  681W        W 4425   2.880   0.331  11.942  0.1909  0.1243 -0.0380
  682W        W 4426   2.838   6.900   1.329 -0.0631 -0.0401 -0.1353
  683W        W 4427   1.977   6.889  10.954  0.1368 -0.0015 -0.2596
  684W        W 4428   0.699   1.419   2.558 -0.0158 -0.2008  0.2334
  685W        W 4429   3.048   4.537   8.943  0.0279  0.0794 -0.1892
  686W        W 4430   0.032   7.006   2.541  0.0258  0.4462  0.0645
  687W        W 4431   0.195   7.553   3.146  0.1268 -0.0964  0.1643
  688W        W 4432   4.319   4.759   4.154 -0.2117  0.1451 -0.0312
  689W        W 4433   0.158   2.913   3.984  0.0411 -0.0814 -0.2217
  690W        W 4434   6.745   8.112   9.350 -0.2349  0.0520 -0.1268
  691W        W 4435   0.693   7.464   4.127 -0.2871  0.1063 -0.3546
  692W        W 4436   3.059   3.424  11.504 -0.1748  0.1922  0.2209
  693W        W 4437   5.076   9.746   2.306  0.4598 -0.3638 -0.1591
  694W        W 4438   6.781   1.298   4.716 -0.0045  0.1924 -0.1395
  695W        W 4439   0.851   3.768   1.300 -0.0313 -0.1303  0.1767
  696W        W 4440   7.123   1.810  11.126 -0.1088  0.1092  0.0566
  697W        W 4441   3.933   8.956  11.723 -0.0383  0.0667 -0.0717
  698W        W 4442   7.270   3.562   0.932 -0.2056  0.0421 -0.0047
  699W        W 4443   3.828   3.608  11.776  0.0730 -0.1362  0.2784
  700W        W 4444   7.859   1.138   1.022  0.0047  0.2406  0.1571
  701W        W 4445   4.752   7.401  10.353 -0.0824  0.1817 -0.1608
  702W        W 4446   7.549   7.035   0.628  0.1149  0.3292 -0.3153
  703W        W 4447   4.896   4.545  10.580  0.1321 -0.2594  0.3626
  704W        W 4448   3.002   1.836   9.399  0.0041 -0.1014 -0.1514
  705W        W 4449   4.686   1.787   0.220  0.2751 -0.1350  0.2135
  706W        W 4450   4.966   3.585   2.776 -0.0140  0.0211  0.0638
  707W        W 4451   2.272   4.036   9.643  0.3598  0.2765 -0.0450
  708W        W 4452   6.064   7.190   0.981  0.1972 -0.0547  0.0307
  709W        W 4453   4.183   0.748   9.608 -0.0590 -0.1580  0.1276
  710W        W 4454   7.769   6.734   0.017  0.0395 -0.0021 -0.0843
  711W        W 4455   1.634   6.288   3.465  0.0449  0.0902  0.1140
  712W        W 4456   3.274   4.154   3.268 -0.1004  0.0727  0.3467
  713W        W 4457   6.316   9.116   2.754  0.0682 -0.0510  0.1243
  714W        W 4458   9.412   7.701   2.581  0.1096 -0.1280  0.2150
  715W        W 4459   0.799   1.518   3.375 -0.1498 -0.2655  0.2695
  716W        W 4460   7.124   9.484   0.247  0.2512  0.1890 -0.0124
  717W        W 4461   8.858   0.029   2.950  0.2452  0.1538  0.0881
  718W        W 4462   1.510   3.809  10.171 -0.1742  0.0689 -0.2446
  719W        W 4463   4.949   6.120   0.930 -0.0480 -0.2999 -0.0631
  720W        W 4464   4.666   8.340  10.374  0.2384  0.1928  0.1008
  721W        W 4465   8.010   1.808   3.273  0.1576  0.0721 -0.1747
  722W        W 4466   4.226   7.035   2.535 -0.1333  0.1063  0.1857
  723W        W 4467   0.666   9.439   1.697 -0.0656  0.0865 -0.0213
  724W        W 4468   9.111   5.308   1.732 -0.1246 -0.0514 -0.1299
  725W        W 4469   0.021   4.129  11.115 -0.0131  0.1189 -0.1232
  726W        W 4470   8.659   5.924   1.544 -0.1171  0.0670 -0.2356
  727W        W 4471   2.556   2.040   0.187  0.0820  0.3294  0.1848
  728W        W 4472   5.052   2.949   9.639  0.2845 -0.0150  0.2865
  729W        W 4473   1.438   6.835  10.232  0.1710 -0.1007 -0.0618
  730W        W 4474   3.508   7.616   2.415 -0.1005 -0.1319  0.1886
  731W        W 4475   9.882   0.867  11.369  0.2178  0.2047 -0.3946
  732W        W 4476   6.458   8.692  11.599 -0.1502  0.0850 -0.0738
  733W        W 4477   4.167   2.948   0.649 -0.0832  0.0077  0.0694
  734W        W 4478   0.508   0.619   1.076  0.2435 -0.3672 -0.2271
  735W        W 4479   5.485   1.425   9.414 -0.0367 -0.1257 -0.1279
  736W        W 4480   3.321   3.664  12.720  0.0650 -0.0466 -0.1565
  737W        W 4481   3.727   6.869   1.811 -0.1947 -0.0560 -0.2733
  738W        W 4482   1.022   2.605  12.411 -0.1426 -0.0722 -0.2194
  739W        W 4483   6.676   0.864   2.403 -0.0472  0.1144  0.2615
  740W        W 4484   6.831   1.777   2.491 -0.1153 -0.0122 -0.1130
  741W        W 4485   9.793   9.236   9.480  0.0350 -0.0201 -0.0042
  742W        W 4486   2.620   6.749   0.522 -0.2506 -0.0098  0.5293
  743W        W 4487   6.060   1.141   1.387 -0.0736  0.2028 -0.2742
  744W        W 4488   4.627   7.023   1.344  0.1549  0.1953  0.1724
  745W        W 4489   7.063   9.052   1.393  0.0161 -0.2088  0.4322
  746W        W 4490   3.157   9.452   9.421  0.0491  0.0919  0.0941
  747W        W 4491   2.054   7.729   1.969 -0.2485 -0.2241  0.0483
  748W        W 4492   7.633   9.289   1.321 -0.0565 -0.0745  0.0703
  749W        W 4493   1.488   3.500   9.824  0.0700 -0.1730  0.3178
  750W        W 4494   7.088   7.003   0.858 -0.3355  0.0572  0.0534
  751W        W 4495   4.867   8.247   9.844 -0.0734 -0.2324  0.1075
  752W        W 4496   0.017   2.440  11.328 -0.2106 -0.0126 -0.0402
  753W        W 4497   4.423   7.095  10.197 -0.0928  0.0994 -0.2120
  754W        W 4498   4.313   0.555   0.258  0.2467  0.0515  0.2768
  755W        W 4499   3.619   8.044   9.549  0.0292  0.2636  0.1883
  756W        W 4500   6.339   0.976   0.396 -0.0825  0.1584 -0.3762
  757W        W 4501   5.571   4.506   9.091 -0.1737 -0.0757 -0.1217
  758W        W 4502   8.229   7.519   9.444 -0.0337 -0.1181  0.1183
  759W        W 4503   5.722   4.875   2.472  0.0055  0.2221 -0.1513
  760W        W 4504   0.077   5.864   3.240 -0.3566  0.2155  0.0101
  761W        W 4505   1.818   6.545   3.121 -0.1373 -0.2845  0.1611
  762W        W 4506   9.271   2.654   2.902 -0.3023  0.0618 -0.2717
  763W        W 4507   4.407   7.189   0.464 -0.0518 -0.1259 -0.3284
  764W        W 4508   1.669   0.234   3.900 -0.4043  0.3145  0.1337
  765W        W 4509   3.056   9.586   3.300  0.3066  0.0284  0.1629
  766W        W 4510   0.675   9.266   0.212 -0.0592  0.0716  0.0225
  767W        W 4511   5.209   9.353  10.534  0.0524  0.0011  0.1908
  768W        W 4512   1.775   9.746   1.609 -0.2573  0.0103  0.0740
  769W        W 4513   3.012   1.282  10.270  0.1713  0.2478  0.0485
  770W        W 4514   4.197   5.577   0.103 -0.2701  0.0650  0.1155
  771W        W 4515   1.107   8.676   3.437 -0.0880  0.2066 -0.1777
  772W        W 4516   2.277   8.740  10.662  0.0379 -0.0366 -0.1160
  773W        W 4517   6.437   5.251  10.160 -0.3472  0.2563  0.1678
  774W        W 4518   6.034   6.170   9.291 -0.2027 -0.0574  0.2595
  775W        W 4519   1.016   3.522   3.715  0.0878 -0.0182 -0.4274
  776W        W 4520   4.907   2.938   0.438 -0.1745 -0.0628  0.0949
  777W        W 4521   6.198   1.358   5.389 -0.0858  0.3993 -0.0845
  778W        W 4522   7.217   3.877   4.816 -0.1778  0.2118  0.1705
  779W        W 4523   8.505   6.730  10.371  0.1124  0.0006  0.2115
  780W        W 4524   6.001   4.619  12.186  0.0716 -0.0779  0.0698
  781W        W 4525   4.779   8.620  10.802  0.1758 -0.1221 -0.1638
  782W        W 4526   3.217   5.584   9.853 -0.0094 -0.0605 -0.0320
  783W        W 4527   4.575   7.596   0.760  0.1099  0.0599 -0.2884
  784W        W 4528   7.311   4.485   8.581 -0.0257 -0.4793 -0.1159
  785W        W 4529   8.164   2.407  11.972  0.1144  0.0600 -0.1702
  786W        W 4530   7.130   8.592   2.948  0.1702  0.0372 -0.2161
  787W        W 4531   1.081   6.526   1.769 -0.0182 -0.0455 -0.2688
  788W        W 4532   2.542   4.738   9.230  0.0235  0.0003  0.0417
  789W        W 4533   8.816   1.497   0.210  0.1800 -0.1462  0.0506
  790W        W 4534   7.396   4.283   9.392 -0.2880  0.0971  0.1012
  791W        W 4535   3.879   7.306   8.974 -0.3257 -0.1245 -0.0674
  792W        W 4536   2.360   5.192   1.299  0.1395  0.0359  0.0938
  793W        W 4537   0.014   1.563   2.710  0.0785 -0.0936  0.1921
  794W        W 4538   4.185   1.227  12.270  0.1714 -0.0524  0.1593
  795W        W 4539   0.351   2.200   1.339 -0.1026 -0.0608  0.2839
  796W        W 4540   2.056   2.511   0.397 -0.0154 -0.2588 -0.3281
  797W        W 4541   3.937   6.110   1.843  0.1409  0.1382 -0.0197
  798W        W 4542   9.420   7.023   3.159 -0.2868  0.1435 -0.2259
  799W        W 4543   3.880   1.519   5.391 -0.2693  0.0247 -0.3148
  800W        W 4544   4.226   7.468   9.351 -0.2282  0.0187  0.0947
  801W        W 4545   4.826   5.815  11.782 -0.1372 -0.2771  0.2673
  802W        W 4546   2.476   7.153   3.113 -0.0003  0.2298  0.1237
  803W        W 4547   5.726   2.858   1.759  0.1268  0.0395 -0.2695
  804W        W 4548   7.421   2.860   8.628 -0.2228 -0.2159  0.1317
  805W        W 4549   5.523   4.754   1.689 -0.0186  0.0567 -0.1859
  806W        W 4550   9.253   6.908   1.337 -0.2092  0.1274  0.1035
  807W        W 4551   9.236   3.968   0.516  0.0005  0.0384 -0.0403
  808W        W 4552   5.867   2.945   5.125  0.1234 -0.1320  0.0891
  809W        W 4553   1.523   6.167  12.404  0.2164 -0.0525 -0.0172
  810W        W 4554   8.420   4.209   1.455  0.0131  0.1847  0.1272
  811W        W 4555   2.647   2.729  10.821  0.1117 -0.0564  0.1843
  812W        W 4556   9.779   7.730   1.722  0.0520 -0.0946  0.1581
  813W        W 4557   8.574   5.556   1.208 -0.1269  0.1504  0.5245
  814W        W 4558   1.426   7.228  10.522 -0.1148  0.1070 -0.0703
  815W        W 4559   3.551   3.739   3.138 -0.4274  0.1596  0.0667
  816W        W 4560   0.607   6.284  11.006 -0.0668 -0.1162 -0.4463
  817W        W 4561   5.981   1.369  10.638 -0.0881  0.0072  0.0064
  818W        W 4562   7.600   9.423   2.931 -0.2662  0.0200  0.0170
  819W        W 4563   8.843   6.347   2.669  0.2949 -0.2301  0.0434
  820W        W 4564   3.851   2.439   9.089 -0.1154 -0.0421  0.0551
  821W        W 4565   2.442   3.646  11.422 -0.2813  0.1172 -0.3922
  822W        W 4566   2.698   4.291   2.416 -0.1574  0.1645  0.1239
  823W        W 4567   7.773   7.225   2.805  0.1793  0.2725  0.2683
  824W        W 4568   3.629   1.298  10.328  0.2628  0.0901  0.1466
  825W        W 4569   9.513   9.693  10.850 -0.1817 -0.0506 -0.0083
  826W        W 4570   3.298   5.285   1.489  0.0184 -0.3123 -0.0167
  827W        W 4571   1.176   3.842   2.501  0.0798  0.2121  0.1022
  828W        W 4572   2.988   9.367   2.855  0.4794 -0.0533 -0.0094
  829W        W 4573   4.355   4.026  12.470  0.0910 -0.1619 -0.0343
  830W        W 4574   8.335   5.945   9.830  0.3205 -0.0033  0.0250
  831W        W 4575   0.551   8.652   2.720 -0.1036 -0.1590 -0.3063
  832W        W 4576   1.225   0.931   8.755 -0.1499  0.2731  0.1116
  833W        W 4577   8.285   2.533   3.154 -0.0834 -0.1186  0.0242
  834W        W 4578   1.259   7.689  10.338 -0.0979 -0.0361 -0.0545
  835W        W 4579   0.982   9.529  11.251  0.0899  0.2605  0.1657
  836W        W 4580   8.441   3.381  12.836  0.0652 -0.1494 -0.1648
  837W        W 4581   3.277   9.280   0.361  0.1846  0.2114 -0.0274
  838W        W 4582   2.772   7.489   9.075  0.1113  0.2701  0.1500
  839W        W 4583   6.034   1.484  12.488  0.0631  0.1291  0.2485
  840W        W 4584   8.443   0.432   1.256 -0.1414 -0.1970  0.0464
  841W        W 4585   1.413   8.306   1.490 -0.1370 -0.2694 -0.0098
  842W        W 4586   1.239   5.971  10.051 -0.0510  0.1451 -0.1133
  843W        W 4587   4.287   8.848   0.513  0.0856 -0.3278 -0.1044
  844W        W 4588   4.149   4.106   3.478 -0.2745 -0.1700 -0.0947
  845W        W 4589   1.465   1.522  10.919 -0.0435 -0.1198 -0.1622
  846W        W 4590   4.375   2.806  10.179 -0.2729  0.2953  0.1027
  847W        W 4591   0.168   6.585  11.007 -0.1277 -0.1632 -0.0800
  848W        W 4592   6.927   7.463  10.503 -0.2181 -0.0014 -0.0390
  849W        W 4593   5.743   9.811   9.708  0.2757  0.2001 -0.0650
  850W        W 4594   1.681   2.833   1.943  0.0193 -0.1712 -0.0855
  851W        W 4595   2.290   7.494   1.539 -0.0624  0.0314 -0.0701
  852W        W 4596   3.579   7.099  12.239  0.0619  0.2521 -0.1506
  853W        W 4597   0.845   9.791   0.801  0.1858 -0.0473  0.1951
  854W        W 4598   5.550   8.100   2.223 -0.1130  0.0948 -0.4094
  855W        W 4599   6.236   5.116   1.962  0.0940  0.0934 -0.2641
  856W        W 4600   6.701   4.944   2.840  0.0271  0.1300 -0.2353
  857W        W 4601   7.653   7.604   9.316  0.0980  0.0637  0.0948
  858W        W 4602   5.941   3.007  12.791  0.2509  0.0507  0.0677
  859W        W 4603   8.980   1.072   3.885  0.0773  0.0130  0.0290
  860W        W 4604   1.219   1.901  10.035  0.1447 -0.0708 -0.4754
  861W        W 4605   9.516   9.358  11.955  0.0520 -0.0289 -0.0267
  862W        W 4606   7.170   3.290   2.469  0.1304 -0.1211  0.0500
  863W        W 4607   0.493   7.833   0.026  0.0410  0.1276 -0.0053
  864W        W 4608   6.684   8.222   0.573  0.1201 -0.0868 -0.3489
  865W        W 4609   8.852   5.582  11.060  0.0946 -0.1652  0.1332
  866W        W 4610   6.536   1.400  11.439  0.2966 -0.0911 -0.0179
  867W        W 4611   3.367   8.965   8.130 -0.0833 -0.0646  0.0094
  868W        W 4612   7.258   0.995   3.745 -0.0032 -0.0659 -0.0149
  869W        W 4613   6.526   2.645   4.467  0.1217 -0.0444  0.2131
  870W        W 4614   3.241   7.347  10.023  0.1770 -0.0942 -0.3736
  871W        W 4615   3.765   9.248   2.730  0.0389 -0.0338  0.2632
  872W        W 4616   2.059   7.546  12.045  0.1102  0.1567 -0.3444
  873W        W 4617   3.123   8.517   9.048  0.1423 -0.2555  0.1971
  874W        W 4618   4.141   7.478  11.478 -0.2322  0.1720  0.0394
  875W        W 4619   3.145   7.939   8.842  0.0476  0.1123 -0.0200
  876W        W 4620   7.854   5.819  12.795 -0.0263 -0.0436  0.1508
  877W        W 4621   9.504   4.173  12.072  0.1080 -0.0106 -0.2934
  878W        W 4622   3.970   7.954   1.204 -0.2793  0.1830  0.2855
  879W        W 4623   3.428   5.773  10.889  0.1909 -0.1116 -0.0182
  880W        W 4624   0.858   3.586  10.582 -0.0280  0.3453  0.3951
  881W        W 4625   9.592   3.183   8.817  0.2581 -0.0456 -0.3640
  882W        W 4626   6.603   2.841   9.216 -0.1881 -0.0955 -0.1218
  883W        W 4627   4.149   7.860   0.719 -0.0343  0.0442  0.0782
  884W        W 4628   6.831   6.794  10.190 -0.0127 -0.1670  0.0694
  885W        W 4629   3.823   0.044  10.480 -0.3342  0.1925 -0.0332
  886W        W 4630   3.068   7.992   1.118 -0.3475 -0.0257 -0.0407
  887W        W 4631   9.143   0.321   8.887  0.2140  0.2625  0.1564
  888W        W 4632   2.912   2.104   0.900  0.1871  0.0173  0.1117
  889W        W 4633   6.503   4.866   0.553 -0.1507  0.2296 -0.0121
  890W        W 4634   2.933   6.169   9.836 -0.0354 -0.0036  0.0543
  891W        W 4635   2.274   9.131   1.271  0.2036 -0.0640 -0.0918
  892W        W 4636   4.065   8.936   8.863 -0.0477  0.1496 -0.0333
  893W        W 4637   7.816   8.930  11.453  0.0345 -0.0098  0.1976
  894W        W 4638   7.880   7.069   3.296 -0.1744  0.3791  0.3534
  895W        W 4639   4.881   7.872  12.101 -0.2855  0.2763  0.2189
  896W        W 4640   1.164   5.896   9.183 -0.0104 -0.2883  0.4068
  897W        W 4641   3.066   0.436   9.820 -0.0963  0.0146 -0.2560
  898W        W 4642   2.009   4.108  12.470  0.0673  0.4488 -0.2283
  899W        W 4643   1.492   1.746   8.927 -0.2030  0.0768 -0.2880
  900W        W 4644   4.514   8.331   9.364  0.0693  0.0220 -0.1078
  901W        W 4645   0.959   7.551  12.652  0.0091 -0.0642  0.0029
  902W        W 4646   6.238   9.160   9.802 -0.0297  0.2579 -0.2278
  903W        W 4647   1.072   6.428  10.818  0.2708  0.2561  0.2223
  904W        W 4648   6.767   3.562   3.010 -0.2525 -0.0658 -0.0379
  905W        W 4649   6.612   2.272  10.451  0.1224 -0.0549 -0.0931
  906W        W 4650   1.126   1.414   0.768  0.0036  0.1206  0.3303
  907W        W 4651   0.956   2.628   7.959 -0.3609  0.1785 -0.3312
  908W        W 4652   0.510   9.164   8.924 -0.0564 -0.0885  0.2161
  909W        W 4653   0.530   3.804  11.473  0.2836 -0.1181 -0.1150
  910W        W 4654   4.964   0.561  12.209 -0.2938  0.3291 -0.0447
  911W        W 4655   7.887   3.818   9.447 -0.0935 -0.2632  0.0533
  912W        W 4656   6.666   6.355  11.183 -0.2387 -0.1438  0.1909
  913W        W 4657   7.139   9.346   3.105 -0.1174 -0.1189 -0.2725
  914W        W 4658   9.880   0.304  11.638 -0.0507  0.1770  0.0905
  915W        W 4659   9.189   6.495   0.496 -0.0898  0.2867 -0.2555
  916W        W 4660   5.957   8.562   1.245  0.2218 -0.1629  0.0564
  917W        W 4661   3.790   5.038   8.532 -0.2358 -0.3017  0.0798
  918W        W 4662   0.541   0.153   1.152  0.0194 -0.0142  0.2301
  919W        W 4663   2.362   1.977   8.832 -0.1771  0.3634  0.2591
  920W        W 4664   1.471   9.796   2.272  0.1314  0.2041 -0.2033
  921W        W 4665   1.111   6.034  12.196 -0.0363  0.3568  0.0057
  922W        W 4666   4.959   2.465  11.242 -0.0431 -0.0575 -0.0690
  923W        W 4667   3.306   3.829   0.334 -0.1422 -0.1447 -0.2689
  924W        W 4668   3.232   9.380   3.744  0.1431 -0.1064 -0.2394
  925W        W 4669   5.758   2.075   3.709 -0.3111  0.1519 -0.0744
  926W        W 4670   2.135   0.340  10.101  0.1991  0.1801 -0.1271
  927W        W 4671   5.884   3.907   9.803  0.2809 -0.0627 -0.0147
  928W        W 4672   9.867   0.797   8.367 -0.1850  0.1289  0.2232
  929W        W 4673   7.141   6.763   3.032 -0.1962 -0.2742 -0.2579
  930W        W 4674   7.622   5.263   3.056  0.1429 -0.2116 -0.2870
  931W        W 4675   0.866   8.203  11.711  0.1332 -0.1329  0.5135
  932W        W 4676   8.565   0.472   2.880 -0.1665 -0.0914 -0.1706
  933W        W 4677   5.900   0.754   2.950  0.4015  0.0347  0.2026
  934W        W 4678   8.399   9.413  12.213 -0.0180 -0.1887 -0.0229
  935W        W 4679   9.093   9.421  11.669  0.1009  0.2156  0.2477
  936W        W 4680   8.593   3.790  11.325 -0.0205  0.2179  0.3030
  937W        W 4681   8.303   9.906  12.398 -0.0617  0.1446 -0.1087
  938W        W 4682   7.329   6.196  12.378 -0.2547  0.1225 -0.0421
  939W        W 4683   5.664   3.110  10.691 -0.4971  0.2318  0.1885
  940W        W 4684   3.044   6.846   0.345  0.0170 -0.1571  0.1593
  941W        W 4685   3.842   6.822  12.582 -0.1013 -0.0720  0.0908
  942W        W 4686   4.025   2.737  10.881 -0.3151  0.0982  0.2449
  943W        W 4687   4.124   4.138   1.223  0.3110 -0.1131  0.2376
  944W        W 4688   8.481   6.460   1.621 -0.1010  0.0530  0.0588
  945W        W 4689   0.258   9.905   0.436  0.2379 -0.0590 -0.0075
  946W        W 4690   1.635   7.848   9.272 -0.1337 -0.1926  0.1549
  947W        W 4691   9.227   3.786   2.265 -0.1230 -0.1850  0.0008
  948W        W 4692   7.329   3.516   7.926  0.2533 -0.2667  0.0926
  949W        W 4693   7.205   3.387   1.892 -0.1464 -0.1041 -0.2083
  950W        W 4694   5.332   6.016  11.043 -0.1002 -0.1349 -0.1215
  951W        W 4695   7.881   1.679  11.219 -0.2581  0.1350 -0.1069
  952W        W 4696   8.185   9.231   9.775  0.1128  0.2525 -0.1443
  953W        W 4697   2.258   5.456   2.292  0.0193  0.3179 -0.0615
  954W        W 4698   3.714   5.716  11.283  0.2344  0.0883  0.2595
  955W        W 4699   8.824   3.868   2.605  0.3027  0.2337 -0.1170
  956W        W 4700   6.545   7.166  12.598  0.0697  0.0381 -0.0119
  957W        W 4701   7.753   3.376  11.761 -0.2932  0.1032  0.0078
  958W        W 4702   1.114   7.395   1.776 -0.1150  0.5017 -0.3719
  959W        W 4703   6.055   7.176  10.191  0.0868 -0.2885 -0.1437
  960W        W 4704   4.964   8.666  10.107  0.0565 -0.1002 -0.0628
  961W        W 4705   2.388   6.449   1.940  0.1019 -0.1264  0.0617
  962W        W 4706   3.249   3.349   0.472  0.1608  0.0841  0.3510
  963W        W 4707   1.316   3.628  11.597  0.3050 -0.3563 -0.1728
  964W        W 4708   2.879   5.625   9.554 -0.0795  0.1748  0.0672
  965W        W 4709   7.779   4.283  11.755 -0.1142 -0.0427  0.2274
  966W        W 4710   9.794   2.526   2.977 -0.1564 -0.1267 -0.3226
  967W        W 4711   9.646   4.608   1.316  0.1740 -0.2561  0.1753
  968W        W 4712   8.629   2.247   0.056  0.1351 -0.1957  0.0574
  969W        W 4713   1.890   7.579   9.616  0.1956  0.1846  0.0355
  970W        W 4714   8.223   0.183  12.007 -0.2051  0.4419  0.1204
  971W        W 4715   2.169   5.261   0.674  0.0339  0.0345  0.1125
  972W        W 4716   1.127   9.638   2.580 -0.2179  0.2153  0.1441
  973W        W 4717   5.497   9.277  10.086  0.2951  0.3737  0.0324
  974W        W 4718   6.988   4.134   2.526 -0.0977  0.0205 -0.1299
  975W        W 4719   6.337   1.381   4.866 -0.1422  0.0565 -0.0679
  976W        W 4720   7.354   5.750   1.604  0.0963  0.0009 -0.3185
  977W        W 4721   1.666   6.284   9.953  0.0516 -0.5281 -0.1669
  978W        W 4722   4.420   0.165   0.610  0.2046 -0.1071  0.2508
  979W        W 4723   9.510   6.004   1.143 -0.1125 -0.1357 -0.1348
  980W        W 4724   1.230   4.093   0.560  0.0101  0.0855 -0.1287
  981W        W 4725   2.034   0.919   1.941 -0.2683 -0.1317  0.0208
  982W        W 4726   5.744   9.259  10.525  0.0329 -0.0135 -0.1091
  983W        W 4727   5.802   6.786   1.070  0.3415 -0.1145  0.1643
  984W        W 4728   3.624   5.225  10.733 -0.0810 -0.2785  0.1766
  985W        W 4729   4.744   4.789   9.597 -0.0575 -0.1506  0.0083
  986W        W 4730   6.251   1.690   1.206 -0.2440 -0.1448  0.1415
  987W        W 4731   2.132   3.545   2.950 -0.0609 -0.0987 -0.1825
  988W        W 4732   2.078   3.226   0.731  0.2829  0.1217  0.0619
  989W        W 4733   9.301   2.966   1.738  0.1296  0.0539 -0.0019
  990W        W 4734   1.687   2.520   1.486  0.1750 -0.1440  0.0515
  991W        W 4735   5.699   3.845   3.400 -0.0465 -0.1109 -0.1350
  992W        W 4736   1.031   7.476  12.194  0.2347  0.1390 -0.1472
  993W        W 4737   3.326   3.654   0.938  0.0813 -0.1863 -0.0640
  994W        W 4738   5.049   0.745   0.826  0.1362  0.0361 -0.0383
  995W        W 4739   9.209   1.247   0.406 -0.2083  0.1310  0.2218
  996W        W 4740   8.824   3.047   0.008 -0.0874  0.4087  0.0929
  997W        W 4741   8.477   7.625   2.542  0.0017  0.0964 -0.2488
  998W        W 4742   5.232   5.093   2.483  0.1987  0.3335  0.2105
  999W        W 4743   9.129   7.762   9.605 -0.0160  0.2446 -0.1543
 1000W        W 4744   2.943   4.285   8.220 -0.0212  0.2120 -0.0430
 1001W        W 4745   1.905   6.676   3.585  0.1545  0.1606 -0.3211
 1002W        W 4746   0.241   3.535   9.930  0.0849 -0.2371 -0.1716
 1003W        W 4747   4.312   7.860   1.710 -0.2569  0.0608 -0.0344
 1004W        W 4748   5.530   8.899  11.638  0.1047 -0.1515  0.3066
 1005W        W 4749   8.449   8.602  12.180  0.1634  0.2385  0.2076
 1006W        W 4750   7.837   6.691   0.812  0.2048 -0.1718 -0.1555
 1007W        W 4751   0.039   3.941  10.132  0.1598 -0.1312 -0.0701
 1008W        W 4752   7.461   6.629  11.717 -0.2746 -0.0438  0.0831
 1009W        W 4753   6.173   3.300   4.154 -0.2675 -0.1610 -0.0534
 1010W        W 4754   4.176   0.616  12.578 -0.0359  0.2338  0.1548
 1011W        W 4755   1.943   4.164   3.628  0.1275  0.0375  0.2126
 1012W        W 4756   4.654   1.573  10.692 -0.1406  0.1329  0.3931
 1013W        W 4757   8.428   5.009  11.785  0.2277  0.0143  0.0682
 1014W        W 4758   8.468   0.505  11.164  0.1056  0.0136  0.2994
 1015W        W 4759   6.251   2.243   2.782 -0.0800 -0.1859 -0.0022
 1016W        W 4760   2.418   1.109   2.280  0.1739 -0.3322  0.0692
 1017W        W 4761   3.666   5.080   4.843 -0.1246  0.2581  0.0115
 1018W        W 4762   4.722   0.262   0.184  0.2679 -0.2940  0.0530
 1019W        W 4763   0.724   0.523   2.044 -0.2806 -0.0261  0.0168
 1020W        W 4764   7.051   1.073   1.171  0.0380 -0.1022  0.3017
 1021W        W 4765   2.463   5.572  11.842 -0.0832 -0.1958  0.1329
 1022W        W 4766   3.045   4.099  12.645 -0.1288  0.0521 -0.1075
 1023W        W 4767   7.170   9.191  10.668 -0.0355  0.2959  0.2152
 1024W        W 4768   3.866   2.188  10.147 -0.0092  0.1042 -0.0619
 1025W        W 4769   5.119   8.452   0.694  0.1339  0.0364  0.1254
 1026W        W 4770   7.809   0.712   0.627 -0.0450  0.0843  0.1203
 1027W        W 4771   9.866   3.960   9.262 -0.3120  0.0702 -0.1014
 1028W        W 4772   8.963   0.528  11.156  0.2221 -0.1338 -0.4147
 1029W        W 4773   6.636   3.893  10.403 -0.1626 -0.2649 -0.1506
 1030W        W 4774   3.432   2.535   9.455 -0.2678 -0.0796 -0.2916
 1031W        W 4775   6.227   4.488   2.275 -0.1091  0.0738  0.1924
 1032W        W 4776   8.583   2.706  12.066 -0.1659  0.0580 -0.1179
 1033W        W 4777   7.027   7.632   2.451  0.1319 -0.0047 -0.0459
 1034W        W 4778   3.483   3.768   4.482 -0.1516  0.1870 -0.1586
 1035W        W 4779   2.224   2.675   9.416 -0.1213  0.1296 -0.0360
 1036W        W 4780   4.192   4.750   8.667 -0.3746 -0.1623 -0.0145
 1037W        W 4781   4.661   5.734  12.277  0.1775  0.2564 -0.1888
 1038W        W 4782   5.884   2.963  11.257  0.0557 -0.3716 -0.1679
 1039W        W 4783   4.865   1.243   0.679 -0.2344 -0.0177  0.1706
 1040W        W 4784   3.465   7.277   4.306  0.1236  0.0520 -0.0998
 1041W        W 4785   3.472   2.258   3.333 -0.1068  0.0970  0.2172
 1042W        W 4786   0.208   9.387   3.304 -0.0707 -0.1582  0.2098
 1043W        W 4787   9.264   5.782  12.104 -0.0224 -0.0636 -0.1922
 1044W        W 4788   5.915   8.922   2.456 -0.0335 -0.0870  0.2203
 1045W        W 4789   7.161   2.843   1.956  0.0819  0.1860 -0.0487
 1046W        W 4790   1.790   9.244   4.833  0.0326 -0.1865  0.0900
 1047W        W 4791   2.297   1.257   3.162  0.4544 -0.2278  0.0970
 1048W        W 4792   4.040   2.701   3.005 -0.3279 -0.1426 -0.1178
 1049W        W 4793   0.633   5.677   4.176  0.0383  0.0719 -0.0791
 1050W        W 4794   0.236   9.047  11.403 -0.2816 -0.1169  0.2162
 1051W        W 4795   1.743   8.463  11.779  0.0606 -0.2087  0.0088
 1052W        W 4796   9.567   0.360   3.155 -0.0633  0.1746 -0.0357
 1053W        W 4797   5.929   3.627   3.843  0.4943  0.0675  0.1165
 1054W        W 4798   5.310   2.590   1.142 -0.0148  0.0526 -0.1316
 1055W        W 4799   8.819   2.002   4.881  0.1335 -0.1246  0.1925
 1056W        W 4800   3.741   2.284  10.803 -0.0928 -0.3450 -0.1107
 1057W        W 4801   2.124   0.060  11.498  0.0300 -0.2382 -0.1992
 1058W        W 4802   8.185   7.394  11.672  0.1534  0.0364 -0.1013
 1059W        W 4803   8.657   3.846   0.134 -0.0650  0.0285 -0.1153
 1060W        W 4804   7.869   0.900  11.763  0.2643  0.1736  0.0044
 1061W        W 4805   5.932   6.343  11.758  0.2283 -0.2959  0.1395
 1062W        W 4806   4.791   8.666   4.454 -0.0189 -0.2033  0.1924
 1063W        W 4807   7.620   5.421   1.302  0.0456  0.0487  0.2248
 1064W        W 4808   8.262   7.093   2.841  0.0693  0.0859  0.2169
 1065W        W 4809   1.763   1.117   2.328 -0.1306 -0.0817  0.0846
 1066W        W 4810   3.940   6.437   3.220  0.1975  0.1071 -0.3157
 1067W        W 4811   1.974   6.729   9.964  0.0824 -0.0103  0.1275
 1068W        W 4812   1.122   0.443   1.090 -0.2149  0.1802 -0.2592
 1069W        W 4813   4.868   3.921   4.221  0.1214 -0.0626  0.0325
 1070W        W 4814   6.198   8.956   9.388  0.1501 -0.0375 -0.0582
 1071W        W 4815   9.161   9.055   2.791 -0.1386 -0.1271 -0.0843
 1072W        W 4816   1.516   8.360   3.331  0.0290 -0.1683 -0.1139
 1073W        W 4817   2.447   2.576   3.224 -0.1467 -0.2812 -0.0749
 1074W        W 4818   4.206   6.721  10.566  0.1776  0.0932 -0.3130
 1075W        W 4819   5.601   6.754   1.613 -0.3578  0.0700 -0.2935
 1076W        W 4820   7.004   0.276   0.786  0.1241  0.4585 -0.0533
 1077W        W 4821   5.669   2.418   3.198  0.0381  0.1244  0.3768
 1078W        W 4822   7.102   6.333   9.417 -0.3117 -0.1703 -0.2931
 1079W        W 4823   6.984   2.292  11.872  0.1060 -0.0819  0.0793
 1080W        W 4824   7.370   0.564   9.195  0.1074 -0.0269  0.2478
 1081W        W 4825   5.256   7.293   9.676 -0.1154 -0.2453  0.0147
 1082W        W 4826   3.099   6.521   2.521 -0.2478  0.1157  0.3770
 1083W        W 4827   6.660   1.844   9.485 -0.0920  0.2658 -0.3651
 1084W        W 4828   2.018   9.179   7.943 -0.3596 -0.1614 -0.2216
 1085W        W 4829   8.044   5.771   3.222 -0.1330 -0.0954 -0.0251
 1086W        W 4830   5.513   3.024   1.359 -0.1576 -0.0383  0.0343
 1087W        W 4831   3.008   5.125   9.686  0.0155 -0.1407 -0.1422
 1088W        W 4832   0.829   5.059  10.627  0.2858  0.3579 -0.2796
 1089W        W 4833   7.512   6.054  10.946 -0.1066  0.0206  0.3130
 1090W        W 4834   3.276   0.242  11.492  0.0313 -0.0637  0.0278
 1091W        W 4835   6.627   4.968  11.940  0.0488 -0.1391  0.2558
 1092W        W 4836   4.747   1.743   1.649 -0.3693 -0.0109 -0.2924
 1093W        W 4837   3.364   2.866  12.074 -0.2006  0.0115 -0.1357
 1094W        W 4838   9.671   6.494   0.899 -0.1822  0.0528 -0.1222
 1095W        W 4839   3.368   0.892  10.617  0.0292  0.1743 -0.0189
 1096W        W 4840   3.243   6.697   3.399  0.3955  0.0900  0.0891
 1097W        W 4841   0.981   1.650  11.916  0.0772  0.0052  0.0524
 1098W        W 4842   6.741   9.910  11.766  0.0875 -0.1292 -0.2542
 1099W        W 4843   2.481   9.289   2.717  0.0201 -0.2216 -0.1431
 1100W        W 4844   7.903   5.108   1.725 -0.1332  0.4564  0.3801
 1101W        W 4845   9.944   4.931   3.253 -0.1288 -0.0595  0.3394
 1102W        W 4846   0.962   8.034  11.245 -0.0711  0.3125  0.0543
 1103W        W 4847   0.269   8.866   3.306  0.2484 -0.2702 -0.0045
 1104W        W 4848   2.076   8.910   0.822 -0.0005 -0.1423  0.2508
 1105W        W 4849   1.633   1.808   3.856 -0.0369 -0.1223 -0.1152
 1106W        W 4850   8.142   5.309  11.497  0.1296  0.1422 -0.0566
 1107W        W 4851   5.950   1.389   0.960  0.4508  0.0158 -0.3803
 1108W        W 4852   1.199   1.423  11.515  0.1954 -0.0819 -0.1408
 1109W        W 4853   8.513   6.296  11.714  0.1005 -0.1334  0.3747
 1110W        W 4854   1.884   3.207   2.716  0.0068 -0.0729  0.2542
 1111W        W 4855   8.999   1.951   3.587  0.0187 -0.0483  0.0985
 1112W        W 4856   0.830   5.052   3.038  0.1213 -0.1370 -0.1914
 1113W        W 4857   5.442   6.316   1.237 -0.0318 -0.0066 -0.1369
 1114W        W 4858   0.418   0.855  10.365  0.3017 -0.1086  0.1246
 1115W        W 4859   7.361   1.242   9.914  0.0395 -0.1144 -0.1315
 1116W        W 4860   0.104   5.435  12.429  0.0762  0.0212 -0.1290
 1117W        W 4861   1.027   7.480   7.759  0.1393 -0.1406 -0.1426
 1118W        W 4862   2.736   4.780  12.021 -0.2847  0.3579 -0.0617
 1119W        W 4863   3.115   6.796  12.182  0.0992 -0.0956  0.1308
 1120W        W 4864   6.867   0.050  10.552  0.1823 -0.1179 -0.0079
 1121W        W 4865   8.785   4.719  10.037 -0.2328 -0.3360 -0.0357
 1122W        W 4866   7.259   4.270  11.022  0.0762 -0.0954 -0.4125
 1123W        W 4867   6.501   2.616   8.683  0.0093  0.1073 -0.1395
 1124W        W 4868   0.014   4.509   9.238  0.0253 -0.1386 -0.3308
 1125W        W 4869   5.392   8.615   1.205  0.0928 -0.1601  0.0411
 1126W        W 4870   8.522   8.772   1.707  0.3182 -0.1090  0.2616
 1127W        W 4871   9.611   6.781   0.395 -0.0350  0.1767 -0.0032
 1128W        W 4872   6.189   5.196   9.651 -0.2077 -0.1510 -0.3066
 1129W        W 4873   7.861   9.410  11.524  0.0769  0.1349 -0.2123
 1130W        W 4874   2.598   3.135   4.589  0.2237  0.1186 -0.0881
 1131W        W 4875   9.529   3.767  10.139  0.1418 -0.1276 -0.0606
 1132W        W 4876   9.429   2.146   9.750  0.1654 -0.1619  0.1139
 1133W        W 4877   4.761   9.168   1.712  0.2399 -0.5930  0.0851
 1134W        W 4878   9.457   6.133   3.479 -0.1191  0.0844 -0.1911
 1135W        W 4879   4.072   7.553   0.322  0.3834 -0.1554 -0.1702
 1136W        W 4880   7.903   5.477  11.934  0.0650 -0.1140  0.2232
 1137W        W 4881   9.522   1.060   3.948  0.0902  0.1523 -0.3995
 1138W        W 4882   1.488   4.235  11.536  0.0968  0.0016 -0.0904
 1139W        W 4883   4.497   1.042   4.548  0.2576 -0.1706 -0.2869
 1140W        W 4884   5.914   9.669   0.020 -0.2048 -0.1316 -0.0105
 1141W        W 4885   2.317   6.385   8.657  0.1544 -0.2008  0.0494
 1142W        W 4886   0.741   9.539   9.235  0.0329  0.2038  0.0224
 1143W        W 4887   2.725   5.426  11.369 -0.2989 -0.0040 -0.0383
 1144W        W 4888   2.807   9.429   0.612  0.3896  0.3248  0.0477
 1145W        W 4889   6.222   3.125  11.582 -0.0745 -0.1000  0.1790
 1146W        W 4890   0.292   4.096   0.831  0.2558 -0.0006  0.0428
 1147W        W 4891   8.265   3.344  12.245 -0.1736  0.0011 -0.1920
 1148W        W 4892   6.507   7.057   1.892  0.0537  0.1597 -0.0500
 1149W        W 4893   7.835   4.445   2.898  0.1335  0.0896 -0.2541
 1150W        W 4894   7.429   8.300  11.842 -0.0270 -0.1955  0.1283
 1151W        W 4895   1.027   1.303  12.755  0.0697 -0.0916  0.0564
 1152W        W 4896   6.621   5.875  10.286  0.1325  0.1063 -0.0984
 1153W        W 4897   0.067   5.797   1.369  0.2046 -0.0335 -0.0921
 1154W        W 4898   1.210   1.378   3.650  0.2831 -0.2673  0.2119
 1155W        W 4899   6.459   1.019  12.319 -0.0878 -0.0076 -0.0188
 1156W        W 4900   4.344   4.176   4.190 -0.1190  0.1660  0.1934
 1157W        W 4901   6.496   2.324   3.239 -0.1780 -0.0114  0.0554
 1158W        W 4902   0.407   9.772   1.483 -0.0980 -0.0849 -0.2246
 1159W        W 4903   4.855   6.225   2.375  0.1127 -0.1928  0.2743
 1160W        W 4904   6.960   0.974   2.889 -0.3826  0.0797  0.1285
 1161W        W 4905   0.572   3.806  12.693  0.1362  0.1010  0.4309
 1162W        W 4906   5.376   4.499   3.418 -0.0582  0.1394  0.0489
 1163W        W 4907   3.535   0.456   4.550 -0.3267 -0.1749  0.1171
 1164W        W 4908   8.316   9.729   9.502  0.2497 -0.2619  0.1840
 1165W        W 4909   4.400   0.803  10.030  0.1535 -0.0462 -0.1446
 1166W        W 4910   0.759   1.539   3.869  0.3734 -0.0770  0.2527
 1167W        W 4911   1.407   7.769  10.827 -0.4367  0.3076 -0.0995
 1168W        W 4912   5.855   0.180   1.915  0.0428  0.0872 -0.0350
 1169W        W 4913   8.655   5.332  11.430  0.4395 -0.0017 -0.2151
 1170W        W 4914   1.099   4.402  12.477 -0.0210 -0.1893  0.1615
 1171W        W 4915   4.605   2.978   0.946 -0.3568  0.4528  0.1115
 1172W        W 4916   5.085   7.213  11.867 -0.2410 -0.0690 -0.2249
 1173W        W 4917   9.939   8.840  10.199  0.1695  0.2391 -0.3143
 1174W        W 4918   8.987   2.834   2.567 -0.0748  0.1808 -0.1185
 1175W        W 4919   5.066   9.479  12.468 -0.0709  0.1504  0.2245
 1176W        W 4920   1.474   2.362  12.532  0.1915  0.1728 -0.3708
 1177W        W 4921   7.164   6.207  11.718  0.1011 -0.3294  0.4247
 1178W        W 4922   4.660   5.251  12.197 -0.0432  0.1538 -0.1173
 1179W        W 4923   3.704   3.315   0.994  0.0141  0.0498  0.1628
 1180W        W 4924   0.459   2.511  12.148 -0.2721  0.2139 -0.0359
 1181W        W 4925   3.387   2.136  12.570  0.1231 -0.1784  0.2528
 1182W        W 4926   0.383   2.283   2.116  0.0170  0.0940  0.1956
 1183W        W 4927   9.608   6.966  10.795  0.2349 -0.1765  0.0332
 1184W        W 4928   5.116   5.840  12.614  0.2511  0.0023 -0.1136
 1185W        W 4929   3.203   7.962   2.533 -0.1522 -0.0972 -0.2280
 1186W        W 4930   1.335   0.243   2.627  0.3252  0.0436 -0.3461
 1187W        W 4931   3.348   8.491   2.605  0.2739 -0.2324 -0.0270
 1188W        W 4932   3.180   1.012   1.073 -0.0022 -0.2523 -0.0432
 1189W        W 4933   7.481   0.247   9.880 -0.2741  0.0676 -0.4821
 1190W        W 4934   3.621   0.149   2.140 -0.2945  0.3229 -0.0892
 1191W        W 4935   6.248   3.630  11.753 -0.2311 -0.0197  0.0418
 1192W        W 4936   6.472   2.345   2.350  0.1486 -0.0769  0.0179
 1193W        W 4937   0.989   1.849   8.954  0.0510 -0.0569  0.2269
 1194W        W 4938   1.711   8.974   0.368 -0.0748 -0.1405 -0.0037
 1195W        W 4939   7.483   3.777   4.095 -0.0247  0.0277 -0.1781
 1196W        W 4940   1.668   5.780   3.714  0.0956 -0.1656  0.0327
 1197W        W 4941   9.228   6.965  11.927 -0.3201  0.0892 -0.0366
 1198W        W 4942   8.361   3.529   9.326  0.0974  0.0618 -0.3694
 1199W        W 4943   5.774   0.024  11.848 -0.1797  0.1197 -0.4005
 1200W        W 4944   9.105   3.698   7.470  0.1054  0.1670  0.0153
 1201W        W 4945   3.760   0.840   0.405  0.4481  0.2817  0.2562
 1202W        W 4946   9.413   9.396  12.453 -0.1783  0.0049 -0.0064
 1203W        W 4947   4.042   8.231   3.425  0.1636  0.1478 -0.4338
 1204W        W 4948   2.388   3.132  10.962 -0.4038 -0.0817 -0.1591
 1205W        W 4949   9.540   5.330   0.075  0.1204 -0.1423 -0.3167
 1206W        W 4950   3.630   2.811   3.385 -0.1171  0.1227  0.0817
 1207W        W 4951   1.593   6.158  10.745  0.0882  0.0718  0.3844
 1208W        W 4952   5.447   5.986   0.773  0.0180 -0.0193 -0.0244
 1209W        W 4953   9.614   0.724   3.566 -0.1851  0.2084  0.0088
 1210W        W 4954   2.062   2.108  12.032  0.1631 -0.1174  0.2958
 1211W        W 4955   4.573   1.445  11.228  0.0860  0.1578  0.0901
 1212W        W 4956   6.576   9.817  10.219  0.2715 -0.3489 -0.1671
 1213W        W 4957   1.779   5.703   2.178 -0.1743 -0.0499  0.0504
 1214W        W 4958   9.918   1.415   0.069 -0.1779 -0.0701  0.1466
 1215W        W 4959   4.919   9.161  10.013 -0.2936 -0.1592 -0.2304
 1216W        W 4960   7.739   2.453  10.700  0.1843 -0.1029 -0.0201
 1217W        W 4961   4.397   7.934  10.609  0.0418 -0.0708  0.0947
 1218W        W 4962   5.186   2.865   2.527 -0.2376 -0.2875 -0.0483
 1219W        W 4963   1.497   0.259   4.348  0.0962  0.1563  0.1301
 1220W        W 4964   1.005   8.211   3.508 -0.0693 -0.0256 -0.1294
 1221W        W 4965   5.235   5.855   2.431 -0.4679 -0.2846 -0.1361
 1222W        W 4966   2.686   3.922  12.307 -0.0085  0.1334  0.2739
 1223W        W 4967   4.398   5.763   8.835 -0.0058 -0.2123  0.2463
 1224W        W 4968   3.711   1.853   3.044  0.1070 -0.1319  0.0907
 1225W        W 4969   1.411   7.999   8.833  0.2581  0.2071 -0.1734
 1226W        W 4970   5.328   3.753   9.175 -0.2749  0.0076  0.1313
 1227W        W 4971   3.050   9.774  10.822  0.0943  0.0331  0.3118
 1228W        W 4972   4.467   2.880   8.383 -0.1479 -0.0011  0.1930
 1229W        W 4973   1.966   4.374   3.099 -0.0079 -0.5432  0.0883
 1230W        W 4974   6.029   5.929   0.279 -0.1449  0.0909 -0.0100
 1231W        W 4975   7.725   1.091  10.797 -0.0791  0.0356 -0.0441
 1232W        W 4976   7.807   2.235   1.347 -0.5809  0.2942 -0.0364
 1233W        W 4977   0.139   0.044  12.281  0.1886 -0.1974  0.0524
 1234W        W 4978   4.541   3.524  12.645  0.3896  0.0802 -0.1878
 1235W        W 4979   1.942   0.046   4.241  0.1293 -0.2962  0.0635
 1236W        W 4980   7.051   3.847   3.296 -0.2612  0.0975 -0.0912
 1237W        W 4981   4.245   0.024   1.386  0.1084 -0.1614  0.2644
 1238W        W 4982   9.280   3.498   9.807 -0.1920  0.1406  0.1710
 1239W        W 4983   5.184   0.753  11.724 -0.2510  0.1225 -0.1027
 1240W        W 4984   9.551   5.534  11.084 -0.2161  0.2618 -0.0890
 1241W        W 4985   5.366   3.031   2.073  0.0602  0.1432  0.0905
 1242W        W 4986   6.559   1.260   2.133  0.1843 -0.1121 -0.2059
 1243W        W 4987   0.517   3.495   1.633 -0.1349  0.1852  0.2054
 1244W        W 4988   7.236   4.110   3.767 -0.1522  0.0229  0.2382
 1245W        W 4989   8.818   1.901  12.632 -0.0677 -0.1236 -0.2803
 1246W        W 4990   0.087   8.017   9.623 -0.0398 -0.1950 -0.0167
 1247W        W 4991   3.553   3.278   7.992  0.1232  0.1173  0.1633
 1248W        W 4992   9.213   8.958  12.145  0.1513 -0.0385 -0.0363
 1249W        W 4993   7.419   8.034   2.466 -0.0160 -0.1850  0.0242
 1250W        W 4994   9.047   8.664   3.048 -0.1521  0.3369 -0.0010
 1251W        W 4995   6.794   0.936  10.641 -0.0103  0.1255  0.2467
 1252W        W 4996   2.432   1.153   8.322 -0.0502 -0.0224 -0.1267
 1253W        W 4997   2.971   0.869   1.683 -0.4211 -0.1896  0.0307
 1254W        W 4998   5.523   2.416  11.406 -0.1433  0.1139  0.0697
 1255W        W 4999   3.977   7.923   9.151 -0.4263  0.2005  0.1962
 1256W        W 5000   9.386   0.859   2.200  0.1669 -0.0030 -0.0288
 1257W        W 5001   2.036   2.885  10.693 -0.1596  0.0412  0.6060
 1258W        W 5002   8.342   4.178   0.401 -0.1070 -0.0848  0.4447
 1259W        W 5003   4.281   3.926   0.774  0.2739 -0.1398  0.3639
 1260W        W 5004   4.161   9.054  10.359 -0.0670 -0.0498  0.1553
 1261W        W 5005   7.312   2.865   3.858 -0.1131  0.2332  0.2469
 1262W        W 5006   7.677   3.596   2.641  0.1935 -0.3015  0.1118
 1263W        W 5007   4.766   8.499   8.449 -0.1389 -0.2112  0.2420
 1264W        W 5008   9.129   1.306   0.900 -0.1137  0.2321  0.1277
 1265W        W 5009   5.907   4.028  10.930 -0.0906 -0.1735  0.0459
 1266W        W 5010   5.882   8.637  10.687 -0.0617 -0.3176  0.0713
 1267W        W 5011   0.592   7.262  12.003 -0.1367  0.1003 -0.0844
 1268W        W 5012   1.453   5.204  12.396 -0.1444  0.0812 -0.2450
 1269W        W 5013   3.353   5.206   3.061  0.0534  0.0877 -0.0209
 1270W        W 5014   5.538   1.419   2.875 -0.0378 -0.1989  0.1314
 1271W        W 5015   9.225   5.165  11.047 -0.3690  0.0471 -0.3090
 1272W        W 5016   4.374   1.703   9.570 -0.1001  0.1099  0.1015
 1273W        W 5017   8.756   7.054  10.683 -0.0880 -0.0951 -0.0123
 1274W        W 5018   5.406   5.477   9.381  0.1916 -0.2193  0.2740
 1275W        W 5019   3.098   6.309   0.447 -0.1137 -0.1373  0.0541
 1276W        W 5020   0.491   0.754   2.779 -0.1891 -0.2378  0.0256
 1277W        W 5021   5.307   1.967  11.213 -0.2324 -0.0429 -0.0434
 1278W        W 5022   9.170   6.700   2.427  0.1509 -0.1455 -0.0069
 1279W        W 5023   3.663   6.304  11.699  0.1648 -0.1045 -0.2635
 1280W        W 5024   0.757   5.645   9.360  0.0226  0.1226  0.1081
 1281W        W 5025   7.264   7.555  11.229  0.0304  0.4022 -0.0940
 1282W        W 5026   1.524   5.849   4.222  0.1543  0.2394  0.1335
 1283W        W 5027   3.032   4.673   9.489  0.0785 -0.1620  0.1768
 1284W        W 5028   4.854   8.045   2.360 -0.2024 -0.3512 -0.0340
 1285W        W 5029   1.940   2.422  10.828 -0.5413 -0.2543 -0.1133
 1286W        W 5030   4.447   6.084   1.080  0.4742 -0.1678  0.4396
 1287W        W 5031   5.812   8.632  12.833  0.4045  0.0971 -0.0904
 1288W        W 5032   3.543   8.411   0.403 -0.0970 -0.2366 -0.0817
 1289W        W 5033   5.707   1.162   3.721 -0.0049 -0.1908 -0.1522
 1290W        W 5034   8.964   0.897   1.925 -0.0627 -0.1829  0.2652
 1291W        W 5035   0.203   7.821   0.471  0.0130 -0.2385 -0.0737
 1292W        W 5036   7.881   1.348   9.066 -0.3267  0.3197  0.1269
 1293W        W 5037   3.735   7.027   4.003 -0.1724 -0.2045 -0.1280
 1294W        W 5038   1.237   3.744  10.926  0.1390  0.0330 -0.1901
 1295W        W 5039   2.431   3.523  10.170 -0.2920  0.0065 -0.3010
 1296W        W 5040   5.842   1.019   0.621  0.1345  0.2156 -0.1852
 1297W        W 5041   7.042   2.202   9.667 -0.0414 -0.1222  0.0302
 1298W        W 5042   9.570   1.550  11.012 -0.1722  0.1102  0.1008
 1299W        W 5043   2.573   5.202   9.392  0.1522 -0.5577  0.0172
 1300W        W 5044   2.063   4.735   9.340  0.0828 -0.1259 -0.1730
 1301W        W 5045   1.254   7.690   0.346  0.0639  0.0130 -0.0850
 1302W        W 5046   9.891   6.550  12.506  0.1091  0.1755  0.0327
 1303W        W 5047   6.406   8.918   3.243  0.1246 -0.2150  0.1384
 1304W        W 5048   6.002   6.988   9.594  0.1108 -0.0135 -0.1710
 1305W        W 5049   7.855   8.534  11.751 -0.1398  0.0461 -0.3308
 1306W        W 5050   3.904   3.546  11.268  0.0075 -0.4030 -0.3888
 1307W        W 5051   9.465   0.165   3.627  0.1427 -0.0184 -0.3857
 1308W        W 5052   8.275   3.186   3.749 -0.0585  0.1238 -0.0777
 1309W        W 5053   8.073   5.277   2.733 -0.2742 -0.1959 -0.1032
 1310W        W 5054   6.495   0.363  10.248  0.0954 -0.1330 -0.0280
 1311W        W 5055   3.561   6.749  11.333  0.3682 -0.0702 -0.0855
 1312W        W 5056   7.617   9.680  12.647 -0.1366  0.1878  0.0857
 1313W        W 5057   9.488   6.272   9.385 -0.1204 -0.0443 -0.1310
 1314W        W 5058   4.917   7.002   9.295 -0.0549  0.0940  0.0019
 1315W        W 5059   9.496   9.730  10.282 -0.1143 -0.0041 -0.2509
 1316W        W 5060   0.877   8.200   2.713  0.0867 -0.0225 -0.0078
 1317W        W 5061   9.834   1.946   8.241  0.3336 -0.0847  0.0544
 1318W        W 5062   8.310   0.519   0.780  0.2414  0.3025 -0.0948
 1319W        W 5063   9.274   8.090  10.398  0.0760  0.0624 -0.2835
 1320W        W 5064   1.307   9.478   1.270  0.0322  0.2273 -0.0267
 1321W        W 5065   3.915   0.580  10.057 -0.1998  0.0984 -0.1363
 1322W        W 5066   5.774   0.918  10.679 -0.0824  0.0801 -0.1507
 1323W        W 5067   4.105   1.793   3.985  0.2129 -0.1355 -0.0566
 1324W        W 5068   1.277   3.194   1.821 -0.1566  0.3759  0.1682
 1325W        W 5069   7.221   0.483  12.704  0.1134  0.2177  0.1590
 1326W        W 5070   3.253   3.888  12.290  0.1008 -0.1017 -0.0760
 1327W        W 5071   2.749   5.156   2.141 -0.4139 -0.0398  0.0824
 1328W        W 5072   0.423   4.870  10.447  0.5429 -0.0029  0.0575
 1329W        W 5073   5.254   3.315  10.418  0.2875  0.0021  0.2637
 1330W        W 5074   3.558   0.227   3.871 -0.1565  0.0502 -0.1188
 1331W        W 5075   0.259   3.578  10.860 -0.1391 -0.0063 -0.2395
 1332W        W 5076   3.420   6.450   1.969 -0.1387 -0.0744  0.0327
 1333W        W 5077   9.411   5.676   1.986  0.2182 -0.1126  0.0081
 1334W        W 5078   5.253   5.204  11.699  0.2682 -0.0792  0.2326
 1335W        W 5079   5.362   5.689  11.815  0.1443 -0.2462 -0.0141
 1336W        W 5080   6.788   7.945   1.798 -0.0872 -0.4680 -0.1652
 1337W        W 5081   2.312   3.655   3.473 -0.0014  0.0446  0.2216
 1338W        W 5082   3.868   7.878   3.847  0.0893  0.1845 -0.1671
 1339W        W 5083   0.286   9.924  10.895 -0.2314 -0.1085  0.1074
 1340W        W 5084   2.610   8.108  10.031 -0.1856  0.2460  0.0011
 1341W        W 5085   2.948   7.982  11.646  0.0567 -0.1224 -0.0918
 1342W        W 5086   0.693   0.949   2.323 -0.0542 -0.0421  0.1123
 1343W        W 5087   1.907   9.312  10.029 -0.0144  0.2903 -0.1950
 1344W        W 5088   2.612   3.346  12.342  0.0030 -0.0253 -0.1814
 1345W        W 5089   1.460   8.118   0.627  0.1703  0.0950 -0.2315
 1346W        W 5090   9.619   8.558   0.521 -0.0450  0.0528 -0.2772
 1347W        W 5091   0.986   6.119   0.982  0.0970 -0.0090 -0.4451
 1348W        W 5092   4.148   7.999  11.564  0.2571 -0.1328  0.0881
 1349W        W 5093   5.018   1.750  11.583 -0.0082  0.1348 -0.1620
 1350W        W 5094   7.967   1.701   3.879 -0.1973  0.1226 -0.0375
 1351W        W 5095   9.913   6.439   8.690  0.0057  0.0735  0.2205
 1352W        W 5096   5.121   6.102   1.557  0.0167  0.0571  0.0742
 1353W        W 5097   7.035   0.214   9.126  0.0312 -0.0101  0.1920
 1354W        W 5098   8.783   3.948   9.395 -0.1143  0.0798  0.0496
 1355W        W 5099   2.767   4.523  10.608  0.2326 -0.0407  0.0757
 1356W        W 5100   9.031   4.898   2.688  0.2068 -0.2043 -0.0922
 1357W        W 5101   1.198   6.136   8.348  0.1250 -0.1004  0.0066
 1358W        W 5102   1.823   4.360  11.977 -0.2285 -0.0411 -0.1423
 1359W        W 5103   6.875   1.268   1.647  0.5230  0.1267 -0.3131
 1360W        W 5104   8.190   0.608   9.477  0.0549  0.2558 -0.2912
 1361W        W 5105   9.505   7.300   1.628 -0.0500  0.1857  0.2707
 1362W        W 5106   9.704   7.043   8.552  0.2893  0.4184  0.1747
 1363W        W 5107   0.201   5.702   2.649  0.0105 -0.0335  0.1492
 1364W        W 5108   1.561   4.488   0.530 -0.0966 -0.1753  0.1120
 1365W        W 5109   8.114   9.845  11.337  0.0719  0.0700 -0.0828
 1366W        W 5110   1.562   2.924   3.185 -0.0193 -0.0956 -0.0225
 1367W        W 5111   0.027   3.274   8.487  0.0423 -0.0344 -0.1077
 1368W        W 5112   8.271   8.417  10.880 -0.0315 -0.1823 -0.5026
 1369W        W 5113   2.136   4.353   4.103 -0.2289 -0.0402  0.0746
 1370W        W 5114   7.825   8.883   3.143  0.0561  0.0358  0.2610
 1371W        W 5115   1.907   8.432  10.868 -0.0245 -0.0923  0.0460
 1372W        W 5116   7.450   3.764  12.225 -0.1974  0.1112  0.3140
 1373W        W 5117   6.138   7.574   2.596  0.2053  0.0035 -0.2596
 1374W        W 5118   4.923   6.672  11.320 -0.1366  0.1392  0.2661
 1375W        W 5119   6.763   0.240  12.700  0.3658  0.1598  0.0523
 1376W        W 5120   4.191   1.980   2.976  0.2727 -0.2184 -0.3351
 1377W        W 5121   2.304   7.292  11.710 -0.4160  0.0466  0.1735
 1378W        W 5122   6.273   1.928   0.676  0.0851  0.3129  0.0356
 1379W        W 5123   1.518   5.643   2.675  0.0755 -0.1858 -0.1055
 1380W        W 5124   5.824   9.492   3.571 -0.0967 -0.3447 -0.0187
 1381W        W 5125   3.504   1.248   2.915 -0.2728  0.1286  0.2106
 1382W        W 5126   9.637   1.329  10.565  0.0520 -0.0402  0.1167
 1383W        W 5127   7.818   7.427  12.009  0.0149 -0.0953 -0.0305
 1384W        W 5128   5.997   6.814  11.804 -0.2248 -0.2281  0.0657
 1385W        W 5129   1.534   7.731  11.297  0.1493  0.1091  0.1417
 1386W        W 5130   6.721   5.566   0.987 -0.2936  0.2474 -0.0873
 1387W        W 5131   1.741   1.498  12.612  0.1168 -0.0577 -0.1293
 1388W        W 5132   6.271   8.531  12.556  0.1904  0.2365 -0.1037
 1389W        W 5133   4.025   4.014  11.990  0.1384  0.0577 -0.1301
 1390W        W 5134   2.566   3.949   8.301  0.1422 -0.2460 -0.1836
 1391W        W 5135   8.660   5.126   3.432  0.2765 -0.0109  0.0778
 1392W        W 5136   9.036   7.565  10.518 -0.0206 -0.2473  0.0264
 1393W        W 5137   7.774   9.941  11.760 -0.0666 -0.0983 -0.1031
 1394W        W 5138   7.334   9.543   1.638  0.0912  0.1538 -0.1464
 1395W        W 5139   9.343   7.169   2.606  0.1689 -0.0608  0.1016
 1396W        W 5140   7.530   2.430   4.052 -0.3490  0.1433 -0.1937
 1397W        W 5141   2.675   8.710   2.073  0.0286  0.3056 -0.1880
 1398W        W 5142   2.033   6.063   9.615  0.2549 -0.4588  0.1563
 1399W        W 5143   8.034   8.989   0.115 -0.1801  0.1266  0.2257
 1400W        W 5144   2.146   5.553   9.639 -0.1753 -0.2414  0.3098
 1401W        W 5145   6.535   4.012  11.528  0.1605 -0.0097  0.1779
 1402W        W 5146   0.978   9.944   1.328  0.0941 -0.1647  0.1848
 1403W        W 5147   3.805   1.282   2.338 -0.1102 -0.0319 -0.1017
 1404W        W 5148   8.301   6.456   0.849 -0.0225 -0.3233  0.2434
 1405W        W 5149   9.921   4.622  12.778 -0.0135 -0.2115  0.1321
 1406W        W 5150   4.224   9.307   3.913 -0.1576  0.1386 -0.1975
 1407W        W 5151   2.603   6.165   2.855  0.1108  0.0994 -0.2440
 1408W        W 5152   4.638   4.085  10.845  0.0236 -0.3070  0.0241
 1409W        W 5153   6.795   0.815  12.086 -0.1054  0.1949 -0.0479
 1410W        W 5154   8.166   6.443  12.683  0.2267 -0.1413  0.3657
 1411W        W 5155   9.521   4.361  11.032  0.1176  0.1734  0.4204
 1412W        W 5156   8.467   0.693   0.090 -0.1077  0.0860  0.2217
 1413W        W 5157   2.820   8.091  12.707 -0.0457 -0.2892  0.3978
 1414W        W 5158   8.573   3.146   4.674  0.0220  0.0414 -0.3182
 1415W        W 5159   0.809   0.289  11.852 -0.3215  0.1587 -0.2716
 1416W        W 5160   4.412   5.979   1.819  0.0413 -0.1548  0.0572
 1417W        W 5161   2.554   1.716   2.088 -0.0653 -0.0966 -0.2937
 1418W        W 5162   7.372   0.590   4.724  0.0411  0.4023  0.1124
 1419W        W 5163   9.721   1.876  10.714  0.0078  0.1575  0.0249
 1420W        W 5164   2.039   1.007   1.400  0.3737  0.1972  0.0492
 1421W        W 5165   1.893   6.208  12.738 -0.0260  0.0779  0.3535
 1422W        W 5166   1.509   2.028   2.445 -0.0864 -0.1364 -0.1573
 1423W        W 5167   7.487   8.339  12.397  0.0878 -0.1595 -0.0927
 1424W        W 5168   9.742   8.716   9.149  0.0933 -0.2759  0.0347
 1425W        W 5169   4.030   7.430   1.716  0.2739  0.1119  0.0086
 1426W        W 5170   4.830   8.873   3.954 -0.1711 -0.1551  0.0532
 1427W        W 5171   5.599   8.302   0.388  0.0733  0.0832 -0.0001
 1428W        W 5172   9.098   3.778  12.655  0.1020 -0.0096 -0.3705
 1429W        W 5173   0.680   3.171   4.106 -0.0658  0.0129 -0.2241
 1430W        W 5174   5.824   7.199   2.601 -0.2153 -0.1201 -0.3277
 1431W        W 5175   3.251   3.445   8.748 -0.0788 -0.1160  0.1100
 1432W        W 5176   2.815   9.668  11.203 -0.0527  0.3188 -0.0036
 1433W        W 5177   4.507   2.548  10.572  0.2114 -0.1655  0.1936
 1434W        W 5178   0.586   5.051  12.000 -0.1639 -0.2207 -0.0610
 1435W        W 5179   6.293   5.272   0.790  0.2884 -0.1412  0.1261
 1436W        W 5180   9.833   7.426   0.271  0.0441  0.2233  0.2621
 1437W        W 5181   4.573   2.701   2.481  0.1488  0.1520  0.3873
 1438W        W 5182   5.974   5.310   1.580  0.2919 -0.0351  0.1541
 1439W        W 5183   6.515   0.700   4.109  0.2078  0.1935 -0.2052
 1440W        W 5184   2.950   3.713   4.016 -0.1027 -0.3866  0.0685
 1441W        W 5185   4.250   5.746   2.895 -0.1656  0.2463  0.3836
 1442W        W 5186   6.129   6.751   2.968 -0.0191  0.0078 -0.0182
 1443W        W 5187   6.008   6.002  12.243 -0.0739 -0.1008 -0.0338
 1444W        W 5188   6.329   1.656   2.303 -0.2134  0.2089 -0.3113
 1445W        W 5189   1.488   9.781   4.136  0.2667 -0.2044  0.0870
 1446W        W 5190   7.915   6.709   9.899  0.1560  0.0955  0.0714
 1447W        W 5191   1.240   0.860   1.376  0.1294 -0.3169 -0.0932
 1448W        W 5192   2.989   3.494   9.517  0.2312 -0.0935  0.0074
 1449W        W 5193   6.406   1.000   4.548 -0.0038  0.0887 -0.1723
 1450W        W 5194   8.965   7.988  10.873  0.0204  0.3560  0.1554
 1451W        W 5195   6.430   8.048  12.746  0.2666 -0.3231  0.2484
 1452W        W 5196   6.573   1.268   1.244  0.0311 -0.2925  0.0578
 1453W        W 5197   8.428   6.001  12.540  0.1134 -0.0980  0.3539
 1454W        W 5198   8.299   1.828   0.952  0.0150 -0.1432 -0.2040
 1455W        W 5199   3.472   5.395   2.521  0.2332 -0.2037  0.0612
 1456W        W 5200   7.843   1.001   9.910  0.5500  0.3847  0.1092
 1457W        W 5201   4.476   6.705   0.702 -0.0133  0.3848  0.0395
 1458W        W 5202   0.178   2.041  10.285 -0.2136 -0.5468  0.2367
 1459W        W 5203   7.516   9.189  11.027 -0.1970  0.1001  0.2658
 1460W        W 5204   1.616   6.916  11.294  0.0458  0.0421  0.2032
 1461W        W 5205   2.794   0.339   8.508  0.2747  0.0738 -0.2977
 1462W        W 5206   5.748   0.848   1.627 -0.1677  0.1809 -0.1601
 1463W        W 5207   2.719   3.501   8.576  0.2062 -0.1570 -0.0449
 1464W        W 5208   4.795   3.177   2.525 -0.0282 -0.0203  0.1878
 1465W        W 5209   3.624   5.153  11.274  0.0893 -0.1439 -0.1197
 1466W        W 5210   3.111   6.687  11.599  0.3349 -0.2089  0.0850
 1467W        W 5211   2.202   8.710   4.014 -0.0059 -0.0451  0.3281
 1468W        W 5212   2.284   9.794  12.298  0.0357  0.4006  0.2761
 1469W        W 5213   4.360   6.954  12.640  0.3148  0.0692  0.1923
 1470W        W 5214   9.586   0.723   8.905  0.0639  0.0133  0.1452
 1471W        W 5215   7.886   1.686   0.195 -0.0724 -0.0201 -0.4109
 1472W        W 5216   8.331   4.938   9.877  0.1139 -0.2048 -0.0094
 1473W        W 5217   7.927   9.032   1.080 -0.1838  0.0862 -0.3752
 1474W        W 5218   9.627   5.330   9.394 -0.3739 -0.2122  0.0333
 1475W        W 5219   1.968   7.394   7.906 -0.3428 -0.1757  0.0421
 1476W        W 5220   2.574   8.292   0.253 -0.0505  0.1876  0.0537
 1477W        W 5221   6.642   3.508   4.172  0.3646  0.0487  0.1200
 1478W        W 5222   9.880   1.979   2.342 -0.2706  0.3644  0.1529
 1479W        W 5223   7.485   4.219   3.256 -0.0303 -0.0261 -0.3301
 1480W        W 5224   0.050   6.776  12.075 -0.2168 -0.1594 -0.1982
 1481W        W 5225   0.899   5.282   1.167  0.0758  0.4994 -0.0284
 1482W        W 5226   7.193   0.090   2.351  0.0035 -0.1858  0.0630
 1483W        W 5227   6.579   7.647   2.717 -0.0306 -0.0138  0.0546
 1484W        W 5228   2.667   0.406  10.192 -0.1926 -0.0626  0.4240
 1485W        W 5229   2.793   7.234   3.643 -0.1012  0.0521 -0.0253
 1486W        W 5230   2.659   6.321   3.343 -0.0379  0.2382 -0.2173
 1487W        W 5231   3.082   6.533  10.316  0.1541 -0.3086  0.0558
 1488W        W 5232   0.852   4.620   1.840 -0.2969  0.1856  0.3997
 1489W        W 5233   2.335   8.521   3.484 -0.3998 -0.1209  0.0799
 1490W        W 5234   4.073   0.629   1.481  0.4175 -0.0285 -0.2873
 1491W        W 5235   4.069   5.612   2.306  0.1128 -0.0380  0.2950
 1492W        W 5236   1.754   5.806   7.669 -0.1398  0.2871  0.0343
 1493W        W 5237   4.827   1.853  11.096  0.2664 -0.3850 -0.0466
 1494W        W 5238   1.949   1.258   9.698 -0.1051 -0.1306 -0.0188
 1495W        W 5239   9.542   9.462   2.662 -0.1648  0.0816  0.0446
 1496W        W 5240   5.336   2.561   1.717 -0.2716 -0.0021  0.1401
 1497W        W 5241   1.465   9.818  12.514 -0.1695 -0.1264  0.2328
 1498W        W 5242   4.688   2.162   0.765  0.4267 -0.4175  0.0019
 1499W        W 5243   7.977   6.452  11.691 -0.0153 -0.1357  0.2133
 1500W        W 5244   0.512   8.688   8.250  0.1493 -0.1777 -0.1650
 1501W        W 5245   6.367   6.560  11.515  0.2235  0.0814 -0.0930
 1502W        W 5246   7.793   0.846   3.308  0.0654 -0.0525 -0.0007
 1503W        W 5247   9.872   9.397   8.303 -0.0102 -0.1036 -0.0029
 1504W        W 5248   7.342   6.178   0.803 -0.3268  0.2115  0.0908
 1505W        W 5249   9.419   1.936  10.221 -0.1521  0.0420  0.0523
 1506W        W 5250   2.906   9.817  11.677 -0.3431  0.1671  0.0502
 1507W        W 5251   1.833   5.727   1.669  0.3281 -0.1658  0.0691
 1508W        W 5252   5.930   5.783  11.814 -0.1924 -0.1249  0.3266
 1509W        W 5253   8.491   2.023  12.047  0.0234  0.0859  0.0992
 1510W        W 5254   8.857   1.034   0.048 -0.1492  0.2965  0.0768
 1511W        W 5255   9.793   1.041   1.508  0.1984 -0.1143 -0.2072
 1512W        W 5256   8.253   5.585   9.037 -0.1134  0.3575 -0.1734
 1513W        W 5257   3.951   8.560  12.287 -0.1753  0.1604  0.0684
 1514W        W 5258   5.769   9.514   8.783 -0.0681  0.1489 -0.1716
 1515W        W 5259   9.602   6.528  11.938  0.1063 -0.0680 -0.2215
 1516W        W 5260   7.224   7.971   0.535 -0.0005  0.2640 -0.3680
 1517W        W 5261   8.827   9.164  11.285  0.1180  0.0260  0.1580
 1518W        W 5262   2.751   9.259   9.094 -0.0260  0.1148  0.2735
 1519W        W 5263   7.827   5.001   2.230  0.1541  0.1755 -0.0079
 1520W        W 5264   5.885   8.095  10.030  0.0929  0.2126  0.1970
 1521W        W 5265   1.394   3.868   8.825 -0.0491 -0.0174 -0.1724
 1522W        W 5266   2.029   6.719   1.705 -0.0813 -0.1316  0.1256
 1523W        W 5267   3.066   4.156   9.303 -0.5033  0.0405  0.1735
 1524W        W 5268   7.590   7.088   9.937  0.0792  0.1437  0.0270
 1525W        W 5269   5.172   6.451  10.300  0.3022  0.2234  0.2958
 1526W        W 5270   5.833   1.482  11.741  0.1624 -0.1159  0.1092
 1527W        W 5271   0.202   7.787  11.937  0.1159  0.1026  0.0468
 1528W        W 5272   7.697   9.267  10.023  0.1570  0.1052 -0.1164
 1529W        W 5273   0.299   1.434   3.927  0.0951 -0.2123  0.1364
 1530W        W 5274   7.400   5.344   2.528 -0.1577 -0.1474  0.0953
 1531W        W 5275   5.379   9.098   3.956 -0.0930 -0.2696 -0.3583
 1532W        W 5276   9.793   5.648  12.052  0.5078 -0.1283 -0.1029
 1533W        W 5277   5.079   0.153  11.829  0.1899  0.0645 -0.2188
 1534W        W 5278   7.081   5.717   3.325  0.1689  0.0033  0.0680
 1535W        W 5279   7.349   8.053   3.194 -0.0346  0.0150 -0.4657
 1536W        W 5280   2.697   5.319   3.064 -0.0117 -0.1979 -0.1813
 1537W        W 5281   1.706   1.250  12.125 -0.0415 -0.0963  0.2683
 1538W        W 5282   7.037   9.146  10.178  0.0524 -0.2831 -0.0501
 1539W        W 5283   6.051   8.504  10.249  0.0495  0.0604 -0.0451
 1540W        W 5284   8.595   8.900  12.670 -0.3284 -0.2066  0.4108
 1541W        W 5285   3.585   1.537   9.836 -0.1609 -0.0055  0.1838
 1542W        W 5286   0.392   8.393   4.016  0.0312 -0.0493 -0.2126
 1543W        W 5287   5.396   8.101   1.290  0.1697 -0.1719 -0.0307
 1544W        W 5288   0.416   2.543   9.845  0.0939 -0.0395 -0.2014
 1545W        W 5289   3.598   2.033  11.320  0.0127 -0.0181 -0.2682
 1546W        W 5290   6.320   7.766   3.129  0.3013  0.2889  0.3739
 1547W        W 5291   1.819   8.184   8.464  0.5880  0.0580  0.2641
 1548W        W 5292   0.323   0.350   1.738 -0.2051  0.0645 -0.1834
 1549W        W 5293   1.811   8.726   8.488  0.1162  0.1449 -0.0798
 1550W        W 5294   7.051   0.583   2.611 -0.2408 -0.0592  0.1534
 1551W        W 5295   8.495   0.216   3.814  0.1297 -0.1639  0.0748
 1552W        W 5296   2.937   4.823   1.074  0.1668  0.1001  0.2651
 1553W        W 5297   8.437   8.634   0.201 -0.1756  0.0597 -0.1940
 1554W        W 5298   6.281   6.247   2.466  0.2071 -0.1553 -0.0105
 1555W        W 5299   7.948   6.117  10.662 -0.0831 -0.0486 -0.3002
 1556W        W 5300   5.213   6.699   1.963 -0.1155 -0.0344  0.1118
 1557W        W 5301   2.938   9.648   0.197 -0.2125 -0.0822 -0.0687
 1558W        W 5302   8.855   2.147   1.635 -0.0492 -0.1006  0.1022
 1559W        W 5303   0.811   2.572   1.279 -0.2898  0.2206  0.0344
 1560W        W 5304   0.780   0.074   2.312 -0.2138 -0.3432 -0.3425
 1561W        W 5305   6.954   5.360   8.618  0.3460  0.0771  0.0013
 1562W        W 5306   9.043   1.675   1.869  0.0985  0.1065  0.3626
 1563W        W 5307   1.262   5.466  10.698 -0.2776  0.0552  0.0183
 1564W        W 5308   3.903   4.949   3.129 -0.0457 -0.4390  0.1292
 1565W        W 5309   8.308   6.494   2.225 -0.0367 -0.2037  0.1040
 1566W        W 5310   6.929   8.953  11.472 -0.2710 -0.0214  0.1480
 1567W        W 5311   8.531   8.750  11.192 -0.0669 -0.1578 -0.1353
 1568W        W 5312   3.337   7.701   1.414 -0.2392 -0.0306 -0.2247
 1569W        W 5313   2.397   0.266   8.800 -0.0281 -0.1645 -0.1316
 1570W        W 5314   6.658   3.127   3.801  0.3959 -0.2562 -0.3157
 1571W        W 5315   8.846   4.175   8.420  0.0770  0.0417  0.2605
 1572W        W 5316   6.743   8.489  12.434  0.1056  0.5273  0.0087
 1573W        W 5317   8.320   8.905   3.110 -0.1110 -0.1055 -0.1486
 1574W        W 5318   2.271   9.404   9.165  0.0828 -0.0136 -0.1603
 1575W        W 5319   5.175   9.220  11.867  0.0128  0.3393 -0.1934
 1576W        W 5320   7.149   5.815   9.500  0.1109  0.0457  0.1354
 1577W        W 5321   6.549   9.364  12.196  0.0697 -0.2057 -0.0745
 1578W        W 5322   7.465   3.746  10.936 -0.3966  0.1516 -0.1516
 1579W        W 5323   1.474   5.882   8.743  0.2327 -0.1586 -0.1489
 1580W        W 5324   0.064   4.626  11.273 -0.0100  0.3700  0.0921
 1581W        W 5325   6.332   2.862   4.021  0.0279  0.0256 -0.4296
 1582W        W 5326   2.418   0.240   1.174 -0.2797 -0.0223 -0.2936
 1583W        W 5327   5.246   0.230  11.010 -0.1359 -0.0337  0.1424
 1584W        W 5328   3.345   1.131   0.475  0.1030  0.0040  0.1913
 1585W        W 5329   7.361   2.367  10.427  0.2318  0.3218  0.0603
 1586W        W 5330   2.423   1.221  12.666  0.1209  0.3107 -0.0797
 1587W        W 5331   0.032   8.933   1.246  0.1044  0.0358 -0.3861
 1588W        W 5332   2.762   4.662   3.804 -0.0190  0.3407  0.1663
 1589W        W 5333   3.289   3.740   9.876 -0.1852  0.0288  0.0841
 1590W        W 5334   6.907   8.564  10.386  0.1426 -0.1432 -0.0305
 1591W        W 5335   2.449   5.731  11.030 -0.0474  0.0376 -0.2584
 1592W        W 5336   6.326   0.086  10.722 -0.0923 -0.1649  0.4674
 1593W        W 5337   4.923   1.579   1.107 -0.2084 -0.0616 -0.0182
 1594W        W 5338   9.903   5.208   8.517  0.2434 -0.1784  0.0450
 1595W        W 5339   5.599   7.381  12.658  0.1712 -0.1238  0.0999
 1596W        W 5340   1.122   8.682   9.659 -0.0228  0.0606  0.2097
 1597W        W 5341   9.274   3.572   2.833 -0.0199 -0.2062 -0.2305
 1598W        W 5342   5.772   7.571   1.005  0.0881  0.1437  0.1318
 1599W        W 5343   8.284   4.297   9.917  0.0158 -0.0444  0.1465
 1600W        W 5344   9.277   8.867   0.808 -0.3507  0.1340 -0.4130
 1601W        W 5345   4.082   1.687   2.495 -0.2780  0.2536 -0.1242
 1602W        W 5346   5.101   0.029  12.363 -0.3262  0.0359  0.0570
 1603W        W 5347   2.708   1.684  10.888 -0.3895 -0.0948 -0.0177
 1604W        W 5348   5.195   8.567   0.196  0.2790  0.1600  0.1622
 1605W        W 5349   0.754   5.928   0.478  0.1855  0.2537 -0.2127
 1606W        W 5350   8.106   1.889   1.839  0.2892  0.1731  0.0524
 1607W        W 5351   4.440   1.660   1.207  0.1031 -0.1593 -0.3020
 1608W        W 5352   9.439   3.637   1.539 -0.0429  0.1157  0.0233
 1609W        W 5353   9.871   3.820   1.114 -0.0974  0.0654 -0.0050
 1610W        W 5354   6.516   3.101   2.767  0.0154  0.0512  0.3054
 1611W        W 5355   8.597   6.204   9.404  0.1493 -0.0017 -0.0445
 1612W        W 5356   5.846   4.334   0.638  0.1910 -0.0248  0.3082
 1613W        W 5357   7.879   4.288   9.634  0.0400  0.3921  0.1753
 1614W        W 5358   3.521   0.963   4.641 -0.0585  0.1553 -0.5202
 1615W        W 5359   1.480   0.128   1.369  0.2539  0.2697  0.1924
 1616W        W 5360   0.279   5.505  11.823 -0.1021  0.0046 -0.4847
 1617W        W 5361   9.577   4.787  11.756 -0.0961 -0.0726  0.2262
 1618W        W 5362   0.514   9.613   3.610  0.2993 -0.0274  0.1933
 1619W        W 5363   7.453   5.358  12.105  0.1392 -0.0059  0.0076
 1620W        W 5364   3.264   2.322   4.381  0.1302  0.1298 -0.0169
 1621W        W 5365   5.295   0.080   4.092  0.0238  0.0428 -0.2884
 1622W        W 5366   9.476   1.896  11.366 -0.1421 -0.1122  0.1457
 1623W        W 5367   6.110   0.267   9.596 -0.0904 -0.0426 -0.0514
 1624W        W 5368   9.657   2.508   0.895  0.0756 -0.0239 -0.1001
 1625W        W 5369   0.840   1.374   0.360  0.2826 -0.0345  0.0047
 1626W        W 5370   6.401   6.872   9.935 -0.1762 -0.1018 -0.0227
 1627W        W 5371   0.798   5.654  10.341 -0.1221  0.3881  0.0548
 1628W        W 5372   3.604   9.325   0.803 -0.3569 -0.0945  0.1667
 1629W        W 5373   6.919   3.787  11.031  0.2028  0.0154  0.0990
 1630W        W 5374   9.733   5.731   0.302 -0.1312 -0.1875  0.1719
 1631W        W 5375   9.293   1.461  10.131 -0.0283  0.1360 -0.0617
 1632W        W 5376   6.697   3.350   1.679  0.0036 -0.1218  0.0684
 1633W        W 5377   5.134   5.945  10.450 -0.0549  0.1071  0.3298
 1634W        W 5378   2.939   8.012  12.200  0.0966 -0.1312  0.2990
 1635W        W 5379   9.323   5.221   3.543 -0.1192  0.0943 -0.3133
 1636W        W 5380   1.894   3.555   4.277 -0.0647 -0.0409  0.2000
 1637W        W 5381   9.921   7.022   1.321  0.0757  0.3864  0.1229
 1638W        W 5382   4.178   9.497  12.328 -0.1042 -0.2146  0.3434
 1639W        W 5383   9.099   3.590   4.154 -0.2268  0.1118 -0.0668
 1640W        W 5384   3.451   8.026   2.101  0.2494 -0.0329 -0.0558
 1641W        W 5385   7.322   8.936   9.426 -0.1538  0.2991  0.0011
 1642W        W 5386   0.768   3.955   0.580  0.0871  0.2335  0.1610
 1643W        W 5387   3.331   1.538   0.249  0.1936  0.0481 -0.0440
 1644W        W 5388   8.964   4.876   0.618  0.1167  0.0811  0.3713
 1645W        W 5389   6.654   4.944   1.506  0.2298  0.1504  0.0523
 1646W        W 5390   0.397   9.305   2.173  0.1255  0.0520  0.3487
 1647W        W 5391   1.668   2.420   3.680 -0.0503 -0.0277 -0.0005
 1648W        W 5392   4.659   5.559  12.798  0.1851 -0.1815  0.0225
 1649W        W 5393   8.783   8.387   1.266  0.1665  0.0065  0.2269
 1650W        W 5394   5.722   5.237   1.999  0.0783  0.0228  0.0578
 1651W        W 5395   2.154   1.565   2.396 -0.0129 -0.0838 -0.0680
 1652W        W 5396   8.829   5.197  12.764 -0.2945 -0.0739 -0.2651
 1653W        W 5397   9.402   6.257   2.594  0.0841  0.0860 -0.3246
 1654W        W 5398   9.448   4.595   2.714 -0.1856  0.2267  0.0356
 1655W        W 5399   2.930   7.002  10.704 -0.0583  0.0827  0.1712
 1656W        W 5400   4.615   0.926   2.468 -0.1513 -0.1594 -0.1290
 1657W        W 5401   8.781   8.683   0.766  0.0943 -0.1558  0.1197
 1658W        W 5402   2.622   0.249  11.405 -0.1141 -0.4946 -0.0700
 1659W        W 5403   9.691   7.696   3.742  0.1532  0.0050 -0.1465
 1660W        W 5404   6.542   8.428   4.147 -0.1724 -0.1869  0.2261
 1661W        W 5405   6.693   8.105   1.136 -0.2487  0.1293  0.2468
 1662W        W 5406   0.850   7.042   3.943 -0.0422  0.1483 -0.1167
 1663W        W 5407   8.364   1.348   3.972  0.0446  0.1747 -0.1717
 1664W        W 5408   0.819   4.960   0.640  0.0317 -0.0750 -0.1424
 1665W        W 5409   6.349   4.513  10.874  0.1547  0.0708  0.2663
 1666W        W 5410   5.909   5.620   9.682  0.0598 -0.0700  0.0431
 1667W        W 5411   5.414   6.900   0.733  0.0887 -0.0157 -0.5031
 1668W        W 5412   8.811   2.685   3.153 -0.2966 -0.0623  0.2685
 1669W        W 5413   2.845   2.180  11.064  0.0796  0.0427 -0.4242
 1670W        W 5414   9.500   1.713   3.305  0.3845  0.1930 -0.1538
 1671W        W 5415   0.689   7.266   8.591  0.1741  0.1978 -0.0896
 1672W        W 5416   5.371   8.932   0.608 -0.2064  0.1395  0.0554
 1673W        W 5417   8.666   0.338  12.285 -0.2230  0.1751 -0.0277
 1674W        W 5418   4.064   4.914  10.421  0.3008  0.1349 -0.0264
 1675W        W 5419   0.766   3.437   0.561  0.1394 -0.1875 -0.1256
 1676W        W 5420   2.007   7.171   1.825  0.1308 -0.2983 -0.0388
 1677W        W 5421   2.720   5.259   0.744 -0.0377 -0.2474  0.0157
 1678W        W 5422   9.672   4.301   0.887 -0.0407  0.1865  0.0807
 1679W        W 5423   2.769   2.009   2.529  0.1557  0.3678  0.1241
 1680W        W 5424   1.669   2.137   9.924 -0.0298  0.2365  0.1419
 1681W        W 5425   6.568   0.254   8.859  0.1192 -0.3580  0.0108
 1682W        W 5426   5.696   5.962   2.293 -0.3730  0.2918  0.0616
 1683W        W 5427   7.822   9.818  10.116 -0.1699  0.1958  0.2847
 1684W        W 5428   0.304   0.780   1.502  0.1755 -0.1511  0.2365
 1685W        W 5429   3.361   7.167   9.568  0.0354 -0.2750 -0.2935
 1686W        W 5430   0.077   7.876   2.615  0.4051 -0.1215  0.0119
 1687W        W 5431   4.595   5.555  11.381 -0.0790 -0.0836 -0.0508
 1688W        W 5432   7.637   4.923   2.679 -0.0998  0.0151  0.0660
 1689W        W 5433   2.864   3.157  11.917 -0.1090  0.1378  0.0587
 1690W        W 5434   4.013   9.228   0.280 -0.0991  0.0051  0.3046
 1691W        W 5435   9.589   2.960  11.344  0.0311 -0.0566 -0.4151
 1692W        W 5436   7.421   1.496   8.920  0.0861  0.2121  0.0820
 1693W        W 5437   7.187   8.355  10.803  0.0720 -0.1250  0.0027
 1694W        W 5438   7.984   5.950  11.669  0.1087  0.0223 -0.0254
 1695W        W 5439   7.501   7.307  11.615 -0.1756 -0.0096  0.0332
 1696W        W 5440   1.321   4.873   0.416  0.1327 -0.0641 -0.3199
 1697W        W 5441   4.878   5.167   8.215  0.0059  0.0993 -0.2559
 1698W        W 5442   3.882   3.680  10.571  0.0538 -0.1795  0.0717
 1699W        W 5443   4.611   6.479  12.212 -0.0429 -0.0683  0.0131
 1700W        W 5444   3.401   0.393   3.286 -0.1080 -0.1558  0.3373
 1701W        W 5445   0.499   7.177   3.332 -0.0812 -0.0056  0.2289
 1702W        W 5446   3.396   0.999   2.013 -0.0921 -0.1340  0.1495
 1703W        W 5447   8.090   8.663   1.358  0.1079 -0.2051  0.2343
 1704W        W 5448   0.176   0.781   8.780 -0.0667  0.1324 -0.1675
 1705W        W 5449   6.049   5.780  10.330  0.2434 -0.2482 -0.2522
 1706W        W 5450   4.602   9.164   3.143  0.0379  0.1305  0.1093
 1707W        W 5451   0.860   4.510  10.538  0.1844 -0.0228  0.0610
 1708W        W 5452   6.132   0.509   1.103 -0.1878  0.2294  0.1827
 1709W        W 5453   2.777   1.560   0.011  0.0379  0.2573  0.0987
 1710W        W 5454   8.712   9.686   3.830  0.0307  0.1272 -0.4207
 1711W        W 5455   2.177   9.048   8.836  0.2653 -0.0332  0.1090
 1712W        W 5456   1.916   1.003  12.556  0.2145 -0.0247  0.0334
 1713W        W 5457   0.047   9.269  11.811  0.3509 -0.0939  0.2150
 1714W        W 5458   8.258   3.931   9.082  0.1652  0.0555 -0.0191
 1715W        W 5459   2.906   2.668   4.377 -0.2732 -0.2982 -0.2470
 1716W        W 5460   4.502   4.999   0.030 -0.0907  0.1368 -0.3199
 1717W        W 5461   3.259   5.422  11.506 -0.0048 -0.1801  0.0319
 1718W        W 5462   6.137   1.753  10.923  0.0820 -0.1534 -0.4122
 1719W        W 5463   0.230   2.019  12.104 -0.1571  0.0930  0.0752
 1720W        W 5464   3.234   4.447  10.385 -0.2839 -0.0610  0.0497
 1721W        W 5465   1.364   7.343  11.493 -0.2100  0.0832  0.0174
 1722W        W 5466   4.123   5.992   9.778 -0.0573  0.0716 -0.3045
 1723W        W 5467   7.246   9.311   9.778  0.1159  0.1249 -0.1033
 1724W        W 5468   2.798   8.343   8.602  0.1178 -0.2245 -0.0136
 1725W        W 5469   7.001   9.315   3.944  0.3606  0.1589 -0.4717
 1726W        W 5470   2.741   0.889   5.204  0.1999 -0.0890 -0.0929
 1727W        W 5471   9.620   7.752   9.485  0.0924  0.1296  0.0176
 1728W        W 5472   1.378   7.389   4.375  0.3055  0.0775 -0.1948
 1729W        W 5473   4.683   7.487  10.910  0.1305  0.0919 -0.4916
 1730W        W 5474   2.749   5.602   3.550  0.1532 -0.0728  0.0483
 1731W        W 5475   4.300   3.721   0.253 -0.0834 -0.2344 -0.0175
 1732W        W 5476   9.496   4.324   9.493  0.3121 -0.2299  0.2449
 1733W        W 5477   4.910   6.795   0.376 -0.1665 -0.1419 -0.0079
 1734W        W 5478   9.722   2.691   8.772  0.3162 -0.0736  0.1155
 1735W        W 5479   1.718   4.263   1.502 -0.0026  0.0131  0.0659
 1736W        W 5480   6.311   5.286   0.266 -0.0836 -0.1974 -0.0410
 1737W        W 5481   0.120   2.139   4.907 -0.2662 -0.2872  0.4572
 1738W        W 5482   8.743   0.130  10.268  0.0377 -0.1760  0.0160
 1739W        W 5483   4.339   8.761  12.584  0.1390 -0.0367  0.0203
 1740W        W 5484   2.002   1.326   0.216  0.0645  0.3316 -0.0398
 1741W        W 5485   8.128   9.897   2.110 -0.2574  0.0351 -0.0723
 1742W        W 5486   5.216   4.059  12.136  0.1457  0.0373  0.2346
 1743W        W 5487   8.160   1.337  11.503  0.0670  0.2459 -0.1633
 1744W        W 5488   3.032   5.631  10.578  0.1708 -0.1156  0.2669
 1745W        W 5489   3.423   3.525  10.298  0.2336  0.2672  0.0802
 1746W        W 5490   1.174   3.036   2.686  0.2000  0.0225  0.0636
 1747W        W 5491   7.748   7.621  11.280 -0.2484  0.1698  0.0996
 1748W        W 5492   4.273   6.015   4.431  0.1281  0.1671  0.3167
 1749W        W 5493   5.943   4.346  10.237  0.1501  0.0641 -0.2092
 1750W        W 5494   2.918   8.560   9.875  0.1626  0.1039 -0.2792
 1751W        W 5495   2.757   3.104   2.336  0.3196 -0.0997 -0.0600
 1752W        W 5496   0.688   5.472   2.815  0.3167 -0.1373  0.0068
 1753W        W 5497   4.163   2.850  11.386 -0.0588 -0.3062  0.0659
 1754W        W 5498   0.177   4.087  10.598 -0.1844  0.0896  0.1328
 1755W        W 5499   8.628   4.737   2.325 -0.0360  0.0406  0.0075
 1756W        W 5500   6.537   9.277   3.635 -0.0480 -0.0579  0.2369
 1757W        W 5501   6.470   7.923  11.102 -0.1700  0.0020 -0.1094
 1758W        W 5502   5.283   4.198  10.822 -0.4173 -0.0191  0.1458
 1759W        W 5503   3.579   1.922   2.323  0.2417  0.0724 -0.0682
 1760W        W 5504   5.072   2.467   3.903  0.1667 -0.0614  0.2383
 1761W        W 5505   9.266   2.032   4.054 -0.2370  0.1213  0.2556
 1762W        W 5506   5.670   5.830   9.114  0.1300  0.1732 -0.0723
 1763W        W 5507   3.756   8.289  12.842 -0.0996  0.1852  0.1247
 1764W        W 5508   1.001   8.133  10.624 -0.2906  0.0381 -0.0618
 1765W        W 5509   6.537   5.484   1.706 -0.0074  0.0015  0.1417
 1766W        W 5510   7.845   0.492  12.075 -0.0624  0.3033 -0.2802
 1767W        W 5511   3.489   6.096   4.063 -0.0238 -0.4249 -0.0056
 1768W        W 5512   3.101   6.088   3.083 -0.0184 -0.0910  0.0713
 1769W        W 5513   1.003   3.788  12.437  0.3027  0.0211 -0.2605
 1770W        W 5514   6.658   5.104   9.600  0.0143  0.4013  0.0614
 1771W        W 5515   2.295   5.242  11.017  0.1394  0.0032 -0.1124
 1772W        W 5516   5.188   5.173   0.700  0.1671  0.1458 -0.1836
 1773W        W 5517   2.365   7.165  10.714  0.2538  0.0364 -0.3832
 1774W        W 5518   1.241   6.898   8.675 -0.1895 -0.2050  0.1985
 1775W        W 5519   8.865   8.562  10.296  0.3324  0.1979 -0.1969
 1776W        W 5520   4.768   3.578  10.355 -0.2878  0.1965  0.0073
 1777W        W 5521   4.897   4.715  12.653  0.0814 -0.0048  0.4915
 1778W        W 5522   9.829   2.384   0.154  0.1608  0.0082 -0.1696
 1779W        W 5523   8.952   7.490   0.062 -0.2580  0.1278  0.2169
 1780W        W 5524   3.955   3.141   8.343 -0.0964  0.2594 -0.3106
 1781W        W 5525   4.642   4.715   0.441 -0.3521  0.1005  0.1144
 1782W        W 5526   5.630   7.526   2.283  0.0868 -0.0884  0.4802
 1783W        W 5527   3.974   1.858   9.824 -0.2187  0.0909 -0.2888
 1784W        W 5528   6.331   9.284  12.723 -0.0013 -0.1558  0.1982
 1785W        W 5529   0.473   6.307   8.702 -0.0325  0.0629 -0.1816
 1786W        W 5530   1.642   5.981   1.289  0.1557 -0.0297 -0.3011
 1787W        W 5531   2.394   0.755  12.587  0.2538 -0.3451 -0.4503
 1788W        W 5532   0.108   4.378   2.097  0.1130  0.2209  0.3280
 1789W        W 5533   6.100   9.047   3.584  0.3964  0.0522  0.0217
 1790W        W 5534   4.423   6.077  12.070 -0.0657  0.0573  0.0325
 1791W        W 5535   4.503   7.352   1.766  0.1226 -0.3018  0.0270
 1792W        W 5536   7.093   4.236   0.772  0.1892 -0.2953  0.0662
 1793W        W 5537   5.935   4.904   0.091  0.2862 -0.0439  0.0660
 1794W        W 5538   9.546   9.877  11.561 -0.1455  0.0074 -0.3630
 1795W        W 5539   5.698   2.025  10.835  0.3274  0.0818  0.0906
 1796W        W 5540   2.281   7.985  12.330 -0.1723  0.2015 -0.2152
 1797W        W 5541   1.055   1.358  10.559 -0.2714  0.2509  0.0204
 1798W        W 5542   0.875   2.477  11.946  0.0770 -0.0132 -0.0749
 1799W        W 5543   0.989   6.827  10.448 -0.1701 -0.2397  0.1641
 1800W        W 5544   7.757   2.473   0.630  0.0251 -0.1599  0.0508
 1801W        W 5545   7.124   8.287   0.874 -0.4377 -0.0248  0.1333
 1802W        W 5546   8.505   0.074  12.814  0.3111  0.0583 -0.2808
 1803W        W 5547   2.665   6.510  12.182 -0.1560  0.1966 -0.0866
 1804W        W 5548   4.352   8.938   2.726  0.1096  0.2179  0.1594
 1805W        W 5549   6.318   4.652   3.649 -0.0031 -0.0860  0.4307
 1806W        W 5550   8.389   1.862   4.146 -0.0319  0.1562  0.2036
 1807W        W 5551   9.142   9.521  11.165 -0.0624 -0.4423 -0.3254
 1808W        W 5552   3.916   0.739  11.210 -0.1257  0.1578  0.1097
 1809W        W 5553   4.492   0.772   0.789 -0.1175  0.2305  0.1240
 1810W        W 5554   3.120   2.719   8.567 -0.1950 -0.2762  0.2446
 1811W        W 5555   5.113   3.120   9.127  0.2517  0.0213  0.0127
 1812W        W 5556   7.066   4.604   2.677 -0.2578  0.2091  0.0683
 1813W        W 5557   1.312   9.057   3.164  0.0383 -0.0587 -0.0099
 1814W        W 5558   1.843   9.221  11.340 -0.0530  0.2362  0.1755
 1815W        W 5559   7.422   3.227   9.033 -0.2045 -0.2167  0.3964
 1816W        W 5560   2.202   7.042   1.375  0.2401 -0.1677 -0.4654
 1817W        W 5561   9.071   2.472  10.903  0.1898 -0.0799 -0.1101
 1818W        W 5562   6.606   0.956   9.289 -0.2472  0.0310  0.3611
 1819W        W 5563   0.841   9.162   0.771  0.0632 -0.0768 -0.1127
 1820W        W 5564   6.958   0.940   4.174  0.0251 -0.0991 -0.2271
 1821W        W 5565   9.392   4.583  12.738  0.1127 -0.1445 -0.0550
 1822W        W 5566   2.228   8.433  11.629 -0.0764  0.0568 -0.1516
 1823W        W 5567   8.881   5.698   1.910 -0.0619  0.0657 -0.1614
 1824W        W 5568   2.124   9.152   3.319  0.2257  0.0706  0.0362
 1825W        W 5569   2.809   3.524   1.369  0.0687  0.1212 -0.0691
 1826W        W 5570   6.292   8.093   1.366  0.1963  0.3113  0.0419
 1827W        W 5571   5.259   9.859   9.749  0.2131  0.1198 -0.2323
 1828W        W 5572   6.649   6.514  11.950  0.1564  0.0203 -0.2187
 1829W        W 5573   7.786   0.017   3.047 -0.0209 -0.2476 -0.2911
 1830W        W 5574   9.602   6.086   1.663 -0.2562  0.0157  0.0601
 1831W        W 5575   8.111   9.442   3.001  0.0179  0.0396 -0.1984
 1832W        W 5576   3.425   5.655   3.913  0.0579  0.0444 -0.2519
 1833W        W 5577   7.359   6.689  12.573  0.1695 -0.1158 -0.1203
 1834W        W 5578   8.942   5.094   8.669  0.0467  0.0467  0.2250
 1835W        W 5579   7.264   5.639   9.020  0.3453  0.2763 -0.0032
 1836W        W 5580   5.344   5.915   8.682  0.0954  0.1018  0.0276
 1837W        W 5581   6.961   9.336   9.373 -0.2788 -0.2387  0.1102
 1838W        W 5582   7.757   4.526  10.456  0.0188 -0.0846 -0.0709
 1839W        W 5583   6.847   8.260   3.756  0.1227  0.2175 -0.0293
 1840W        W 5584   3.514   7.601  12.391  0.0843  0.2740  0.3194
 1841W        W 5585   6.736   2.128   1.164 -0.1542  0.0450 -0.1730
 1842W        W 5586   9.447   2.642   0.348  0.0471 -0.0465 -0.1817
 1843W        W 5587   8.127   8.528   2.584 -0.0540 -0.2673  0.1772
 1844W        W 5588   4.466   3.338   2.156 -0.0458 -0.0236 -0.1444
 1845W        W 5589   4.905   9.737  11.488  0.0236  0.0378  0.0873
 1846W        W 5590   5.411   2.135   2.349  0.0344 -0.0823 -0.1484
 1847W        W 5591   9.576   1.522  12.545 -0.0852  0.1083 -0.0796
 1848W        W 5592   5.738   4.355   2.424 -0.1405  0.2593 -0.3076
 1849W        W 5593   7.011   6.706   9.092 -0.1566 -0.0051 -0.2022
 1850W        W 5594   3.027   1.713   1.706 -0.2082  0.5716  0.0106
 1851W        W 5595   2.459   8.634   0.589 -0.0191 -0.0501 -0.1930
 1852W        W 5596   3.524   4.622   1.150  0.0303 -0.0859 -0.2030
 1853W        W 5597   2.347   2.298   4.189 -0.2200 -0.3525 -0.0786
 1854W        W 5598   1.268   0.037   0.451 -0.3688 -0.2004  0.0380
 1855W        W 5599   2.695   7.287   8.456  0.2071  0.1541 -0.1032
 1856W        W 5600   0.007   8.244  11.016  0.4467  0.2067 -0.2024
 1857W        W 5601   8.697   4.599   1.109  0.0825  0.5469 -0.3595
 1858W        W 5602   2.536   2.224  12.140  0.3225 -0.0990  0.0962
 1859W        W 5603   3.838   7.793   3.378  0.0931 -0.2855  0.1186
 1860W        W 5604   1.557   7.545  12.323 -0.0544 -0.1464  0.2511
 1861W        W 5605   3.412   1.733  11.719 -0.2004 -0.2165 -0.1880
 1862W        W 5606   8.909   2.713   1.583  0.3686 -0.0788  0.1058
 1863W        W 5607   0.470   9.364  11.070  0.0217 -0.0349 -0.0785
 1864W        W 5608   6.535   7.245  10.300 -0.3429 -0.1209  0.2733
 1865W        W 5609   7.411   7.558  10.165 -0.2236  0.0929  0.2924
 1866W        W 5610   7.845   1.898   4.835 -0.0750  0.2518  0.1370
 1867W        W 5611   2.773   5.900  12.363 -0.0668  0.2012  0.1205
 1868W        W 5612   8.494   5.950   3.265 -0.2718  0.1460  0.2540
 1869W        W 5613   4.100   4.477   2.937 -0.1702  0.0437  0.0881
 1870W        W 5614   9.939   1.049  10.219  0.0237 -0.0248  0.0946
 1871W        W 5615   3.514   4.913  10.358  0.1946  0.1529  0.2540
 1872W        W 5616   7.248   9.307  12.520 -0.3229  0.2656  0.0457
 1873W        W 5617   4.253   2.384   2.684  0.0032 -0.1486  0.0617
 1874W        W 5618   2.954   7.223   4.135  0.1524  0.1316 -0.0033
 1875W        W 5619   4.004   0.171  12.293 -0.1502  0.2227  0.3714
 1876W        W 5620   3.191   2.347  11.438  0.0237  0.1480 -0.0762
 1877W        W 5621   4.263   3.285  11.027  0.0332  0.0617 -0.0795
 1878W        W 5622   1.277   2.797   9.742  0.2208  0.3329  0.0982
 1879W        W 5623   6.015   2.617   9.369 -0.0575 -0.4959  0.1172
 1880W        W 5624   1.165   4.221   1.334 -0.0886 -0.0682  0.0558
 1881W        W 5625   3.730   4.988   1.507 -0.1958  0.2534 -0.0516
 1882W        W 5626   1.492   3.994  12.417  0.3114  0.1455  0.1822
 1883W        W 5627   8.193   3.973  11.081 -0.2137 -0.0843  0.0499
 1884W        W 5628   1.483   2.652  10.604  0.1485 -0.0073 -0.0045
 1885W        W 5629   7.873   6.432  11.035 -0.1855 -0.2184 -0.1917
 1886W        W 5630   7.731   9.266  10.575  0.2232  0.1003 -0.0170
 1887W        W 5631   9.606   8.534   1.021  0.0892  0.0532 -0.1182
 1888W        W 5632   7.099   4.061  11.496 -0.4536 -0.1152 -0.1860
 1889W        W 5633   5.009   7.768  10.596 -0.2805 -0.2096  0.1539
 1890W        W 5634   2.728   8.144   3.486 -0.1184 -0.3043  0.4187
 1891W        W 5635   7.761   4.182  10.879  0.1377 -0.1824 -0.0042
 1892W        W 5636   0.385   3.610  10.405 -0.2094  0.4619  0.1981
 1893W        W 5637   9.912   2.424  11.971 -0.0737  0.2864  0.0620
 1894W        W 5638   8.070   6.910   0.433  0.1533  0.0347  0.0378
 1895W        W 5639   3.691   7.945  11.736  0.0573 -0.1394 -0.1275
 1896W        W 5640   6.184   4.156  10.562  0.0787  0.0793  0.3789
 1897W        W 5641   0.672   3.980  10.911 -0.0870  0.2459  0.1630
 1898W        W 5642   1.239   0.883  10.593  0.3154  0.1289  0.1663
 1899W        W 5643   1.928   4.361   0.852 -0.2231 -0.0023 -0.1376
 1900W        W 5644   0.505   1.375   2.099  0.0639  0.0500 -0.0298
 1901W        W 5645   3.527   0.750   0.831 -0.1840  0.2564  0.1888
 1902W        W 5646   4.591   5.467   2.699  0.2326 -0.1370  0.1019
 1903W        W 5647   4.758   2.616   9.842 -0.1386 -0.0258  0.1328
 1904W        W 5648   5.871   1.526  11.283 -0.0641 -0.2566  0.2833
 1905W        W 5649   5.708   8.155   3.677 -0.3215 -0.1158 -0.1032
 1906W        W 5650   6.017   2.779  10.397  0.0915 -0.1022  0.1581
 1907W        W 5651   8.796   8.740   3.550 -0.1176 -0.3091 -0.0096
 1908W        W 5652   7.062   7.674   2.924  0.0735  0.1984 -0.1122
 1909W        W 5653   5.702   1.133   9.910  0.1896  0.3943  0.1711
 1910W        W 5654   7.251   3.339   1.409 -0.2735 -0.0137 -0.2672
 1911W        W 5655   8.209   2.557  11.307 -0.1435  0.2328  0.1168
 1912W        W 5656   1.661   0.237  10.252 -0.3290  0.1303  0.1729
 1913W        W 5657   1.422   3.536   7.921 -0.0220  0.2714 -0.0180
 1914W        W 5658   8.473   1.428   9.149  0.1787 -0.0814  0.1086
 1915W        W 5659   0.398   4.312  11.770 -0.3899 -0.1483 -0.1562
 1916W        W 5660   5.713   5.948  10.729 -0.1198 -0.1217  0.0295
 1917W        W 5661   1.401   6.364   0.006 -0.0574 -0.0793 -0.4199
 1918W        W 5662   4.005   8.166   2.007 -0.1394  0.0173  0.2013
 1919W        W 5663   4.860   4.458   4.751 -0.0317 -0.1463  0.1289
 1920W        W 5664   3.869   5.523  12.214 -0.0227 -0.1557  0.2612
 1921W        W 5665   6.351   3.235   0.022  0.1974  0.1335 -0.0993
 1922W        W 5666   4.122   6.938  12.131  0.1691 -0.3287  0.0537
 1923W        W 5667   9.834   6.947   0.806  0.2715  0.1169  0.1897
 1924W        W 5668   5.157   2.509   2.936 -0.0963  0.1437 -0.1021
 1925W        W 5669   4.708   3.900   1.094  0.2075 -0.0079 -0.1520
 1926W        W 5670   7.490   8.706   2.009  0.1281  0.1507  0.2375
 1927W        W 5671   9.710   1.907   0.896 -0.3000  0.2835  0.0858
 1928W        W 5672   4.994   4.755   0.897 -0.2364 -0.2957  0.1523
 1929W        W 5673   3.774   7.853   1.643 -0.1206  0.1315  0.1730
 1930W        W 5674   8.584   2.878  11.530 -0.2428 -0.1384 -0.1689
 1931W        W 5675   1.921   6.357  12.150  0.2650 -0.0789  0.2172
 1932W        W 5676   2.054   4.647  12.311 -0.0625  0.2219 -0.2976
 1933W        W 5677   8.542   6.371   3.658 -0.3242 -0.2300  0.2040
 1934W        W 5678   0.023   3.386   2.102  0.1610  0.0468 -0.0487
 1935W        W 5679   9.661   9.780   3.081 -0.2483  0.0379  0.0320
 1936W        W 5680   5.041   7.606   0.552  0.1442  0.4906 -0.2044
 1937W        W 5681   6.067   2.095   1.473  0.0141 -0.1120  0.2515
 1938W        W 5682   6.640   7.047  10.706 -0.1252  0.2428 -0.2139
 1939W        W 5683   4.691   7.056  12.290 -0.0598  0.2453 -0.0988
 1940W        W 5684   5.907   3.977  11.470  0.1609 -0.3286 -0.0807
 1941W        W 5685   2.872   7.682   0.213 -0.0184  0.3513 -0.2567
 1942W        W 5686   8.359   2.897   0.112  0.1875 -0.0056  0.1316
 1943W        W 5687   4.052   3.156   3.313  0.2034 -0.2016 -0.2811
 1944W        W 5688   4.289   1.286   2.196  0.1458 -0.0043  0.0669
 1945W        W 5689   8.325   5.048   0.063 -0.2214  0.4299 -0.0802
 1946W        W 5690   6.363   8.488  12.048 -0.1962 -0.1519  0.1071
 1947W        W 5691   5.060   5.614   9.025  0.2360  0.0175  0.0774
 1948W        W 5692   1.965   5.633   8.077 -0.3065 -0.1849  0.1129
 1949W        W 5693   7.393   0.414   0.318  0.1306 -0.3766  0.0204
 1950W        W 5694   2.274   4.921   2.301  0.1355 -0.0070 -0.7197
 1951W        W 5695   7.225   1.478   2.284 -0.0660 -0.0835  0.2177
 1952W        W 5696   6.897   9.018   3.469  0.0537  0.1409  0.3695
 1953W        W 5697   1.592   0.566   3.014 -0.4161 -0.0257 -0.0190
 1954W        W 5698   3.667   4.958   2.686 -0.0744 -0.1035 -0.2358
 1955W        W 5699   5.799   0.004  10.697  0.0154  0.2843  0.1625
 1956W        W 5700   0.197   3.147   4.409 -0.3585  0.1695  0.3146
 1957W        W 5701   3.193   4.653   2.584  0.0417  0.2102  0.2849
 1958W        W 5702   5.435   0.528  10.616  0.3083  0.0917 -0.0780
 1959W        W 5703   9.501   8.426  12.072  0.2073  0.0405 -0.0709
 1960W        W 5704   2.036   5.714   2.780 -0.0238 -0.1270 -0.1029
 1961W        W 5705   9.360   7.793   1.487  0.0927 -0.1152 -0.1251
 1962W        W 5706   0.757   1.004   0.684 -0.1356 -0.0737  0.2194
 1963W        W 5707   9.374   3.303  10.341 -0.2926 -0.0123  0.2038
 1964W        W 5708   5.666   6.704   3.273  0.1293  0.3587  0.1628
 1965W        W 5709   8.534   2.990  12.435  0.0712  0.1163 -0.1967
 1966W        W 5710   7.802   2.510   9.773  0.1576  0.2072  0.1459
 1967W        W 5711   0.654   3.114   2.911  0.2585  0.2582 -0.1947
 1968W        W 5712   1.118   7.737   2.088 -0.0180 -0.1063 -0.0514
 1969W        W 5713   9.876   4.566  10.224 -0.1005 -0.1173  0.0471
 1970W        W 5714   3.387   6.289   8.896  0.1152 -0.1999  0.1118
 1971W        W 5715   5.832   8.136  10.981  0.3058  0.2356  0.2703
 1972W        W 5716   0.903   1.488   9.976  0.1595 -0.2566 -0.0041
 1973W        W 5717   2.929   1.270   1.964 -0.0671 -0.1257  0.0401
 1974W        W 5718   4.084   4.419   9.021 -0.2098 -0.3384  0.1517
 1975W        W 5719   5.096   6.640  11.978  0.0251  0.2109  0.1888
 1976W        W 5720   3.580   4.110   1.231 -0.0332  0.1339  0.1550
 1977W        W 5721   3.312   0.885   5.129 -0.0453 -0.4559 -0.2519
 1978W        W 5722   9.109   3.090   2.959 -0.2207 -0.2797 -0.3051
 1979W        W 5723   4.480   2.503  11.495  0.1511  0.1437  0.1391
 1980W        W 5724   2.993   5.724   8.355 -0.0349  0.0586 -0.3221
 1981W        W 5725   5.367   7.782  11.884  0.2023  0.0791 -0.2598
 1982W        W 5726   4.177   0.497  11.522  0.1664 -0.1582 -0.1343
 1983W        W 5727   3.127   4.134  10.753  0.0579  0.1317 -0.2447
 1984W        W 5728   5.226   5.445   3.434  0.2878  0.1075  0.1819
 1985W        W 5729   9.244   3.973   9.717  0.3847 -0.0948 -0.0230
 1986W        W 5730   0.935   5.479   3.267  0.3485  0.0076  0.1783
 1987W        W 5731   5.422   5.241   9.818 -0.0188 -0.2605  0.0423
 1988W        W 5732   3.970   7.334  12.547  0.5631  0.0583  0.1159
 1989W        W 5733   6.115   4.808  10.112 -0.2625  0.0116 -0.0735
 1990W        W 5734   2.848   1.227   8.547  0.0153 -0.0796 -0.6756
 1991W        W 5735   7.448   5.805   9.877  0.3701 -0.1653  0.2791
 1992W        W 5736   4.606   9.270   9.552  0.1759 -0.1766 -0.2330
 1993W        W 5737   1.666   2.242   0.154 -0.1085 -0.0145  0.0731
 1994W        W 5738   5.161   4.832   0.350 -0.4903  0.2640  0.0084
 1995W        W 5739   3.287   6.715   1.403 -0.1840 -0.1109  0.1005
 1996W        W 5740   5.090   6.937   4.045 -0.2254  0.0148 -0.1948
 1997W        W 5741   4.223   0.105  12.786  0.1081 -0.1645 -0.2498
 1998W        W 5742   3.160   8.819   1.634  0.0951  0.0850 -0.1286
 1999W        W 5743   1.961   1.986   2.719 -0.0482 -0.2094  0.0906
 2000W        W 5744   5.996   5.924   0.772 -0.0069 -0.0406  0.3865
 2001W        W 5745   3.048   7.214   1.643  0.0476  0.0166  0.0160
 2002W        W 5746   2.421   4.251   0.901 -0.0500  0.4960 -0.0403
 2003W        W 5747   9.125   9.942  10.620  0.0298 -0.0519  0.0946
 2004W        W 5748   2.529   1.031   0.706  0.2848 -0.0534 -0.1090
 2005W        W 5749   7.612   1.487   4.952 -0.3308  0.2068  0.2386
 2006W        W 5750   5.886   5.157   1.053 -0.1478 -0.3236 -0.1807
 2007W        W 5751   1.649   9.831  11.618 -0.0826  0.0581 -0.0066
 2008W        W 5752   4.614   0.757  12.751  0.0007 -0.3916 -0.0669
 2009W        W 5753   4.685   2.932  11.703  0.5626 -0.1853  0.1102
 2010W        W 5754   1.137   7.333   3.645  0.0152 -0.1344 -0.0189
 2011W        W 5755   9.734   7.004  11.709 -0.1437 -0.0369  0.0986
 2012W        W 5756   8.225   7.782  12.024  0.1165 -0.1925  0.4608
 2013W        W 5757   2.368   6.027  12.043  0.0676 -0.2035 -0.1096
 2014W        W 5758   3.167   8.878   1.059 -0.1748  0.0140  0.4249
 2015W        W 5759   4.161   3.954   2.917  0.0445  0.1095  0.0170
 2016W        W 5760   0.202   6.637   2.859  0.0977 -0.1469  0.0598
 2017W        W 5761   2.613   0.325   2.962 -0.1332 -0.1478 -0.1923
 2018W        W 5762   2.323   3.041   3.479  0.1763  0.0896  0.2591
 2019W        W 5763   1.953   9.844   2.052  0.3265  0.0183  0.0362
 2020W        W 5764   1.162   9.306  11.683  0.1720  0.3250  0.1643
 2021W        W 5765   6.258   7.278   1.482  0.0505  0.0636 -0.1015
 2022W        W 5766   2.977   5.788   1.422  0.1855  0.1736 -0.0007
 2023W        W 5767   7.188   3.529   9.688  0.1849  0.2686  0.0244
 2024W        W 5768   1.519   0.672  11.889  0.1965 -0.1163  0.0254
 2025W        W 5769   4.532   0.499  11.043 -0.1428 -0.1091 -0.0703
 2026W        W 5770   1.025   1.357   2.003 -0.1273  0.3459 -0.1450
 2027W        W 5771   7.585   4.037  11.323  0.1030 -0.1171 -0.0034
 2028W        W 5772   7.355   4.131  10.537  0.1234  0.2254  0.0517
 2029W        W 5773   8.999   9.632  10.206 -0.2383  0.2903 -0.0705
 2030W        W 5774   8.943   1.107  10.020 -0.2117 -0.0145 -0.1346
 2031W        W 5775   0.642   1.067   9.539  0.2596 -0.3983 -0.0830
 2032W        W 5776   4.601   1.733   4.159  0.3946 -0.3205  0.1102
 2033W        W 5777   9.711   1.973   9.324 -0.1030  0.3298  0.0582
 2034W        W 5778   3.656   1.946   3.655 -0.3577 -0.0124 -0.1675
 2035W        W 5779   1.396   8.225  11.038  0.2279  0.0997 -0.2003
 2036W        W 5780   2.527   4.525   8.750  0.0296  0.0575 -0.5131
 2037W        W 5781   5.572   6.303   8.982  0.1887 -0.0338  0.3273
 2038W        W 5782   4.165   1.060   0.516 -0.1414 -0.3161  0.2046
 2039W        W 5783   4.041   0.979   3.899  0.1555  0.1376  0.0685
 2040W        W 5784   3.799   8.257   0.842  0.0417  0.4634 -0.3662
 2041W        W 5785   0.872   5.003   0.161 -0.0985 -0.1041 -0.1762
 2042W        W 5786   4.802   1.299   2.137 -0.0644  0.0715 -0.2783
 2043W        W 5787   8.795   9.062   3.186 -0.0398  0.0599  0.2689
 2044W        W 5788   7.148   7.560   9.176 -0.1877  0.1126  0.0587
 2045W        W 5789   3.407   9.278  12.392  0.1770  0.2731  0.0587
 2046W        W 5790   7.890   3.401   3.415  0.0405 -0.0300 -0.2099
 2047W        W 5791   9.495   5.351  10.626 -0.1196  0.0728  0.0231
 2048W        W 5792   3.520   4.383   3.620 -0.3251  0.3137 -0.3313
 2049W        W 5793   9.171   2.438   3.764  0.0366 -0.1002  0.4495
 2050W        W 5794   4.345   3.881   2.064  0.0730  0.0298 -0.0131
 2051W        W 5795   9.748   6.319  10.318  0.0972  0.0273 -0.0326
 2052W        W 5796   1.669   4.517   1.995  0.2446  0.1074  0.1984
 2053W        W 5797   0.022   6.994  12.726 -0.2484  0.0903 -0.3695
 2054W        W 5798   9.614   4.874  11.267 -0.0779  0.0454  0.3226
 2055W        W 5799   8.464   1.187  11.942 -0.1542 -0.0198  0.3391
 2056W        W 5800   9.381   6.570  10.556  0.0891  0.2221  0.0235
 2057W        W 5801   3.200   8.562  10.961 -0.1184  0.0738  0.1466
 2058W        W 5802   8.514   0.287   2.425 -0.2955  0.0431  0.1361
 2059W        W 5803   3.230   2.888  11.605  0.0297 -0.3859  0.0117
 2060W        W 5804   9.941   6.733  10.535  0.1536  0.2765  0.1103
 2061W        W 5805   1.136   5.583  12.392  0.2247  0.0835 -0.0425
 2062W        W 5806   0.582   9.823   4.044 -0.2080 -0.0736  0.1439
 2063W        W 5807   9.763   2.938   9.217  0.2282  0.2341  0.0675
 2064W        W 5808   0.372   7.213  10.735 -0.1619  0.2824 -0.1389
 2065W        W 5809   4.560   2.283   4.088  0.2389  0.1140 -0.0032
 2066W        W 5810   2.449   4.101   3.686  0.3808 -0.0957 -0.3194
 2067W        W 5811   3.442   5.108   4.051  0.1649  0.2377  0.0110
 2068W        W 5812   4.518   1.592   3.153 -0.1803  0.0030  0.0880
 2069W        W 5813   9.321   0.044   2.814  0.0721 -0.1280 -0.1154
 2070W        W 5814   8.193   0.478   2.083 -0.0781 -0.1513 -0.0977
 2071W        W 5815   7.893   4.078   0.250 -0.0085  0.0157 -0.0432
 2072W        W 5816   9.705   4.192  12.548 -0.1632 -0.0953  0.0938
 2073W        W 5817   8.178   6.200  12.045 -0.0816  0.0609 -0.0411
 2074W        W 5818   1.378   6.331   4.289 -0.0654 -0.0045 -0.0723
 2075W        W 5819   2.288   4.582  11.736 -0.0177  0.0777 -0.2432
 2076W        W 5820   4.251   0.318  10.337 -0.0955 -0.0210  0.0963
 2077W        W 5821   3.143   7.041   2.641  0.0552 -0.0289 -0.0848
 2078W        W 5822   2.136   7.837  10.130 -0.3299  0.2048 -0.0549
 2079W        W 5823   9.182   3.100   9.106  0.1218  0.0439  0.0362
 2080W        W 5824   2.307   6.989   3.522 -0.0465  0.2889  0.1314
 2081W        W 5825   5.232   6.508   9.442  0.0408 -0.0781 -0.1607
 2082W        W 5826   1.459   2.622   4.114 -0.0852 -0.3531 -0.1295
 2083W        W 5827   7.183   5.023   2.890 -0.0329  0.1610 -0.0169
 2084W        W 5828   0.336   5.968   9.563 -0.3390 -0.0767 -0.0299
 2085W        W 5829   1.458   2.532  10.113  0.0089 -0.1843  0.0078
 2086W        W 5830   8.881   9.531   0.237  0.1647 -0.0160 -0.0454
 2087W        W 5831   5.822   7.647   8.933 -0.1389 -0.0582 -0.1125
 2088W        W 5832   8.501   2.160   4.479  0.2000 -0.3252 -0.1314
 2089W        W 5833   8.695   1.663   8.428 -0.1499  0.1616  0.1144
 2090W        W 5834   4.377   4.460   1.741 -0.2879  0.3419  0.1594
 2091W        W 5835   9.350   2.837   1.238  0.2389 -0.2270  0.3059
 2092W        W 5836   3.768   5.491   1.434 -0.0221 -0.2912  0.0593
 2093W        W 5837   6.132   9.596  11.365 -0.0610 -0.3482 -0.0807
 2094W        W 5838   9.748   8.563   0.011 -0.0280  0.4419 -0.0252
 2095W        W 5839   8.555   8.084  11.192 -0.3095 -0.0619 -0.0138
 2096W        W 5840   9.550   2.409  10.457  0.0698 -0.3313  0.1384
 2097W        W 5841   8.326   6.975   1.744 -0.0744 -0.0302  0.3684
 2098W        W 5842   7.030   6.510   2.233 -0.0844  0.1740  0.0154
 2099W        W 5843   1.386   8.951  11.236  0.4110  0.0137  0.0614
 2100W        W 5844   2.204   5.228   3.226 -0.2163  0.0436  0.1257
 2101W        W 5845   6.035   5.278   2.426 -0.1380  0.3258  0.1063
 2102W        W 5846   8.930   2.420  12.499 -0.1692 -0.1110 -0.0828
 2103W        W 5847   6.012   3.118   4.555  0.2282  0.2438 -0.2221
 2104W        W 5848   9.616   4.788   0.804  0.1502  0.0016  0.0077
 2105W        W 5849   5.578   2.355   9.351  0.0977 -0.1387  0.2020
 2106W        W 5850   5.826   2.504   0.900  0.0751  0.0724 -0.2247
 2107W        W 5851   9.803   1.784   0.402  0.0664  0.3706  0.0420
 2108W        W 5852   8.754   3.105   9.541 -0.5000 -0.1309 -0.0656
 2109W        W 5853   8.477   0.151   1.733  0.3383  0.0242  0.1548
 2110W        W 5854   9.224   6.285  11.021  0.1329 -0.0749 -0.1555
 2111W        W 5855   6.202   3.170   3.590  0.1622 -0.2506  0.2487
 2112W        W 5856   9.151   8.229   0.736  0.1212  0.1899  0.1515
 2113W        W 5857   5.933   7.739   1.464 -0.4974 -0.0921 -0.2658
 2114W        W 5858   4.143   3.248   3.819  0.2683 -0.3641  0.0529
 2115W        W 5859   9.537   2.079   3.602  0.2143 -0.4797 -0.0161
 2116W        W 5860   5.200   3.549  11.395  0.0853  0.1009 -0.2312
 2117W        W 5861   0.266   0.496  10.635  0.0353  0.1553 -0.0463
 2118W        W 5862   9.351   0.601   3.938  0.0376 -0.0779 -0.0176
 2119W        W 5863   3.129   0.561  12.427  0.0685  0.1631  0.0085
 2120W        W 5864   4.851   1.431   4.665  0.0802  0.4520 -0.0728
 2121W        W 5865   1.643   6.031   3.004  0.1929  0.1753  0.2159
 2122W        W 5866   9.094   8.211   9.906  0.1747  0.0559 -0.1729
 2123W        W 5867   0.696   8.488   2.154 -0.0986 -0.1442  0.1131
 2124W        W 5868   3.806   3.126  12.103  0.0482  0.2984 -0.2520
 2125W        W 5869   6.303   7.713   0.961 -0.0795 -0.2058 -0.2611
 2126W        W 5870   2.573   8.022   1.870  0.0366 -0.1643  0.0084
 2127W        W 5871   0.865   1.779  10.369 -0.1150  0.0430 -0.3891
 2128W        W 5872   4.990   9.755   1.744 -0.1984  0.1509 -0.0255
 2129W        W 5873   4.946   9.433   9.149  0.1145  0.0300  0.1162
 2130W        W 5874   4.441   6.599  11.454  0.0913 -0.2247  0.3022
 2131W        W 5875   3.257   0.415   9.305 -0.0948 -0.1358  0.3423
 2132W        W 5876   3.072   9.292  10.366  0.1737 -0.2134 -0.3614
 2133W        W 5877   1.818   1.890   2.099 -0.1853 -0.1519 -0.1383
 2134W        W 5878   6.820   7.677  12.494 -0.1307  0.0576 -0.0153
 2135W        W 5879   9.749   9.146   0.873 -0.1355 -0.2729  0.0996
 2136W        W 5880   6.184   0.586   1.588  0.1790  0.0050 -0.1424
 2137W        W 5881   6.063   1.501   3.535 -0.1895  0.0795 -0.1139
 2138W        W 5882   9.878   7.065   3.046  0.0720 -0.2388 -0.1882
 2139W        W 5883   5.392   4.525   2.111 -0.0888  0.4707  0.1200
 2140W        W 5884   4.234   6.570   1.124 -0.1605 -0.3151  0.1335
 2141W        W 5885   6.521   7.974   9.765  0.1223  0.0339  0.0260
 2142W        W 5886   7.875   8.327  10.165  0.1000 -0.0748  0.2760
 2143W        W 5887   3.726   2.163   0.962  0.1659 -0.2236 -0.0945
 2144W        W 5888   0.451   6.444   9.695 -0.2807 -0.2899  0.1539
 2145W        W 5889   1.684   5.600  12.644 -0.0797  0.2416 -0.0928
 2146W        W 5890   3.281   7.900  10.213 -0.0111  0.1811  0.0660
 2147W        W 5891   9.016   9.434  12.166 -0.2142 -0.0559 -0.1537
 2148W        W 5892   6.435   4.557   3.103  0.3348  0.2546 -0.0473
 2149W        W 5893   5.812   9.815   3.898 -0.0080 -0.3181  0.4118
 2150W        W 5894   7.631   9.847   2.608 -0.1365 -0.0546  0.1371
 2151W        W 5895   8.532   3.245   0.568  0.1681  0.1870  0.0996
 2152W        W 5896   1.300   4.275  12.032 -0.0819 -0.1933  0.0424
 2153W        W 5897   8.995   4.398   9.392  0.2413  0.0486  0.1676
 2154W        W 5898   9.698   1.915  12.240  0.1208 -0.0247  0.3782
 2155W        W 5899   1.045   0.841   9.252  0.1683  0.4342 -0.0340
 2156W        W 5900   7.969   0.329  10.958 -0.0576 -0.1892  0.1751
 2157W        W 5901   5.539   2.489   0.083 -0.1622 -0.2002  0.2406
 2158W        W 5902   3.304   4.777   1.687  0.1068  0.0743  0.0697
 2159W        W 5903   5.472   9.669  12.316 -0.0190 -0.0383  0.1189
 2160W        W 5904   5.930   1.470   9.085  0.1729 -0.0313  0.1417
 2161W        W 5905   7.732   8.893   3.631  0.0904  0.2316  0.1029
 2162W        W 5906   1.355   5.091  11.034 -0.0008  0.1659 -0.0046
 2163W        W 5907   5.118   3.210  12.275  0.1326  0.0443 -0.0117
 2164W        W 5908   7.413   1.467   1.068  0.1180 -0.2113 -0.2928
 2165W        W 5909   1.347   0.496   3.477  0.2577 -0.1397 -0.0706
 2166W        W 5910   9.661   5.441   3.941 -0.1223 -0.3241 -0.3152
 2167W        W 5911   2.383   3.539   9.508  0.0010 -0.1432 -0.3138
 2168W        W 5912   1.534   1.612  11.871  0.2542 -0.0194  0.0054
 2169W        W 5913   0.375   5.595   2.192 -0.0799 -0.0106 -0.1435
 2170W        W 5914   2.475   9.690   0.385  0.3669  0.0415 -0.0251
 2171W        W 5915   0.508   1.546  11.209  0.3057  0.0262  0.1304
 2172W        W 5916   9.944   5.554   0.869 -0.0257 -0.1455 -0.2587
 2173W        W 5917   8.416   5.168   2.440 -0.1331  0.0172  0.0393
 2174W        W 5918   9.801   2.170   1.754  0.0867 -0.1974 -0.1517
 2175W        W 5919   6.965   3.129   4.195 -0.1077  0.1365  0.0913
 2176W        W 5920   5.778   3.948   5.191  0.1760  0.5033  0.1823
 2177W        W 5921   0.315   1.305   3.447  0.2473  0.0067 -0.0115
 2178W        W 5922   4.441   3.279   1.667 -0.0591  0.1521 -0.3152
 2179W        W 5923   0.802   4.220  12.771  0.1929  0.1099  0.0100
 2180W        W 5924   9.083   7.295   3.545 -0.1805 -0.1515 -0.0707
 2181W        W 5925   1.345   6.546   2.199 -0.3246  0.2937 -0.2076
 2182W        W 5926   7.922   0.465  10.158  0.1881 -0.1298 -0.2244
 2183W        W 5927   2.078   3.084  12.419 -0.2691  0.1090  0.0246
 2184W        W 5928   1.748   1.620  11.406  0.3076 -0.1276 -0.2559
 2185W        W 5929   8.501   7.158   3.718 -0.1704 -0.0408 -0.0500
 2186W        W 5930   6.593   4.236   9.062 -0.2686  0.0848 -0.3091
 2187W        W 5931   1.492   9.009   9.913  0.2351 -0.2077  0.1042
 2188W        W 5932   2.780   1.167  10.764  0.1269  0.0119 -0.3515
 2189W        W 5933   5.981   1.229   0.122  0.0948  0.0645 -0.1828
 2190W        W 5934   4.072   0.605  12.030  0.0459 -0.0169  0.0789
 2191W        W 5935   1.220   1.156  11.965 -0.0619 -0.1448 -0.1772
 2192W        W 5936   0.823   6.999   9.006 -0.1007  0.2744  0.0771
 2193W        W 5937   1.901   3.429  10.150 -0.0487 -0.1300 -0.3041
 2194W        W 5938   6.481   0.038   0.573 -0.0472 -0.0112 -0.3208
 2195W        W 5939   4.297   3.096   2.699 -0.2909 -0.1121  0.0063
 2196W        W 5940   8.263   3.979   4.061 -0.0209 -0.1301  0.1384
 2197W        W 5941   6.252   1.411   0.577  0.0188  0.1577  0.0030
 2198W        W 5942   4.310   9.794  10.682  0.0262  0.3284  0.2030
 2199W        W 5943   0.629   5.892   3.233 -0.1687 -0.0252 -0.0591
 2200W        W 5944   7.499   8.554   1.116 -0.1382  0.0771  0.0958
 2201W        W 5945   5.917   5.984   8.622  0.2671 -0.2398 -0.2349
 2202W        W 5946   7.660   3.453  11.293  0.0880 -0.0228  0.0692
 2203W        W 5947   9.535   7.446  12.245  0.0105  0.0325 -0.1889
 2204W        W 5948   1.214   6.045   3.355  0.2891 -0.0981  0.2866
 2205W        W 5949   6.455   7.879   3.761  0.1018 -0.0367 -0.0978
 2206W        W 5950   9.407   3.079   9.592 -0.0724 -0.1149  0.1346
 2207W        W 5951   9.350   2.643   2.258  0.0056  0.0034  0.2225
 2208W        W 5952   9.425   6.652  12.824 -0.0375 -0.0469  0.0634
 2209W        W 5953   2.978   7.157   3.140  0.2826 -0.1312  0.5387
 2210W        W 5954   1.689   4.137  10.509 -0.2244  0.0518 -0.2394
 2211W        W 5955   9.925   2.735  10.907  0.1819 -0.1535  0.1602
 2212W        W 5956   6.911   0.601   3.786  0.4370  0.1243 -0.2805
 2213W        W 5957   5.649   6.311  12.674 -0.1239  0.2676  0.1799
 2214W        W 5958   1.645   3.733   2.714 -0.1862 -0.2214  0.3843
 2215W        W 5959   0.847   9.794   5.045 -0.0277 -0.4095 -0.1115
 2216W        W 5960   8.717   4.292   8.932  0.1958  0.0713  0.2214
 2217W        W 5961   1.721   6.952   1.311 -0.5349 -0.2983  0.0830
 2218W        W 5962   2.680   0.760   8.164 -0.0392  0.1110  0.2116
 2219W        W 5963   3.965   9.558  12.751 -0.1582  0.2256 -0.0597
 2220W        W 5964   3.458   4.432   2.080  0.0744  0.0607  0.0726
 2221W        W 5965   9.428   7.812   2.009 -0.1394 -0.2938 -0.1008
 2222W        W 5966   8.134   5.200   3.888  0.1090 -0.0308  0.0957
 2223W        W 5967   4.188   1.390   4.280  0.0820 -0.2513 -0.0814
 2224W        W 5968   0.557   4.878   1.450  0.0888  0.2055 -0.3109
 2225W        W 5969   1.748   4.156   9.076 -0.0818 -0.0026  0.6829
 2226W        W 5970   2.287   2.143   2.286 -0.0866 -0.1012 -0.1237
 2227W        W 5971   7.701   3.099  12.224 -0.2398 -0.0164  0.0476
 2228W        W 5972   5.887   5.068   8.717  0.1356 -0.3569 -0.1260
 2229W        W 5973   1.949   4.462  11.477  0.0846  0.3508 -0.3313
 2230W        W 5974   0.540   0.143  10.412  0.0805  0.2355  0.2831
 2231W        W 5975   8.907   1.825  10.309  0.1491  0.2924 -0.1645
 2232W        W 5976   1.228   5.410   9.220  0.3146  0.2073 -0.3617
 2233W        W 5977   1.195   4.037  10.545 -0.0300 -0.0580 -0.1586
 2234W        W 5978   2.205   3.408  10.564  0.0734 -0.0449 -0.1936
 2235W        W 5979   1.361   3.620   1.316 -0.3509  0.0142 -0.1627
 2236W        W 5980   7.307   3.553   0.034 -0.0110  0.1219 -0.1756
 2237W        W 5981   3.273   4.184   2.520  0.0644  0.1402  0.1043
 2238W        W 5982   2.608   0.895   0.199  0.1206  0.1823  0.0993
 2239W        W 5983   8.052   3.160   2.388  0.2212  0.1603  0.1226
 2240W        W 5984   4.703   9.359   3.942 -0.0189 -0.2380  0.0210
 2241W        W 5985   5.599   4.200   3.032  0.0166  0.0762 -0.2075
 2242W        W 5986   3.378   1.261  11.573 -0.3631  0.1361 -0.1105
 2243W        W 5987   2.951   8.892   3.935 -0.0024 -0.2098  0.0450
 2244W        W 5988   7.245   9.679  10.834  0.2441  0.3190  0.0884
 2245W        W 5989   3.883   8.929   4.566  0.0720 -0.0518  0.0531
 2246W        W 5990   5.998   1.308   4.506 -0.7594 -0.1038 -0.3386
 2247W        W 5991   4.130   1.147   8.852 -0.2514 -0.1304  0.1188
 2248W        W 5992   1.035   6.470  11.985  0.1177  0.1210  0.4658
 2249W        W 5993   1.430   5.762  11.064 -0.1307  0.3291  0.1661
 2250W        W 5994   5.791   7.094   0.248  0.1612  0.0349 -0.1320
 2251W        W 5995   1.420   8.385  12.551 -0.0807  0.1665 -0.1401
 2252W        W 5996   6.468   2.144   0.245 -0.5041  0.1430 -0.1398
 2253W        W 5997   6.622   1.326   2.632  0.1276  0.2254  0.1703
 2254W        W 5998   2.472   6.190  11.224 -0.2376 -0.0345  0.1889
 2255W        W 5999   4.595   4.910   3.462 -0.0370  0.0888 -0.0024
 2256W        W 6000   7.976   3.062  11.423  0.0169  0.0109 -0.3352
 2257W        W 6001   1.578   5.037   1.547 -0.1841 -0.0575 -0.1308
 2258W        W 6002   0.699   5.688   3.681  0.2318 -0.1371 -0.0692
 2259W        W 6003   6.169   0.931   2.455  0.1213  0.0834 -0.2541
 2260W        W 6004   0.856   8.286   9.611  0.1170  0.1287  0.2014
 2261W        W 6005   4.385   1.220   9.369 -0.1474  0.0012  0.3359
 2262W        W 6006   8.173   1.118   9.460 -0.3358 -0.2895 -0.2758
 2263W        W 6007   5.692   0.984   2.102 -0.3974  0.3203 -0.0844
 2264W        W 6008   8.768   1.609   3.909 -0.0938  0.0135  0.1815
 2265W        W 6009   8.878   0.663   2.404 -0.1392  0.1392  0.0861
 2266W        W 6010   3.797   2.289   2.799  0.3973 -0.1683  0.1996
 2267W        W 6011   4.738   1.125   4.134 -0.0645  0.4812  0.0914
 2268W        W 6012   5.376   2.236   4.742  0.1517  0.0538  0.3832
 2269W        W 6013   5.570   1.332  10.361  0.1884 -0.0704 -0.2804
 2270W        W 6014   0.789   6.205   3.609  0.0557  0.1660  0.0425
 2271W        W 6015   3.066   5.251  10.197  0.1311 -0.2203  0.1520
 2272W        W 6016   5.654   5.016   3.951 -0.2007 -0.0063  0.1541
 2273W        W 6017   0.479   1.194  10.022  0.0474 -0.2499 -0.4623
 2274W        W 6018   8.543   7.537   0.921  0.1749 -0.0027  0.1024
 2275W        W 6019   6.729   9.869   3.220 -0.1223  0.1744  0.1719
 2276W        W 6020   5.555   0.668   4.101  0.0338 -0.1022 -0.1813
 2277W        W 6021   7.213   5.270   0.831  0.1734  0.2814  0.0777
 2278W        W 6022   0.396   3.251   3.690  0.4439  0.0523 -0.0247
 2279W        W 6023   9.749   7.039   2.064  0.2409 -0.1470 -0.0251
 2280W        W 6024   1.099   9.115   2.628  0.1892 -0.3594 -0.1083
 2281W        W 6025   9.521   3.396   9.279  0.1192  0.2033  0.2033
 2282W        W 6026   2.666   8.466   3.916  0.0804 -0.0158  0.1010
 2283W        W 6027   4.135   5.419  10.560 -0.1442 -0.4003  0.1185
 2284W        W 6028   2.359   0.099   9.286  0.1219 -0.0891  0.1239
 2285W        W 6029   3.988   9.086  12.493 -0.4224 -0.2916  0.1675
 2286W        W 6030   4.119   5.205   1.252 -0.0861  0.1226  0.0735
 2287W        W 6031   8.288   7.481  11.015  0.1874 -0.1500  0.0184
 2288W        W 6032   0.910   2.397   3.566 -0.1614  0.2367  0.2358
 2289W        W 6033   5.820   5.045  12.403  0.1008  0.1154 -0.0171
 2290W        W 6034   4.926   4.638   1.802  0.0918  0.1700  0.3612
 2291W        W 6035   0.507   1.549  12.099 -0.0021  0.2646  0.0291
 2292W        W 6036   5.973   9.447  12.358 -0.0154  0.4149  0.0954
 2293W        W 6037   1.977   8.423   3.124 -0.0065 -0.2423 -0.1218
 2294W        W 6038   4.676   5.240   0.474  0.1274  0.0438 -0.0469
 2295W        W 6039   7.372   6.968   1.448 -0.0498 -0.1779 -0.1654
 2296W        W 6040   7.568   2.303  12.516  0.0523  0.1212 -0.0055
 2297W        W 6041   0.683   6.351   9.184  0.1149  0.2103  0.0349
 2298W        W 6042   7.294   7.536  12.201 -0.1948 -0.1439 -0.0420
 2299W        W 6043   2.573   5.290   9.894 -0.1000  0.2010 -0.1399
 2300W        W 6044   7.497   1.818   0.499  0.1288  0.0496  0.0592
 2301W        W 6045   7.010   2.911   1.341 -0.3341  0.0664 -0.1331
 2302W        W 6046   8.281   4.333   3.214  0.1582 -0.0770  0.0555
 2303W        W 6047   0.189   7.055   0.418 -0.0570  0.1017 -0.1073
 2304W        W 6048   4.677   9.186  11.952 -0.1604 -0.0785  0.1294
 2305W        W 6049   4.270   6.931   1.984  0.1039  0.2943 -0.0768
 2306W        W 6050   6.058   8.125   2.925  0.0609  0.1492  0.0644
 2307W        W 6051   5.485   3.085  11.459  0.1873  0.3066  0.3805
 2308W        W 6052   1.385   8.193   3.890  0.2381 -0.0555 -0.1313
 2309W        W 6053   8.452   9.133  10.882 -0.2049  0.0466 -0.1951
 2310W        W 6054   6.775   8.673   0.682  0.2502  0.2572 -0.2286
 2311W        W 6055   2.024   2.208   9.225 -0.1200 -0.1688 -0.1962
 2312W        W 6056   8.269   1.448   3.473  0.2148  0.2012  0.2600
 2313W        W 6057   6.065   3.975   2.353 -0.1011  0.0704  0.1120
 2314W        W 6058   1.095   3.933   3.995  0.5161  0.2185 -0.3258
 2315W        W 6059   6.764   3.275  12.555  0.0011  0.0746  0.1086
 2316W        W 6060   0.268   2.123   4.018  0.1345  0.3836 -0.1531
 2317W        W 6061   0.170   2.231   0.531 -0.0830  0.1354 -0.1837
 2318W        W 6062   1.324   9.813   1.785  0.0160 -0.0030 -0.1228
 2319W        W 6063   4.180   2.047   9.145  0.0029  0.0264 -0.2207
 2320W        W 6064   3.000   4.191   3.739 -0.1790 -0.0103 -0.0847
 2321W        W 6065   2.069   9.181   3.842  0.1585  0.1747 -0.1863
 2322W        W 6066   2.092   6.159   1.508 -0.0500  0.1493 -0.1063
 2323W        W 6067   8.517   3.409  10.302  0.1028  0.3352 -0.1001
 2324W        W 6068   1.884   8.783   9.667  0.0683 -0.0256  0.1166
 2325W        W 6069   9.042   4.342   3.642 -0.3103 -0.2457 -0.0871
 2326W        W 6070   2.954   0.799   0.636 -0.0611  0.1196 -0.1922
 2327W        W 6071   4.758   0.300   8.000  0.1720 -0.0771 -0.2318
 2328W        W 6072   3.393   9.940   1.157 -0.3171 -0.2748  0.1335
 2329W        W 6073   4.028   9.837   9.157 -0.3038 -0.0738 -0.0264
 2330W        W 6074   1.832   3.775   1.325 -0.2103  0.0009  0.4000
 2331W        W 6075   3.046   7.105   8.849  0.1278 -0.1494  0.3050
 2332W        W 6076   7.433   4.539   3.651  0.0580  0.0109 -0.0134
 2333W        W 6077   0.328   3.382  12.568  0.1264  0.2238 -0.0929
 2334W        W 6078   4.178   5.786   1.380 -0.0407  0.2473  0.1623
 2335W        W 6079   0.690   2.252   1.710 -0.1088  0.0552 -0.3580
 2336W        W 6080   9.735   9.532   4.081  0.0988  0.0880 -0.0251
 2337W        W 6081   5.348   4.625  11.780 -0.1820 -0.1432 -0.1364
 2338W        W 6082   7.760   0.194   0.020  0.2144 -0.0051 -0.0095
 2339W        W 6083   1.813   4.633   3.790 -0.1918 -0.2016 -0.1547
 2340W        W 6084   4.090   9.461   7.901 -0.3781  0.2750 -0.0069
 2341W        W 6085   2.125   8.850  10.129  0.0288  0.2325  0.1009
 2342W        W 6086   5.997   9.444  10.106 -0.2457 -0.1323 -0.0021
 2343W        W 6087   9.849   0.631   4.015  0.2590  0.3159  0.1997
 2344W        W 6088   0.325   1.748  11.669 -0.1000  0.0630  0.0242
 2345W        W 6089   6.645   2.592  12.184  0.0246 -0.0681  0.0438
 2346W        W 6090   0.586   2.936  12.014 -0.1849 -0.3133 -0.4123
 2347W        W 6091   7.058   0.553   1.172 -0.0274 -0.1958 -0.1703
 2348W        W 6092   6.878   9.533   1.460 -0.0317  0.1932 -0.2963
 2349W        W 6093   6.815   9.071   0.236  0.0499 -0.1695 -0.0779
 2350W        W 6094   3.125   9.361   0.973 -0.0484 -0.0297  0.1615
 2351W        W 6095   8.485   9.609   9.951  0.2231  0.1432 -0.0226
 2352W        W 6096   7.464   4.840  10.089 -0.0326  0.1244  0.0221
 2353W        W 6097   4.751   1.188   1.628  0.1739 -0.1698 -0.0750
 2354W        W 6098   8.161   9.073   1.560  0.1492  0.0862  0.1976
 2355W        W 6099   4.124   3.291   0.217  0.0379  0.2073  0.3092
 2356W        W 6100   0.342   0.754   9.327 -0.0525  0.2468  0.3373
 2357W        W 6101   5.210   3.797   3.419  0.0947 -0.3828  0.3171
 2358W        W 6102   1.327   7.543   9.629  0.1662  0.2717  0.1337
 2359W        W 6103   5.790   7.689  12.341  0.2610  0.0521  0.3038
 2360W        W 6104   3.817   1.430   3.848  0.1110 -0.0731 -0.0516
 2361W        W 6105   5.627   0.036   0.811 -0.1632 -0.2718 -0.1000
 2362W        W 6106   7.985   2.977   9.674  0.2802  0.1561  0.1268
 2363W        W 6107   4.924   6.300  10.770 -0.1670  0.3632 -0.0180
 2364W        W 6108   1.003   9.199   9.636 -0.0616 -0.1273  0.2471
 2365W        W 6109   8.159   0.776  10.776  0.2267 -0.2267 -0.1311
 2366W        W 6110   0.234   3.251   3.147  0.1022  0.2383 -0.2633
 2367W        W 6111   5.524   2.444  11.969 -0.2823 -0.0815  0.1509
 2368W        W 6112   0.602   1.336  10.772 -0.0664  0.2871 -0.0048
 2369W        W 6113   5.524   0.571  12.589 -0.1053 -0.0607 -0.2280
 2370W        W 6114   5.187   6.117   8.252  0.1078 -0.2923 -0.3371
 2371W        W 6115   2.912   3.710  11.881 -0.0506  0.2535 -0.0171
 2372W        W 6116   2.336   4.797   2.949  0.1805 -0.1177  0.1558
 2373W        W 6117   0.330   8.259   2.945  0.2558  0.2088  0.0517
 2374W        W 6118   2.928   8.266  10.354 -0.1786  0.0903 -0.0330
 2375W        W 6119   0.471   4.256   3.400  0.1473 -0.1100 -0.2138
 2376W        W 6120   9.161   4.704   1.503  0.3563 -0.2508 -0.2205
 2377W        W 6121   3.276   0.623  11.933 -0.1854 -0.2061 -0.0382
 2378W        W 6122   8.500   7.663   1.712 -0.1633  0.0633  0.1184
 2379W        W 6123   1.209   0.930   0.907 -0.0040 -0.2318  0.0139
 2380W        W 6124   4.662   9.606   3.360  0.2276  0.3211  0.0541
 2381W        W 6125   8.311   9.146  11.394 -0.4623  0.0611  0.1869
 2382W        W 6126   0.794   2.017   1.274  0.1869 -0.0203  0.2274
 2383W        W 6127   3.015   8.491   4.347  0.1059 -0.0345 -0.1022
 2384W        W 6128   6.253   0.703  11.133 -0.1065  0.0410  0.2649
 2385W        W 6129   3.905   6.038  12.139 -0.0485  0.1429 -0.1117
 2386W        W 6130   5.748   0.045   9.057 -0.1507  0.1208  0.1600
 2387W        W 6131   2.814   1.990  12.598  0.2397 -0.1673  0.2540
 2388W        W 6132   9.698   2.909   2.017  0.0249 -0.2801  0.0914
 2389W        W 6133   6.687   1.680  11.814  0.1574 -0.1827 -0.0615
 2390W        W 6134   7.941   0.204   1.668 -0.3148  0.2241 -0.1026
 2391W        W 6135   7.203   5.756   0.555  0.1642 -0.0929  0.2713
 2392W        W 6136   9.865   8.630   2.135 -0.1142 -0.0274  0.0529
 2393W        W 6137   9.352   0.777   1.635  0.3734 -0.2982  0.1479
 2394W        W 6138   1.295   1.254   9.194  0.0839  0.1495 -0.1582
 2395W        W 6139   3.779   3.222   1.536 -0.0431 -0.0042  0.1164
 2396W        W 6140   7.267   8.911   0.425  0.1194 -0.2204 -0.1929
 2397W        W 6141   3.359   6.364   9.908  0.2497  0.0593  0.0080
 2398W        W 6142   3.771   9.562   3.745 -0.2063 -0.4123 -0.0867
 2399W        W 6143   6.418   3.820  12.201  0.0501  0.3075 -0.1393
 2400W        W 6144   6.504   1.761   2.830 -0.0675 -0.1853  0.2678
 2401W        W 6145   9.301   7.324   2.052  0.1680  0.3236 -0.1382
 2402W        W 6146   0.010   7.956  12.829  0.1018 -0.2808 -0.0859
 2403W        W 6147   2.763   8.322   9.440 -0.0612  0.0893 -0.2867
 2404W        W 6148   2.622   6.025   1.151  0.1281  0.2516 -0.6554
 2405W        W 6149   4.200   0.285   8.886  0.3475 -0.2218  0.1061
 2406W        W 6150   6.328   2.277   1.862  0.1128  0.1304  0.0858
 2407W        W 6151   2.890   4.294  12.012 -0.1920 -0.0652 -0.5317
 2408W        W 6152   5.826   7.467  11.112  0.0076  0.0936  0.2354
 2409W        W 6153   4.674   4.566  11.106  0.0847 -0.3520 -0.4297
 2410W        W 6154   7.550   1.301   4.152  0.0145 -0.1678 -0.0437
 2411W        W 6155   6.064   9.278   0.365  0.1824 -0.1801 -0.4297
 2412W        W 6156   1.038   3.208   1.328  0.1272  0.1478  0.0553
 2413W        W 6157   5.779   4.680   3.068 -0.2588 -0.2273 -0.2018
 2414W        W 6158   9.581   4.831   3.708  0.1315 -0.1201  0.0871
 2415W        W 6159   1.999   6.006  10.484 -0.0987  0.1578 -0.2139
 2416W        W 6160   5.147   5.683   4.252 -0.2666 -0.4859 -0.0938
 2417W        W 6161   3.549   0.647   8.298 -0.2473  0.2143  0.0453
 2418W        W 6162   7.116   0.922   9.395 -0.1900 -0.0176 -0.0195
 2419W        W 6163   6.062   1.829  12.063 -0.2425 -0.0580  0.0624
 2420W        W 6164   8.735   0.507   9.146 -0.2830 -0.0531  0.0691
 2421W        W 6165   8.797   4.392   0.561  0.0842  0.1441  0.0390
 2422W        W 6166   4.066   1.256   1.388 -0.0623 -0.1466 -0.1442
 2423W        W 6167   7.583   4.280  10.060  0.1841 -0.0562 -0.3123
 2424W        W 6168   8.066   6.593   3.115 -0.0242  0.0485 -0.0376
 2425W        W 6169   3.487   4.098   1.729 -0.1669 -0.0354 -0.2170
 2426W        W 6170   4.685   8.475   0.274  0.1414 -0.2630 -0.2288
 2427W        W 6171   8.958   4.335   2.190  0.0236  0.3377  0.2418
 2428W        W 6172   0.728   4.378   3.022 -0.2773 -0.3840 -0.1031
 2429W        W 6173   4.972   6.945  10.322 -0.0224 -0.1965 -0.1157
 2430W        W 6174   0.745   4.046  10.377 -0.0474  0.1384 -0.0474
 2431W        W 6175   2.289   9.587   4.055 -0.0222 -0.1956 -0.0132
 2432W        W 6176   1.647   1.267   3.935 -0.1406 -0.0572 -0.0049
 2433W        W 6177   6.894   1.204  10.159 -0.0612  0.0072  0.0767
 2434W        W 6178   1.504   6.620  12.150  0.0339  0.0746  0.3099
 2435W        W 6179   7.162   9.733   9.109 -0.5584  0.1709 -0.0717
 2436W        W 6180   9.033   5.545  12.460  0.2307 -0.0777  0.2010
 2437W        W 6181   2.462   0.469   3.420 -0.3378 -0.1487 -0.1604
 2438W        W 6182   2.972   2.331   1.461 -0.0312 -0.1107 -0.1916
 2439W        W 6183   7.471   8.731  10.687 -0.0662 -0.1141  0.0202
 2440W        W 6184   6.000   0.462  10.549 -0.1500 -0.2800 -0.1506
 2441W        W 6185   5.944   1.109  12.162  0.2122  0.2475 -0.0319
 2442W        W 6186   0.532   7.872  11.083 -0.0649 -0.1447  0.1840
 2443W        W 6187   0.826   0.818  10.842 -0.1616 -0.3962  0.2360
 2444W        W 6188   7.714   3.420   1.691 -0.2801 -0.0117 -0.0347
 2445W        W 6189   1.183   4.910  12.121  0.1132 -0.1202 -0.0110
 2446W        W 6190   2.368   0.608  11.629  0.1008  0.0163  0.0111
 2447W        W 6191   4.204   4.987  12.054  0.3325 -0.1253 -0.0962
 2448W        W 6192   5.549   6.135   0.281 -0.2912 -0.0647  0.0744
 2449W        W 6193   2.956   5.781   0.449  0.2085 -0.1191 -0.0752
 2450W        W 6194   8.260   2.676   3.665  0.1446  0.3495  0.2368
 2451W        W 6195   9.827   0.925   9.296  0.0688  0.2826  0.0461
 2452W        W 6196   3.605   0.310   8.938 -0.1933  0.0234 -0.0181
 2453W        W 6197   5.898   5.616   1.171 -0.1192  0.1314  0.1333
 2454W        W 6198   2.379   5.129  11.996  0.1702  0.2797  0.0063
 2455W        W 6199   6.248   6.142  11.390 -0.0725  0.0903  0.2107
 2456W        W 6200   5.626   1.727   2.178 -0.0631 -0.3440 -0.0530
 2457W        W 6201   5.489   6.274   2.598  0.1969 -0.4419 -0.2510
 2458W        W 6202   0.882   8.777  11.820  0.1177 -0.0099  0.0710
 2459W        W 6203   1.387   7.271  11.014 -0.3753 -0.3419  0.2277
 2460W        W 6204   8.044   2.221  12.763 -0.1303 -0.2180  0.1137
 2461W        W 6205   8.362   0.681  12.052 -0.4331 -0.3259 -0.3075
 2462W        W 6206   2.701   0.019   9.778 -0.0844 -0.4581  0.1290
 2463W        W 6207   9.186   0.538   3.432  0.6229 -0.1609 -0.0087
 2464W        W 6208   9.325   9.786   9.416 -0.0964  0.0964 -0.2190
 2465W        W 6209   6.415   1.543   9.886 -0.0604  0.1744  0.2628
 2466W        W 6210   7.996   8.234  12.187 -0.0971 -0.2350 -0.0513
 2467W        W 6211   7.234   1.724   4.621  0.2178 -0.0639  0.1644
 2468W        W 6212   8.532   8.782  11.717 -0.1965 -0.0564 -0.3435
 2469W        W 6213   2.032   8.945  11.770  0.0418  0.1793  0.1921
 2470W        W 6214   2.413   3.896   0.520  0.0619 -0.1928  0.2279
 2471W        W 6215   4.526   9.003   3.608 -0.0323  0.0766  0.0433
 2472W        W 6216   7.594   1.127   1.506  0.1225  0.2494  0.1806
 2473W        W 6217   8.055   5.452   2.117 -0.1582  0.1577  0.1528
 2474W        W 6218   3.635   7.701   9.909  0.0999  0.0279  0.1236
 2475W        W 6219   9.604   1.672   9.755 -0.0886  0.1340 -0.0372
 2476W        W 6220   5.260   1.403  11.865 -0.2281  0.3409  0.0737
 2477W        W 6221   0.610   2.343   0.874  0.4192  0.0370 -0.1458
 2478W        W 6222   3.938   0.831   2.127 -0.1640  0.2741 -0.0277
 2479W        W 6223   4.803   2.130   3.114 -0.0050  0.2308  0.1351
 2480W        W 6224   7.920   5.139   9.678 -0.0939  0.3033 -0.1441
 2481W        W 6225   2.677   9.852   8.921 -0.1104  0.0225 -0.0062
 2482W        W 6226   2.455   5.627   0.902 -0.2785  0.1781 -0.0484
 2483W        W 6227   2.227   2.660   1.456  0.3227  0.1417 -0.1036
 2484W        W 6228   6.778   4.369  11.222  0.1228 -0.4224  0.0721
 2485W        W 6229   0.983   8.076   1.680  0.1020  0.0400 -0.4568
 2486W        W 6230   7.371   9.600  10.356  0.1008  0.0570 -0.2401
 2487W        W 6231   1.338   2.667   0.179  0.2321 -0.0116 -0.2107
 2488W        W 6232   2.224   6.741   8.951  0.3347  0.0279 -0.2104
 2489W        W 6233   0.200   9.647   9.106 -0.1979  0.0567 -0.4089
 2490W        W 6234   8.727   6.250   0.584 -0.1399 -0.1005  0.1198
 2491W        W 6235   5.183   7.313   3.430  0.1215 -0.2224 -0.1201
 2492W        W 6236   4.163   1.659   0.328 -0.0024  0.0217 -0.0816
 2493W        W 6237   1.988   3.518  11.122 -0.0126  0.1442 -0.0783
 2494W        W 6238   1.999   5.120  12.346  0.1938 -0.3835  0.1250
 2495W        W 6239   0.950   3.517   2.818  0.0332  0.1113 -0.1543
 2496W        W 6240   6.654   2.209   3.735  0.0423 -0.2065  0.0159
 2497W        W 6241   2.094   6.279   9.119 -0.0071  0.0202  0.2094
 2498W        W 6242   8.424   3.101   3.164 -0.0330  0.0726 -0.0804
 2499W        W 6243   5.975   2.647   4.272  0.1365 -0.0440 -0.0617
 2500W        W 6244   1.756   4.073   0.447 -0.1660 -0.0902  0.1218
 2501W        W 6245   5.088   9.797   0.035  0.2412 -0.2527  0.1333
 2502W        W 6246   6.481   4.027   8.642  0.0652  0.0042  0.3447
 2503W        W 6247   3.855   1.030  10.731 -0.2065  0.3204 -0.2352
 2504W        W 6248   2.673   7.433   2.631 -0.1163 -0.1465  0.1363
 2505W        W 6249   2.172   1.006  11.425 -0.0500  0.0913  0.1098
 2506W        W 6250   7.990   7.438   1.895 -0.0628  0.0786 -0.3742
 2507W        W 6251   1.028   3.170   4.554 -0.3578  0.0278  0.0632
 2508W        W 6252   7.292   4.735  10.593 -0.0643  0.2844 -0.2153
 2509W        W 6253   4.122   9.436   0.813  0.1321  0.0287  0.1089
 2510W        W 6254   1.837   3.419  11.704 -0.0827 -0.1601 -0.0152
 2511W        W 6255   9.591   7.020  10.169  0.1708 -0.1207  0.1525
 2512W        W 6256   6.283   0.254   3.038 -0.1163 -0.3123  0.1567
 2513W        W 6257   2.248   5.645   4.557 -0.1453  0.2498  0.3284
 2514W        W 6258   4.117   9.335   9.810  0.0611  0.0396 -0.0023
 2515W        W 6259   5.655   6.192   1.741 -0.1975  0.0556  0.2776
 2516W        W 6260   2.870   9.110   1.390 -0.0674 -0.1551  0.1607
 2517W        W 6261   6.911   7.225   1.402  0.5083 -0.0774 -0.0589
 2518W        W 6262   5.124   7.923  12.544 -0.0875  0.0295  0.1260
 2519W        W 6263   4.409   7.455  12.833 -0.5069 -0.1489  0.0897
 2520W        W 6264   2.244   0.011   0.786  0.0105  0.2576  0.0319
 2521W        W 6265   6.856   8.967   2.931 -0.0273  0.0530  0.0492
 2522W        W 6266   0.190   6.597   0.691 -0.0141  0.0727 -0.1228
 2523W        W 6267   3.050   7.668  12.580  0.1307  0.0641 -0.0308
 2524W        W 6268   5.066   4.444   8.452  0.1324  0.1428 -0.2309
 2525W        W 6269   5.660   6.766   2.789  0.1904 -0.1396 -0.0720
 2526W        W 6270   8.518   0.908  12.473 -0.2982  0.2922 -0.1238
 2527W        W 6271   2.872   6.465  10.751 -0.2172  0.2929 -0.0043
 2528W        W 6272   8.204   4.850  11.273 -0.2051 -0.2698 -0.1483
 2529W        W 6273   5.228   6.439   0.605 -0.0243 -0.1889 -0.4997
 2530W        W 6274   6.092   1.271   2.845  0.3561 -0.0354 -0.1651
 2531W        W 6275   5.690   0.612   9.079  0.0375  0.2576  0.3164
 2532W        W 6276   6.582   2.013  12.229  0.2271 -0.2256 -0.1336
 2533W        W 6277   0.852   7.071   1.128 -0.0875 -0.0434  0.3770
 2534W        W 6278   1.219   0.264   2.129 -0.2331  0.0297  0.1472
 2535W        W 6279   1.567   2.930  11.799  0.1143  0.1328 -0.0879
 2536W        W 6280   5.216   4.966  10.443  0.3308  0.1331  0.0498
 2537W        W 6281   8.855   0.855   0.963 -0.1676 -0.0866 -0.0925
 2538W        W 6282   4.074   8.437   9.101  0.0847 -0.1774 -0.3301
 2539W        W 6283   8.645   5.705   9.507  0.0482 -0.5208 -0.0978
 2540W        W 6284   7.663   1.413  11.742 -0.2445 -0.1225 -0.1506
 2541W        W 6285   0.987   2.266  12.740 -0.1570 -0.1993  0.1099
 2542W        W 6286   6.677   3.997   1.097  0.0663 -0.1976  0.2047
 2543W        W 6287   0.717   2.046   9.293 -0.0577 -0.2880  0.2710
 2544W        W 6288   0.651   5.319  11.610 -0.1207  0.2355 -0.1695
 2545W        W 6289   5.812   3.606   4.444  0.1146 -0.0123 -0.2605
 2546W        W 6290   6.987   2.992  12.136 -0.0760 -0.1046  0.2880
 2547W        W 6291   5.644   7.795  10.300 -0.2298  0.3015 -0.1338
 2548W        W 6292   8.269   8.907   0.590  0.3351  0.1535  0.0533
 2549W        W 6293   4.893   0.715   8.378 -0.1472 -0.0216  0.1270
 2550W        W 6294   5.885   3.295  10.296  0.1724 -0.2851  0.1110
 2551W        W 6295   2.105   3.906  10.749  0.2429 -0.0949  0.2385
 2552W        W 6296   8.537   1.500   3.032 -0.2972 -0.0320 -0.1237
 2553W        W 6297   2.717   4.207   4.177 -0.2655 -0.2115 -0.1089
 2554W        W 6298   7.715   1.387   2.443 -0.1460 -0.1632 -0.2488
 2555W        W 6299   5.722   3.344   0.341  0.3495  0.0471  0.2451
 2556W        W 6300   2.478   3.043   1.185 -0.0590  0.0026 -0.1839
 2557W        W 6301   5.005   4.633   2.366 -0.0357 -0.1666 -0.0517
 2558W        W 6302   6.298   4.845   1.082 -0.0759 -0.1333 -0.0194
 2559W        W 6303   4.531   9.813   3.841 -0.0602  0.0970 -0.0319
 2560W        W 6304   8.983   1.270   2.977 -0.4137 -0.0152  0.1612
 2561W        W 6305   2.008   3.033  11.956  0.0679 -0.0770  0.1252
 2562W        W 6306   4.877   3.839  11.703 -0.0919 -0.0675 -0.1018
 2563W        W 6307   7.510   0.791   1.122 -0.3830  0.1250  0.0202
 2564W        W 6308   1.778   2.759   0.985  0.3256  0.0550 -0.0982
 2565W        W 6309   0.323   1.182   9.125  0.0695  0.0824  0.0460
 2566W        W 6310   2.100   6.220   2.848  0.0517  0.1476  0.1353
 2567W        W 6311   2.022   9.648  11.843 -0.3225  0.0625 -0.2024
 2568W        W 6312   3.016   6.418  11.218 -0.1556  0.0801  0.0540
 2569W        W 6313   6.158   1.980  12.651 -0.0045  0.0534 -0.0509
 2570W        W 6314   0.590   7.937   3.252 -0.2949 -0.0313 -0.1884
 2571W        W 6315   0.466   0.346   8.550  0.2243 -0.2634  0.1793
 2572W        W 6316   6.474   6.770   1.468 -0.0457 -0.0850 -0.0918
 2573W        W 6317   4.868   8.626   1.563 -0.1611 -0.0295 -0.0092
 2574W        W 6318   1.799   6.455   0.311  0.0799  0.1436  0.2866
 2575W        W 6319   3.615   6.804   9.972  0.2554 -0.2814  0.2145
 2576W        W 6320   0.909   6.323   0.026 -0.1339  0.1007  0.2344
 2577W        W 6321   7.013   9.556   3.527 -0.2105  0.3740  0.1888
 2578W        W 6322   8.570   3.586   3.865  0.1016  0.1971 -0.0720
 2579W        W 6323   2.921   1.498   2.920  0.1495  0.0675  0.2391
 2580W        W 6324   1.879   3.107   8.655 -0.2419 -0.0587  0.2760
 2581W        W 6325   7.669   7.110  12.462  0.2083  0.4844 -0.1990
 2582W        W 6326   1.672   0.124   0.132 -0.0894 -0.3677 -0.0231
 2583W        W 6327   9.606   6.597   2.252  0.0866 -0.0497 -0.2719
 2584W        W 6328   9.816   9.745  11.967 -0.0943  0.1582 -0.0123
 2585W        W 6329   0.399   6.878  12.456 -0.0502 -0.1217 -0.2169
 2586W        W 6330   6.252   0.990   0.921  0.3554  0.1715  0.0008
 2587W        W 6331   8.178   4.715   2.629  0.0310 -0.2641 -0.1908
 2588W        W 6332   1.677   6.982   2.660  0.3309  0.1756  0.0591
 2589W        W 6333   0.746   2.898   1.712  0.1317 -0.1970 -0.1130
 2590W        W 6334   1.013   7.509  11.220  0.2085  0.0767  0.3344
 2591W        W 6335   1.674   9.159   3.557 -0.0369 -0.3149  0.2031
 2592W        W 6336   8.279   3.962   1.003 -0.1258  0.0269 -0.1735
 2593W        W 6337   5.610   9.454   0.656 -0.1788  0.2426  0.2232
 2594W        W 6338   5.182   3.310   1.653 -0.2252  0.0565  0.0974
 2595W        W 6339   8.099   2.040   9.872 -0.0885  0.0980 -0.0968
 2596W        W 6340   0.723   7.081   8.013  0.0821  0.1421 -0.0235
 2597W        W 6341   2.314   6.928   0.889 -0.1822  0.4014 -0.1692
 2598W        W 6342   6.134   6.396   0.952 -0.0006  0.2329  0.1183
 2599W        W 6343   1.363   7.550   8.551  0.3834  0.2983 -0.1082
 2600W        W 6344   8.340   9.741   3.446  0.1076 -0.0658 -0.0411
 2601W        W 6345   7.975   9.291   3.433  0.3646  0.0462 -0.3075
 2602W        W 6346   9.566   5.292   1.012  0.2146 -0.0207 -0.4395
 2603W        W 6347   7.635   5.245  11.538  0.1222 -0.3543  0.2331
 2604W        W 6348   0.979   3.926  11.341 -0.2052  0.0554  0.0680
 2605W        W 6349   3.979   7.698   2.145 -0.0279  0.0838  0.2033
 2606W        W 6350   1.821   3.585   8.789 -0.2059  0.3041  0.2587
 2607W        W 6351   7.711   8.247  11.336 -0.1415 -0.1291  0.0356
 2608W        W 6352   0.884   7.140  11.576 -0.0981 -0.3686 -0.0191
 2609W        W 6353   1.914   7.071  10.464  0.1413  0.0086  0.2488
 2610W        W 6354   7.578   6.629   3.472 -0.0575  0.0840  0.0655
 2611W        W 6355   4.180   9.453   3.369  0.2252 -0.0643 -0.1068
 2612W        W 6356   5.569   0.305   9.497  0.0869  0.1572  0.0711
 2613W        W 6357   9.688   1.128   9.732 -0.0147 -0.4926 -0.4286
 2614W        W 6358   4.270   9.344  11.697  0.2956  0.1518  0.2925
 2615W        W 6359   8.252   6.056   1.834  0.1064 -0.0204 -0.0718
 2616W        W 6360   0.453   3.494   2.605 -0.1795  0.0818 -0.0044
 2617W        W 6361   3.270   9.041   9.093  0.0522  0.1529 -0.0528
 2618W        W 6362   9.018   9.649   2.562  0.0516  0.0768  0.1478
 2619W        W 6363   1.457   4.556   9.398 -0.0598  0.0160 -0.1595
 2620W        W 6364   8.188   6.782   3.631 -0.4150  0.0181 -0.0437
 2621W        W 6365   6.743   0.346  12.166 -0.0758 -0.0488  0.0528
 2622W        W 6366   1.335   4.425  10.295  0.0447 -0.6612  0.0575
 2623W        W 6367   9.923   0.366   8.641  0.0732  0.1357  0.3626
 2624W        W 6368   3.530   2.556   4.885 -0.1170 -0.2713  0.1796
 2625W        W 6369   0.565   7.326   9.605 -0.1212  0.0169  0.1124
 2626W        W 6370   4.552   4.447   3.209  0.0298 -0.1055  0.1850
 2627W        W 6371   7.598   7.107   9.373 -0.1901 -0.3816  0.3408
 2628W        W 6372   8.276   1.661  11.870 -0.3103  0.0403  0.2848
 2629W        W 6373   5.159   9.581  10.974  0.1146  0.1300  0.0702
 2630W        W 6374   0.975   6.537   3.981 -0.0510 -0.0464 -0.1440
 2631W        W 6375   2.892   9.657   2.460 -0.1297 -0.0554  0.4290
 2632W        W 6376   7.544   3.307   3.799 -0.2665  0.1049 -0.0300
 2633W        W 6377   9.642   3.825   4.159  0.0683 -0.0523  0.1809
 2634W        W 6378   8.446   6.778   9.220 -0.3245 -0.1585 -0.1529
 2635W        W 6379   0.415   8.884  11.939 -0.1793 -0.1831  0.3605
 2636W        W 6380   2.595   7.249   0.341 -0.0508  0.2574  0.2055
 2637W        W 6381   9.106   2.733  10.436 -0.0821  0.1441 -0.1225
 2638W        W 6382   7.798   1.501   1.902  0.3023 -0.1501  0.1356
 2639W        W 6383   4.743   1.262   3.512  0.0631  0.2792 -0.1165
 2640W        W 6384   7.124   3.949  10.124 -0.0652 -0.0697  0.1879
 2641W        W 6385   1.460   8.077   1.956 -0.0239 -0.1614  0.0425
 2642W        W 6386   5.943   5.279  10.066 -0.1262  0.0453 -0.2019
 2643W        W 6387   2.839   1.962   3.004  0.2994 -0.2137 -0.1177
 2644W        W 6388   3.862   9.320   4.229  0.1480  0.2455 -0.1531
 2645W        W 6389   6.181   6.756  12.617 -0.1112 -0.1798 -0.1372
 2646W        W 6390   5.343   9.260  11.380  0.2308  0.0640 -0.0509
 2647W        W 6391   2.302   0.439  12.119 -0.0502 -0.2592  0.1452
 2648W        W 6392   6.863   7.116   0.119  0.0502  0.4333  0.0978
 2649W        W 6393   8.554   5.847   2.725 -0.0368  0.0576 -0.1698
 2650W        W 6394   6.825   2.274   1.981 -0.0668  0.1792  0.1986
 2651W        W 6395   0.090   7.294   1.695  0.0354 -0.2949 -0.0087
 2652W        W 6396   8.650   3.993  10.783 -0.1087 -0.1323  0.2732
 2653W        W 6397   6.739   5.426  10.657  0.0738  0.3096 -0.0318
 2654W        W 6398   9.271   9.907  11.989 -0.1109 -0.2387 -0.1876
 2655W        W 6399   8.900   7.823   2.818 -0.1125 -0.0726 -0.0091
 2656W        W 6400   8.932   9.833  12.567  0.1554 -0.1089 -0.2836
 2657W        W 6401   2.849   2.647   2.702 -0.1487  0.1930 -0.0689
 2658W        W 6402   5.216   6.447  12.433 -0.2263  0.2580 -0.1212
 2659W        W 6403   4.095   2.172  11.759  0.0879 -0.0739 -0.0495
 2660W        W 6404   7.170   5.372  11.344 -0.1772 -0.0200  0.0731
 2661W        W 6405   6.110   9.117   4.420  0.0870  0.1771 -0.1106
 2662W        W 6406   6.038   0.198   2.593  0.2327 -0.2621  0.1556
 2663W        W 6407   8.360   1.327   8.231 -0.5035 -0.3183 -0.0824
 2664W        W 6408   3.757   7.436   0.693 -0.0431  0.1044 -0.2174
 2665W        W 6409   2.292   5.942   2.469  0.0623 -0.0191  0.3090
 2666W        W 6410   3.206   4.862  12.165  0.1010 -0.0218  0.0357
 2667W        W 6411   0.195   3.071   1.733 -0.0404  0.0198 -0.0090
 2668W        W 6412   0.794   3.244  10.211  0.0996  0.0641  0.0492
 2669W        W 6413   3.737   8.346   8.219  0.0300 -0.0845  0.1192
 2670W        W 6414   7.727   6.630   1.408 -0.1619 -0.0273  0.1202
 2671W        W 6415   3.096   5.578   2.955 -0.2378 -0.2102 -0.0009
 2672W        W 6416   7.330   4.833   4.117 -0.1094 -0.1873  0.0040
 2673W        W 6417   8.621   7.928   2.123  0.0899 -0.0677  0.0662
 2674W        W 6418   2.171   6.500   0.712  0.1786 -0.1013  0.0614
 2675W        W 6419   9.331   4.366  11.536 -0.0137  0.2633 -0.0554
 2676W        W 6420   1.225   6.220   2.752 -0.1404 -0.0440  0.1440
 2677W        W 6421   0.198   5.207   2.507  0.0951 -0.1149 -0.0574
 2678W        W 6422   6.391   2.462  10.941 -0.2747 -0.0067 -0.1412
 2679W        W 6423   5.137   1.114   4.382  0.0078 -0.2386  0.1802
 2680W        W 6424   0.852   1.025  10.225 -0.3121  0.2087 -0.2802
 2681W        W 6425   0.344   0.045  11.737  0.0646 -0.2599 -0.0071
 2682W        W 6426   2.287   9.389   4.973 -0.1521 -0.1225 -0.2672
 2683W        W 6427   9.399   4.204   1.422 -0.1632  0.2360  0.0756
 2684W        W 6428   9.463   7.268   9.447  0.0388 -0.1524 -0.5002
 2685W        W 6429   3.706   2.991  11.601 -0.1812 -0.0622 -0.0946
 2686W        W 6430   8.734   3.981   3.553 -0.0660 -0.3707  0.0378
 2687W        W 6431   1.167   1.019   0.397 -0.0420  0.0874  0.1116
 2688W        W 6432   3.846   7.511   1.241  0.2574  0.2547  0.0100
 2689W        W 6433   6.919   7.208   3.103  0.0179  0.2486 -0.2487
 2690W        W 6434   0.477   2.592  11.244  0.0005  0.0955 -0.1092
 2691W        W 6435   6.992   3.866   4.351 -0.2252  0.1010 -0.0602
 2692W        W 6436   8.422   5.943   0.905  0.3057  0.0104 -0.0174
 2693W        W 6437   4.049   1.300  11.078 -0.3810 -0.1980 -0.1438
 2694W        W 6438   2.602   8.113   0.809  0.3274 -0.2830  0.0277
 2695W        W 6439   9.643   1.066   1.028 -0.0187  0.0302  0.3372
 2696W        W 6440   0.209   3.701   8.585  0.1579 -0.0991  0.1751
 2697W        W 6441   3.503   6.056   9.549  0.3114 -0.0573 -0.0863
 2698W        W 6442   0.451   2.615  10.697  0.0991 -0.1347 -0.2265
 2699W        W 6443   0.734   0.784   0.230 -0.2367 -0.1229 -0.1088
 2700W        W 6444   4.671   0.400   9.999 -0.1225 -0.0680  0.0692
 2701W        W 6445   1.041   9.174   3.637  0.5345  0.4985  0.2137
 2702W        W 6446   6.535   9.456   0.451  0.3607 -0.1967  0.3772
 2703W        W 6447   2.869   1.313   9.445 -0.1386 -0.2991  0.0220
 2704W        W 6448   5.459   7.827  10.783 -0.0156 -0.1935 -0.1824
 2705W        W 6449   9.789   8.230  10.541 -0.0387  0.1261  0.0306
 2706W        W 6450   8.819   8.400  11.498  0.2857  0.3262  0.0222
 2707W        W 6451   0.715   4.746  10.033 -0.0125 -0.0258 -0.1121
 2708W        W 6452   5.505   0.288  12.178  0.1329  0.2338  0.1402
 2709W        W 6453   2.713   1.909   1.361  0.0143  0.2029 -0.3469
 2710W        W 6454   5.141   4.677   8.977  0.1433  0.2839  0.0222
 2711W        W 6455   8.775   1.310   4.309 -0.2576 -0.0024  0.0036
 2712W        W 6456   4.113   7.795  10.149  0.0721 -0.1945 -0.3341
 2713W        W 6457   4.629   3.894   3.147  0.0168 -0.1093  0.1743
 2714W        W 6458   6.332   3.494  11.229 -0.0498  0.2955 -0.1270
 2715W        W 6459   0.396   5.228   0.881  0.3241 -0.0742 -0.0634
 2716W        W 6460   7.505   4.619   0.419  0.4952 -0.0757 -0.1262
 2717W        W 6461   6.168   9.375   0.859 -0.0530 -0.0848  0.1656
 2718W        W 6462   5.062   1.504   3.990  0.0671 -0.3496 -0.4670
 2719W        W 6463   1.899   0.121   9.677 -0.0514 -0.1376 -0.1086
 2720W        W 6464   1.452   8.446   8.703 -0.0029 -0.0781 -0.0508
 2721W        W 6465   8.229   8.117   0.186  0.0313  0.0439 -0.0875
 2722W        W 6466   1.133   4.669   2.910  0.2037 -0.0091 -0.3883
 2723W        W 6467   1.877   7.405  10.907 -0.1090  0.0555  0.1467
 2724W        W 6468   0.028   0.144   1.360 -0.0406  0.0786 -0.3342
 2725W        W 6469   5.905   2.230   4.592  0.1379 -0.0660 -0.3319
 2726W        W 6470   9.941   8.488  12.405  0.2504 -0.0913 -0.0731
 2727W        W 6471   4.137   7.882  11.043  0.0416 -0.0136 -0.1599
 2728W        W 6472   2.755   5.723  10.041  0.0873 -0.0919  0.3567
 2729W        W 6473   8.857   4.207   9.849 -0.1997 -0.3330 -0.2256
 2730W        W 6474   7.852   4.813  12.465  0.1061  0.0597  0.0455
 2731W        W 6475   1.196   8.034  12.136  0.0109 -0.0284 -0.0500
 2732W        W 6476   5.465   5.022   9.020  0.1327  0.1162  0.1333
 2733W        W 6477   2.202   0.439  11.120  0.0063  0.1492  0.1521
 2734W        W 6478   9.345   8.034   3.004 -0.2087  0.1846  0.0084
 2735W        W 6479   6.505   3.960   8.094  0.1392  0.1117  0.1227
 2736W        W 6480   9.336   1.216   1.829 -0.1251 -0.0773 -0.0553
 2737W        W 6481   1.906   5.971  11.818  0.4595  0.1331 -0.0487
 2738W        W 6482   7.983   8.674  10.486 -0.2062  0.0963  0.1305
 2739W        W 6483   6.303   7.011   0.230  0.0905 -0.3678 -0.1028
 2740W        W 6484   3.461   8.346  10.577  0.4224  0.1636 -0.0318
 2741W        W 6485   2.776   0.534   1.108 -0.1578 -0.0240 -0.2771
 2742W        W 6486   7.931   4.983  11.900  0.1239  0.1321 -0.1236
 2743W        W 6487   4.170   0.670  10.675 -0.0375  0.0399  0.2261
 2744W        W 6488   4.650   8.051   0.636  0.0996 -0.0979  0.0273
 2745W        W 6489   2.484   5.823   8.655 -0.1408  0.0426 -0.0457
 2746W        W 6490   1.285   0.383  10.691  0.2490 -0.0996  0.1341
 2747W        W 6491   4.838   5.890   2.716  0.0412 -0.1522 -0.2554
 2748W        W 6492   3.723   4.157  12.405  0.4803  0.2851  0.0847
 2749W        W 6493   6.782   4.677  12.520 -0.1884  0.1705  0.1799
 2750W        W 6494   1.856   9.032  12.704  0.1008  0.0980  0.0352
 2751W        W 6495   0.215   0.868   9.811 -0.1940 -0.0512 -0.0503
 2752W        W 6496   0.470   8.251   0.743 -0.3378  0.2451 -0.3916
 2753W        W 6497   3.676   1.792  12.339  0.3367 -0.1716  0.2479
 2754W        W 6498   9.228   5.656  11.469 -0.1848 -0.0944  0.2873
 2755W        W 6499   5.540   7.059   2.192 -0.0915  0.2262  0.0976
 2756W        W 6500   7.547   4.681  12.033 -0.0397  0.3115  0.2406
 2757W        W 6501   2.799   3.930   3.350 -0.2153 -0.0550  0.0236
 2758W        W 6502   1.044   4.510   3.904 -0.3141  0.1451  0.1978
 2759W        W 6503   3.512   4.100   8.380 -0.1301 -0.1206 -0.1534
 2760W        W 6504   1.021   6.991  12.045  0.1042  0.2582 -0.1823
 2761W        W 6505   0.693   6.389   2.408 -0.0980 -0.1058 -0.0268
 2762W        W 6506   6.415   0.675  11.789  0.1501  0.1379 -0.0888
 2763W        W 6507   1.313   3.366  10.299  0.0234  0.1891  0.0875
 2764W        W 6508   7.250   9.900  11.814  0.0624 -0.0396  0.1996
 2765W        W 6509   5.315   4.636   4.458  0.0793 -0.1136 -0.1676
 2766W        W 6510   8.645   2.909  10.378  0.1160  0.2834  0.1848
 2767W        W 6511   2.923   8.593   0.539 -0.2394 -0.2482  0.1307
 2768W        W 6512   0.089   7.301  12.133 -0.2668  0.0918 -0.0615
 2769W        W 6513   6.609   7.276   0.976 -0.2173 -0.2905  0.0967
 2770W        W 6514   0.149   2.806   3.391  0.2376 -0.0292  0.0167
 2771W        W 6515   8.954   6.645  10.195 -0.1823 -0.2017  0.2544
 2772W        W 6516   9.934   8.627   2.830  0.0738  0.1002  0.1441
 2773W        W 6517   3.747   4.482   2.523 -0.4805 -0.0558 -0.0180
 2774W        W 6518   9.447   8.454   2.695  0.0804 -0.2479  0.1984
 2775W        W 6519   1.947   5.492   1.168 -0.1513  0.0580 -0.2887
 2776W        W 6520   1.890   7.186   3.700 -0.2434  0.2197 -0.1866
 2777W        W 6521   0.107   2.498   4.324  0.1056 -0.4681 -0.2229
 2778W        W 6522   7.523   1.165  12.153 -0.0519 -0.1856 -0.2326
 2779W        W 6523   4.363   2.122   8.208 -0.0571 -0.1405  0.3058
 2780W        W 6524   3.840   4.422   0.747  0.1374 -0.0596  0.2440
 2781W        W 6525   4.040   7.577   2.694 -0.0135 -0.0797 -0.3086
 2782W        W 6526   2.956   3.453  10.063 -0.0720  0.4465 -0.0271
 2783W        W 6527   0.682   9.933  11.333 -0.1742  0.0079 -0.1187
 2784W        W 6528   1.337   5.016   3.244  0.4576 -0.0216  0.1755
 2785W        W 6529   3.429   5.963   0.251  0.2677 -0.0730  0.1958
 2786W        W 6530   5.856   2.451  11.007 -0.1027  0.0452  0.0209
 2787W        W 6531   5.033   2.253   0.385 -0.0477 -0.0202  0.4943
 2788W        W 6532   7.739   9.787  10.674  0.2649  0.0858  0.1426
 2789W        W 6533   8.868   4.695  12.550  0.0532 -0.0892  0.1023
 2790W        W 6534   5.570   6.599  11.143 -0.1364  0.0333  0.2101
 2791W        W 6535   2.574   9.794  12.741  0.1562 -0.0790  0.2233
 2792W        W 6536   5.636   9.365   1.666  0.2663 -0.0543  0.1558
 2793W        W 6537   7.948   2.012  10.797  0.2710 -0.0877  0.2624
 2794W        W 6538   5.064   5.942   0.333  0.1650  0.0948 -0.0354
 2795W        W 6539   1.241   4.266   2.113 -0.1053  0.0280  0.1052
 2796W        W 6540   3.980   7.052   0.139 -0.3705  0.0392 -0.2512
 2797W        W 6541   3.379   0.786  10.050  0.0997  0.2770  0.1057
 2798W        W 6542   8.797   0.659   3.706 -0.0979  0.1525 -0.1618
 2799W        W 6543   8.494   2.132  10.980  0.1333 -0.0935 -0.1372
 2800W        W 6544   2.522   2.560   0.152 -0.2060 -0.2538  0.0990
 2801W        W 6545   2.199   0.495   1.575  0.2050 -0.2235  0.0376
 2802W        W 6546   2.753   5.408   8.581  0.4209 -0.1161 -0.4543
 2803W        W 6547   7.399   7.367   1.117  0.1703 -0.1033 -0.0319
 2804W        W 6548   8.554   1.914   8.901  0.1285 -0.2496  0.3178
 2805W        W 6549   7.090   3.071   2.886  0.0344 -0.3086 -0.0462
 2806W        W 6550   3.542   0.200  10.891  0.1346 -0.0637  0.1198
 2807W        W 6551   1.735   5.125   8.202  0.3350  0.1051 -0.1526
 2808W        W 6552   9.496   0.828   4.823 -0.1344 -0.1397 -0.0026
 2809W        W 6553   2.533   9.315  12.346  0.2824  0.1295 -0.1075
 2810W        W 6554   6.015   1.862   1.894 -0.1770 -0.0830 -0.0327
 2811W        W 6555   1.580   7.521   1.943  0.0954 -0.0966 -0.0443
 2812W        W 6556   3.851   1.174   1.820 -0.2062 -0.0503 -0.1447
 2813W        W 6557   1.370   7.966   2.985 -0.2214  0.1817  0.0233
 2814W        W 6558   0.065   6.770  10.043 -0.2080 -0.3188  0.1573
 2815W        W 6559   7.494   2.271  11.806  0.1221  0.0681 -0.0445
 2816W        W 6560   0.710   0.172   0.365 -0.3964 -0.2674  0.3067
 2817W        W 6561   2.588   0.733   8.671 -0.0299 -0.3005 -0.1388
 2818W        W 6562   1.290   6.602   9.775  0.2858 -0.0618  0.1718
 2819W        W 6563   6.727   4.499   0.329 -0.0799  0.1899 -0.3699
 2820W        W 6564   7.563   3.080   2.748 -0.0246  0.1609  0.0331
 2821W        W 6565   3.124   8.521  12.164 -0.0784 -0.1017 -0.1178
 2822W        W 6566   9.806   0.509   1.645  0.3545  0.1621  0.2944
 2823W        W 6567   1.114   2.059  12.224  0.1357 -0.2272  0.1614
 2824W        W 6568   3.785   9.366   2.215 -0.5356  0.1049  0.1051
 2825W        W 6569   1.255   9.071  10.775  0.0251  0.2435  0.2148
 2826W        W 6570   3.643   7.768   2.911 -0.0454  0.2658 -0.0888
 2827W        W 6571   6.532   2.834  10.453 -0.0890 -0.0248 -0.3029
 2828W        W 6572   1.567   4.938  10.179 -0.1899 -0.1787 -0.0594
 2829W        W 6573   0.518   9.535  10.525 -0.0909  0.2076 -0.1139
 2830W        W 6574   9.796   7.456   2.759 -0.0679  0.0010 -0.1091
 2831W        W 6575   0.970   5.578   1.847 -0.1752 -0.1881 -0.0063
 2832W        W 6576   6.257   8.802   0.772 -0.2741  0.1405 -0.2505
 2833W        W 6577   1.824   4.648  10.518  0.3070 -0.1332 -0.0451
 2834W        W 6578   2.734   7.215  10.163 -0.0296  0.1356 -0.1889
 2835W        W 6579   3.029   6.076   2.428  0.1157 -0.0522  0.0708
 2836W        W 6580   6.685   1.209   3.904 -0.1490  0.0420 -0.2061
 2837W        W 6581   0.422   0.991  12.087  0.0399 -0.2217 -0.2710
 2838W        W 6582   0.963   2.360   8.882 -0.2085  0.2111  0.1618
 2839W        W 6583   9.902   6.242   2.526 -0.3646 -0.3594  0.1888
 2840W        W 6584   0.426   3.264  11.639  0.0370  0.1441  0.0228
 2841W        W 6585   5.367   4.195   0.505 -0.0606 -0.1638  0.1179
 2842W        W 6586   2.312   7.163  12.216  0.1679 -0.1699  0.1046
 2843W        W 6587   0.410   3.081   9.896  0.0148 -0.0348  0.1140
 2844W        W 6588   1.134   6.706   0.350  0.2605 -0.0396 -0.1051
 2845W        W 6589   5.226   9.360   1.930 -0.0055  0.0621 -0.0777
 2846W        W 6590   3.594   0.494  12.270 -0.1007 -0.0260 -0.1302
 2847W        W 6591   8.679   5.208   0.394 -0.0020 -0.1353  0.1777
 2848W        W 6592   3.787   2.751   1.013 -0.0866  0.0108 -0.2453
 2849W        W 6593   4.580   8.516   0.807  0.0574 -0.0895  0.2037
 2850W        W 6594   2.842   7.024   0.821  0.1709  0.1422  0.0902
 2851W        W 6595   9.310   8.108  11.732  0.3043 -0.0280 -0.0022
 2852W        W 6596   1.485   6.767  10.822  0.1688 -0.0978  0.0721
 2853W        W 6597   5.650   4.975  10.927  0.0435 -0.0977 -0.5023
 2854W        W 6598   5.301   0.673  11.270  0.0138  0.3299 -0.1891
 2855W        W 6599   1.962   0.668   2.612  0.2160  0.0119  0.1373
 2856W        W 6600   4.122   3.658   3.362 -0.4615 -0.2011 -0.1606
 2857W        W 6601   5.389   4.155   4.201  0.1267 -0.2394  0.0179
 2858W        W 6602   1.001   8.650   9.130  0.2696 -0.2120 -0.0159
 2859W        W 6603   0.376   1.728   0.479 -0.1623 -0.1435  0.0050
 2860W        W 6604   4.458   8.370   1.521 -0.0472  0.0458  0.1386
 2861W        W 6605   2.729   7.773   9.503  0.1181 -0.2661 -0.0219
 2862W        W 6606   9.690   0.148   0.456  0.2142  0.1612  0.0933
 2863W        W 6607   3.648   0.536  10.508  0.1729  0.0938  0.0124
 2864W        W 6608   4.926   6.156  11.295 -0.1152 -0.1334  0.2431
 2865W        W 6609   0.259   8.921   2.426 -0.3844  0.2174  0.1303
 2866W        W 6610   4.019   0.991  10.279 -0.0905  0.0191 -0.1642
 2867W        W 6611   3.438   7.394   3.362  0.0298 -0.2529 -0.2249
 2868W        W 6612   6.147   6.243  12.743  0.1485 -0.1215  0.0316
 2869W        W 6613   1.236   5.384  10.149 -0.1064 -0.0255 -0.2770
 2870W        W 6614   1.473   0.370  12.497 -0.3375  0.2068  0.0307
 2871W        W 6615   1.658   6.754   8.900  0.0987  0.0204 -0.2343
 2872W        W 6616   7.449   3.504   3.104 -0.2927  0.0789 -0.0948
 2873W        W 6617   5.098   6.361   0.084  0.2358 -0.3163 -0.0373
 2874W        W 6618   3.530   2.790  10.583 -0.6056 -0.0658 -0.2886
 2875W        W 6619   4.233   1.327   9.880 -0.3088 -0.0648  0.1775
 2876W        W 6620   7.547   4.685   9.052 -0.3002 -0.3529  0.1940
 2877W        W 6621   9.570   0.409   9.370 -0.0361  0.0013  0.0171
 2878W        W 6622   8.918   7.400   1.303 -0.0489  0.2288  0.1772
 2879W        W 6623   7.326   2.445   8.261 -0.0783  0.0780 -0.0902
 2880W        W 6624   4.181   5.220   9.065 -0.0967 -0.1973  0.0255
 2881W        W 6625   7.364   1.474   8.445  0.2790 -0.1064 -0.3176
 2882W        W 6626   3.448   9.891   9.239 -0.2705 -0.1551  0.1036
 2883W        W 6627   2.467   7.886  11.336 -0.0398  0.4088  0.3968
 2884W        W 6628   1.602   8.417   0.136 -0.1144 -0.0272  0.0099
 2885W        W 6629   1.803   4.288  11.001  0.1207  0.0788  0.0782
 2886W        W 6630   6.638   5.431   3.169 -0.0529  0.0189 -0.0682
 2887W        W 6631   1.261   8.894   0.670  0.2357 -0.0483  0.0313
 2888W        W 6632   6.819   7.205   9.845  0.0565 -0.0529  0.1540
 2889W        W 6633   8.688   4.828  11.217  0.0346  0.0782  0.1731
 2890W        W 6634   0.251   8.359   2.379 -0.2558 -0.1711  0.2066
 2891W        W 6635   4.787   7.530   8.893 -0.2924 -0.2360 -0.0254
 2892W        W 6636   2.335   2.269  11.675  0.0443 -0.1762 -0.1338
 2893W        W 6637   2.523   0.880   1.388 -0.2154 -0.3106 -0.0634
 2894W        W 6638   0.603   2.952  12.531 -0.3420 -0.1136  0.0340
 2895W        W 6639   5.172   7.547  12.833  0.2796  0.0491 -0.2334
 2896W        W 6640   2.273   7.816   1.057  0.1172  0.1100 -0.4472
 2897W        W 6641   4.242   4.766   9.399  0.0937  0.2127  0.2002
 2898W        W 6642   7.331   7.880  12.662 -0.2770 -0.0117  0.0661
 2899W        W 6643   7.720   2.075   0.869  0.1521  0.2957 -0.1629
 2900W        W 6644   4.506   6.274   8.833  0.0757  0.0813  0.0753
 2901W        W 6645   0.428   9.529   0.754 -0.1254 -0.0396  0.0929
 2902W        W 6646   4.567   9.193  12.503 -0.1346 -0.1403  0.2237
 2903W        W 6647   5.230   7.389  10.184  0.0615  0.1495 -0.2402
 2904W        W 6648   2.959   9.287   8.005 -0.2286  0.1202 -0.0064
 2905W        W 6649   1.587   2.207   1.103 -0.3387  0.0406  0.0578
 2906W        W 6650   5.943   3.759   2.860  0.0180  0.3130  0.1805
 2907W        W 6651   3.952   8.745   0.055 -0.0180  0.0989  0.2715
 2908W        W 6652   7.671   2.198   0.218 -0.0056 -0.2713 -0.0845
 2909W        W 6653   1.212   4.421   0.181  0.0402  0.1192  0.1963
 2910W        W 6654   1.628   3.568   0.850  0.2340 -0.0886 -0.2070
 2911W        W 6655   4.557   1.243  12.569  0.1576 -0.0542  0.1233
 2912W        W 6656   8.652   6.117   2.209 -0.0189 -0.2379 -0.0906
 2913W        W 6657   2.245   8.213  10.493  0.0734 -0.1645  0.0921
 2914W        W 6658   7.579   0.273   3.441  0.1715 -0.0606  0.2476
 2915W        W 6659   6.893   0.595   0.279  0.1203  0.1910  0.0038
 2916W        W 6660   1.218   0.682  10.130 -0.1072  0.4083 -0.0391
 2917W        W 6661   5.353   0.600   0.298 -0.1970  0.1507  0.1515
 2918W        W 6662   5.031   5.049   1.473 -0.1156  0.1150  0.0871
 2919W        W 6663   7.820   0.002  12.278  0.0383 -0.1005 -0.0707
 2920W        W 6664   4.963   3.046   4.726 -0.0836 -0.0380  0.1221
 2921W        W 6665   5.576   0.526   0.819 -0.1489 -0.3737  0.0226
 2922W        W 6666   8.836   3.868   3.115  0.1143 -0.1243  0.2352
 2923W        W 6667   7.988   4.348  11.291 -0.2062 -0.0141  0.1792
 2924W        W 6668   7.708   1.957   9.466 -0.2168 -0.0132  0.3143
 2925W        W 6669   8.304   6.309  11.249 -0.3384  0.1407  0.0808
 2926W        W 6670   1.081   8.132   0.260  0.0174 -0.1535 -0.0722
 2927W        W 6671   4.399   8.943   1.025 -0.1929  0.1154  0.1088
 2928W        W 6672   5.356   0.909   3.023 -0.1971  0.0278  0.3223
 2929W        W 6673   6.938   4.251   1.561 -0.1848 -0.0637 -0.0331
 2930W        W 6674   9.288   0.359  11.532 -0.0620 -0.0581 -0.2436
 2931W        W 6675   0.669   2.585   2.715  0.0205 -0.1024  0.1467
 2932W        W 6676   4.370   1.497   1.709 -0.0800 -0.0031 -0.0090
 2933W        W 6677   6.332   9.528   1.367  0.0626 -0.2675  0.2655
 2934W        W 6678   3.102   9.514  12.078  0.2378 -0.0539  0.0647
 2935W        W 6679   6.955   6.291  10.266  0.2650  0.1461 -0.0701
 2936W        W 6680   8.528   0.209   9.606  0.0615  0.0085  0.0508
 2937W        W 6681   1.584   4.057   0.968 -0.0281 -0.3142  0.1283
 2938W        W 6682   3.648   1.293   8.926 -0.2250  0.0410  0.1230
 2939W        W 6683   2.207   3.006   0.260 -0.2356 -0.0158 -0.1295
 2940W        W 6684   7.303   0.999  10.467  0.0563  0.0273 -0.1935
 2941W        W 6685   8.377   9.946  10.860 -0.5707  0.0063  0.0699
 2942W        W 6686   6.236   9.751   9.684 -0.1368 -0.0922 -0.1350
 2943W        W 6687   4.491   1.277   0.183 -0.1825  0.0769  0.0940
 2944W        W 6688   8.885   0.357  12.809 -0.5364 -0.1467  0.2325
 2945W        W 6689   7.250   2.437   1.598  0.1323 -0.0712 -0.1365
 2946W        W 6690   6.829   3.189   2.107  0.0072  0.0293 -0.0681
 2947W        W 6691   5.087   2.656  10.402  0.0241 -0.1061 -0.0692
 2948W        W 6692   3.542   5.809  11.757 -0.0952  0.1584 -0.0753
 2949W        W 6693   7.762   2.203  11.299 -0.1002 -0.2255  0.1346
 2950W        W 6694   0.322   2.281  11.682  0.2496 -0.2713 -0.3034
 2951W        W 6695   3.048   2.771  11.086  0.0454  0.1828 -0.0361
 2952W        W 6696   8.003   8.428   3.600 -0.0922  0.0636 -0.0525
 2953W        W 6697   4.319   5.631   9.484  0.4959 -0.2471 -0.0467
 2954W        W 6698   7.932   8.030   2.650 -0.0826 -0.1294  0.0286
 2955W        W 6699   7.299   3.659   8.777 -0.0867 -0.1119  0.2937
 2956W        W 6700   4.463   2.002  11.438 -0.0314 -0.1162  0.2766
 2957W        W 6701   0.527   8.745  12.447  0.1867 -0.2159 -0.0009
 2958W        W 6702   9.165   9.400  10.632 -0.0638 -0.1013  0.0743
 2959W        W 6703   8.206   3.354   8.831 -0.1050 -0.0166 -0.0082
 2960W        W 6704   3.691   9.719  12.302  0.1867  0.1711 -0.0989
 2961W        W 6705   2.799   8.515   1.018 -0.5236 -0.1516 -0.1162
 2962W        W 6706   5.431   4.495  10.448  0.1645 -0.0800  0.0354
 2963W        W 6707   7.507   9.388   9.375 -0.0133 -0.1012  0.1249
 2964W        W 6708   6.911   6.056   9.819  0.0008  0.2524  0.0559
 2965W        W 6709   0.848   1.192  12.300  0.0058 -0.0235  0.3482
 2966W        W 6710   4.488   2.001   3.651  0.0178  0.3171  0.1873
 2967W        W 6711   9.941   5.199  11.000  0.0024  0.1371 -0.0032
 2968W        W 6712   0.945   7.441   9.266 -0.0902  0.1783  0.0631
 2969W        W 6713   5.020   3.404   8.760 -0.1137  0.1467  0.1723
 2970W        W 6714   7.270   1.604  10.307  0.1929 -0.2078 -0.0026
 2971W        W 6715   5.171   8.385   9.502  0.1918  0.0136  0.1473
 2972W        W 6716   2.610   4.352  10.038  0.1435 -0.2627 -0.3747
 2973W        W 6717   8.362   7.838   1.268  0.0441 -0.0484 -0.1971
 2974W        W 6718   8.166   8.506  12.633  0.2276  0.2272  0.0624
 2975W        W 6719   5.197   4.524   1.326 -0.3043 -0.3102 -0.0773
 2976W        W 6720   7.492   5.302   8.642  0.3021  0.0373 -0.0145
 2977W        W 6721   8.759   7.687  10.048  0.2523 -0.0280  0.0992
 2978W        W 6722   3.776   6.167  12.585 -0.0598  0.2989  0.0529
 2979W        W 6723   4.492   9.884   1.813 -0.2809  0.0775  0.0501
 2980W        W 6724   4.980   3.015  11.276  0.2110 -0.1843 -0.0592
 2981W        W 6725   2.426   2.246   1.673  0.1997 -0.2002 -0.0867
 2982W        W 6726   1.565   1.120  11.178  0.0718  0.0907  0.2287
 2983W        W 6727   8.836   0.051  11.091 -0.0252 -0.0937  0.0163
 2984W        W 6728   2.922   4.580  12.451 -0.2111  0.1640  0.1373
 2985W        W 6729   1.148   0.818   1.963 -0.0403 -0.0786  0.2130
 2986W        W 6730   6.560   6.103   0.781 -0.4710 -0.1447 -0.1489
 2987W        W 6731   9.901   7.850  10.247 -0.1733  0.0232 -0.0295
 2988W        W 6732   8.077   3.748   0.544 -0.0732 -0.2728  0.0430
 2989W        W 6733   4.580   7.162  11.262 -0.3182  0.0941 -0.1233
 2990W        W 6734   0.692   0.037  12.235 -0.0829 -0.0447 -0.0060
 2991W        W 6735   6.671   0.507  11.306 -0.2882 -0.5002  0.0254
 2992W        W 6736   2.386   4.783   1.024  0.1588 -0.0393 -0.2120
 2993W        W 6737   9.448   9.559   1.912 -0.3621  0.0592 -0.1709
 2994W        W 6738   0.971   2.081   4.781  0.1176  0.0828  0.0990
 2995W        W 6739   6.153   6.250  10.413 -0.1027  0.1762 -0.0740
 2996W        W 6740   3.562   8.681  12.601  0.3859  0.0827 -0.1496
 2997W        W 6741   4.534   8.829   9.234  0.3482 -0.1567  0.0487
 2998W        W 6742   8.993   2.180   2.132 -0.0266  0.0977 -0.0977
 2999W        W 6743   3.259   2.284   2.391  0.1220 -0.0403 -0.4508
 3000W        W 6744   2.000   1.584   8.881 -0.0442 -0.3235  0.1784
 3001W        W 6745   6.596   3.707   9.359 -0.2944 -0.0539 -0.1847
 3002W        W 6746   7.454   1.092   2.002 -0.2474 -0.3063  0.0386
 3003W        W 6747   7.306   5.819   0.023 -0.2045 -0.1076  0.1231
 3004W        W 6748   7.472   0.698  10.092 -0.1762 -0.1248 -0.0497
 3005W        W 6749   5.191   8.464  11.546 -0.0987 -0.0409  0.2271
 3006W        W 6750   8.396   8.319   9.411 -0.1475  0.0610  0.4793
 3007W        W 6751   7.134   4.933   3.677  0.2029 -0.4219 -0.0922
 3008W        W 6752   3.682   2.480  11.658 -0.1579  0.1448  0.1531
 3009W        W 6753   3.807   8.023   2.484  0.2462 -0.2132 -0.3736
 3010W        W 6754   1.331   2.807   3.627  0.0018  0.2126  0.0328
 3011W        W 6755   0.847   1.841   0.654  0.0602  0.4923  0.2160
 3012W        W 6756   9.365   2.801   4.613 -0.4472  0.1742 -0.1936
 3013W        W 6757   5.124   5.554  12.225  0.1481 -0.0779  0.0053
 3014W        W 6758   4.202   1.410  10.579 -0.1942  0.1236 -0.1403
 3015W        W 6759   9.629   9.556   9.853  0.1955  0.2000  0.2383
 3016W        W 6760   2.883   3.272   1.797 -0.1156 -0.0661  0.1042
 3017W        W 6761   7.514   1.152   0.693 -0.0139  0.1203 -0.0761
 3018W        W 6762   9.834   2.267   9.964  0.0511 -0.1728  0.0661
 3019W        W 6763   9.699   0.348  12.172  0.0089  0.2588  0.1187
 3020W        W 6764   4.572   5.792   2.329  0.0546  0.0357 -0.0451
 3021W        W 6765   8.148   4.049   3.589 -0.0549 -0.0599 -0.3319
 3022W        W 6766   4.409   5.539   1.037  0.1524  0.0316 -0.0127
 3023W        W 6767   5.717   6.325   3.679 -0.3766  0.1573  0.0795
 3024W        W 6768   3.527   2.650  11.086  0.1948 -0.2811 -0.2595
 3025W        W 6769   4.857   9.185  10.900 -0.1380 -0.4187  0.1168
 3026W        W 6770   1.279   2.022   8.556  0.3021 -0.1539  0.1939
 3027W        W 6771   6.371   3.059   2.298  0.1280 -0.0719  0.1924
 3028W        W 6772   2.079   8.536   2.648 -0.2895  0.1920 -0.0777
 3029W        W 6773   6.537   4.218  10.055 -0.0002 -0.0774 -0.0349
 3030W        W 6774   0.256   1.378   4.518 -0.1361 -0.2128  0.1900
 3031W        W 6775   5.212   5.098   1.982 -0.0310 -0.1641 -0.0097
 3032W        W 6776   0.414   8.935   9.879  0.0364 -0.1763  0.0867
 3033W        W 6777   9.695   7.496  11.801  0.0482 -0.1335  0.3740
 3034W        W 6778   9.161   1.255  12.348 -0.2895 -0.2461 -0.1160
 3035W        W 6779   2.745   0.388   9.249 -0.2912  0.1591 -0.0668
 3036W        W 6780   2.120   9.569   3.011 -0.0310 -0.1023 -0.2217
 3037W        W 6781   2.539   7.014   1.770  0.1526  0.2537  0.3990
 3038W        W 6782   4.321   8.308   9.832  0.3382 -0.1541  0.0724
 3039W        W 6783   0.325   8.388  12.760 -0.1631 -0.0316  0.1813
 3040W        W 6784   4.452   3.661  10.695  0.1386  0.0154  0.1636
 3041W        W 6785   5.872   9.834   1.458  0.0463  0.1171  0.1038
 3042W        W 6786   6.236   1.756  11.615  0.1449  0.0031 -0.3072
 3043W        W 6787   4.572   1.755   2.143 -0.1736 -0.0537  0.0037
 3044W        W 6788   8.370   6.097   0.216 -0.0803  0.0948 -0.5234
 3045W        W 6789   7.305   8.737  11.180  0.1384 -0.0393 -0.0142
 3046W        W 6790   1.956   3.379   9.681  0.0643 -0.1579 -0.1223
 3047W        W 6791   7.244   8.273  11.347  0.3139 -0.2693  0.0883
 3048W        W 6792   6.260   8.888   0.107 -0.1998  0.3601  0.0218
 3049W        W 6793   1.676   5.186  10.644 -0.3412 -0.0310  0.2522
 3050W        W 6794   8.060   3.411   1.347  0.2068 -0.1884  0.3664
 3051W        W 6795   5.178   9.364   9.647 -0.0502  0.0625 -0.0637
 3052W        W 6796   0.640   9.633   3.023 -0.1383 -0.0982 -0.0397
 3053W        W 6797   5.583   1.542  10.869 -0.1781 -0.3793 -0.1914
 3054W        W 6798   1.321   4.003   1.720  0.0243 -0.5014 -0.4207
 3055W        W 6799   9.213   9.385   9.698  0.3035  0.0699  0.0480
 3056W        W 6800   1.878   3.300   7.949  0.1579 -0.0795  0.0403
 3057W        W 6801   2.739   2.193   4.517 -0.1304  0.3450 -0.0256
 3058W        W 6802   3.477   8.637   4.233 -0.2178 -0.1178 -0.2189
 3059W        W 6803   9.211   9.315   1.033 -0.1770  0.1993  0.0662
 3060W        W 6804   7.677   0.241   2.212 -0.0678  0.2525 -0.0762
 3061W        W 6805   6.523   6.163   0.218  0.0595  0.0493  0.1363
 3062W        W 6806   3.725   0.297  11.857  0.3414 -0.1945  0.1799
 3063W        W 6807   2.709   9.525   1.130  0.3220 -0.2113 -0.0108
 3064W        W 6808   9.393   1.478   2.221 -0.2035  0.0735  0.4453
 3065W        W 6809   7.555   8.268   1.695  0.2301  0.0913 -0.2809
 3066W        W 6810   4.137   4.708   1.341  0.0378  0.0286 -0.2378
 3067W        W 6811   9.527   5.056   2.521 -0.2367  0.1121  0.6046
 3068W        W 6812   7.591   5.168  10.602 -0.0159 -0.1257 -0.2367
 3069W        W 6813   2.369   4.887   0.377 -0.0326  0.2986 -0.0929
 3070W        W 6814   3.449   8.935   2.464 -0.0433 -0.0505 -0.2664
 3071W        W 6815   0.904   6.971   1.670  0.1911 -0.1180  0.0964
 3072W        W 6816   4.899   4.517   3.577  0.1486 -0.0586  0.0064
 3073W        W 6817   9.904   3.630   1.691 -0.0109 -0.1664 -0.1263
 3074W        W 6818   5.501   5.654   0.380 -0.1835  0.0256 -0.3296
 3075W        W 6819   3.530   5.495   9.407 -0.1752 -0.1542 -0.3950
 3076W        W 6820   1.441   0.708   2.550 -0.1994 -0.1009  0.0765
 3077W        W 6821   6.204   2.936   8.955  0.2219  0.0959 -0.0663
 3078W        W 6822   0.854   5.127   8.431 -0.1075  0.1851  0.1570
 3079W        W 6823   0.580   3.320   2.124  0.0738 -0.1300  0.2847
 3080W        W 6824   0.571   7.635  11.524  0.0248 -0.1601 -0.0415
 3081W        W 6825   1.037   2.575   0.572 -0.0991 -0.1105  0.2626
 3082W        W 6826   1.168   3.018  12.702  0.2685 -0.0673  0.0650
 3083W        W 6827   1.326   1.920  11.318  0.1863 -0.1650  0.0047
 3084W        W 6828   8.540   5.487   3.073  0.1882  0.0671  0.0046
 3085W        W 6829   3.229   1.460  10.762 -0.0894 -0.2001 -0.0289
 3086W        W 6830   6.617   2.595   1.237  0.2734 -0.1035  0.0933
 3087W        W 6831   0.663   4.144   8.769  0.3308 -0.0210 -0.0801
 3088W        W 6832   0.816   2.842   8.908 -0.0754 -0.0659 -0.0609
 3089W        W 6833   7.800   2.283   3.128  0.2136  0.1872 -0.5054
 3090W        W 6834   7.498   0.107   9.380 -0.0837 -0.1620 -0.1261
 3091W        W 6835   4.078   6.940   1.458 -0.4965 -0.1723 -0.0400
 3092W        W 6836   0.540   8.366  11.023 -0.2021  0.1933  0.1651
 3093W        W 6837   4.962   2.826   5.329  0.0359 -0.0062 -0.0631
 3094W        W 6838   6.524   4.217  12.764 -0.2191 -0.2374 -0.1646
 3095W        W 6839   1.649   2.192  10.440  0.4368 -0.1158  0.0916
 3096W        W 6840   0.965   4.737   1.238 -0.1717  0.0187 -0.0342
 3097W        W 6841   1.846   8.320   1.062 -0.0149  0.1654 -0.1207
 3098W        W 6842   7.054   9.554   8.545  0.2851  0.1128 -0.0064
 3099W        W 6843   0.998   9.629  12.044  0.0850 -0.3502 -0.3391
 3100W        W 6844   3.659   8.649   3.310 -0.0603 -0.1294  0.1220
 3101W        W 6845   5.366   1.318   2.340  0.0674  0.1345  0.1068
 3102W        W 6846   2.989   2.500  12.832  0.1122 -0.4073 -0.0970
 3103W        W 6847   7.800   4.221   1.184  0.1911  0.1180  0.0666
 3104W        W 6848   4.296   6.489   1.647  0.0524 -0.0615 -0.0414
 3105W        W 6849   1.939   8.169   4.158 -0.0478 -0.1459 -0.0621
 3106W        W 6850   4.703   6.073   3.544  0.2403  0.1268 -0.1746
 3107W        W 6851   9.732   3.701   9.686 -0.3240  0.1011 -0.1837
 3108W        W 6852   8.087   7.614   2.901  0.0568 -0.1728  0.2235
 3109W        W 6853   6.117   0.099   4.318 -0.0873  0.2891  0.1587
 3110W        W 6854   4.112   1.420   0.820 -0.0013  0.0492 -0.1401
 3111W        W 6855   3.288   9.168   2.000 -0.0629 -0.0519 -0.0666
 3112W        W 6856   7.958   7.487  10.331  0.2913 -0.0886  0.2964
 3113W        W 6857   4.847   7.530  11.579  0.4148  0.0316  0.0921
 3114W        W 6858   3.620   8.595   7.812  0.2183 -0.3486 -0.2033
 3115W        W 6859   7.879   9.574   0.935 -0.1978 -0.3354  0.3164
 3116W        W 6860   7.023   4.947   9.941  0.3278 -0.3160  0.3918
 3117W        W 6861   3.937   6.024   0.274 -0.2349  0.0823  0.4071
 3118W        W 6862   1.893   8.277   9.443  0.2818 -0.3421  0.5901
 3119W        W 6863   5.090   1.056   3.774 -0.0896  0.1215 -0.4211
 3120W        W 6864   3.573   6.993   0.408  0.0369  0.3120 -0.1132
 3121W        W 6865   3.084   4.271   9.812 -0.3532  0.0416  0.0087
 3122W        W 6866   0.408   3.521   0.174 -0.0093  0.3041 -0.1666
 3123W        W 6867   5.502   9.036  10.925  0.0962 -0.2808  0.1858
 3124W        W 6868   2.180   0.526   2.158  0.0188  0.2910  0.2058
 3125W        W 6869   9.119   2.642   0.773  0.0570 -0.2022  0.1089
 3126W        W 6870   4.684   0.855   9.528  0.2844  0.1410 -0.2010
 3127W        W 6871   4.464   7.534  12.054 -0.1552  0.0638  0.0454
 3128W        W 6872   5.430   2.090   1.778 -0.1573 -0.0277 -0.0329
 3129W        W 6873   9.076   9.855   3.439  0.1313  0.3024 -0.1868
 3130W        W 6874   6.062   2.010   3.284  0.1826 -0.0954  0.1101
 3131W        W 6875   5.749   3.030   0.754 -0.1114 -0.1043  0.0215
 3132W        W 6876   3.968   1.703  11.451  0.0766  0.1541  0.1410
 3133W        W 6877   6.287   1.644   8.433 -0.1815 -0.0835 -0.1936
 3134W        W 6878   4.848   8.687  11.972  0.0407 -0.0993 -0.1003
 3135W        W 6879   8.758   0.333   3.309  0.2917  0.2286 -0.0871
 3136W        W 6880   4.527   9.866  10.191 -0.1915  0.1327  0.0474
 3137W        W 6881   6.920   2.299   0.138 -0.0483  0.0237 -0.1932
 3138W        W 6882   5.572   3.460  12.277  0.0035 -0.0577  0.0520
 3139W        W 6883   6.543   5.936  12.582  0.1848  0.1861 -0.0833
 3140W        W 6884   2.071   6.982   0.444 -0.2690  0.0951  0.4388
 3141W        W 6885   5.647   7.224   3.597  0.3431 -0.4165 -0.0649
 3142W        W 6886   1.485   4.321   3.937  0.1199  0.2355  0.1103
 3143W        W 6887   4.924   0.726   2.848  0.1526  0.0850  0.0483
 3144W        W 6888   5.989   0.969   4.151  0.2748 -0.3737  0.1876
 3145W        W 6889   4.086   0.374   5.181 -0.0291  0.1952 -0.0298
 3146W        W 6890   0.715   2.800  11.598  0.1699 -0.3111 -0.0381
 3147W        W 6891   3.618   8.643   1.281 -0.0586 -0.1594 -0.0818
 3148W        W 6892   4.613   5.580  10.033  0.2121 -0.0170 -0.1642
 3149W        W 6893   2.520   7.065   8.857 -0.2477 -0.1718 -0.1624
 3150W        W 6894   4.035   9.818   4.063 -0.3204  0.1694 -0.0721
 3151W        W 6895   9.770   1.445   9.268  0.0277  0.2760 -0.2806
 3152W        W 6896   9.403   1.924   1.590  0.0107 -0.0541 -0.0578
 3153W        W 6897   4.029   4.943  11.536 -0.2853  0.0973 -0.3363
 3154W        W 6898   8.516   9.364   2.243  0.3941  0.2500  0.1402
 3155W        W 6899   9.638   2.892  10.461  0.0092  0.0467 -0.0675
 3156W        W 6900   8.322   2.158   9.459 -0.0322 -0.4069  0.1050
 3157W        W 6901   0.321   7.619  10.487 -0.0978  0.0179  0.1201
 3158W        W 6902   3.961   2.703  10.335 -0.0640  0.2618 -0.0405
 3159W        W 6903   4.555   8.763   1.891 -0.1314  0.0473 -0.2953
 3160W        W 6904   5.349   5.352  10.759  0.3055  0.1094 -0.0328
 3161W        W 6905   8.692   0.948   4.658 -0.0580  0.0991 -0.1258
 3162W        W 6906   2.697   5.256  10.747 -0.0444 -0.1454  0.1459
 3163W        W 6907   2.253   7.575   2.967  0.2408 -0.3946  0.0228
 3164W        W 6908   0.534   8.357   1.691 -0.0239 -0.0334 -0.4529
 3165W        W 6909   7.137   2.678  11.653 -0.1255 -0.4026  0.0113
 3166W        W 6910   7.748   4.889   1.263  0.2448  0.2201  0.3085
 3167W        W 6911   3.171   2.603   1.947 -0.2552  0.0003 -0.0751
 3168W        W 6912   3.146   2.421  10.727 -0.0082 -0.4376 -0.0555
 3169W        W 6913   0.501   8.881  10.952  0.2426  0.3218  0.1461
 3170W        W 6914   8.873   7.060   1.791 -0.1528 -0.0453 -0.0114
 3171W        W 6915   2.137   8.718   2.201 -0.0231  0.2058  0.2063
 3172W        W 6916   7.221   4.474   9.845 -0.0726  0.0059 -0.0623
 3173W        W 6917   3.080   7.370   1.100 -0.0422 -0.1556  0.3929
 3174W        W 6918   7.523   8.491   0.579 -0.0890 -0.0702 -0.2662
 3175W        W 6919   5.922   2.337   9.701 -0.0750  0.1126 -0.0161
 3176W        W 6920   0.511   6.826   2.476 -0.1789 -0.1384 -0.4116
 3177W        W 6921   8.904   0.447   9.952 -0.1290 -0.2166  0.1284
 3178W        W 6922   4.804   3.682   2.283 -0.0333 -0.1284 -0.2407
 3179W        W 6923   6.987   2.686  10.333  0.0615  0.2928 -0.4767
 3180W        W 6924   7.360   2.388   2.106  0.0029 -0.1299 -0.0455
 3181W        W 6925   7.852   0.347   9.136 -0.0603 -0.1569 -0.0063
 3182W        W 6926   6.900   2.081   2.930 -0.0149 -0.0623  0.3479
 3183W        W 6927   7.043   3.990   9.117  0.1036 -0.1076  0.0919
 3184W        W 6928   0.966   4.889   9.392 -0.0231 -0.1438 -0.2254
 3185W        W 6929   7.284   3.764   2.216  0.0797 -0.2772 -0.1176
 3186W        W 6930   9.653   7.669   3.206 -0.1970 -0.3588  0.2997
 3187W        W 6931   7.111   4.201   2.043 -0.0348  0.0696  0.0259
 3188W        W 6932   4.259   9.456   2.880  0.0728  0.2371 -0.0491
 3189W        W 6933   7.613   9.210  11.892 -0.1344  0.1935 -0.1308
 3190W        W 6934   9.627   8.287   9.380  0.2469 -0.0719 -0.2046
 3191W        W 6935   3.016   1.040  11.787 -0.2838 -0.2452  0.1425
 3192W        W 6936   8.696   1.786   9.435 -0.2154 -0.1160  0.1855
 3193W        W 6937   3.408   8.891   3.780 -0.1598 -0.0379 -0.0269
 3194W        W 6938   6.911   2.295  10.977 -0.0198 -0.2555 -0.0646
 3195W        W 6939   9.102   7.594   0.888 -0.0647  0.1130  0.3360
 3196W        W 6940   7.020   0.785   9.845 -0.4719 -0.2227  0.0184
 3197W        W 6941   4.302   0.995   1.788 -0.1401  0.0822  0.4075
 3198W        W 6942   4.575   6.602   2.720 -0.2406  0.1520  0.0571
 3199W        W 6943   2.672   8.339  11.396  0.0961  0.1907  0.0726
 3200W        W 6944   1.576   7.819   2.348  0.2734  0.0615  0.2773
 3201W        W 6945   8.399   5.480  11.949 -0.1069  0.0826 -0.1660
 3202W        W 6946   0.827   2.978  11.128 -0.1267  0.2937  0.2079
 3203W        W 6947   7.600   9.790   1.319  0.1689 -0.2323 -0.0520
 3204W        W 6948   8.221   5.137  12.270 -0.1922  0.1585  0.0569
 3205W        W 6949   8.999   0.252   9.444  0.2527 -0.0647 -0.1184
 3206W        W 6950   4.834   7.166   9.898 -0.0833  0.6530 -0.0194
 3207W        W 6951   8.158   1.863   5.266  0.4140 -0.0580  0.0988
 3208W        W 6952   0.594   2.297  10.311 -0.1754  0.2502  0.1052
 3209W        W 6953   0.874   0.101   1.801  0.2602  0.2833  0.1187
 3210W        W 6954   6.495   5.838   3.373 -0.0779  0.0173  0.2477
 3211W        W 6955   4.551   9.010   0.101 -0.1490 -0.2379  0.0168
 3212W        W 6956   7.744   1.737   1.403 -0.0823  0.1825 -0.0367
 3213W        W 6957   5.510   9.124  12.221  0.2755 -0.2020  0.1065
 3214W        W 6958   0.543   6.935   9.898 -0.0000 -0.1394 -0.0755
 3215W        W 6959   4.727   9.749   8.789  0.0083  0.2722 -0.2325
 3216W        W 6960   5.303   0.287   9.062 -0.1130 -0.1127 -0.1664
 3217W        W 6961   0.444   6.287  11.534 -0.1545 -0.0132 -0.0743
 3218W        W 6962   7.233   1.541   3.782  0.3837  0.0474  0.3448
 3219W        W 6963   3.766   7.011  10.758 -0.0096  0.0639 -0.2445
 3220W        W 6964   5.337   0.266   2.302 -0.0136 -0.2644 -0.0173
 3221W        W 6965   2.536   9.320  12.842  0.0642  0.0937  0.0212
 3222W        W 6966   1.864   8.004   3.625  0.1342 -0.0017  0.2279
 3223W        W 6967   3.786   0.431   1.110  0.2023 -0.1715 -0.0215
 3224W        W 6968   0.370   4.367  10.255 -0.3154 -0.2334  0.0268
 3225W        W 6969   2.053   9.178  10.532 -0.0254 -0.1173 -0.2122
 3226W        W 6970   4.264   7.742   3.139  0.2893 -0.0463  0.1570
 3227W        W 6971   5.355   8.115   4.019 -0.0457 -0.0602 -0.0243
 3228W        W 6972   8.044   9.378   8.611 -0.2498  0.4069  0.0474
 3229W        W 6973   0.052   1.899  11.246 -0.0180  0.1850  0.1840
 3230W        W 6974   0.225   4.763   4.244  0.0983 -0.0912  0.2584
 3231W        W 6975   3.359   2.043   0.621  0.2088 -0.2102 -0.2298
 3232W        W 6976   7.991   0.983   4.179  0.2885 -0.1938  0.1998
 3233W        W 6977   1.876   8.731   9.134  0.2258  0.0829  0.0713
 3234W        W 6978   9.044   1.669   1.343  0.2002 -0.1552  0.3008
 3235W        W 6979   8.575   1.368  10.443  0.1763 -0.0646 -0.1536
 3236W        W 6980   3.833   5.191   0.020 -0.1804  0.0433  0.2711
 3237W        W 6981   0.036   0.951   4.875 -0.2652  0.0413 -0.0331
 3238W        W 6982   4.663   4.616   2.740 -0.0038  0.0582  0.3824
 3239W        W 6983   0.205   1.172  12.485  0.2376  0.0422 -0.2360
 3240W        W 6984   3.806   1.753  10.778 -0.4042  0.1361 -0.0221
 3241W        W 6985   5.934   6.905  11.267  0.1147  0.2169 -0.2867
 3242W        W 6986   4.779   2.967   2.988  0.0596 -0.1006 -0.1755
 3243W        W 6987   0.021   5.717  10.688 -0.1720 -0.1500 -0.2308
 3244W        W 6988   8.880   6.472  10.652  0.1428 -0.0084 -0.3889
 3245W        W 6989   7.490   8.469   9.844 -0.0777 -0.0370 -0.1691
 3246W        W 6990   4.568   2.600   0.399  0.1889 -0.1678 -0.4093
 3247W        W 6991   6.934   8.768  10.834 -0.3075  0.2483 -0.2393
 3248W        W 6992   9.296   7.335  10.906 -0.2233  0.0959 -0.2601
 3249W        W 6993   1.778   5.326   2.994  0.1406  0.2732  0.1374
 3250W        W 6994   1.211   8.508  11.438  0.1217  0.0212  0.1237
 3251W        W 6995   3.217   5.348   0.651 -0.0230  0.1297 -0.4545
 3252W        W 6996   7.678   6.918  10.913 -0.1738 -0.1686  0.2158
 3253W        W 6997   2.232   5.569   3.654 -0.1524 -0.4383  0.0021
 3254W        W 6998   5.894   1.092  11.116 -0.0416  0.1522 -0.1532
 3255W        W 6999   7.211   6.318   2.763  0.1070 -0.2490 -0.2099
 3256W        W 7000   5.078   1.763   0.618  0.0698  0.1543  0.2327
 3257W        W 7001   9.230   1.090   3.442  0.0828  0.1354 -0.0072
 3258W        W 7002   7.632   4.481  12.829 -0.1233  0.2658 -0.1565
 3259W        W 7003   0.882   6.553  10.045 -0.1208  0.0460  0.0184
 3260W        W 7004   4.881   4.798  11.491  0.2379  0.1512  0.0122
 3261W        W 7005   5.263   7.605   1.959 -0.0273  0.1547 -0.3182
 3262W        W 7006   3.944   2.265   3.327 -0.2545  0.2696 -0.0645
 3263W        W 7007   7.436   3.760  11.720 -0.0529  0.2366  0.1041
 3264W        W 7008   0.647   8.611   8.765 -0.1181 -0.0501  0.1403
 3265W        W 7009   0.840   2.980   0.781  0.1384  0.1426 -0.0319
 3266W        W 7010   5.789   1.223   3.232 -0.3163  0.1963 -0.0250
 3267W        W 7011   3.166   9.029   9.900 -0.1184  0.0870 -0.0531
 3268W        W 7012   5.901   0.572  11.947 -0.2427  0.2194  0.0539
 3269W        W 7013   1.467   0.527   0.415  0.1240 -0.3467 -0.1788
 3270W        W 7014   0.554   2.106  12.423 -0.1089 -0.0091  0.1844
 3271W        W 7015   9.503   0.001   2.263 -0.0150  0.1916  0.4197
 3272W        W 7016   4.962   4.196   9.681 -0.2273 -0.0548  0.1317
 3273W        W 7017   5.297   5.074   2.986  0.0682 -0.3020 -0.1843
 3274W        W 7018   8.139   2.935  11.928 -0.0484  0.1365  0.1986
 3275W        W 7019   4.489   2.934   3.331 -0.2010 -0.1458 -0.2299
 3276W        W 7020   2.438   3.108   1.737 -0.2123 -0.0593 -0.2404
 3277W        W 7021   8.147   7.039  10.156  0.2429 -0.2656 -0.2609
 3278W        W 7022   5.786   4.984  10.454  0.2303  0.0681 -0.1154
 3279W        W 7023   0.061   7.197  10.344  0.0901 -0.1080  0.2389
 3280W        W 7024   6.971   0.411   1.665 -0.2374  0.4225  0.3006
 3281W        W 7025   0.346   7.216   2.811  0.2002  0.1955 -0.1008
 3282W        W 7026   1.486   1.095   0.014 -0.1537 -0.0459  0.0893
 3283W        W 7027   6.813   5.774   0.254 -0.2703 -0.0074 -0.3871
 3284W        W 7028   9.853   3.786   8.224  0.0122  0.1108  0.1123
 3285W        W 7029   1.838   7.286  11.570 -0.1168  0.0588 -0.1775
 3286W        W 7030   6.319   2.805   3.115  0.2056  0.1648 -0.0744
 3287W        W 7031   6.227   7.421   0.527 -0.0502  0.0406 -0.0918
 3288W        W 7032   4.090   7.271   8.487 -0.0079  0.0544  0.1268
 3289W        W 7033   1.445   1.569   2.106  0.3537  0.0028  0.2466
 3290W        W 7034   8.565   9.562  11.301  0.1360  0.2495  0.1956
 3291W        W 7035   3.581   8.263   3.013 -0.0565 -0.1888  0.0381
 3292W        W 7036   8.584   1.636   5.216 -0.1140  0.0557  0.1902
 3293W        W 7037   4.714   0.248   4.078 -0.4390  0.1972 -0.1830
 3294W        W 7038   1.582   2.379   2.909 -0.1537 -0.1749 -0.1074
 3295W        W 7039   3.327   2.818   9.036 -0.1895  0.2080  0.0730
 3296W        W 7040   9.531   7.468  10.448  0.1705  0.0640  0.0787
 3297W        W 7041   3.212   4.855   0.572  0.1408 -0.1494 -0.0784
 3298W        W 7042   1.960   8.129   4.646  0.1805 -0.2888  0.1720
 3299W        W 7043   3.456   2.830   1.406  0.0212 -0.0229 -0.1541
 3300W        W 7044   3.789   9.782   3.087  0.1432 -0.1614 -0.2224
 3301W        W 7045   5.612   6.144  11.462 -0.2302 -0.2349  0.2178
 3302W        W 7046   1.026   3.394   9.664  0.0692 -0.2449 -0.0545
 3303W        W 7047   4.721   4.006   0.518 -0.0221 -0.2669 -0.0223
 3304W        W 7048   4.214   9.703   8.725  0.4269 -0.1216  0.0956
 3305W        W 7049   8.769   6.595   2.018 -0.2225  0.1011 -0.2180
 3306W        W 7050   7.667   0.606   9.604  0.0331 -0.1891 -0.0015
 3307W        W 7051   8.641   1.211   1.763 -0.0594  0.1343 -0.0192
 3308W        W 7052   0.556   6.480   1.904 -0.3052  0.1148 -0.1509
 3309W        W 7053   0.438   9.594  12.029  0.0093 -0.2152  0.2359
 3310W        W 7054   6.085   7.731   9.588  0.2666 -0.2237  0.0625
 3311W        W 7055   7.176   8.144   1.401  0.2189 -0.1591  0.1744
 3312W        W 7056   4.358   6.130   2.575 -0.0400 -0.1461 -0.4272
 3313W        W 7057   5.976   7.268   3.181 -0.0779 -0.1731  0.2729
 3314W        W 7058   6.928   2.302   4.677  0.2346 -0.1932  0.2674
 3315W        W 7059   6.715   9.394  11.652 -0.0983 -0.0664 -0.1641
 3316W        W 7060   2.093   7.625   3.929  0.0555  0.1121 -0.2645
 3317W        W 7061   4.081   8.205   2.876  0.1712 -0.0940 -0.2157
 3318W        W 7062   2.714   7.760   8.606  0.0867 -0.1407 -0.1438
 3319W        W 7063   1.090   3.320   2.256 -0.0834 -0.1124 -0.0609
 3320W        W 7064   0.030   3.681  11.374 -0.1926  0.1982  0.0805
 3321W        W 7065   5.756   1.855   9.259  0.2957 -0.0354 -0.1954
 3322W        W 7066   2.658   3.213   9.222 -0.1643  0.2151  0.0599
 3323W        W 7067   0.830   1.829   0.069 -0.3435  0.2220  0.1138
 3324W        W 7068   2.365   7.264   9.294  0.3249 -0.0854  0.0135
 3325W        W 7069   4.654   9.857   2.658 -0.1881 -0.2679 -0.0788
 3326W        W 7070   7.096   7.196  12.508 -0.4487 -0.0459  0.0549
 3327W        W 7071   0.296   0.771   2.070  0.1997 -0.0966  0.1541
 3328W        W 7072   4.195   6.372  12.473  0.0553 -0.1410  0.1169
 3329W        W 7073   8.356   7.936  12.507  0.0795 -0.2520  0.0998
 3330W        W 7074   4.431   7.498   9.861  0.0838  0.1748 -0.3982
 3331W        W 7075   5.911   2.250  11.745  0.2018 -0.2413  0.0143
 3332W        W 7076   5.269   8.884  10.532  0.1062  0.3674  0.0112
 3333W        W 7077   3.109   6.150   0.914 -0.2509  0.0606  0.1204
 3334W        W 7078   5.878   5.455   0.627  0.1480 -0.1044  0.0785
 3335W        W 7079   4.942   3.522   3.850 -0.0040  0.0312  0.1368
 3336W        W 7080   1.532   0.783   9.390  0.0196 -0.2380 -0.1321
 3337W        W 7081   5.253   3.808   0.809  0.0257 -0.0718 -0.1137
 3338W        W 7082   5.941   0.362  12.742 -0.2110 -0.2073  0.1615
 3339W        W 7083   5.017   1.641  10.212  0.0235 -0.2132  0.1105
 3340W        W 7084   2.606   2.091   3.639  0.1805  0.2517  0.1989
 3341W        W 7085   9.862   3.275   3.532 -0.2117 -0.2885 -0.0759
 3342W        W 7086   6.454   4.043  11.001 -0.0030 -0.2331 -0.1990
 3343W        W 7087   6.788   5.295   0.561  0.1090  0.0613  0.3900
 3344W        W 7088   8.727   2.018   1.153 -0.0439  0.0926 -0.2558
 3345W        W 7089   3.949   4.562   3.480 -0.1788 -0.0665  0.3225
 3346W        W 7090   3.655   5.632  12.672  0.0819 -0.0027  0.0283
 3347W        W 7091   5.575   9.816  11.272  0.0081  0.2832 -0.0401
 3348W        W 7092   6.325   5.037  10.645 -0.2856  0.0203 -0.0169
 3349W        W 7093   5.786   0.903   1.088  0.0617 -0.0338 -0.1480
 3350W        W 7094   8.686   4.561   3.328  0.0421 -0.2388  0.1983
 3351W        W 7095   7.460   4.128   2.739 -0.1675 -0.1522 -0.3558
 3352W        W 7096   3.113   8.489  12.711 -0.2875 -0.1059 -0.0890
 3353W        W 7097   7.869   1.161   4.633 -0.1317 -0.1664 -0.0749
 3354W        W 7098   4.371   6.059   0.091 -0.0771  0.1273 -0.5479
 3355W        W 7099   7.639   8.715  12.843 -0.0012  0.1170  0.1310
 3356W        W 7100   8.166   3.446  11.145 -0.1777 -0.1825 -0.3154
 3357W        W 7101   5.642   2.423   5.159 -0.2816  0.0522  0.0387
 3358W        W 7102   0.129   7.376   0.920 -0.1342  0.3062 -0.2561
 3359W        W 7103   5.758   0.522  11.021 -0.0601  0.2205  0.1991
 3360W        W 7104   9.320   0.401   2.035  0.2269  0.0644 -0.1869
 3361W        W 7105   9.504   3.355   3.981 -0.2084  0.0819  0.0580
 3362W        W 7106   1.616   5.301   0.700  0.3397  0.2964  0.0297
 3363W        W 7107   1.719   0.782   8.799  0.0792 -0.0862  0.0696
 3364W        W 7108   6.366   5.923   1.197  0.1766  0.1502 -0.1025
 3365W        W 7109   0.471   2.568   3.784 -0.1547  0.1327  0.1826
 3366W        W 7110   4.036   4.676   2.119 -0.0089  0.1164 -0.0233
 3367W        W 7111   4.599   1.723  12.509  0.1801  0.0706  0.0263
 3368W        W 7112   3.465   9.199   1.387  0.1975  0.2256 -0.1525
 3369W        W 7113   7.303   2.777   2.432  0.0117  0.1310 -0.0215
 3370W        W 7114   7.835   0.305   3.986 -0.2855  0.2036 -0.1303
 3371W        W 7115   1.898   6.531  10.516  0.2270  0.1423 -0.2281
 3372W        W 7116   3.540   3.238   9.774  0.4717 -0.1079  0.0076
 3373W        W 7117   9.651   0.260   0.970 -0.2922  0.2532  0.2457
 3374W        W 7118   6.723   7.544   9.477 -0.1669  0.2102  0.1838
 3375W        W 7119   9.674   7.627   0.726 -0.0532 -0.0679  0.1152
 3376W        W 7120   4.150   3.399   9.611 -0.1439  0.0101 -0.1178
 3377W        W 7121   4.319   2.015   1.777 -0.0631 -0.1310  0.1652
 3378W        W 7122   0.152   2.884  12.376  0.2284  0.4328 -0.1485
 3379W        W 7123   3.621   9.427   9.100  0.1588 -0.0491 -0.2447
 3380W        W 7124   1.823   9.860   0.584  0.2890 -0.3718  0.2574
 3381W        W 7125   2.804   7.580   0.735 -0.1006  0.2150  0.1358
 3382W        W 7126   7.735   8.047   0.396 -0.1774 -0.0859  0.2224
 3383W        W 7127   7.535   1.820  12.104  0.2873 -0.2503 -0.0257
 3384W        W 7128   3.969   2.219  12.234  0.1299 -0.2468 -0.1915
 3385W        W 7129   0.750   0.427   9.178 -0.2300  0.0686  0.1870
 3386W        W 7130   7.043   1.851  12.130  0.3376  0.3043  0.2448
 3387W        W 7131   2.352   2.784   0.790 -0.3381 -0.1307  0.0980
 3388W        W 7132   9.366   3.332   1.111  0.1085  0.1574 -0.1717
 3389W        W 7133   5.484   4.191   9.968 -0.1712 -0.0265  0.2741
 3390W        W 7134   1.354   9.338   8.726  0.1343 -0.0727 -0.0270
 3391W        W 7135   0.374   6.876   1.557  0.0362 -0.3739 -0.1935
 3392W        W 7136   9.676   6.310   0.243  0.0615 -0.2235  0.1721
 3393W        W 7137   0.627   2.003   3.594 -0.0824  0.1142 -0.1265
 3394W        W 7138   9.455   9.408   3.505 -0.0986  0.0859  0.0328
 3395W        W 7139   0.517   6.145   1.391 -0.1500  0.0921  0.1305
 3396W        W 7140   6.928   7.908  11.385  0.3276  0.3705 -0.1925
 3397W        W 7141   3.187   0.312  10.472  0.1453 -0.0109  0.0399
 3398W        W 7142   8.281   1.514   8.733 -0.1384 -0.3448 -0.2404
 3399W        W 7143   5.015   2.349  10.783 -0.2925  0.0963 -0.2847
 3400W        W 7144   3.954   8.144   8.696 -0.2078 -0.1872 -0.5076
 3401W        W 7145   8.756   0.947  10.878 -0.3425  0.1362  0.0051
 3402W        W 7146   0.371   5.360   3.283 -0.0092  0.1324 -0.3197
 3403W        W 7147   9.001   1.275  11.882 -0.0116  0.0401  0.2836
 3404W        W 7148   4.096   9.343   9.294 -0.0801  0.0081  0.0242
 3405W        W 7149   5.420   5.618   1.957  0.0237 -0.0775 -0.2840
 3406W        W 7150   8.182   9.216  10.301  0.1394 -0.2233  0.3612
 3407W        W 7151   0.200   7.846   2.069  0.2268 -0.1286 -0.2481
 3408W        W 7152   0.207   3.846   2.366  0.0771  0.2210 -0.2506
 3409W        W 7153   3.517   5.867   0.734  0.4079 -0.1793  0.0069
 3410W        W 7154   6.328   1.486   1.704  0.3771 -0.0455 -0.0060
 3411W        W 7155   4.753   8.201  12.514 -0.0218  0.0074 -0.1612
 3412W        W 7156   5.470   1.627   8.887 -0.2364  0.2324  0.1423
 3413W        W 7157   8.774   7.136  10.142  0.1765  0.2805 -0.3843
 3414W        W 7158   4.620   5.773   0.463  0.3672  0.1418  0.1249
 3415W        W 7159   7.509   6.352   2.312  0.0543  0.3387  0.0498
 3416W        W 7160   2.609   8.794  11.593  0.1124  0.1118  0.0074
 3417W        W 7161   6.599   4.438   2.644 -0.1042  0.2454  0.0101
 3418W        W 7162   1.159   1.870   3.655 -0.1420  0.1778  0.0940
 3419W        W 7163   9.225   0.764   9.277 -0.2763  0.0628 -0.4869
 3420W        W 7164   2.821   6.877  12.566  0.1380  0.0545  0.0040
 3421W        W 7165   2.956   9.500  12.544  0.2058 -0.1489  0.0512
 3422W        W 7166   8.277   0.109  10.030  0.1874  0.0272 -0.1440
 3423W        W 7167   0.054   4.867   1.077 -0.1596 -0.2508  0.1684
 3424W        W 7168   8.464   0.618  10.017  0.0332  0.2284 -0.1091
 3425W        W 7169   9.480   6.064   9.836 -0.2084 -0.2947  0.1234
 3426W        W 7170   8.570   1.692  10.773  0.1975 -0.3148  0.1470
 3427W        W 7171   6.161   1.057   9.660  0.0919  0.1464 -0.1103
 3428W        W 7172   6.981   8.543   3.390  0.0240  0.2184 -0.0500
 3429W        W 7173   9.875   3.400   0.865  0.0496  0.0761 -0.0385
 3430W        W 7174   3.084   4.895  10.591 -0.2123  0.1555 -0.1040
 3431W        W 7175   9.059   8.651   1.690 -0.0616 -0.0302  0.0717
 3432W        W 7176   0.565   1.525   8.818  0.1297 -0.0651  0.2652
 3433W        W 7177   9.674   1.954  12.783  0.1408  0.2840 -0.0544
 3434W        W 7178   1.967   2.651   4.090  0.2145 -0.0943  0.2151
 3435W        W 7179   5.107   1.450  11.027 -0.1661  0.2132  0.4605
 3436W        W 7180   4.943   9.910   8.399  0.1971  0.0274  0.1235
 3437W        W 7181   2.623   8.507  12.457  0.2442 -0.0028  0.1231
 3438W        W 7182   2.911   8.001   3.977  0.2679  0.0652 -0.3150
 3439W        W 7183   5.456   3.711   1.709  0.1210  0.2920  0.0209
 3440W        W 7184   8.150   4.195  10.416 -0.4494 -0.1655 -0.2299
 3441W        W 7185   4.163   8.378   0.463 -0.2030 -0.0357  0.2919
 3442W        W 7186   5.053   3.213  11.817 -0.0228 -0.2750  0.4147
 3443W        W 7187   6.401   5.007  12.380  0.0682 -0.1354  0.1573
 3444W        W 7188   7.180   7.890   9.547 -0.0896 -0.1013  0.0177
 3445W        W 7189   1.710   1.113  10.684  0.0678  0.0645 -0.1742
 3446W        W 7190   0.178   4.379   1.239  0.2217 -0.2059  0.0865
 3447W        W 7191   4.110   0.197  10.922 -0.3774 -0.0372 -0.1761
 3448W        W 7192   8.327   1.922  10.380 -0.0752  0.0764  0.2777
 3449W        W 7193   2.274   5.182  12.822  0.0219 -0.0011  0.1166
 3450W        W 7194   1.959   9.802  10.077  0.3539  0.0614 -0.1134
 3451W        W 7195   2.458   0.795   4.505 -0.0707 -0.2221  0.0469
 3452W        W 7196   2.598   9.634   3.147  0.0390 -0.2270  0.1325
 3453W        W 7197   1.720   9.373  10.845 -0.1554 -0.1611 -0.1029
 3454W        W 7198   0.187   9.273   1.646  0.0094 -0.4180 -0.1959
 3455W        W 7199   8.108   6.241   3.470  0.3145  0.0792 -0.0286
 3456W        W 7200   5.806   4.492  11.614  0.0219  0.0305  0.0295
 3457W        W 7201   1.685   8.088  12.171  0.1127 -0.0886  0.0361
 3458W        W 7202   8.132   1.233   1.521 -0.3837  0.0416  0.1241
 3459W        W 7203   9.885   9.786   9.491  0.2512 -0.4747 -0.2769
 3460W        W 7204   0.586   8.154   9.094 -0.1366 -0.0019 -0.1608
 3461W        W 7205   8.814   7.224   0.620 -0.0042  0.0836 -0.3766
 3462W        W 7206   4.703   5.320   3.707 -0.0530  0.1130 -0.0923
 3463W        W 7207   0.297   3.719   9.479  0.0742 -0.0320 -0.0695
 3464W        W 7208   2.181   5.736  12.834 -0.1673  0.1165 -0.0899
 3465W        W 7209   8.733   6.699  11.769  0.0957 -0.0245 -0.1736
 3466W        W 7210   9.713   0.109   4.122 -0.0906 -0.0469  0.1806
 3467W        W 7211   7.034   8.415   0.349 -0.0845 -0.2740  0.1439
 3468W        W 7212   1.105   6.592   0.823 -0.0971 -0.0944  0.0555
 3469W        W 7213   5.707   2.526   2.296 -0.0066 -0.1045  0.2020
 3470W        W 7214   2.496   0.759   1.882  0.0070 -0.2499  0.0949
 3471W        W 7215   6.566   3.494   0.713 -0.2453 -0.0261 -0.0428
 3472W        W 7216   4.047   9.826  10.089  0.1405 -0.0108  0.1520
 3473W        W 7217   0.280   2.196   9.470 -0.3614  0.0200  0.3267
 3474W        W 7218   3.079   4.152   1.963  0.0525 -0.2383 -0.3619
 3475W        W 7219   9.166   2.827   3.469  0.0412  0.2056 -0.1590
 3476W        W 7220   9.295   1.539   3.784  0.2547 -0.0307  0.2466
 3477W        W 7221   4.509   1.215   1.013  0.0823 -0.2264 -0.0563
 3478W        W 7222   7.927   6.833   9.159 -0.1173 -0.2789 -0.3503
 3479W        W 7223   4.489   3.384   3.081  0.0980 -0.1670 -0.1363
 3480W        W 7224   6.649   9.191   1.120  0.0427  0.1596  0.1386
 3481W        W 7225   4.264   6.378  10.102  0.0890  0.0564 -0.2988
 3482W        W 7226   2.448   1.769  12.381  0.1295 -0.0295 -0.1187
 3483W        W 7227   0.325   5.531  11.266 -0.1022  0.2265 -0.1258
 3484W        W 7228   3.742   4.705  12.127 -0.3155 -0.2542  0.0396
 3485W        W 7229   9.120   3.299   4.654  0.0856 -0.0919 -0.3021
 3486W        W 7230   3.556   7.468   0.182  0.1573  0.0546  0.0465
 3487W        W 7231   6.409   7.178   2.853 -0.1405 -0.1389 -0.5660
 3488W        W 7232   4.464   2.947  12.784  0.0188 -0.2137 -0.1057
 3489W        W 7233   5.571   1.062  12.705 -0.0394  0.0397  0.2185
 3490W        W 7234   8.218   0.617   3.925 -0.2443  0.0980  0.2892
 3491W        W 7235   4.979   9.444   1.365  0.0713  0.0478  0.3163
 3492W        W 7236   3.054   1.713   2.255 -0.1098 -0.2476  0.1925
 3493W        W 7237   8.292   0.675   4.492  0.0443 -0.1000 -0.0349
 3494W        W 7238   6.803   3.550   4.682 -0.3883 -0.0836  0.0569
 3495W        W 7239   1.111   9.563   3.044 -0.0067 -0.0321  0.0392
 3496W        W 7240   7.936   9.486  12.179 -0.4247  0.1161  0.1654
 3497W        W 7241   4.146   7.483  10.504  0.3666 -0.0655 -0.1446
 3498W        W 7242   0.415   8.152  11.513 -0.0235  0.1030 -0.0558
 3499W        W 7243   2.496   0.082  11.847  0.0352  0.1148 -0.0744
 3500W        W 7244   8.493   2.794   5.190 -0.1400  0.0079 -0.3104
 3501W        W 7245   9.119   8.880  11.648  0.3384 -0.2713  0.2041
 3502W        W 7246   1.922   2.291   1.817  0.1685 -0.1380 -0.1839
 3503W        W 7247   2.867   9.094   2.448 -0.0874 -0.3107  0.2258
 3504W        W 7248   4.524   0.826  12.173  0.2914  0.3294  0.0168
 3505W        W 7249   1.476   7.805   4.768 -0.1174 -0.0415  0.1735
 3506W        W 7250   0.665   5.979  11.978  0.0216 -0.1286 -0.4642
 3507W        W 7251   6.771   2.495   9.968 -0.0243  0.0483  0.1234
 3508W        W 7252   2.706   0.399   1.567  0.2315  0.1325 -0.2948
 3509W        W 7253   8.362   1.291   4.544  0.0331 -0.0425  0.0142
 3510W        W 7254   4.084   4.319  10.225  0.0245  0.0219 -0.0380
 3511W        W 7255   5.783   9.842   2.325  0.0999  0.2376  0.0439
 3512W        W 7256   2.734   8.547  10.726  0.1179 -0.0222 -0.0653
 3513W        W 7257   3.881   6.051   0.990  0.1791 -0.1594 -0.1376
 3514W        W 7258   8.668   0.816   9.564 -0.0169 -0.2860 -0.2785
 3515W        W 7259   2.042   8.597   0.231  0.0629  0.1568  0.1939
 3516W        W 7260   5.982   1.735   2.673 -0.2726 -0.0165  0.1009
 3517W        W 7261   0.793   1.536   1.123  0.0899  0.0408 -0.1226
 3518W        W 7262   0.293   6.036   3.698  0.0438  0.0567 -0.0197
 3519W        W 7263   8.287   5.408   9.919 -0.0584  0.0171 -0.1980
 3520W        W 7264   4.988   3.394   3.304  0.1078  0.2754  0.3031
 3521W        W 7265   5.950   4.934   0.592 -0.4595  0.1246 -0.0489
 3522W        W 7266   6.556   2.721   3.598  0.0003 -0.1690 -0.0859
 3523W        W 7267   8.070   8.112   1.747 -0.0235 -0.0926 -0.0750
 3524W        W 7268   9.262   2.769  12.739 -0.0332  0.0209  0.1697
 3525W        W 7269   8.635   7.821   9.136  0.4046  0.3426 -0.1318
 3526W        W 7270   8.670   4.886   4.501  0.0558  0.0038 -0.2091
 3527W        W 7271   2.757   9.867  12.244  0.0025 -0.0032  0.1169
 3528W        W 7272   0.469   8.157  10.475 -0.0407  0.1716  0.0036
 3529W        W 7273   4.567   1.293  10.201  0.0621  0.1302  0.1235
 3530W        W 7274   4.395   0.531   2.666 -0.1006  0.0853 -0.2423
 3531W        W 7275   1.777   7.099  12.295 -0.1063  0.2814 -0.0108
 3532W        W 7276   3.193   8.691   2.139 -0.1252 -0.0616  0.0802
 3533W        W 7277   0.076   4.510   0.476 -0.0084 -0.0852 -0.0719
 3534W        W 7278   9.295   4.443   0.497 -0.1159 -0.1330  0.1044
 3535W        W 7279   0.761   2.892   2.252 -0.1194 -0.6171  0.3326
 3536W        W 7280   4.185   4.016   4.722 -0.0469  0.0665 -0.0200
 3537W        W 7281   6.178   0.586   0.603 -0.1423  0.0246  0.1277
 3538W        W 7282   2.123   2.621  12.743  0.2729 -0.4219 -0.1069
 3539W        W 7283   2.055   1.214  10.268 -0.0506  0.2038  0.1498
 3540W        W 7284   7.135   1.024   8.468 -0.0999 -0.2558  0.1127
 3541W        W 7285   3.033   5.758  11.900 -0.1480 -0.1321  0.0505
 3542W        W 7286   5.731   0.374  10.051  0.2298 -0.2503 -0.0284
 3543W        W 7287   9.821   8.398   9.849  0.1113 -0.1398 -0.0016
 3544W        W 7288   1.070   9.005   1.195 -0.1956  0.3748  0.2831
 3545W        W 7289   4.191   3.851  10.233 -0.1818 -0.1794 -0.2399
 3546W        W 7290   1.840   3.855   9.798  0.0047 -0.0337  0.0739
 3547W        W 7291   2.652   2.712   9.246  0.0066  0.0493 -0.0410
 3548W        W 7292   4.904   8.515   9.108  0.1325 -0.1543 -0.2711
 3549W        W 7293   5.268   2.172   3.408  0.1993 -0.4806  0.0330
 3550W        W 7294   7.091   0.021   1.388  0.1942 -0.0356 -0.0592
 3551W        W 7295   6.591   9.184   2.237 -0.1460 -0.1429 -0.1251
 3552W        W 7296   2.026   5.902  10.953  0.2028  0.0084  0.4286
 3553W        W 7297   9.806   3.563  10.474 -0.0732  0.0783  0.1850
 3554W        W 7298   1.131   8.477   1.895 -0.2774  0.1264 -0.0610
 3555W        W 7299   0.128   7.484   9.435  0.3243  0.1334  0.1080
 3556W        W 7300   3.174   8.143   9.781  0.0906  0.1723 -0.2325
 3557W        W 7301   5.596   2.717   2.802 -0.0237  0.2099  0.1074
 3558W        W 7302   8.737   0.464  10.688  0.0842  0.0442 -0.5203
 3559W        W 7303   9.267   8.511  10.728 -0.0577  0.0673  0.5142
 3560W        W 7304   1.836   2.002   8.687  0.2530 -0.2333  0.2928
 3561W        W 7305   8.557   3.154   1.492 -0.1481  0.1852 -0.1445
 3562W        W 7306   5.508   4.917  11.390 -0.0195  0.1487 -0.1787
 3563W        W 7307   7.114   8.777   8.983  0.0932  0.1210  0.1193
 3564W        W 7308   0.604   1.583   1.613  0.0270  0.0229  0.1388
 3565W        W 7309   7.999   9.485   2.442 -0.2070  0.0257 -0.1808
 3566W        W 7310   7.083   3.255   3.502  0.0747  0.3871  0.0766
 3567W        W 7311   7.286   0.716  12.182  0.0346 -0.0276 -0.0351
 3568W        W 7312   3.148   7.897   3.122  0.2782 -0.2903  0.2123
 3569W        W 7313   2.694   5.629   2.631  0.0931 -0.2154  0.2718
 3570W        W 7314   9.033   7.914  11.350  0.2138  0.2459  0.0844
 3571W        W 7315   4.539   0.290   9.314 -0.0819  0.2756 -0.1280
 3572W        W 7316   4.243   4.290   0.382  0.1723  0.1093  0.1942
 3573W        W 7317   4.395   4.507   3.717 -0.2139 -0.0431  0.0584
 3574W        W 7318   9.767   2.025  11.740  0.0244  0.2197 -0.1813
 3575W        W 7319   6.737   3.073   9.993  0.0617  0.3166 -0.2148
 3576W        W 7320   1.152   5.886  12.809 -0.1325  0.0346 -0.1563
 3577W        W 7321   7.317   6.978  11.257  0.2172 -0.0273  0.0596
 3578W        W 7322   4.360   2.483   9.093 -0.0168  0.0177  0.0653
 3579W        W 7323   8.702   4.554  10.787  0.4023 -0.2237  0.1391
 3580W        W 7324   9.195   6.336   0.993 -0.1263 -0.0144  0.1538
 3581W        W 7325   1.879   8.195   8.961  0.4628  0.2101 -0.1196
 3582W        W 7326   1.994   5.240   9.250  0.3793  0.2022  0.0086
 3583W        W 7327   5.809   1.672   1.389 -0.0774 -0.1959  0.0608
 3584W        W 7328   3.620   6.802   2.506  0.3523 -0.0998 -0.2566
 3585W        W 7329   9.131   7.205  12.464  0.0621 -0.0383  0.1251
 3586W        W 7330   6.349   6.624   2.056 -0.0926 -0.1039  0.0058
 3587W        W 7331   5.403   2.647   0.620  0.0469  0.0124 -0.2787
 3588W        W 7332   5.853   4.023   8.709 -0.2859 -0.0371 -0.0924
 3589W        W 7333   4.402   6.426   9.607  0.0847 -0.3401 -0.3927
 3590W        W 7334   5.389   9.737   1.313 -0.2636 -0.2076 -0.1540
 3591W        W 7335   0.397   6.254  12.767  0.2639 -0.3653 -0.2917
 3592W        W 7336   5.285   7.324   2.553 -0.3136  0.0844 -0.2773
 3593W        W 7337   1.245   0.417   1.650 -0.1736  0.4101 -0.2620
 3594W        W 7338   5.618   0.950  11.759 -0.0712 -0.1797 -0.1865
 3595W        W 7339   2.190   0.232  12.618 -0.1060  0.1254  0.0397
 3596W        W 7340   4.230   4.220   2.479 -0.0927  0.0345 -0.2552
 3597W        W 7341   4.785   7.174   0.110  0.2671 -0.0510 -0.4704
 3598W        W 7342   1.512   4.528   8.808  0.0375 -0.0153 -0.0567
 3599W        W 7343   0.275   8.834   9.180  0.2307 -0.0095 -0.0662
 3600W        W 7344   0.274   0.512   0.256 -0.0896 -0.0832 -0.0319
 3601W        W 7345   5.309   8.821   9.789 -0.2507  0.3683 -0.0447
 3602W        W 7346   3.305   5.946  10.221  0.1890 -0.0747 -0.0699
 3603W        W 7347   8.342   3.916   9.645  0.0543  0.1489  0.1369
 3604W        W 7348   2.846   7.296   9.531  0.0185 -0.1568 -0.1839
 3605W        W 7349   5.295   1.962   2.828 -0.1169  0.0917 -0.3301
 3606W        W 7350   3.728   1.548   4.524  0.0071  0.1424 -0.3655
 3607W        W 7351   0.552   4.022   9.858 -0.0543 -0.1457  0.1883
 3608W        W 7352   4.844   5.443   9.591  0.1436  0.0946 -0.1764
 3609W        W 7353   1.502   3.244   8.983 -0.1593  0.1456 -0.2161
 3610W        W 7354   7.896   5.755   2.780  0.2527  0.1408 -0.1655
 3611W        W 7355   0.178   2.527   1.019 -0.0548 -0.2517 -0.5809
 3612W        W 7356   7.425   7.050   0.156  0.1952  0.0340 -0.1929
 3613W        W 7357   9.822   6.995   9.626  0.1685  0.2692 -0.4266
 3614W        W 7358   6.590   2.619   5.012 -0.1764 -0.0367  0.0017
 3615W        W 7359   5.718   2.192   2.737 -0.1231 -0.3662 -0.2409
 3616W        W 7360   3.427   9.590   2.855 -0.2541 -0.1840  0.0886
 3617W        W 7361   4.377   9.132   2.251  0.0882  0.3384 -0.1366
 3618W        W 7362   6.565   5.993   3.828 -0.0020 -0.1039  0.0640
 3619W        W 7363   2.996   3.763  11.126 -0.1550  0.2386  0.2760
 3620W        W 7364   5.272   7.556  12.290  0.0440 -0.2140  0.4131
 3621W        W 7365   0.998   5.405   2.399  0.0938  0.0119  0.0684
 3622W        W 7366   4.022   6.795   8.685 -0.2190  0.1275  0.0718
 3623W        W 7367   0.931   0.203   8.709  0.0607 -0.3622  0.1183
 3624W        W 7368   0.430   5.514   0.440 -0.0593  0.3009 -0.1248
 3625W        W 7369   9.252   7.462  10.051  0.0936 -0.2067 -0.2765
 3626W        W 7370   8.262   2.378   4.098 -0.0501  0.0460 -0.0437
 3627W        W 7371   9.737   9.113  12.747 -0.1660  0.0437 -0.0916
 3628W        W 7372   7.583   9.206   1.880 -0.1388  0.1667  0.0441
 3629W        W 7373   3.943   6.324   3.799 -0.0196  0.2414 -0.2676
 3630W        W 7374   7.310   2.538   0.019 -0.0000 -0.0797  0.0866
 3631W        W 7375   7.958   6.483   1.852  0.1169  0.0331 -0.2315
 3632W        W 7376   8.563   2.586   2.716 -0.1536  0.3637 -0.1785
 3633W        W 7377   5.438   5.419  12.622 -0.2299 -0.1207 -0.2427
 3634W        W 7378   9.339   0.218  11.016 -0.0238  0.3504  0.0549
 3635W        W 7379   1.925   4.993   1.011  0.2077 -0.0953 -0.1288
 3636W        W 7380   2.739   7.023  11.560  0.0287 -0.2921  0.0255
 3637W        W 7381   7.472   6.147  10.436 -0.2452  0.0399  0.1084
 3638W        W 7382   3.995   5.521   8.577  0.1191  0.1067  0.0654
 3639W        W 7383   8.740   9.420   1.144  0.0208 -0.0089 -0.0551
 3640W        W 7384   3.775   5.132   2.199  0.0469  0.0397  0.1435
 3641W        W 7385   5.482   2.761   4.178  0.0555  0.1684 -0.0887
 3642W        W 7386   8.215   9.772  10.461  0.1937 -0.2308 -0.1232
 3643W        W 7387   2.726   3.733   1.889 -0.0059 -0.0833  0.1115
 3644W        W 7388   2.046   6.389  11.035  0.5009 -0.2792  0.0605
 3645W        W 7389   7.289   4.407   4.757  0.0144 -0.0054  0.3609
 3646W        W 7390   0.657   3.848   3.047 -0.2986  0.1459  0.0416
 3647W        W 7391   5.550   4.755  10.044 -0.1486 -0.3082 -0.0348
 3648W        W 7392   7.324   1.194   3.319  0.0245  0.0381  0.0598
 3649W        W 7393   4.042   2.114   1.340 -0.0985 -0.0522  0.1610
 3650W        W 7394   5.173   4.099   1.885  0.1335 -0.0111  0.1060
 3651W        W 7395   9.035   5.280   3.073 -0.5029  0.3036  0.0823
 3652W        W 7396   3.151   7.281  12.309 -0.1237  0.0895  0.0402
 3653W        W 7397   0.703   9.269  11.778 -0.0497  0.1703 -0.2542
 3654W        W 7398   0.712   0.153   9.959  0.0246 -0.0889 -0.2046
 3655W        W 7399   5.544   1.140   8.967  0.1195 -0.0644  0.0818
 3656W        W 7400   9.894   2.436   3.837  0.1239 -0.0977  0.0649
 3657W        W 7401   7.962   6.892   2.428 -0.0538  0.1402 -0.0871
 3658W        W 7402   0.599   1.609   9.590 -0.0610 -0.1286  0.0317
 3659W        W 7403   1.966   3.795   9.319 -0.2741  0.1626  0.2502
 3660W        W 7404   1.589   1.264   4.414 -0.2512  0.0589 -0.3346
 3661W        W 7405   1.174   3.063   0.471  0.1387  0.0307 -0.0809
 3662W        W 7406   5.567   8.054  11.493 -0.0047 -0.1676  0.0216
 3663W        W 7407   8.989   5.980  11.741 -0.3924  0.2465  0.1434
 3664W        W 7408   6.576   3.036   0.907 -0.1972  0.2236  0.0378
 3665W        W 7409   2.728   3.047   2.937  0.4790 -0.2378  0.0830
 3666W        W 7410   4.912   5.182  12.606  0.0785  0.0586 -0.1612
 3667W        W 7411   5.754   4.056   9.305 -0.1975 -0.1423  0.0232
 3668W        W 7412   2.645   3.944   1.413 -0.2449 -0.3654 -0.1159
 3669W        W 7413   2.758   7.119  12.100  0.0445 -0.0814 -0.1492
 3670W        W 7414   3.097   0.033  12.621 -0.0689  0.0645  0.0386
 3671W        W 7415   6.501   8.285  10.164  0.0188 -0.0903  0.1733
 3672W        W 7416   1.529   6.351  11.747  0.0362  0.1288  0.1719
 3673W        W 7417   2.602   3.541   3.105  0.1417 -0.1666  0.0403
 3674W        W 7418   4.150   4.835   2.540 -0.0791 -0.1556  0.1166
 3675W        W 7419   2.811   2.068  11.761  0.0497 -0.0415  0.1557
 3676W        W 7420   2.030   6.486   1.203 -0.1213  0.2654  0.2029
 3677W        W 7421   1.840   5.132   7.681 -0.2762 -0.1688 -0.0770
 3678W        W 7422   3.674   3.623  12.316  0.2166 -0.2435 -0.3146
 3679W        W 7423   7.548   3.049   4.244 -0.2008  0.4328 -0.3292
 3680W        W 7424   9.921   2.803   0.541  0.0216  0.4857  0.1792
 3681W        W 7425   5.072   5.457   2.769  0.0509 -0.0241  0.2185
 3682W        W 7426   3.867   1.314   9.461 -0.1417 -0.0584  0.1203
 3683W        W 7427   7.358   4.753  12.454 -0.0179 -0.1221 -0.1491
 3684W        W 7428   4.953   1.754   3.420  0.1874  0.0237 -0.2326
 3685W        W 7429   3.661   1.840   4.154  0.1360  0.0835 -0.4985
 3686W        W 7430   2.809   6.773   4.480  0.1010  0.2773  0.1954
 3687W        W 7431   0.496   5.894   9.072 -0.0020  0.1939 -0.1733
 3688W        W 7432   5.165   1.737   4.424 -0.1046  0.2293  0.0222
 3689W        W 7433   6.427   1.319   3.194  0.0006 -0.2359 -0.0639
 3690W        W 7434   1.159   7.083   9.765  0.0298  0.3720  0.0316
 3691W        W 7435   2.547   8.791   2.615  0.0180  0.1129  0.2469
 3692W        W 7436   5.467   8.512   3.412 -0.3292  0.0749 -0.2685
 3693W        W 7437   6.493   9.773   2.792 -0.0555  0.4800 -0.3657
 3694W        W 7438   1.003   9.937   9.200  0.1578 -0.2806  0.1392
 3695W        W 7439   6.038   0.861  12.575 -0.1059  0.3383  0.0566
 3696W        W 7440   7.200   9.433   1.093 -0.1473 -0.2683  0.0789
 3697W        W 7441   0.707   6.748   3.542  0.0650  0.1349 -0.0426
 3698W        W 7442   1.729   2.447   9.528  0.3103  0.2510  0.1839
 3699W        W 7443   2.827   2.346   3.992 -0.4061 -0.1058  0.0517
 3700W        W 7444   6.462   9.358  11.173 -0.1745 -0.1018  0.0624
 3701W        W 7445   6.273   5.649  11.489  0.2745  0.1106 -0.0459
 3702W        W 7446   2.146   8.705  11.261  0.0635 -0.1127  0.2776
 3703W        W 7447   0.393   1.876   0.954 -0.1551  0.0965  0.0147
 3704W        W 7448   6.335   1.753   5.147  0.0900 -0.4707  0.2308
 3705W        W 7449   4.274   3.752   3.892  0.2899  0.1556  0.0108
 3706W        W 7450   2.910   8.781   9.438  0.0742  0.1158  0.1182
 3707W        W 7451   1.750   2.581   4.633  0.1082  0.1007 -0.0173
 3708W        W 7452   6.817   2.747   2.358 -0.0783  0.1427 -0.2781
 3709W        W 7453   5.938   6.689  10.123  0.0191  0.3673  0.0259
 3710W        W 7454   5.723   7.183   1.390 -0.0029  0.1303  0.2538
 3711W        W 7455   8.051   2.777  10.447 -0.1943  0.1393 -0.1048
 3712W        W 7456   1.681   1.386   0.640 -0.1300  0.1559  0.2558
 3713W        W 7457   3.206   7.262   7.810 -0.4014 -0.0680 -0.2750
 3714W        W 7458   8.750   8.073  12.251  0.1832 -0.2734 -0.1656
 3715W        W 7459   5.087   4.156  10.321  0.1230  0.0213 -0.1358
 3716W        W 7460   6.355   0.004   0.133  0.1012 -0.1767 -0.1942
 3717W        W 7461   9.468   9.943  12.474 -0.3610 -0.1296  0.0565
 3718W        W 7462   8.713   3.467  12.433  0.0349 -0.0685  0.1680
 3719W        W 7463   2.263   2.642   1.994 -0.6256 -0.2355  0.2030
 3720W        W 7464   2.143   6.223   3.393 -0.3688  0.0802 -0.1191
 3721W        W 7465   7.451   0.022   0.879  0.1090  0.0673  0.1576
 3722W        W 7466   7.490   4.130   8.893 -0.2183 -0.2930  0.1735
 3723W        W 7467   8.969   2.252  12.081 -0.0625  0.0274 -0.0209
 3724W        W 7468   7.235   6.206   3.304  0.1093  0.0797 -0.0052
 3725W        W 7469   3.648   7.153   8.586  0.0629 -0.0397 -0.1481
 3726W        W 7470   4.720   2.174  12.346 -0.0348 -0.0003 -0.0054
 3727W        W 7471   2.211   5.277  11.470 -0.2211  0.0884 -0.0076
 3728W        W 7472   2.456   7.786  12.778 -0.1590 -0.0106 -0.3131
 3729W        W 7473   3.454   2.066   9.864  0.3244 -0.2751  0.1260
 3730W        W 7474   5.126   3.706  10.749 -0.2076  0.0408  0.0785
 3731W        W 7475   2.974   9.029  11.959 -0.0559  0.0305 -0.0048
 3732W        W 7476   1.902   0.950   4.688  0.2686  0.2780 -0.3148
 3733W        W 7477   0.790   0.493   0.731 -0.1946  0.1651  0.1777
 3734W        W 7478   6.130   0.474   9.132 -0.0252 -0.0113 -0.3050
 3735W        W 7479   8.354   7.447   9.913  0.3100 -0.4015  0.0005
 3736W        W 7480   0.654   8.574  11.416 -0.1405  0.0042 -0.0349
 3737W        W 7481   2.102   4.314   1.773  0.0000  0.0943 -0.2400
 3738W        W 7482   1.467   7.152  11.933 -0.0357 -0.1425 -0.0196
 3739W        W 7483   3.811   3.504   4.060  0.1273 -0.0241  0.1449
 3740W        W 7484   6.926   8.141  12.737  0.0713  0.4282 -0.0520
 3741W        W 7485   6.698   9.592   8.884 -0.0246 -0.0355 -0.1947
 3742W        W 7486   7.334   1.018  11.697  0.0251 -0.0746 -0.1406
 3743W        W 7487   0.153   3.916   2.960 -0.0573  0.2322 -0.0223
 3744W        W 7488   3.279   6.174  10.660 -0.1640  0.1357  0.3439
 3745W        W 7489   0.707   2.123   2.613 -0.1677 -0.2148  0.1799
 3746W        W 7490   6.136   7.043   3.587 -0.1621  0.0397 -0.2663
 3747W        W 7491   8.719   1.184   0.556 -0.0937 -0.1571 -0.1084
 3748W        W 7492   7.648   5.508   0.289  0.1454 -0.2880 -0.1231
 3749W        W 7493   8.213   1.240   2.583  0.1540  0.1609 -0.0970
 3750W        W 7494   6.806   4.540  11.701 -0.1435  0.2082  0.1384
 3751W        W 7495   4.013   3.867   9.741  0.0036 -0.0579  0.2913
 3752W        W 7496   0.737   8.483   3.130  0.1385  0.3220  0.3373
 3753W        W 7497   3.905   0.802   9.184  0.0547  0.0165 -0.2590
 3754W        W 7498   8.769   0.848   3.178 -0.2240  0.1716  0.1008
 3755W        W 7499   0.197   3.865  11.840 -0.1182 -0.0505  0.0796
 3756W        W 7500   0.704   2.027  11.919  0.3613 -0.4865  0.2912
 3757W        W 7501   2.686   8.861   8.741 -0.0067  0.0946  0.1497
 3758W        W 7502   3.433   2.372  10.282 -0.1051  0.0906 -0.3344
 3759W        W 7503   7.593   6.581   9.503  0.1597 -0.2603  0.0369
 3760W        W 7504   6.985   2.098  10.173 -0.3065 -0.1796 -0.0101
 3761W        W 7505   2.861   4.802   8.429  0.3955 -0.1396 -0.0130
 3762W        W 7506   6.016   6.571   0.214  0.2360  0.0452  0.0171
 3763W        W 7507   3.453   0.741  11.469  0.0080 -0.1979 -0.1787
 3764W        W 7508   2.784   2.546  10.292  0.1924 -0.3656 -0.2886
 3765W        W 7509   3.713   7.477   9.428  0.2807  0.0073 -0.0844
 3766W        W 7510   4.918   3.785   9.453  0.2884 -0.0914  0.3468
 3767W        W 7511   6.055   0.794  10.145 -0.0005 -0.0556 -0.2493
 3768W        W 7512   9.547   2.889   3.775 -0.1595 -0.1735 -0.4316
 3769W        W 7513   4.801   4.272   1.412  0.0242  0.4959 -0.1613
 3770W        W 7514   0.020   8.796   9.597  0.2796  0.3311 -0.3212
 3771W        W 7515   6.563   4.020   0.385  0.1400 -0.1597  0.0502
 3772W        W 7516   2.954   5.664   0.965 -0.4561  0.1604 -0.0192
 3773W        W 7517   3.888   4.462   1.721  0.1766 -0.0184 -0.0416
 3774W        W 7518   1.413   5.622   3.272  0.0831  0.0336 -0.4120
 3775W        W 7519   3.758   7.925  10.473 -0.1831 -0.0405  0.0136
 3776W        W 7520   7.668   0.628   1.771  0.0381  0.2322 -0.0755
 3777W        W 7521   8.391   3.003  11.122 -0.2389 -0.0912  0.1667
 3778W        W 7522   3.459   9.467  10.579  0.2590  0.1475 -0.0674
 3779W        W 7523   4.513   4.839  12.383  0.3190 -0.0738 -0.2191
 3780W        W 7524   0.553   6.364   0.901 -0.0269  0.0021  0.0370
 3781W        W 7525   7.508   4.789   3.175  0.0154 -0.0598 -0.1818
 3782W        W 7526   4.727   9.735   0.576  0.0997 -0.0766  0.0451
 3783W        W 7527   4.581   4.940   9.033 -0.5012 -0.1157  0.3345
 3784W        W 7528   4.725   9.305   2.623  0.0550 -0.0645  0.1734
 3785W        W 7529   2.261   0.667   9.048 -0.0675 -0.2243  0.0864
 3786W        W 7530   7.697   1.763  12.579  0.2605 -0.1364  0.0704
 3787W        W 7531   1.828   1.126   3.522 -0.1226  0.1617 -0.0374
 3788W        W 7532   4.772   6.350  11.742  0.0607 -0.1806 -0.0947
 3789W        W 7533   0.132   1.943   4.440  0.1674 -0.1156 -0.0650
 3790W        W 7534   6.766   6.147   2.545 -0.2958 -0.0182 -0.1486
 3791W        W 7535   6.794   0.184   2.581  0.3775 -0.0740  0.1225
 3792W        W 7536   5.566   5.382  11.223  0.0374 -0.3719  0.0629
 3793W        W 7537   2.066   7.957  11.810 -0.1013 -0.1079  0.1212
 3794W        W 7538   6.820   3.346   1.174 -0.0945  0.0096 -0.1145
 3795W        W 7539   0.369   9.300   9.483 -0.0496 -0.1479  0.0771
 3796W        W 7540   4.647   6.557  10.450  0.0076 -0.0848  0.1784
 3797W        W 7541   3.743   7.918   0.428 -0.1552 -0.2028 -0.1853
 3798W        W 7542   1.600   9.564  12.085  0.1890  0.3976 -0.1860
 3799W        W 7543   7.812   3.366  10.780  0.2172  0.0070 -0.2106
 3800W        W 7544   9.829   3.293  11.605 -0.2136 -0.0937 -0.0611
 3801W        W 7545   3.234   1.911   1.237  0.1249  0.2530 -0.1055
 3802W        W 7546   7.540   7.711   2.847 -0.4144 -0.0503  0.2810
 3803W        W 7547   0.346   9.556  11.516 -0.1586  0.0716  0.2394
 3804W        W 7548   7.836   3.363   0.854 -0.2855  0.0357  0.1359
 3805W        W 7549   2.677   7.692   3.245  0.0377  0.4138  0.1637
 3806W        W 7550   4.153   9.169   1.816  0.3817 -0.1622  0.2123
 3807W        W 7551   4.236   1.825  10.913  0.1064 -0.1407 -0.4410
 3808W        W 7552   5.980   7.300  11.558  0.1612 -0.4849 -0.2712
 3809W        W 7553   3.277   1.291   2.445 -0.0159 -0.0341 -0.0626
 3810W        W 7554   6.827   7.375  11.074  0.2648 -0.0133  0.0300
 3811W        W 7555   3.935   5.221   9.487 -0.2214 -0.1914 -0.3092
 3812W        W 7556   0.819   5.526   8.824 -0.2849  0.0832  0.0192
 3813W        W 7557   4.175   7.655   8.786  0.2373 -0.1664 -0.0726
 3814W        W 7558   6.496   3.709  12.687  0.0012  0.1440  0.1068
 3815W        W 7559   5.502   6.124  12.173  0.3378  0.3189 -0.1633
 3816W        W 7560   3.912   9.128   1.155  0.1437  0.4204 -0.0761
 3817W        W 7561   8.589   4.948   2.929  0.1307  0.0521  0.2360
 3818W        W 7562   7.010   2.081   4.219  0.0781 -0.2991  0.0204
 3819W        W 7563   3.314   1.598   3.245 -0.0819 -0.0240  0.3367
 3820W        W 7564   5.381   8.027   0.820  0.1108 -0.2557  0.1974
 3821W        W 7565   6.676   0.945  11.097 -0.0798 -0.2977  0.1009
 3822W        W 7566   7.608   6.198  11.958 -0.0045  0.2544 -0.0685
 3823W        W 7567   7.341   2.538   9.913  0.0556 -0.2948  0.2505
 3824W        W 7568   3.048   3.889   2.910 -0.0613 -0.0504 -0.1434
 3825W        W 7569   9.472   7.954   1.011 -0.0699 -0.1933  0.2819
 3826W        W 7570   4.544   0.313   3.490 -0.1212  0.0902 -0.1773
 3827W        W 7571   8.833   7.541  11.011 -0.0963  0.2054  0.0988
 3828W        W 7572   2.593   4.256   1.882 -0.0526  0.0493  0.1845
 3829W        W 7573   5.590   7.329  11.947  0.3164  0.0064  0.2061
 3830W        W 7574   8.449   2.366   1.888  0.1400  0.1085 -0.1453
 3831W        W 7575   7.116   6.612   0.138 -0.0367  0.1558 -0.0559
 3832W        W 7576   9.249   5.100  12.514  0.1693 -0.0157  0.0595
 3833W        W 7577   5.148   8.396  10.540 -0.2189 -0.2395  0.0174
 3834W        W 7578   8.536   8.725  10.644 -0.1874 -0.4857  0.3360
 3835W        W 7579   4.171   4.462  12.237  0.0859  0.0337  0.2750
 3836W        W 7580   7.518   4.980   0.046  0.2624 -0.3163 -0.2190
 3837W        W 7581   6.347   8.234   1.899  0.2183  0.2352 -0.1289
 3838W        W 7582   5.689   3.949  12.422 -0.0311 -0.2982 -0.0466
 3839W        W 7583   0.350   3.618   0.732 -0.2129 -0.0354  0.0022
 3840W        W 7584   8.196   7.854  11.406  0.0483 -0.0802 -0.1163
 3841W        W 7585   1.696   0.183  11.208  0.1563  0.0053  0.1224
 3842W        W 7586   8.366   4.352   9.326 -0.1301  0.0992  0.0319
 3843W        W 7587   4.460   1.296   5.033  0.0026  0.4487  0.0074
 3844W        W 7588   1.885   1.614  10.593  0.0978  0.0596  0.1362
 3845W        W 7589   1.291   0.172  12.005 -0.0015  0.1213 -0.0072
 3846W        W 7590   6.909   3.756   1.435 -0.0657  0.1736 -0.1167
 3847W        W 7591   8.272   0.393  10.514  0.0576 -0.1400 -0.1938
 3848W        W 7592   7.011   0.088   0.276 -0.1110  0.2475 -0.0257
 3849W        W 7593   3.901   6.859   2.961  0.2076 -0.1993  0.0847
 3850W        W 7594   9.673   4.601  12.290 -0.1600 -0.0295 -0.0310
 3851W        W 7595   1.836   0.387  11.725 -0.3186  0.1272 -0.1198
 3852W        W 7596   9.196   3.520   8.883  0.0108  0.1869 -0.3663
 3853W        W 7597   5.118   4.118   3.810  0.1798  0.2164  0.0289
 3854W        W 7598   1.039   3.599   1.790  0.0523 -0.0162 -0.3596
 3855W        W 7599   1.043   3.244   8.760 -0.0893 -0.0422 -0.3844
 3856W        W 7600   8.964   4.120   0.947 -0.0538  0.0213 -0.0639
 3857W        W 7601   0.254   2.768   2.321 -0.0458 -0.0441 -0.0116
 3858W        W 7602   3.124   8.063   9.312 -0.4337 -0.0718  0.3760
 3859W        W 7603   1.307   4.599   1.620 -0.2524  0.0957 -0.0451
 3860W        W 7604   1.328   0.049   3.655 -0.0618  0.2628 -0.1946
 3861W        W 7605   5.484   7.942   0.079  0.0465  0.2941 -0.2224
 3862W        W 7606   9.079   1.766   9.815 -0.1038  0.1689 -0.0151
 3863W        W 7607   7.976   8.577   0.867  0.3747 -0.2240  0.0535
 3864W        W 7608   2.674   2.146  10.593  0.0057  0.3970  0.3972
 3865W        W 7609   3.761   1.382   3.380  0.0278  0.0678 -0.0208
 3866W        W 7610   4.365   8.713   4.059  0.1594  0.2541 -0.2669
 3867W        W 7611   4.826   3.754  11.135 -0.1591 -0.4166 -0.0490
 3868W        W 7612   9.432   2.732  10.048 -0.0872  0.0330 -0.1804
 3869W        W 7613   2.391   4.805   4.077 -0.4298  0.0529 -0.2194
 3870W        W 7614   2.669   5.497  12.751  0.2771 -0.0665 -0.1056
 3871W        W 7615   4.880   7.543   2.423 -0.0416 -0.2375 -0.0118
 3872W        W 7616   5.842   3.520  11.065 -0.0636 -0.0156 -0.1520
 3873W        W 7617   4.107   2.623   9.604  0.4000  0.3424 -0.0436
 3874W        W 7618   7.084   1.843   8.214 -0.1279 -0.0370 -0.0677
 3875W        W 7619   4.926   2.598   0.804  0.0512  0.2610 -0.0006
 3876W        W 7620   1.889   3.509  12.236  0.1562  0.0143 -0.1412
 3877W        W 7621   4.345   3.684   4.393  0.2748  0.1140  0.0393
 3878W        W 7622   7.839   8.012  11.741  0.0889  0.1599 -0.1012
 3879W        W 7623   4.497   6.463  10.993 -0.0871 -0.2145  0.1148
 3880W        W 7624   8.023   4.668   0.294  0.1455  0.1943 -0.0575
 3881W        W 7625   9.815   5.257   0.528  0.1519  0.2183  0.2141
 3882W        W 7626   7.168   7.130  10.222 -0.1049 -0.0220  0.0427
 3883W        W 7627   6.516   4.899   2.354 -0.0115  0.3204  0.0079
 3884W        W 7628   4.585   7.332   8.499  0.3140 -0.1500 -0.1669
 3885W        W 7629   2.315   5.502  12.369 -0.0807 -0.2687  0.0682
 3886W        W 7630   0.752   2.127   4.050 -0.0276 -0.1659 -0.0623
 3887W        W 7631   3.516   2.546   0.635 -0.2400 -0.1487  0.0002
 3888W        W 7632   4.294   8.263   3.829 -0.1072  0.0093 -0.2403
 3889W        W 7633   6.416   2.748   0.218  0.2500 -0.1047 -0.1517
 3890W        W 7634   4.938   3.620   7.923  0.1303  0.3229  0.1858
 3891W        W 7635   3.149   2.574   9.916  0.1747  0.0294 -0.2080
 3892W        W 7636   9.483   0.144   1.586 -0.1355  0.2035 -0.1635
 3893W        W 7637   5.814   5.438  10.657 -0.3887  0.0195 -0.0738
 3894W        W 7638   8.854   4.096  12.131 -0.1726  0.1100  0.3050
 3895W        W 7639   0.233   1.121  11.654  0.1551 -0.0997 -0.3218
 3896W        W 7640   1.149   7.848   4.290  0.0076  0.0658 -0.1817
 3897W        W 7641   6.951   0.203  11.047  0.0579  0.2246  0.1655
 3898W        W 7642   3.603   8.763  11.132  0.1518 -0.1515  0.3353
 3899W        W 7643   3.047   3.965   4.416  0.0751  0.0794 -0.0825
 3900W        W 7644   2.047   1.085   4.287 -0.2265 -0.1229  0.4369
 3901W        W 7645   9.471   4.293   2.281 -0.0988 -0.2204 -0.2220
 3902W        W 7646   2.984   0.494   2.022  0.0874  0.4516  0.1729
 3903W        W 7647   4.435   4.191  11.468 -0.1122  0.2756  0.2982
 3904W        W 7648   1.271   9.177  12.179  0.2646 -0.1555  0.0471
 3905W        W 7649   4.058   0.495   0.692 -0.2506 -0.2870 -0.0726
 3906W        W 7650   9.870   7.112   9.148 -0.2166 -0.1641  0.1482
 3907W        W 7651   6.215   2.590  11.458  0.1801 -0.0860  0.2224
 3908W        W 7652   5.128   0.764   9.245  0.0400  0.0069  0.1409
 3909W        W 7653   9.908   1.592  10.163  0.0686 -0.1446 -0.1721
 3910W        W 7654   7.868   2.694   0.042 -0.1937 -0.0081 -0.2571
 3911W        W 7655   2.509   5.535   0.374  0.0855  0.3512  0.3324
 3912W        W 7656   3.900   7.029  10.301  0.1934 -0.2021  0.1846
 3913W        W 7657   0.464   2.363   8.111 -0.0368  0.0733  0.3276
 3914W        W 7658   0.360   7.587   9.976  0.0537  0.0157 -0.0626
 3915W        W 7659   7.552   0.550  11.685  0.5070 -0.0396  0.1182
 3916W        W 7660   6.972   2.712   3.326 -0.1391 -0.1267 -0.1120
 3917W        W 7661   0.117   3.801  12.325 -0.0045 -0.3826 -0.0371
 3918W        W 7662   0.994   4.314   2.570 -0.1359 -0.1385  0.1597
 3919W        W 7663   3.066   2.391   4.901  0.0088  0.1663 -0.1538
 3920W        W 7664   3.430   9.770  11.734  0.0712 -0.1962 -0.0131
 3921W        W 7665   8.203   3.831  12.681  0.0857  0.2212  0.3328
 3922W        W 7666   7.182   8.669  12.713  0.2726  0.1641  0.0831
 3923W        W 7667   5.003   6.314   2.846  0.4300 -0.0277  0.0499
 3924W        W 7668   6.601   0.295   1.060 -0.1696 -0.0740 -0.2430
 3925W        W 7669   0.543   0.485   8.066 -0.0624  0.0298  0.0070
 3926W        W 7670   4.997   9.670   2.991  0.3715 -0.1320 -0.0602
 3927W        W 7671   3.035   6.306   1.528 -0.0439  0.0039  0.0821
 3928W        W 7672   4.760   7.813   8.475  0.3040 -0.0125 -0.0839
 3929W        W 7673   0.557   2.553   8.619  0.0145 -0.0651 -0.0356
 3930W        W 7674   7.013   0.132   3.576 -0.1571  0.2500  0.5505
 3931W        W 7675   7.582   5.658  11.246  0.1397  0.1376  0.0302
 3932W        W 7676   1.568   2.453   0.633  0.2255 -0.0880  0.1252
 3933W        W 7677   5.344   1.015  10.888  0.0930 -0.1998 -0.0169
 3934W        W 7678   0.941   5.204   9.781  0.2802  0.0332 -0.0708
 3935W        W 7679   2.442   2.581   9.896  0.3136  0.1728 -0.0558
 3936W        W 7680   7.785   6.565  10.403 -0.1908 -0.0861 -0.0001
 3937W        W 7681   3.780   0.032  11.401 -0.4019 -0.1828  0.0397
 3938W        W 7682   2.208   7.471   3.455  0.0492 -0.2105  0.0787
 3939W        W 7683   4.722   8.688   9.660  0.1449  0.0103  0.3336
 3940W        W 7684   8.348   1.283   0.875  0.0640  0.2026 -0.1625
 3941W        W 7685   0.763   9.083   3.106  0.2720  0.0969  0.1541
 3942W        W 7686   7.056   3.544   3.908 -0.2652  0.0165 -0.1694
 3943W        W 7687   9.713   2.871  11.855 -0.1405 -0.0530  0.0334
 3944W        W 7688   8.565   2.785   0.624  0.0256 -0.0490 -0.1077
 3945W        W 7689   5.103   8.884   1.953  0.1800 -0.0091 -0.0190
 3946W        W 7690   0.689   1.279  11.704  0.1829 -0.2112  0.0419
 3947W        W 7691   3.011   1.279  11.219  0.2175  0.0387 -0.3635
 3948W        W 7692   0.337   3.078   0.847  0.0112  0.0753  0.1860
 3949W        W 7693   9.748   0.687   0.524  0.1109  0.5308 -0.3141
 3950W        W 7694   2.610   9.220   4.174  0.1231  0.1407  0.0450
 3951W        W 7695   6.495   2.045   9.945 -0.1184  0.0119 -0.1394
 3952W        W 7696   3.371   9.760  11.214  0.1281  0.0669  0.0799
 3953W        W 7697   3.082   2.006   0.172 -0.1799  0.3192 -0.0378
 3954W        W 7698   6.803   6.814  11.148 -0.3311 -0.0227 -0.1953
 3955W        W 7699   6.877   5.472   9.999 -0.0535 -0.1687  0.0456
 3956W        W 7700   8.698   3.546   9.812  0.1116 -0.0433  0.2099
 3957W        W 7701   0.543   5.414   1.571  0.1337  0.0076  0.0693
 3958W        W 7702   2.477   2.350   2.787 -0.1614  0.0843 -0.1917
 3959W        W 7703   4.960   4.330  11.815 -0.1055  0.0009  0.1819
 3960W        W 7704   6.513   4.827  11.302 -0.1545 -0.1462  0.1360
 3961W        W 7705   0.987   8.544   1.412  0.0809 -0.0061 -0.2174
 3962W        W 7706   6.926   9.223   0.734 -0.0485 -0.1917  0.1223
 3963W        W 7707   3.688   8.993   9.781  0.2426 -0.3309 -0.0287
 3964W        W 7708   5.291   6.219   2.061 -0.0076 -0.3083 -0.0558
 3965W        W 7709   6.646   7.194   2.401 -0.3192 -0.0617 -0.0193
 3966W        W 7710   4.733   7.308   7.891 -0.1073  0.0282  0.0070
 3967W        W 7711   4.126   6.448  11.830 -0.1538  0.2270 -0.0824
 3968W        W 7712   3.740   6.602   9.057  0.1996 -0.1391 -0.1364
 3969W        W 7713   8.730   6.842   1.365  0.1896  0.2471  0.0269
 3970W        W 7714   5.410   2.690   3.610 -0.0781  0.2179 -0.0259
 3971W        W 7715   6.577   8.140  11.674  0.2852  0.0647  0.1850
 3972W        W 7716   2.017   5.289   1.723  0.0126  0.1886  0.1818
 3973W        W 7717   4.060   0.880   1.053 -0.0379 -0.3427 -0.2135
 3974W        W 7718   3.795   1.330   0.249  0.1957  0.0951 -0.0923
 3975W        W 7719   1.293   7.921  12.715  0.1359  0.1864  0.0866
 3976W        W 7720   2.733   5.826   2.151  0.0981  0.0266 -0.0461
 3977W        W 7721   6.971   4.069   9.620 -0.3125  0.1735 -0.1586
 3978W        W 7722   0.305   7.451   2.296 -0.2276  0.0073  0.2587
 3979W        W 7723   0.705   1.048   1.249 -0.1708  0.0406 -0.2823
 3980W        W 7724   1.673   5.610  11.545  0.0200  0.0267  0.0431
 3981W        W 7725   0.511   1.457  12.710 -0.2190 -0.1407  0.0039
 3982W        W 7726   6.625   3.731   9.901 -0.0249  0.2449  0.0145
 3983W        W 7727   1.271   5.864   2.310  0.1314 -0.0514  0.1711
 3984W        W 7728   2.429   7.779   0.405  0.0081  0.1736 -0.1836
 3985W        W 7729   7.796   5.196  11.057 -0.0599  0.0406 -0.0729
 3986W        W 7730   8.831   2.278   9.065  0.1663  0.1300 -0.0419
 3987W        W 7731   6.462   8.377   9.085 -0.1857  0.3338  0.2427
 3988W        W 7732   4.222   1.981  12.762  0.0397 -0.0238 -0.0990
 3989W        W 7733   2.619   8.805  11.111  0.1576  0.1549 -0.3276
 3990W        W 7734   0.054   8.583  11.407 -0.0042 -0.0638  0.0956
 3991W        W 7735   3.916   7.629  12.057 -0.4271 -0.0150  0.0661
 3992W        W 7736   0.979   0.965   4.623 -0.5730  0.1054  0.1818
 3993W        W 7737   3.235   7.293   0.640  0.1215  0.0607 -0.1008
 3994W        W 7738   1.654   8.583  11.301 -0.0109  0.0638  0.3270
 3995W        W 7739   3.821   2.259   9.603  0.2338  0.1374 -0.0224
 3996W        W 7740   6.379   1.282  10.974 -0.0396 -0.2282  0.0253
 3997W        W 7741   1.939   2.467   3.250  0.2857 -0.0718 -0.1524
 3998W        W 7742   9.459   8.540  11.588  0.1419 -0.2231 -0.0749
 3999W        W 7743   4.203   5.779  12.492 -0.1179 -0.3169  0.3143
 4000W        W 7744   0.296   3.092  11.128  0.1541  0.1871 -0.2746
 4001W        W 7745   8.354   9.343   0.791 -0.1892 -0.2845  0.2159
 4002W        W 7746   2.523   4.927  12.449 -0.0642 -0.1397 -0.3167
 4003W        W 7747   3.064   9.392   4.624 -0.4523 -0.2558 -0.2894
 4004W        W 7748   2.984   9.554   4.128  0.1845 -0.2991  0.0810
 4005W        W 7749   7.946   0.131   9.576 -0.2510  0.1398 -0.5760
 4006W        W 7750   6.509   9.283  10.215 -0.1457 -0.0416  0.0453
 4007W        W 7751   6.302   1.781  10.407  0.2053  0.1817  0.4080
 4008W        W 7752   8.895   0.321  11.845 -0.4602  0.1564  0.2955
 4009W        W 7753   1.408   1.254  10.270 -0.2996  0.0689  0.4397
 4010W        W 7754   5.509   1.233   1.392 -0.0552 -0.2471  0.0879
 4011W        W 7755   8.319   8.404   2.125  0.2697  0.0303  0.3550
 4012W        W 7756   9.683   1.160   2.512  0.0299  0.0196  0.1735
 4013W        W 7757   2.719   1.643  10.310  0.0461 -0.0002 -0.1316
 4014W        W 7758   2.857   5.098   0.182  0.2132  0.0976 -0.0083
 4015W        W 7759   4.803   0.384   8.883  0.1493 -0.4451  0.0187
 4016W        W 7760   0.950   9.639   0.319  0.0567 -0.0268  0.2116
 4017W        W 7761   5.052   5.031   9.290  0.1553  0.0708 -0.3910
 4018W        W 7762   1.763   0.261   1.786 -0.1086  0.2300  0.0877
 4019W        W 7763   3.739   7.598  10.819 -0.0118  0.0582  0.1759
 4020W        W 7764   2.294   3.591   1.588 -0.1759  0.3384 -0.1890
 4021W        W 7765   6.436   4.000   2.979  0.0927  0.2448  0.0195
 4022W        W 7766   4.687   6.288   1.387 -0.0845  0.2853 -0.4049
 4023W        W 7767   4.622   5.698   3.239 -0.0339 -0.0096 -0.2535
 4024W        W 7768   4.838   8.028   1.545  0.1617  0.0816  0.1140
 4025W        W 7769   7.941   2.713   2.732 -0.2467 -0.3060 -0.0039
 4026W        W 7770   0.081   5.110  11.492  0.0759  0.2525  0.0120
 4027W        W 7771   0.806   7.113  12.459  0.3874 -0.2733 -0.1378
 4028W        W 7772   2.109   3.941   0.077 -0.0578 -0.0154  0.1908
 4029W        W 7773   1.388   8.764   7.415  0.0163 -0.0984 -0.0433
 4030W        W 7774   1.832   8.658   1.797 -0.0099 -0.0469  0.2451
 4031W        W 7775   4.712   5.930   9.183  0.0464  0.1836 -0.0636
 4032W        W 7776   1.253   6.350  10.335  0.1480 -0.1886 -0.1149
 4033W        W 7777   1.485   4.413   3.380  0.0095  0.3224  0.4015
 4034W        W 7778   6.356   0.711   8.806 -0.0938 -0.0958 -0.5829
 4035W        W 7779   2.556   6.832  11.022 -0.0433 -0.0821  0.0314
 4036W        W 7780   1.968   7.203   8.952 -0.4419 -0.1256  0.0040
 4037W        W 7781   7.687   9.117  12.513  0.0635 -0.0705  0.3988
 4038W        W 7782   7.738   8.797  12.177  0.2018  0.4242 -0.2802
 4039W        W 7783   3.938   8.910   2.362  0.0358 -0.2734 -0.1027
 4040W        W 7784   2.374   1.373   1.321  0.0150 -0.0932  0.0507
 4041W        W 7785   2.993   2.375   3.427 -0.1741 -0.0081  0.0704
 4042W        W 7786   0.221   2.829   2.868 -0.2080 -0.1008 -0.1976
 4043W        W 7787   9.139   5.934   1.505  0.0422 -0.2036 -0.4253
 4044W        W 7788   8.805   5.373   2.661 -0.0202  0.2290 -0.1011
 4045W        W 7789   6.431   6.535   0.525  0.2429  0.2662 -0.1332
 4046W        W 7790   0.468   1.378   2.969 -0.0968  0.2475 -0.1598
 4047W        W 7791   1.211   2.153   0.342  0.2067 -0.0075 -0.2067
 4048W        W 7792   9.915   0.151   2.641  0.2595 -0.2101 -0.1986
 4049W        W 7793   2.326   9.109   9.612 -0.0696 -0.0668 -0.4377
 4050W        W 7794   3.312   6.698  10.841 -0.0326  0.3000  0.1456
 4051W        W 7795   1.714   9.672   8.565 -0.2326 -0.1605  0.2033
 4052W        W 7796   8.164   8.984  12.362 -0.2796 -0.0291 -0.0414
 4053W        W 7797   7.803   7.991   3.176 -0.1885  0.0357 -0.2040
 4054W        W 7798   3.119   9.563   1.455 -0.3658 -0.1259 -0.0072
 4055W        W 7799   8.937   1.486   3.460 -0.2441 -0.1628  0.0663
 4056W        W 7800   9.217   7.569  11.886 -0.1361 -0.2621  0.0195
 4057W        W 7801   9.875   7.420  10.854  0.2918 -0.0234 -0.4800
 4058W        W 7802   8.939   3.479  11.672  0.2554 -0.0807 -0.1386
 4059W        W 7803   7.789   2.719   2.229 -0.2096 -0.0406 -0.0896
 4060W        W 7804   2.206   3.126  11.505  0.0813  0.1714 -0.0772
 4061W        W 7805   7.431   2.800   0.440 -0.2192 -0.0992 -0.2512
 4062W        W 7806   7.394   5.358  12.597  0.1384 -0.0430  0.0661
 4063W        W 7807   3.121   2.809   3.925  0.3313  0.2969  0.1874
 4064W        W 7808   2.268   7.972   3.313 -0.2802 -0.0932  0.0044
 4065W        W 7809   3.936   1.708   2.017 -0.1710 -0.0364 -0.1288
 4066W        W 7810   2.097   2.407   0.986  0.3166  0.0039  0.1231
 4067W        W 7811   3.818   1.011   9.844  0.2645  0.0342 -0.1108
 4068W        W 7812   8.965   3.663  10.279 -0.0561  0.1071  0.2720
 4069W        W 7813   0.229   1.133   1.198  0.3123  0.1387  0.2806
 4070W        W 7814   0.486   4.120   9.318 -0.2218 -0.0123 -0.0258
 4071W        W 7815   7.257   6.335   1.391 -0.0691 -0.2353 -0.1422
 4072W        W 7816   0.756   0.505  11.351  0.1205  0.1143 -0.1724
 4073W        W 7817   3.755   6.022  10.549  0.1129  0.0713 -0.0561
 4074W        W 7818   3.986   0.397   2.946  0.1195  0.0197  0.3376
 4075W        W 7819   4.156   1.736  12.231 -0.0325  0.2804  0.1980
 4076W        W 7820   2.538   2.372   1.217 -0.0508 -0.0447 -0.0512
 4077W        W 7821   2.898   3.472   2.638  0.1706 -0.2148 -0.1711
 4078W        W 7822   1.950   5.883  12.363 -0.0140  0.1539 -0.0218
 4079W        W 7823   9.657   3.675   2.520  0.0921  0.2086 -0.1017
 4080W        W 7824   3.424   7.535   8.195 -0.2269 -0.4685  0.2318
 4081W        W 7825   2.461   1.379  11.230 -0.1021 -0.1591 -0.0769
 4082W        W 7826   3.057   6.902   9.280 -0.0647  0.0782  0.1690
 4083W        W 7827   0.565   7.295  11.185 -0.0815  0.0916  0.4160
 4084W        W 7828   2.458   2.822   4.145  0.0377  0.3150 -0.0329
 4085W        W 7829   2.323   7.442  10.355  0.2751  0.0177  0.0772
 4086W        W 7830   4.708   6.331   0.460 -0.0620  0.1149 -0.1392
 4087W        W 7831   7.649   4.110   1.996 -0.1331 -0.1868  0.2767
 4088W        W 7832   7.858   1.366   3.074 -0.0873  0.4119  0.1060
 4089W        W 7833   6.212   3.761  10.131  0.0310 -0.4761 -0.0232
 4090W        W 7834   9.220   4.553   0.994 -0.2039 -0.4844 -0.0710
 4091W        W 7835   2.348   8.414   4.893  0.0263 -0.0969  0.1004
 4092W        W 7836   9.577   8.984  11.509  0.1205  0.0764 -0.2028
 4093W        W 7837   1.846   3.606   3.778 -0.1551  0.0932  0.3328
 4094W        W 7838   3.086   2.937   9.597  0.0467  0.0463  0.2687
 4095W        W 7839   0.887   7.655   9.848 -0.1303 -0.2197  0.1556
 4096W        W 7840   6.073   8.115  12.236 -0.1736  0.1348 -0.0729
 4097W        W 7841   6.905   3.775   5.280 -0.2544  0.1136  0.3139
 4098W        W 7842   3.065   4.090  11.588  0.0773 -0.1045  0.2770
 4099W        W 7843   7.079   1.936  10.618  0.0397  0.0195 -0.0507
 4100W        W 7844   5.068   1.190   8.285 -0.0907  0.0488 -0.1184
 4101W        W 7845   3.907   1.704  10.307  0.1684  0.0261  0.1242
 4102W        W 7846   1.768   2.720   9.112  0.2302  0.0101 -0.2093
 4103W        W 7847   9.549   5.554  12.516 -0.2196  0.0764  0.1512
 4104W        W 7848   6.029   5.828   1.612  0.2502  0.2585 -0.1241
 4105W        W 7849   1.407   8.703   3.830 -0.0202 -0.1882  0.3924
 4106W        W 7850   9.435   9.115  11.063  0.3812  0.2551 -0.1954
 4107W        W 7851   6.111   1.258  10.144 -0.0314  0.0328 -0.0146
 4108W        W 7852   0.479   9.884   9.493 -0.0282  0.0376 -0.0889
 4109W        W 7853   7.541   9.735   4.251  0.2171 -0.3216 -0.0130
 4110W        W 7854   3.096   4.620   3.429  0.1312 -0.0805  0.2562
 4111W        W 7855   4.012   3.084   2.030 -0.0569 -0.0575 -0.1033
 4112W        W 7856   1.881   2.534  11.736  0.2074  0.3315  0.0707
 4113W        W 7857   8.351   3.027   9.321  0.0541 -0.2599  0.1459
 4114W        W 7858   9.523   5.143   2.064  0.3008 -0.6670  0.0437
 4115W        W 7859   4.876   9.685  12.020  0.2685  0.0874  0.0263
 4116W        W 7860   4.092   7.885   9.636  0.0673  0.1586  0.0779
 4117W        W 7861   8.687   2.409   3.582  0.2149 -0.1468 -0.0735
 4118W        W 7862   1.217   9.442   0.697  0.0997  0.0786 -0.2703
 4119W        W 7863   0.332   9.053   0.880  0.0034 -0.0526 -0.0810
 4120W        W 7864   5.991   1.941   9.997 -0.0596 -0.1266 -0.3181
 4121W        W 7865   0.598   7.825   2.511  0.0019 -0.1717  0.0655
 4122W        W 7866   8.069   0.071   8.722 -0.4212 -0.0332 -0.2959
 4123W        W 7867   1.929   0.993   9.221  0.1586 -0.0572  0.0707
 4124W        W 7868   1.630   7.954  10.075 -0.1888  0.0108 -0.0210
 4125W        W 7869   4.377   0.066   2.269 -0.0186 -0.2853  0.0548
 4126W        W 7870   4.484   4.466  12.807  0.2719  0.1825  0.0364
 4127W        W 7871   0.797   6.593   1.327 -0.1859 -0.2452  0.1399
 4128W        W 7872   7.049   0.137   8.645 -0.1416  0.0692 -0.0568
 4129W        W 7873   2.427   3.351   2.651 -0.0588  0.0218 -0.1838
 4130W        W 7874   5.726   5.388  11.651  0.1385  0.2212 -0.1507
 4131W        W 7875   7.794   8.334   2.225  0.1468  0.1929  0.0316
 4132W        W 7876   0.743   4.493   4.313 -0.0142  0.1777  0.0302
 4133W        W 7877   2.546   4.079  12.787  0.0266  0.0120 -0.0680
 4134W        W 7878   3.810   2.049   0.461 -0.2110  0.2524  0.1463
 4135W        W 7879   6.170   8.318   3.802 -0.0210  0.0451 -0.1305
 4136W        W 7880   1.389   8.787  12.742 -0.1147 -0.1374  0.1867
 4137W        W 7881   6.455   5.714   2.781 -0.4360  0.0707 -0.3605
 4138W        W 7882   9.806   0.552   2.180  0.0744 -0.3394  0.1750
 4139W        W 7883   7.811   1.806  10.243  0.1552  0.1302 -0.1278
 4140W        W 7884   0.991   3.624   9.096  0.3038 -0.2264  0.2456
 4141W        W 7885   9.390   3.159   2.481 -0.0968  0.0141  0.3640
 4142W        W 7886   0.561   0.197   3.694  0.2103  0.0289 -0.3250
 4143W        W 7887   1.448   5.411   1.897 -0.1305  0.2436 -0.4996
 4144W        W 7888   6.339   4.149   9.578 -0.3258 -0.1604  0.1028
 4145W        W 7889   6.602   5.546   2.238  0.1061 -0.1165 -0.0303
 4146W        W 7890   9.584   2.606   3.411 -0.0174 -0.0708  0.3048
 4147W        W 7891   9.660   9.662   0.101 -0.0498 -0.0321  0.2045
 4148W        W 7892   8.137   5.811  10.305 -0.0544  0.3694  0.0052
 4149W        W 7893   2.181   2.964   2.968  0.1688 -0.1446 -0.3006
 4150W        W 7894   7.837   8.114  12.667  0.4131 -0.2777  0.1135
 4151W        W 7895   0.094   6.656  11.620 -0.0909 -0.0574 -0.0749
 4152W        W 7896   0.648   6.363  10.515  0.3419 -0.2350 -0.1068
 4153W        W 7897   8.996   3.565   0.861  0.0424  0.0355 -0.1526
 4154W        W 7898   8.927   1.738  12.135  0.0651 -0.0241  0.1732
 4155W        W 7899   0.842   9.903   3.403  0.2209  0.1098 -0.0170
 4156W        W 7900   5.080   5.441   0.122  0.0578 -0.2646  0.1772
 4157W        W 7901   2.718   0.866   9.889 -0.0044 -0.2190  0.1085
 4158W        W 7902   4.720   7.619   3.319  0.0514 -0.0700  0.2409
 4159W        W 7903   4.504   0.430   1.664  0.2072 -0.0229  0.0803
 4160W        W 7904   4.928   8.060   3.053  0.0751  0.3668 -0.0016
 4161W        W 7905   0.412   4.357   1.735 -0.2257 -0.1917 -0.0213
 4162W        W 7906   5.642   8.231  10.495  0.2280 -0.0534 -0.0320
 4163W        W 7907   2.759   6.116   7.867  0.1411  0.1631  0.0937
 4164W        W 7908   2.913   0.527   0.007 -0.0229  0.1700 -0.1361
 4165W        W 7909   3.126   8.013   0.636 -0.2004 -0.1634  0.2379
 4166W        W 7910   7.261   7.408   9.699 -0.2288  0.0295  0.0860
 4167W        W 7911   9.523   1.544   1.211  0.1697  0.0857 -0.0562
 4168W        W 7912   8.061   9.385  12.637 -0.0383  0.2301 -0.1102
 4169W        W 7913   0.252   1.224   1.738 -0.2239 -0.1689 -0.1232
 4170W        W 7914   3.020   2.425   0.501 -0.0176 -0.0367  0.2913
 4171W        W 7915   1.679   5.318   9.893  0.2497 -0.1792 -0.1915
 4172W        W 7916   5.007   7.203   2.108  0.0955  0.0156  0.0806
 4173W        W 7917   8.733   6.374  12.718 -0.2742  0.0405  0.1278
 4174W        W 7918   6.100   2.661   2.059  0.1454 -0.4645 -0.0495
 4175W        W 7919   7.024   5.514   1.886 -0.0464 -0.1807  0.3094
 4176W        W 7920   7.077   0.466  11.761 -0.2030  0.3503  0.0789
 4177W        W 7921   3.578   1.676   8.474 -0.3162  0.1051 -0.2021
 4178W        W 7922   9.379   3.786   7.943 -0.1659 -0.1198 -0.1674
 4179W        W 7923   6.999   8.763   3.850 -0.0578 -0.3025 -0.1494
 4180W        W 7924   3.414   5.724   1.167 -0.0231 -0.2666 -0.0895
 4181W        W 7925   4.548   4.377   0.898 -0.1811 -0.1052 -0.1370
 4182W        W 7926   5.062   5.168  11.221 -0.1496 -0.1342 -0.1003
 4183W        W 7927   2.878   2.266   9.639 -0.2831  0.0215 -0.1929
 4184W        W 7928   2.309   7.188   3.983 -0.1708  0.0197  0.3431
 4185W        W 7929   0.725   1.056   3.214 -0.0739  0.3336  0.2009
 4186W        W 7930   8.824   1.047   9.142  0.1513 -0.1013  0.0331
 4187W        W 7931   3.827   0.348   0.253 -0.1361  0.0462  0.2413
 4188W        W 7932   6.412   2.796   9.737  0.0039 -0.0333  0.0182
 4189W        W 7933   6.553   5.589  12.199 -0.1381  0.0902  0.0066
 4190W        W 7934   7.199   9.739   9.592  0.2474  0.1127 -0.0979
 4191W        W 7935   3.098   7.598  11.983 -0.0610 -0.2018 -0.0250
 4192W        W 7936   6.572   7.752  10.347 -0.0633  0.0077 -0.2204
 4193W        W 7937   7.600   4.716   9.597 -0.0804  0.0524  0.2067
 4194W        W 7938   3.681   8.309  11.438 -0.1830 -0.0804  0.0723
 4195W        W 7939   8.258   2.011  11.431  0.1827  0.2328 -0.1557
 4196W        W 7940   8.451   1.767   1.455 -0.2984  0.0420 -0.2039
 4197W        W 7941   7.047   2.722   0.798 -0.2161  0.1953 -0.0009
 4198W        W 7942   0.747   9.446   1.217  0.1753  0.0877 -0.1365
 4199W        W 7943   1.744   6.755   0.713 -0.0466 -0.0873 -0.2198
 4200W        W 7944   3.617   0.119  12.620 -0.0019 -0.1371 -0.0589
 4201W        W 7945   2.089   7.765   9.192 -0.1995 -0.0623  0.3062
 4202W        W 7946   0.150   9.114   2.836 -0.2945  0.2737 -0.0016
 4203W        W 7947   5.983   6.678   2.453  0.0154  0.1016  0.0158
 4204W        W 7948   3.001   9.801  10.210  0.1010  0.1301 -0.3925
 4205W        W 7949   0.239   5.515   3.740  0.1399 -0.2399 -0.1769
 4206W        W 7950   0.846   4.064   1.738 -0.1040 -0.0692 -0.1740
 4207W        W 7951   6.697   2.737   1.790  0.2185  0.1637 -0.1656
 4208W        W 7952   3.761   4.176   3.175  0.1012 -0.2750 -0.3464
 4209W        W 7953   8.145   1.835   9.129 -0.2666  0.1921  0.0031
 4210W        W 7954   3.973   7.278   9.808 -0.1910  0.4527 -0.0177
 4211W        W 7955   3.939   4.005   8.511 -0.1226 -0.3281 -0.2332
 4212W        W 7956   5.193   2.161   0.877 -0.1783  0.3156 -0.0490
 4213W        W 7957   1.080   5.808   2.928  0.3376 -0.0254  0.0586
 4214W        W 7958   1.816   5.038   2.087  0.1776 -0.0353 -0.2089
 4215W        W 7959   2.374   6.776  11.865  0.0782  0.0838  0.2121
 4216W        W 7960   4.875   4.776  12.035 -0.0212  0.0644  0.0072
 4217W        W 7961   8.507   4.315  11.271  0.0759 -0.2953 -0.0330
 4218W        W 7962   6.487   6.061   9.540 -0.1098  0.2476  0.0926
 4219W        W 7963   8.624   8.195  10.544  0.0981 -0.3032 -0.1564
 4220W        W 7964   4.497   3.056   9.735 -0.3107  0.0114  0.2849
 4221W        W 7965   7.504   0.123   8.778 -0.2437  0.3029  0.1274
 4222W        W 7966   7.162   3.086   0.090  0.0741 -0.2193 -0.3519
 4223W        W 7967   2.570   8.123   1.301  0.2413 -0.0944 -0.0241
 4224W        W 7968   7.493   7.919   0.939 -0.1159  0.0347  0.2277
 4225W        W 7969   8.659   1.350   1.266 -0.4675 -0.0326 -0.3466
 4226W        W 7970   2.078   1.613   4.119  0.3506  0.0274  0.2594
 4227W        W 7971   8.519   4.167   4.490  0.0972 -0.0351 -0.2019
 4228W        W 7972   6.921   6.666  11.596  0.0758  0.1174 -0.0889
 4229W        W 7973   4.942   6.681   0.958 -0.0164  0.2071  0.0311
 4230W        W 7974   4.234   0.298   9.828 -0.0535 -0.0879  0.0305
 4231W        W 7975   6.061   4.182   8.291  0.1831  0.1502 -0.0817
 4232W        W 7976   9.043   5.992   9.323 -0.0664 -0.0643  0.1142
 4233W        W 7977   7.375   7.559  10.710  0.3153  0.2364  0.0192
 4234W        W 7978   5.175   0.798   2.314  0.1152  0.1817  0.0108
 4235W        W 7979   0.529   6.817  11.395 -0.0308  0.0104 -0.1193
 4236W        W 7980   4.426   0.979  11.249  0.1183 -0.3922 -0.0499
 4237W        W 7981   3.503   5.534  10.309  0.2239 -0.0161  0.0099
 4238W        W 7982   9.049   2.311   2.613 -0.0055  0.1576 -0.0619
 4239W        W 7983   2.100   0.810   9.984  0.0913 -0.1898  0.2034
 4240W        W 7984   6.910   2.752   0.341 -0.2820  0.0854  0.2193
 4241W        W 7985   9.240   9.156   2.303 -0.0361  0.0680 -0.4494
 4242W        W 7986   6.146   4.825   1.528  0.0551 -0.0581  0.0779
 4243W        W 7987   5.210   7.958  10.161 -0.0607  0.0413  0.1706
 4244W        W 7988   6.330   5.229   9.158  0.0282 -0.1021  0.0916
 4245W        W 7989   2.721   3.019  11.493  0.3106 -0.0416  0.0654
 4246W        W 7990   9.048   8.028  12.758  0.1279  0.0970 -0.0422
 4247W        W 7991   8.797   0.828   1.439  0.0972  0.3735 -0.2481
 4248W        W 7992   1.457   8.179  10.475  0.1457 -0.0592 -0.0947
 4249W        W 7993   7.973   3.108  12.713 -0.0727  0.0671 -0.2166
 4250W        W 7994   4.884   5.094  10.019  0.0113 -0.0415  0.0182
 4251W        W 7995   5.250   1.926   9.276  0.0939  0.2654  0.3801
 4252W        W 7996   6.109   5.613   2.044 -0.0747  0.1501  0.2278
 4253W        W 7997   6.645   9.709   1.000 -0.0336  0.0662  0.2039
 4254W        W 7998   8.526   3.891  10.108 -0.1825 -0.1147 -0.1237
 4255W        W 7999   7.119   7.098   9.342 -0.0563  0.1615 -0.3610
 4256W        W 8000   7.503   3.510   0.491 -0.0847 -0.1613  0.0158
 4257W        W 8001   2.288   7.279  11.229  0.2113  0.1729 -0.0622
 4258W        W 8002   2.420   2.768   2.482  0.0394 -0.0060 -0.0756
 4259W        W 8003   9.672   3.179   1.483  0.0482 -0.1796  0.1585
 4260W        W 8004   5.160   3.154   4.194 -0.1060 -0.0145 -0.1840
 4261W        W 8005   2.186   2.055  10.501 -0.0325 -0.2983 -0.1841
 4262W        W 8006   9.163   5.512   9.463  0.0571 -0.2099 -0.0217
 4263W        W 8007   9.060   8.562  12.502 -0.3132 -0.2160  0.0209
 4264W        W 8008   8.917   3.345   2.518 -0.1938  0.1813 -0.1255
 4265W        W 8009   4.330   6.792   3.185  0.0288 -0.0871 -0.0057
 4266W        W 8010   5.749   8.441   2.586  0.1600 -0.1105 -0.0728
 4267W        W 8011   6.885   6.542   0.777  0.0342  0.0202  0.3639
 4268W        W 8012   9.116   8.013   2.307  0.1179 -0.0971 -0.0883
 4269W        W 8013   6.782   1.000  11.576 -0.1184  0.1035 -0.0064
 4270W        W 8014   2.002   4.067   2.706  0.1786 -0.0456  0.2088
 4271W        W 8015   3.452   6.446   0.085  0.3643  0.1857  0.1098
 4272W        W 8016   1.338   6.179   0.540 -0.0478  0.1692  0.0451
 4273W        W 8017   5.283   4.574   9.511  0.0230 -0.0490 -0.0233
 4274W        W 8018   3.837   2.192   1.817 -0.1229  0.2222  0.0944
 4275W        W 8019   9.392   1.632   0.616 -0.0254  0.2770 -0.1414
 4276W        W 8020   5.193   3.993   1.358 -0.3000 -0.0164  0.2796
 4277W        W 8021   0.158   2.226  10.882  0.1290  0.0137 -0.0392
 4278W        W 8022   5.399   9.780   9.277  0.1867 -0.0401  0.2716
 4279W        W 8023   7.365   1.118   4.566  0.2960  0.0234 -0.1044
 4280W        W 8024   5.359   9.590   3.868 -0.0351 -0.1104  0.0403
 4281W        W 8025   6.299   7.660  12.417 -0.1202  0.0987  0.1839
 4282W        W 8026   3.409   5.952  12.273 -0.0060  0.0147 -0.0266
 4283W        W 8027   5.839   2.902   3.228  0.4507 -0.0684 -0.1276
 4284W        W 8028   5.727   2.335  10.194 -0.0208 -0.0775 -0.0589
 4285W        W 8029   6.111   4.121   3.775 -0.3972 -0.4305 -0.0657
 4286W        W 8030   0.827   4.659   8.611 -0.1343 -0.1926  0.3013
 4287W        W 8031   6.486   2.121   4.341 -0.0906 -0.0567 -0.0259
 4288W        W 8032   1.122   4.884  10.293  0.0950  0.1751  0.0150
 4289W        W 8033   1.825   1.489   1.467 -0.4005  0.3341  0.0499
 4290W        W 8034   1.096   7.742  11.683  0.1682 -0.1144 -0.2623
 4291W        W 8035   2.295   8.955   1.778  0.0084  0.1440  0.2296
 4292W        W 8036   6.590   9.092   1.608 -0.1025  0.0006  0.0371
 4293W        W 8037   7.829   6.163  12.438 -0.2687  0.0470  0.3370
 4294W        W 8038   1.616   8.420   9.944 -0.0113 -0.2788 -0.0692
 4295W        W 8039   4.089   7.127   0.950 -0.2281 -0.0164  0.0976
 4296W        W 8040   5.666   0.990   9.420  0.1908 -0.0583  0.0310
 4297W        W 8041   3.482   9.881   3.491 -0.0807  0.0868  0.0982
 4298W        W 8042   3.949   8.251   4.231  0.1096  0.0556 -0.3289
 4299W        W 8043   2.618   6.111   0.659  0.1080 -0.0625  0.1408
 4300W        W 8044   1.493   3.793   2.152 -0.4227  0.1142 -0.0314
 4301W        W 8045   1.451   3.848   3.640  0.2041  0.0446 -0.0063
 4302W        W 8046   8.417   2.611  10.772  0.1091  0.1277 -0.1826
 4303W        W 8047   1.442   8.891  11.722  0.3086  0.0046 -0.3839
 4304W        W 8048   4.965   8.387   1.965 -0.2080  0.1749 -0.0580
 4305W        W 8049   5.916   6.686  10.615 -0.2181 -0.0486 -0.1139
 4306W        W 8050   3.493   1.024   9.282 -0.3809  0.2788  0.0428
 4307W        W 8051   1.386   3.110   0.943 -0.0197  0.1148  0.3230
 4308W        W 8052   4.508   1.528   8.982 -0.0366 -0.2649  0.2384
 4309W        W 8053   8.607   4.228  12.602 -0.0576 -0.1207  0.0078
 4310W        W 8054   3.586   4.533  10.038  0.3174 -0.3790 -0.2588
 4311W        W 8055   8.314   1.416   2.070 -0.0487  0.2863 -0.0867
 4312W        W 8056   6.999   7.640   0.162 -0.1575 -0.0046 -0.2340
 4313W        W 8057   0.275   0.296   2.279 -0.1281 -0.0318 -0.1752
 4314W        W 8058   1.017   1.246  11.063 -0.0706 -0.1281  0.0390
 4315W        W 8059   6.354   7.844   9.114 -0.1868  0.0655  0.1891
 4316W        W 8060   3.123   1.945  12.155 -0.0025  0.2512  0.1482
 4317W        W 8061   4.837   3.439   0.778  0.3952  0.0260  0.0672
 4318W        W 8062   8.609   7.570  11.428 -0.1047 -0.1026 -0.0874
 4319W        W 8063   2.302   8.085   3.823 -0.0210 -0.3369  0.0271
 4320W        W 8064   4.342   6.409   3.573  0.0152  0.2721 -0.1663
 4321W        W 8065   4.408   4.175   9.792  0.0526  0.1453  0.1229
 4322W        W 8066   8.459   4.032  11.713  0.2406 -0.2211  0.0446
 4323W        W 8067   5.089   5.663   9.988 -0.0711  0.0455  0.0405
 4324W        W 8068   3.576   5.884   3.276 -0.0677  0.1585  0.1811
 4325W        W 8069   1.111   1.391   2.995  0.2691 -0.1882  0.0971
 4326W        W 8070   6.791   9.488  12.660  0.0362 -0.0805  0.0444
 4327W        W 8071   0.129   4.197   9.673 -0.0827 -0.4302 -0.2423
 4328W        W 8072   0.017   3.714  12.835 -0.1598 -0.3535 -0.0016
 4329W        W 8073   6.823   4.267  10.694  0.1559  0.1565 -0.1747
 4330W        W 8074   5.521   9.111   2.705 -0.2442 -0.0547 -0.2023
 4331W        W 8075   7.463   3.641   9.258 -0.2188  0.1491  0.0095
 4332W        W 8076   4.623   5.841  10.519 -0.2188 -0.0919 -0.1172
 4333W        W 8077   5.615   9.395   2.241  0.3315 -0.1491 -0.3525
 4334W        W 8078   5.308   8.756   9.043  0.2563  0.0759  0.4573
 4335W        W 8079   5.012   0.355   9.556 -0.0658 -0.1412 -0.1172
 4336W        W 8080   3.603   9.485   9.631  0.1375 -0.0508  0.2620
 4337W        W 8081   1.907   3.310   3.365  0.3112 -0.1020 -0.0371
 4338W        W 8082   7.948   5.184   0.897  0.0366 -0.1671 -0.0623
 4339W        W 8083   1.762   8.877   3.125  0.2986  0.2330  0.0790
 4340W        W 8084   9.841   6.320   3.088  0.2093  0.0072  0.0175
 4341W        W 8085   3.339   8.567   9.469 -0.0301  0.3453 -0.1402
 4342W        W 8086   1.362   2.506  11.556 -0.4208 -0.0917 -0.4733
 4343W        W 8087   5.403   1.233  11.404  0.1374  0.0976  0.3101
 4344W        W 8088   0.916   6.402  11.483 -0.0008 -0.1229  0.4668
 4345W        W 8089   5.964   0.501  11.468  0.1405 -0.0738  0.1184
 4346W        W 8090   0.925   5.037   3.579  0.1789 -0.2461 -0.0191
 4347W        W 8091   6.702   1.151   9.717 -0.1169 -0.4871 -0.1242
 4348W        W 8092   7.994   7.697   0.108 -0.2889 -0.0722 -0.0651
 4349W        W 8093   1.377   5.270  11.855 -0.0533  0.0339 -0.2896
 4350W        W 8094   9.870   5.133  11.996 -0.0283  0.2405  0.5685
 4351W        W 8095   7.819   7.240   1.477  0.3991  0.0712 -0.5032
 4352W        W 8096   5.519   6.651   0.278 -0.0159 -0.2288 -0.2219
 4353W        W 8097   1.932   7.131   3.165 -0.1621  0.0890 -0.1866
 4354W        W 8098   5.863   5.756  11.192 -0.1346  0.2818 -0.1006
 4355W        W 8099   3.438   4.773  10.902 -0.1122  0.0428  0.0009
 4356W        W 8100   7.767   1.299  12.692 -0.0303  0.2846  0.2646
 4357W        W 8101   4.993   5.716  10.916  0.2853 -0.2135 -0.1993
 4358W        W 8102   5.286   2.540   8.583 -0.2845 -0.3655 -0.2270
 4359W        W 8103   5.397   2.757  11.083  0.1693 -0.1154  0.1765
 4360W        W 8104   8.310   8.175  11.800 -0.0572  0.2593  0.0860
 4361W        W 8105   2.509   0.448   0.666 -0.0306 -0.1116  0.0438
 4362W        W 8106   7.226   5.568  10.848 -0.0706 -0.1876 -0.0424
 4363W        W 8107   7.592   6.011   1.236 -0.3668 -0.2016 -0.0121
 4364W        W 8108   9.219   1.967   0.999 -0.1439  0.1255 -0.2975
 4365W        W 8109   3.511   4.595   3.133  0.1185 -0.0406  0.0455
 4366W        W 8110   8.562   5.060  10.778 -0.0355  0.0326 -0.3098
 4367W        W 8111   2.523   3.647  10.896 -0.0724 -0.0980 -0.0762
 4368W        W 8112   0.659   8.001   2.014  0.0641  0.0833  0.0416
 4369W        W 8113   8.668   7.995   4.066 -0.4978  0.0839 -0.0915
 4370W        W 8114   3.524   2.346   1.427  0.1625  0.0149  0.0695
 4371W        W 8115   1.466   2.253   8.950  0.1890 -0.3159  0.3092
 4372W        W 8116   4.759   1.021   9.028  0.0602 -0.1482  0.1974
 4373W        W 8117   2.055   2.078   3.771  0.2195  0.0773  0.3355
 4374W        W 8118   8.994   4.256   0.099  0.1249 -0.0016 -0.1690
 4375W        W 8119   1.677   5.534   8.454  0.4629  0.1356  0.1367
 4376W        W 8120   2.609   9.036  10.488 -0.0486  0.1720 -0.3394
 4377W        W 8121   4.151   8.702   3.579 -0.2293 -0.0100  0.0029
 4378W        W 8122   7.313   6.092   8.987 -0.1475 -0.0454  0.0679
 4379W        W 8123   7.378   3.906   8.370 -0.2566  0.1146 -0.3629
 4380W        W 8124   8.648   8.223   2.540  0.0844  0.0977 -0.0342
 4381W        W 8125   0.874   0.507  10.439 -0.0502 -0.2001 -0.2642
 4382W        W 8126   4.956   9.878   3.621  0.1936  0.5078  0.2971
 4383W        W 8127   1.570   9.068  10.387  0.0691  0.0502 -0.1206
 4384W        W 8128   9.577   8.654   3.164  0.3681 -0.1497  0.2002
 4385W        W 8129   9.624   3.834  10.836  0.0906 -0.1850 -0.0954
 4386W        W 8130   2.811   6.916   2.201 -0.0421  0.1078  0.5197
 4387W        W 8131   0.511   1.869  10.820 -0.0013 -0.1106 -0.1636
 4388W        W 8132   9.263   2.294   0.011 -0.1765  0.1831 -0.1656
 4389W        W 8133   7.981   3.855   1.566 -0.0047 -0.2345  0.0570
 4390W        W 8134   9.179   0.995   4.369 -0.3598  0.0310 -0.3188
 4391W        W 8135   1.010   9.614   3.828  0.4052  0.0099 -0.0314
 4392W        W 8136   4.279   3.811  11.132  0.1512  0.1158 -0.1550
 4393W        W 8137   6.547   8.856  11.147 -0.1453  0.2482  0.0602
 4394W        W 8138   2.658   4.174  11.064 -0.1779 -0.1400  0.1202
 4395W        W 8139   6.182   8.983  12.276 -0.0632 -0.0724 -0.0870
 4396W        W 8140   7.005   2.576   8.690 -0.1157 -0.1375  0.1774
 4397W        W 8141   8.949   3.509   0.351 -0.3869  0.0090  0.1661
 4398W        W 8142   5.516   0.286  11.517 -0.4840 -0.2029 -0.1490
 4399W        W 8143   9.609   4.564   3.223 -0.1949  0.2911  0.2737
 4400W        W 8144   5.648   5.455  12.162 -0.0590 -0.2253  0.2095
 4401W        W 8145   5.470   7.468  11.446  0.0906  0.0115 -0.2400
 4402W        W 8146   6.369   7.344   9.774  0.0701 -0.2013  0.1972
 4403W        W 8147   9.752   7.928  12.204  0.0183 -0.1051  0.1709
 4404W        W 8148   5.083   3.023   1.025  0.1080 -0.2095 -0.0987
 4405W        W 8149   2.727   4.856  11.044 -0.0506 -0.3196 -0.0842
 4406W        W 8150   0.064   7.755  11.324  0.1223  0.4198 -0.2852
 4407W        W 8151   3.354   8.182  12.407  0.0531 -0.1963 -0.1096
 4408W        W 8152   7.447   9.850   0.254 -0.0280  0.0222 -0.0869
 4409W        W 8153   7.417   5.324  10.033  0.1204 -0.0759 -0.1171
 4410W        W 8154   4.959   8.555   3.138  0.0343 -0.1403 -0.1599
 4411W        W 8155   7.447   7.970  11.018  0.1722  0.1315 -0.0227
 4412W        W 8156   5.605   5.069   3.394  0.1992  0.0361  0.2963
 4413W        W 8157   6.480   7.535  10.773  0.0706  0.2814  0.1937
 4414W        W 8158   5.461   2.070   9.786  0.0286 -0.0120  0.0642
 4415W        W 8159   1.260   2.761  11.010  0.2520 -0.1821 -0.1760
 4416W        W 8160   7.987   0.396  11.592  0.0899  0.0269  0.3094
 4417W        W 8161   6.204   5.341  11.116  0.1568  0.0869  0.1372
 4418W        W 8162   1.472   5.151   2.489 -0.0402  0.0670 -0.2041
 4419W        W 8163   5.916   7.899   0.579  0.1691  0.4215 -0.3391
 4420W        W 8164   9.572   7.319   1.093 -0.1016 -0.1639 -0.0038
 4421W        W 8165   3.062   5.004  12.611 -0.1205 -0.0205 -0.0048
 4422W        W 8166   5.657   7.496   9.445 -0.0017 -0.0991  0.1527
 4423W        W 8167   5.130   4.150   2.375 -0.0965  0.1510  0.0681
 4424W        W 8168   3.757   9.758   2.509  0.0704 -0.1337 -0.2185
 4425W        W 8169   7.159   1.953   2.131  0.2451 -0.4279  0.0027
 4426W        W 8170   2.130   1.800   7.913 -0.0809 -0.2637 -0.1202
 4427W        W 8171   6.701   4.059   4.948  0.0740  0.0143 -0.2095
 4428W        W 8172   9.468   8.297  12.548 -0.2798 -0.0390 -0.0775
 4429W        W 8173   1.417   3.475   8.469  0.1819  0.0349  0.2774
 4430W        W 8174   9.248   6.416   3.096 -0.0253  0.2300  0.0368
 4431W        W 8175   4.978   0.680  10.885  0.2471 -0.0044 -0.0875
 4432W        W 8176   3.050   5.149   2.591 -0.0171  0.1036  0.0863
 4433W        W 8177   2.015   0.404   0.474  0.1272  0.0084 -0.1497
 4434W        W 8178   1.491   1.470   9.726  0.2185 -0.0755  0.4682
 4435W        W 8179   2.125   8.138   0.120 -0.0866  0.3425  0.0415
 4436W        W 8180   3.275   1.140  12.800 -0.0776 -0.2299 -0.1749
 4437W        W 8181   6.201   1.982   9.449 -0.0928 -0.0558  0.1926
 4438W        W 8182   2.881   2.608  11.879  0.0989  0.0467 -0.3817
 4439W        W 8183   9.444   5.632   3.197 -0.2964 -0.5479 -0.0766
 4440W        W 8184   1.347   6.632   3.046 -0.2442 -0.0762  0.0653
 4441W        W 8185   3.559   4.545   0.331  0.0961 -0.1853 -0.0676
 4442W        W 8186   1.079   9.681   7.974  0.1566  0.2164  0.0594
 4443W        W 8187   6.106   9.157   1.930 -0.2284 -0.3297 -0.3796
 4444W        W 8188   2.661   9.586   9.441 -0.0137 -0.3199 -0.1716
 4445W        W 8189   8.896   8.790   8.693  0.1229  0.2273 -0.1734
 4446W        W 8190   8.689   9.613  10.645 -0.0270  0.2657 -0.1919
 4447W        W 8191   2.294   8.009   8.637 -0.0996  0.4642 -0.0840
 4448W        W 8192   2.649   4.397   3.324 -0.0208  0.2629 -0.3102
 4449W        W 8193   6.935   5.463   2.787  0.1192  0.0130 -0.2325
 4450W        W 8194   4.770   6.173  10.172  0.1477  0.1605  0.2199
 4451W        W 8195   1.972   2.928   2.331  0.4283 -0.0254  0.2150
 4452W        W 8196   2.262   1.221  12.200 -0.3071 -0.0220  0.1977
 4453W        W 8197   4.784   2.254   8.922 -0.1072 -0.2043 -0.1209
 4454W        W 8198   6.160   8.252   2.387 -0.4716 -0.3165  0.0230
 4455W        W 8199   1.128   3.568   0.916 -0.1332  0.1897  0.0181
 4456W        W 8200   8.696   2.508  11.205 -0.1355 -0.3565  0.1980
 4457W        W 8201   5.063   2.557   4.451 -0.1788  0.2004 -0.1434
 4458W        W 8202   0.636   3.405   1.044  0.0723 -0.1618  0.2220
 4459W        W 8203   8.422   5.787  11.452  0.1159  0.2337  0.1354
 4460W        W 8204   6.936   6.762   1.249  0.0100  0.0019 -0.2440
 4461W        W 8205   7.016   1.310  12.043  0.2488  0.0362  0.3701
 4462W        W 8206   6.495   0.010  11.344  0.3330 -0.4788  0.1137
 4463W        W 8207   5.121   5.881   3.181 -0.2259  0.1327 -0.0213
 4464W        W 8208   4.227   8.246  12.612 -0.1815 -0.0598  0.2572
 4465W        W 8209   5.508   6.929   9.459 -0.0935  0.0811  0.2375
 4466W        W 8210   6.156   1.444   4.039  0.0056  0.1293  0.1578
 4467W        W 8211   9.474   6.585  10.011 -0.0065 -0.1373 -0.3713
 4468W        W 8212   3.344   8.413   0.903 -0.0664 -0.0160  0.1733
 4469W        W 8213   5.748   8.670  12.331  0.3991 -0.0322  0.1064
 4470W        W 8214   9.791   0.598  10.362 -0.0864 -0.0071 -0.1167
 4471W        W 8215   6.641   4.937   3.460  0.1145 -0.3391 -0.0827
 4472W        W 8216   3.785   4.047   0.397  0.1113 -0.1285 -0.1762
 4473W        W 8217   2.730   2.686   1.799  0.1688  0.1127 -0.1851
 4474W        W 8218   3.213   5.910  11.364 -0.2704 -0.0465 -0.0658
 4475W        W 8219   7.281   1.489   1.745 -0.0456 -0.2698 -0.2224
 4476W        W 8220   2.755   6.815   3.393 -0.0434  0.0941 -0.1850
 4477W        W 8221   2.279   1.774   1.688 -0.0364 -0.0157  0.2363
 4478W        W 8222   5.329   4.601   3.946  0.2066 -0.2964 -0.0336
 4479W        W 8223   0.007   1.450  12.077  0.0967 -0.3270  0.0473
 4480W        W 8224   5.730   8.490   0.826  0.0373 -0.0696  0.1563
 4481W        W 8225   0.782   7.629  10.752 -0.2061 -0.1967 -0.2190
 4482W        W 8226   0.212   8.878   0.014  0.3216  0.2479  0.1285
 4483W        W 8227   1.017   9.732   9.690  0.4755 -0.0764  0.1205
 4484W        W 8228   3.693   7.232   2.706 -0.0722  0.0514 -0.2443
 4485W        W 8229   6.997   5.531  11.951  0.1716 -0.2561  0.1551
 4486W        W 8230   7.818   9.015   9.568  0.0094  0.0071 -0.0215
 4487W        W 8231   1.143   1.268   4.107 -0.1256 -0.2334 -0.0763
 4488W        W 8232   9.680   8.167   2.303  0.1081 -0.1833  0.2158
 4489W        W 8233   7.171   5.910  11.258  0.0405 -0.2759  0.0216
 4490W        W 8234   4.216   2.751   4.052 -0.1141  0.0966 -0.3357
 4491W        W 8235   8.211   6.168   2.947 -0.1555 -0.1335 -0.2786
 4492W        W 8236   0.885   3.401  11.782  0.1274  0.0717  0.0659
 4493W        W 8237   9.408   7.012   9.025 -0.0026  0.0494  0.2256
 4494W        W 8238   4.191   8.480   1.119 -0.1078  0.2387  0.3463
 4495W        W 8239   4.544   2.196   1.204 -0.0467 -0.0447  0.0281
 4496W        W 8240   4.405   2.231   9.595  0.0864 -0.1663 -0.1066
 4497W        W 8241   0.062   4.711   1.704  0.3343  0.1983  0.0289
 4498W        W 8242   0.575   7.788   9.429 -0.4239 -0.1734  0.1432
 4499W        W 8243   4.692   2.296   1.704  0.1371  0.0938  0.1875
 4500W        W 8244   1.791   9.899   3.367 -0.2616  0.2442 -0.0042
 4501W        W 8245   6.565   6.169  10.688 -0.2365  0.4292  0.2243
 4502W        W 8246   4.949   8.790   2.697  0.0318 -0.3026  0.0716
 4503W        W 8247   0.142   9.366   0.161 -0.1056  0.2145 -0.1689
 4504W        W 8248   1.462   7.025   1.748  0.2478 -0.1700 -0.4047
 4505W        W 8249   9.007   6.466   1.529 -0.2786 -0.1625  0.0094
 4506W        W 8250   3.471   8.887  11.623  0.0982  0.0657 -0.4411
 4507W        W 8251   6.524   9.542   1.895  0.1963 -0.2485  0.2870
 4508W        W 8252   4.112   8.540  11.296 -0.1748  0.1131  0.2721
 4509W        W 8253   3.201   7.144  11.827 -0.0889  0.4417  0.1413
 4510W        W 8254   3.499   4.221  11.371  0.1612 -0.1033  0.2591
 4511W        W 8255   7.768   2.985   1.252 -0.2138  0.3941  0.0354
 4512W        W 8256   6.006   9.663   1.903 -0.0246 -0.0031 -0.2200
 4513W        W 8257   0.127   9.904   0.933  0.1977  0.0969  0.0765
 4514W        W 8258   5.884   6.115   1.258 -0.1288 -0.0588  0.2382
 4515W        W 8259   0.365   3.933   1.350 -0.0102  0.5153  0.0193
 4516W        W 8260   2.053   6.429   2.339 -0.0797 -0.1430 -0.3036
 4517W        W 8261   4.749   7.474   9.427 -0.1806  0.0452  0.3183
 4518W        W 8262   7.193   8.263   2.053  0.0518 -0.2355  0.3574
 4519W        W 8263   8.989   0.197   3.830 -0.0283 -0.1272  0.0915
 4520W        W 8264   8.667   0.960   2.709  0.1613 -0.3746  0.0607
 4521W        W 8265   0.755   8.954   2.315 -0.0749 -0.0148  0.0529
 4522W        W 8266   0.857   1.811   2.194  0.0193  0.0520 -0.0514
 4523W        W 8267   9.831   8.107  11.594 -0.4389 -0.3783 -0.0307
 4524W        W 8268   1.884   7.891  10.737 -0.0657 -0.0354 -0.2482
 4525W        W 8269   3.919   9.453  10.493 -0.0893  0.0556 -0.0468
 4526W        W 8270   6.089   1.003   9.144 -0.3502 -0.0917  0.1190
 4527W        W 8271   3.523   4.095   9.547  0.0916 -0.0235 -0.1371
 4528W        W 8272   3.555   9.117  10.245  0.0418 -0.0137 -0.0569
 4529W        W 8273   0.131   4.014   3.772 -0.0992 -0.1820 -0.1282
 4530W        W 8274   6.140   7.338  12.050  0.2354 -0.4274  0.2349
 4531W        W 8275   5.409   3.199   3.660 -0.2394 -0.1039 -0.3641
 4532W        W 8276   3.498   1.085  11.076 -0.3244  0.0098 -0.2185
 4533W        W 8277   3.505   5.840   8.737  0.1969  0.1598 -0.2038
 4534W        W 8278   4.498   4.976   0.856 -0.0806  0.2945  0.1337
 4535W        W 8279   2.021   3.254   1.970 -0.0685  0.1604 -0.1913
 4536W        W 8280   4.120   4.813  12.662 -0.1218 -0.0365 -0.0833
 4537W        W 8281   6.734   9.836   9.342  0.0934 -0.2954  0.0214
 4538W        W 8282   4.933   2.225  11.677  0.3241  0.1873 -0.1783
 4539W        W 8283   7.419   0.750   2.934 -0.0071  0.0957  0.1494
 4540W        W 8284   7.919   5.647   3.812 -0.2322  0.3312 -0.0902
 4541W        W 8285   8.842   3.056   1.015 -0.0234  0.0969 -0.4024
 4542W        W 8286   0.188   6.227  10.691 -0.2576 -0.1803  0.0023
 4543W        W 8287   7.011   1.904   1.674  0.1255 -0.2493 -0.0593
 4544W        W 8288   6.959   0.520  10.309 -0.2435  0.1164 -0.0329
 4545W        W 8289   1.411   1.869   0.704 -0.1700  0.2550  0.0188
 4546W        W 8290   1.884   9.640  12.669  0.0156  0.1814  0.4514
 4547W        W 8291   8.195   8.420  11.347 -0.2441  0.2038  0.0677
 4548W        W 8292   2.198   4.542   9.759 -0.1923  0.0576 -0.2134
 4549W        W 8293   5.234   2.725  11.671 -0.1315  0.1183  0.3079
 4550W        W 8294   0.985   5.597  11.928 -0.2610  0.1248 -0.0666
 4551W        W 8295   6.254   0.221  11.910 -0.0029  0.0036  0.2659
 4552W        W 8296   7.856   6.157   0.850 -0.1821 -0.1090  0.0919
 4553W        W 8297   0.449   1.367   0.775 -0.3072  0.0408 -0.1571
 4554W        W 8298   9.494   0.564   4.393 -0.1935  0.0345  0.0906
 4555W        W 8299   0.783   2.337  10.893  0.1796  0.1090  0.2486
 4556W        W 8300   8.142   7.866   2.246  0.0107  0.0213  0.0886
 4557W        W 8301   5.612   1.799   4.537 -0.0561  0.0232 -0.3560
 4558W        W 8302   0.614   5.483  12.225 -0.0692  0.0045 -0.0709
 4559W        W 8303   5.500   2.158   8.841 -0.1131 -0.1705  0.0644
 4560W        W 8304   0.262   1.694   9.201  0.0800 -0.4080 -0.1215
 4561W        W 8305   4.397   0.466   1.155 -0.0977 -0.3673  0.1189
 4562W        W 8306   3.358   8.960  10.718 -0.0161  0.0086  0.0582
 4563W        W 8307   5.434   3.022  11.993 -0.0050 -0.2577  0.0280
 4564W        W 8308   5.843   2.351   1.792 -0.1170  0.0650  0.0443
 4565W        W 8309   5.445   6.255   3.129 -0.1949  0.2786 -0.1604
 4566W        W 8310   2.677   6.520   0.965  0.0688 -0.1504  0.4458
 4567W        W 8311   8.243   9.435   1.245 -0.0707 -0.0666 -0.2478
 4568W        W 8312   2.824   7.496  11.536 -0.0306  0.0594 -0.1886
 4569W        W 8313   1.791   4.285  10.021 -0.1251  0.3643 -0.2071
 4570W        W 8314   2.141   1.121   2.673 -0.2879  0.0827 -0.1993
 4571W        W 8315   4.420   7.184   8.991  0.0630  0.0619 -0.1066
 4572W        W 8316   9.096   0.496   2.908 -0.4512  0.0361 -0.0058
 4573W        W 8317   4.961   1.133  10.422  0.0414 -0.1090 -0.1096
 4574W        W 8318   3.003   0.245  11.057 -0.1115 -0.0475  0.4597
 4575W        W 8319   5.520   1.748   3.242  0.0439  0.3444  0.0615
 4576W        W 8320   3.359   2.724  12.628 -0.1191  0.2883 -0.2017
 4577W        W 8321   8.342   5.120   9.390  0.1533  0.0139  0.1611
 4578W        W 8322   5.642   1.418   4.187  0.0861  0.1437 -0.0311
 4579W        W 8323   8.633   4.703   9.575  0.0905  0.1563  0.1795
 4580W        W 8324   9.608   3.349  12.095  0.2100 -0.0014 -0.2671
 4581W        W 8325   8.278   2.700   2.293  0.0841 -0.1632  0.1527
 4582W        W 8326   8.080   6.194   1.338  0.1383  0.1448 -0.5128
 4583W        W 8327   1.700   2.323  11.231  0.0118  0.0480 -0.1877
 4584W        W 8328   4.088   2.828   8.843  0.3035 -0.0076 -0.0836
 4585W        W 8329   3.407   3.318  11.812  0.0680 -0.0088 -0.0194
 4586W        W 8330   5.682   8.550   9.381  0.0020 -0.2545  0.1567
 4587W        W 8331   5.089   6.729   9.860  0.1833  0.2194 -0.0174
 4588W        W 8332   4.644   5.979   9.670  0.2237  0.0494 -0.2012
 4589W        W 8333   6.182   9.626  11.916  0.0940  0.2188  0.4322
 4590W        W 8334   7.907   6.444   2.641 -0.0721 -0.0364  0.2276
 4591W        W 8335   6.674   6.555   9.592 -0.0759  0.0610  0.2800
 4592W        W 8336   3.955   7.344   3.187  0.1496 -0.1208  0.0013
 4593W        W 8337   6.185   8.610   2.878 -0.1157  0.2629  0.2512
 4594W        W 8338   9.403   1.495  11.962 -0.1554  0.1427  0.1751
 4595W        W 8339   4.942   2.896  10.784  0.0780 -0.0540 -0.3262
 4596W        W 8340   3.445   8.186   3.476  0.2016  0.2282 -0.0772
 4597W        W 8341   6.897   3.780   1.926 -0.1081 -0.1987 -0.2003
 4598W        W 8342   0.805   2.890   9.702  0.2663  0.0751 -0.4051
 4599W        W 8343   3.206   7.636   9.618 -0.0168 -0.2248  0.1998
 4600W        W 8344   7.467   3.406  10.143 -0.0578 -0.0482 -0.2469
 4601W        W 8345   6.857   7.407   1.892  0.2754 -0.0016 -0.1034
 4602W        W 8346   5.188   0.394   3.234  0.1168 -0.0767  0.0806
 4603W        W 8347   0.028   3.270   9.521 -0.1775 -0.0150 -0.1628
 4604W        W 8348   4.348   3.724  11.658  0.1425  0.4067  0.0355
 4605W        W 8349   4.490   2.818   1.422  0.4097  0.2100 -0.3721
 4606W        W 8350   3.863   8.056  12.333 -0.0759  0.3026 -0.0667
 4607W        W 8351   6.461   6.820   0.953 -0.1179  0.2657  0.0890
 4608W        W 8352   7.078   8.924   2.322  0.2172 -0.1797  0.1112
 4609W        W 8353   8.806   2.944  10.884  0.1549 -0.1027  0.1265
 4610W        W 8354   2.459   5.388   1.774 -0.3082 -0.2362  0.1365
 4611W        W 8355   2.329   6.215  10.169 -0.1247  0.1414  0.0434
 4612W        W 8356   2.810   6.455  12.849 -0.0490  0.2271 -0.2539
 4613W        W 8357   9.755   3.321  10.026 -0.0350  0.1627 -0.1428
 4614W        W 8358   9.683   0.152   9.913 -0.1690 -0.0558  0.4116
 4615W        W 8359   3.896   4.837   0.959 -0.4091 -0.4283 -0.0183
 4616W        W 8360   2.208   4.130   1.307  0.0023  0.1678  0.1615
 4617W        W 8361   1.659   9.813   2.834  0.2784 -0.1021  0.0906
 4618W        W 8362   5.749   5.254   2.857 -0.1576 -0.0390  0.0665
 4619W        W 8363   3.634   3.401   3.575 -0.0720  0.0202  0.1159
 4620W        W 8364   2.942   0.849   9.424  0.0243 -0.0145 -0.2334
 4621W        W 8365   3.430   3.651  10.867 -0.0419  0.1513 -0.1248
 4622W        W 8366   0.603   9.470  10.028 -0.0822 -0.1843 -0.3066
 4623W        W 8367   5.195   4.682  10.958 -0.1036 -0.3289 -0.0571
 4624W        W 8368   7.732   2.988  10.067  0.1169  0.0022  0.0273
 4625W        W 8369   7.967   0.606   1.338 -0.1544  0.3026  0.1573
 4626W        W 8370   5.544   4.259   1.537  0.1972 -0.0094  0.0945
 4627W        W 8371   2.689   8.025   9.091 -0.1756  0.0211  0.1112
 4628W        W 8372   9.663   9.681   1.134  0.0898 -0.2759  0.4392
 4629W        W 8373   8.430   6.741   9.822  0.0829  0.0038  0.1887
 4630W        W 8374   3.772   4.019  11.001 -0.0581  0.3234 -0.3902
 4631W        W 8375   1.635   1.086   1.684 -0.2634  0.3736  0.0383
 4632W        W 8376   2.422   0.034   4.706 -0.0397  0.0554  0.0206
 4633W        W 8377   4.547   6.113   3.035 -0.2612 -0.1522  0.2782
 4634W        W 8378   4.468   5.924  11.054  0.0352 -0.0672  0.0349
 4635W        W 8379   3.550   1.540  11.215 -0.1157  0.1552  0.3004
 4636W        W 8380   4.166   9.061  11.293 -0.1424  0.0468  0.3508
 4637W        W 8381   8.761   1.664   0.790 -0.0810  0.0127  0.2248
 4638W        W 8382   6.406   8.596  10.620 -0.0913  0.1031 -0.1021
 4639W        W 8383   4.949   4.371   0.288  0.0659 -0.0282 -0.0428
 4640W        W 8384   8.700   9.016  12.135 -0.0116 -0.4312  0.0043
 4641W        W 8385   5.408   4.987   1.093  0.4210 -0.0389 -0.0599
 4642W        W 8386   9.625   8.865  10.600 -0.2299  0.2347  0.1069
 4643W        W 8387   9.338   5.128   0.506  0.0519  0.4162  0.0024
 4644W        W 8388   7.617   5.675   0.802 -0.0884 -0.1510 -0.1330
 4645W        W 8389   2.577   2.209   9.206 -0.3899 -0.0868  0.0778
 4646W        W 8390   3.829   2.735  12.374 -0.0931 -0.1178 -0.4612
 4647W        W 8391   1.885   7.933  12.610 -0.0413 -0.1832 -0.0294
 4648W        W 8392   5.089   8.273  12.143  0.1942  0.0838  0.2395
 4649W        W 8393   4.512   0.883   1.364 -0.2679  0.3870 -0.3309
 4650W        W 8394   5.482   3.808   2.623 -0.2138 -0.0602  0.2072
 4651W        W 8395   7.327   9.834   3.267  0.0163 -0.0773 -0.0935
 4652W        W 8396   5.353   9.336   1.044  0.2425 -0.2460  0.0121
 4653W        W 8397   1.252   2.160   3.269  0.0880  0.1754  0.0445
 4654W        W 8398   7.845   6.980   1.935  0.0347  0.2108  0.0048
 4655W        W 8399   0.996   8.629  10.994  0.2408  0.0619  0.3072
 4656W        W 8400   4.541   3.098   8.874 -0.0018  0.0891  0.2009
 4657W        W 8401   7.852   2.649   4.395  0.0448 -0.0784 -0.0438
 4658W        W 8402   8.264   4.095  12.220  0.4405 -0.0246 -0.2616
 4659W        W 8403   4.691   4.104   2.581 -0.1957 -0.1485 -0.0924
 4660W        W 8404   8.482   5.637   2.260  0.0512  0.0106 -0.0264
 4661W        W 8405   1.758   5.520   8.950  0.3139 -0.0591  0.0313
 4662W        W 8406   2.047   7.681  11.429  0.2042  0.0677 -0.0552
 4663W        W 8407   9.467   3.557   0.670  0.1178 -0.1216  0.0410
 4664W        W 8408   9.097   7.474   9.101  0.1843  0.0753  0.3927
 4665W        W 8409   7.657   1.929   2.285  0.2742  0.0128  0.3080
 4666W        W 8410   0.013   9.721   3.698 -0.2340  0.2120 -0.3869
 4667W        W 8411   7.381   8.820  11.690  0.0170 -0.0417  0.0306
 4668W        W 8412   7.893   0.827   9.079  0.1298 -0.1431 -0.0132
 4669W        W 8413   8.630   4.306  10.333  0.0934 -0.1544  0.0045
 4670W        W 8414   5.040   1.134   2.635  0.2830  0.2877 -0.1078
 4671W        W 8415   7.597   5.888   2.382 -0.0685  0.2255 -0.0328
 4672W        W 8416   5.735   9.151   9.632  0.0592  0.0426 -0.1411
 4673W        W 8417   5.440   0.531   2.704 -0.2140 -0.2853 -0.0317
 4674W        W 8418   2.410   3.467   0.105 -0.3397  0.1786  0.0746
 4675W        W 8419   5.431   1.684   3.727 -0.1406 -0.4846 -0.1327
 4676W        W 8420   5.621   3.569  10.658 -0.0858  0.2534  0.0920
 4677W        W 8421   5.594   6.329   8.469  0.1121  0.0861 -0.2287
 4678W        W 8422   0.884   2.412   2.209 -0.2294  0.1542 -0.1486
 4679W        W 8423   8.709   1.182   8.617  0.0613  0.1006 -0.2984
 4680W        W 8424   3.695   2.706   1.897  0.0808  0.2013 -0.0794
 4681W        W 8425   2.231   2.344   4.927 -0.0432 -0.1099 -0.3675
 4682W        W 8426   0.812   0.791  11.908 -0.1259 -0.1930 -0.3484
 4683W        W 8427   6.562   5.518   4.069 -0.2884  0.0866  0.1460
 4684W        W 8428   9.078   0.873  11.549  0.0871 -0.1117  0.1211
 4685W        W 8429   9.508   8.297   1.787 -0.0946 -0.1449 -0.0592
 4686W        W 8430   5.442   3.565   3.064  0.0806  0.1685  0.0434
 4687W        W 8431   1.893   1.753   9.675  0.0532 -0.1627 -0.0034
 4688W        W 8432   8.960   7.646  12.431 -0.0860 -0.2401 -0.1375
 4689W        W 8433   6.765   5.042   1.031 -0.1840 -0.3316  0.1040
 4690W        W 8434   0.112   0.619  12.512  0.2435  0.2021 -0.0134
 4691W        W 8435   9.093   5.819   2.374 -0.2103  0.4039  0.2859
 4692W        W 8436   8.632   4.646   0.156  0.0391  0.0738  0.0375
 4693W        W 8437   0.923   5.379   0.429  0.0730 -0.1200  0.0974
 4694W        W 8438   9.271   3.250  12.524 -0.2868 -0.0594 -0.4181
 4695W        W 8439   2.382   6.633  10.611  0.0788  0.1863  0.0366
 4696W        W 8440   9.349   5.633   0.722  0.2177  0.1335 -0.2857
 4697W        W 8441   5.986   6.156   9.851 -0.0014 -0.2450  0.0928
 4698W        W 8442   6.637   9.729  10.925 -0.2061  0.0175  0.2606
 4699W        W 8443   1.193   5.579   3.702 -0.0661 -0.3120 -0.1817
 4700W        W 8444   5.935   5.707   2.651 -0.5574 -0.2185  0.1397
 4701W        W 8445   3.723   3.152   2.585 -0.1393  0.2272 -0.3657
 4702W        W 8446   6.821   9.656   2.287 -0.0614  0.1055 -0.0304
 4703W        W 8447   2.657   4.264   9.533 -0.0693  0.0343 -0.1321
 4704W        W 8448   4.277   3.002   9.287  0.1225 -0.0333  0.0909
 4705W        W 8449   8.868   3.426   3.282 -0.0871  0.4135 -0.0998
 4706W        W 8450   6.184   4.581  12.622 -0.1312  0.2255 -0.1225
 4707W        W 8451   8.995   2.012   8.715  0.0990  0.5082  0.1292
 4708W        W 8452   2.307   8.794   3.069 -0.0686  0.0417  0.1052
 4709W        W 8453   6.953   5.055   2.430 -0.1498  0.2557 -0.0144
 4710W        W 8454   5.627   4.291  12.069  0.2261 -0.1545  0.0982
 4711W        W 8455   1.895   4.924  11.047 -0.1481 -0.2362  0.0260
 4712W        W 8456   4.773   6.423   1.867 -0.1925  0.0273  0.0262
 4713W        W 8457   2.309   8.070   9.632  0.0902 -0.2438 -0.1330
 4714W        W 8458   8.347   8.320   1.143 -0.1112  0.2571 -0.2021
 4715W        W 8459   8.202   3.063   0.992  0.1695 -0.2319 -0.1490
 4716W        W 8460   0.393   1.772   2.432  0.0859 -0.2692  0.1392
 4717W        W 8461   2.165   0.887  10.894 -0.0211 -0.2399  0.3441
 4718W        W 8462   3.393   2.839   2.318 -0.2836  0.0016 -0.1851
 4719W        W 8463   5.718   3.319   1.902 -0.2409 -0.0055  0.0949
 4720W        W 8464   5.417   6.904  10.480  0.0681 -0.0075 -0.1181
 4721W        W 8465   6.519   0.678   9.686  0.1202  0.0378 -0.0958
 4722W        W 8466   3.038   5.084   3.731  0.1239 -0.0435 -0.0836
 4723W        W 8467   0.713   8.625  10.580  0.1000  0.2006 -0.6093
 4724W        W 8468   7.622   7.079  10.471 -0.2436  0.2447 -0.1589
 4725W        W 8469   0.521   9.784   0.058  0.0011  0.0433  0.3054
 4726W        W 8470   6.195   5.781  10.839  0.1689  0.3149  0.0628
 4727W        W 8471   6.028   8.604   3.335  0.0662 -0.0521 -0.1223
 4728W        W 8472   0.180   2.305   2.621  0.2001 -0.0805  0.2758
 4729W        W 8473   4.417   2.458   3.187 -0.3133 -0.0253 -0.2701
 4730W        W 8474   4.262   5.619  11.952  0.1349  0.0644 -0.0404
 4731W        W 8475   8.607   2.052   9.940  0.1071  0.0388  0.0821
 4732W        W 8476   2.196   5.881   1.986 -0.1516  0.1604  0.2873
 4733W        W 8477   5.538   5.776   1.447  0.2135  0.2711  0.1125
 4734W        W 8478   1.755   4.729   9.776 -0.2627  0.0587 -0.0532
 4735W        W 8479   3.271   0.149   0.271  0.0779 -0.4263  0.1764
 4736W        W 8480   5.595   6.820  12.644 -0.1347  0.1395 -0.1259
 4737W        W 8481   9.611   4.848   9.270 -0.0617  0.0754 -0.0676
 4738W        W 8482   2.385   8.805   9.190  0.0414  0.3364  0.0129
 4739W        W 8483   6.236   2.648   1.557  0.3962  0.0583 -0.0642
 4740W        W 8484   7.794   3.174   8.656  0.1677 -0.0916  0.0864
 4741W        W 8485   1.722   5.953   0.244  0.4596 -0.0790 -0.0185
 4742W        W 8486   3.895   4.272   3.908 -0.1002  0.1169  0.2169
 4743W        W 8487   1.940   3.409  12.754  0.0994 -0.0819  0.0005
 4744W        W 8488   2.546   7.406   2.047 -0.0411  0.1570  0.2406
 4745W        W 8489   7.534   2.074   3.680 -0.0762  0.0501  0.1336
 4746W        W 8490   0.531   2.475   9.112 -0.2121 -0.3159 -0.0925
 4747W        W 8491   2.181   3.996  10.138 -0.2591  0.1471 -0.2023
 4748W        W 8492   4.722   6.591  12.716 -0.4310  0.0675  0.0395
 4749W        W 8493   7.465   4.348   1.530 -0.0916  0.0018 -0.1081
 4750W        W 8494   6.845   4.986  10.417  0.1537  0.0449 -0.1113
 4751W        W 8495   3.470   2.377   0.183  0.1293  0.1417 -0.1970
 4752W        W 8496   7.335   3.166  11.811  0.1766 -0.0025  0.0923
 4753W        W 8497   7.688   4.660  10.943 -0.2859  0.0287  0.0307
 4754W        W 8498   8.986   1.186   2.329  0.1525  0.4425 -0.1907
 4755W        W 8499   9.232   1.365   9.496  0.0430  0.0360  0.0105
 4756W        W 8500   2.817   1.761   0.552 -0.0393  0.0322 -0.1337
 4757W        W 8501   4.535   4.123  11.983  0.2660  0.1336  0.2312
 4758W        W 8502   5.325   7.180   1.724 -0.2017  0.2630  0.3284
 4759W        W 8503   8.606   5.907  12.047  0.2845  0.0869 -0.1951
 4760W        W 8504   6.583   6.364   9.151 -0.2096 -0.1505 -0.1512
 4761W        W 8505   0.860   9.469   8.696  0.0571  0.2456  0.2658
 4762W        W 8506   5.067   7.149  11.237 -0.0716 -0.1356 -0.1001
 4763W        W 8507   7.440   5.438   3.594  0.2882  0.0226  0.0662
 4764W        W 8508   7.385   8.992   0.954  0.2227 -0.0754 -0.2697
 4765W        W 8509   3.513   4.170   0.008 -0.0328 -0.1988 -0.0236
 4766W        W 8510   6.982   5.348   1.394  0.0638  0.0667 -0.1930
 4767W        W 8511   8.729   9.188  10.385 -0.3489  0.1796  0.2946
 4768W        W 8512   7.671   4.642   1.887 -0.1542  0.0599 -0.1129
 4769W        W 8513   8.605   1.071   3.557  0.0374  0.0174 -0.0185
 4770W        W 8514   5.522   9.031   3.443 -0.1119  0.0666  0.0533
 4771W        W 8515   0.578   4.776  11.574  0.3453 -0.2573 -0.2111
 4772W        W 8516   7.885   9.557   1.649 -0.1571 -0.0531 -0.1780
 4773W        W 8517   8.498   3.083   2.562  0.3143  0.1086 -0.0184
 4774W        W 8518   8.558   3.466   2.861  0.0039 -0.0521  0.1940
 4775W        W 8519   1.067   7.690   2.668 -0.0793  0.0622  0.0556
 4776W        W 8520   5.943   3.318   1.357  0.0458  0.1086  0.0765
 4777W        W 8521   4.491   4.667  10.161 -0.0735  0.4241  0.3818
 4778W        W 8522   0.184   4.072   8.891  0.3810  0.1389  0.1878
 4779W        W 8523   8.845   9.752   0.778 -0.2635 -0.2038 -0.0413
 4780W        W 8524   5.125   9.130   3.057  0.1404  0.0578  0.1149
 4781W        W 8525   4.544   5.296   1.475 -0.0268 -0.0206 -0.0856
 4782W        W 8526   8.975   9.374   3.545  0.4342 -0.1348  0.0411
 4783W        W 8527   2.243   9.385   0.821 -0.0587  0.1106 -0.0138
 4784W        W 8528   6.518   7.499   0.085  0.0246  0.0963 -0.0824
 4785W        W 8529   9.763   0.910  10.848 -0.0160 -0.1619 -0.1126
 4786W        W 8530   3.132   0.525   3.707  0.3306  0.1755 -0.0591
 4787W        W 8531   7.697   7.575   0.633  0.1645  0.3141 -0.0164
 4788W        W 8532   9.253   6.173  10.273  0.1533  0.0213  0.0301
 4789W        W 8533   7.194   5.034  11.831  0.1948  0.1474  0.1868
 4790W        W 8534   9.843   1.046   2.016  0.0593 -0.1292 -0.0760
 4791W        W 8535   3.410   8.519   9.995 -0.0073 -0.2113 -0.1954
 4792W        W 8536   3.663   5.346   8.934 -0.3163  0.1269 -0.2400
 4793W        W 8537   8.334   0.201   9.155  0.3413 -0.1022 -0.3696
 4794W        W 8538   2.777   0.618  10.782  0.1056  0.1467  0.3387
 4795W        W 8539   9.617   4.823   0.231 -0.0805  0.0466 -0.1961
 4796W        W 8540   9.616   9.259   1.451 -0.2688 -0.0625 -0.1188
 4797W        W 8541   9.130   8.788   3.916  0.3649  0.1662  0.4150
 4798W        W 8542   6.870   9.522  10.500 -0.0116 -0.1547  0.0064
 4799W        W 8543   7.817   2.426   8.607 -0.3254 -0.0515 -0.1451
 4800W        W 8544   5.762   9.453  10.956  0.0454  0.0809 -0.0302
 4801W        W 8545   1.624   6.514   2.642 -0.1500 -0.4063 -0.1243
 4802W        W 8546   3.460   8.895   0.635 -0.0438  0.1474  0.2306
 4803W        W 8547   0.860   4.470  11.959 -0.0446 -0.1143  0.0027
 4804W        W 8548   6.164   4.764   2.744 -0.1438 -0.0331  0.1467
 4805W        W 8549   0.321   8.485  10.142 -0.2421 -0.1869 -0.1496
 4806W        W 8550   2.047   9.627   2.495  0.0492 -0.1142 -0.2779
 4807W        W 8551   2.538   7.392   1.123 -0.1506 -0.1673  0.1742
 4808W        W 8552   1.388   4.143   9.747 -0.0977  0.1967  0.0374
 4809W        W 8553   1.076   1.765   9.530 -0.0161 -0.1594  0.1692
 4810W        W 8554   8.727   2.291  10.599 -0.2862 -0.0505 -0.0384
 4811W        W 8555   8.283   7.887   3.317  0.1391  0.1283  0.2928
 4812W        W 8556   5.283   3.494   2.254  0.1271 -0.0367 -0.0520
 4813W        W 8557   7.754   0.714   2.384  0.0650  0.0737 -0.0799
 4814W        W 8558   6.550   0.858  10.155  0.0643  0.1679 -0.1572
 4815W        W 8559   8.990   7.051   9.333 -0.2908  0.2565  0.1968
 4816W        W 8560   7.984   8.807  11.005 -0.0412  0.3914  0.1900
 4817W        W 8561   6.171   0.299   8.564 -0.0755 -0.1374  0.1072
 4818W        W 8562   1.745   5.804   9.949 -0.0628  0.0282 -0.0674
 4819W        W 8563   3.071   4.461  11.114  0.1722  0.0783 -0.1689
 4820W        W 8564   3.642   7.834  11.219 -0.0450 -0.1537  0.2310
 4821W        W 8565   0.609   1.087   3.804  0.0549 -0.0389  0.2099
 4822W        W 8566   8.351   5.553   1.683  0.0754  0.0691  0.0455
 4823W        W 8567   3.248   5.495   3.471  0.4611 -0.2428  0.2766
 4824W        W 8568   7.135   3.535  11.388  0.1700 -0.0556  0.1127
 4825W        W 8569   5.797   9.112  12.642  0.1804  0.1566  0.1574
 4826W        W 8570   6.034   0.491   3.998 -0.1978  0.0735  0.0516
 4827W        W 8571   4.356   4.597  10.672 -0.4064 -0.0543  0.0072
 4828W        W 8572   5.587   9.142   0.247  0.1023  0.1444 -0.1488
 4829W        W 8573   0.919   5.809   1.423 -0.0230  0.3724  0.0482
 4830W        W 8574   5.322   9.822   8.766  0.1814 -0.1682  0.0407
 4831W        W 8575   0.117   1.740  12.521  0.0721  0.1281 -0.0035
 4832W        W 8576   2.588   5.992   1.702 -0.0685 -0.0250 -0.2882
 4833W        W 8577   2.231   7.737   2.465  0.0425 -0.0989  0.2395
 4834W        W 8578   2.590   0.179   2.309 -0.1414 -0.1090 -0.1814
 4835W        W 8579   3.263   8.850   0.167  0.0369  0.1809  0.1567
 4836W        W 8580   5.368   0.770   1.330  0.2195 -0.0102  0.1064
 4837W        W 8581   6.907   0.810   4.678  0.2781 -0.0792 -0.0386
 4838W        W 8582   3.744   0.145   1.504  0.1193  0.1910  0.1692
 4839W        W 8583   5.440   8.662   2.945 -0.0053 -0.4959 -0.0019
 4840W        W 8584   6.036   4.778  11.135  0.0332  0.4048 -0.0274
 4841W        W 8585   7.839   8.841   2.346  0.2931 -0.6235 -0.0649
 4842W        W 8586   4.696   3.318   9.268 -0.1181  0.2438  0.0485
 4843W        W 8587   2.404   8.596   9.676  0.2384 -0.1349  0.2028
 4844W        W 8588   0.765   9.214  12.278  0.0322  0.0719  0.3573
 4845W        W 8589   3.684   5.921   2.224  0.0088 -0.0743 -0.0015
 4846W        W 8590   1.797   6.654  12.605  0.2625 -0.2904 -0.2701
 4847W        W 8591   5.426   3.713   3.819  0.0226  0.2509  0.0329
 4848W        W 8592   2.809   6.104  10.386  0.3125 -0.1997 -0.2217
 4849W        W 8593   6.431   2.223  11.780  0.2815  0.0396  0.0244
 4850W        W 8594   1.940   0.544   3.426  0.2281 -0.0807 -0.0564
 4851W        W 8595   2.758   2.426   2.220  0.0450  0.0695  0.0893
 4852W        W 8596   8.018   3.435  10.265  0.0689 -0.0148  0.2719
 4853W        W 8597   5.223   0.312   1.088 -0.4269  0.1293 -0.0445
 4854W        W 8598   8.450   3.719   1.444  0.1524  0.2061  0.0831
 4855W        W 8599   0.401   4.611   9.017 -0.1553  0.1331 -0.0245
 4856W        W 8600   8.694   9.925   1.335 -0.1698 -0.1503  0.1441
 4857W        W 8601   5.986   8.718   9.788  0.0486 -0.1199 -0.0545
 4858W        W 8602   3.213   9.752   0.667  0.1058  0.0320  0.1879
 4859W        W 8603   3.302   7.947   0.121 -0.3360  0.1782 -0.3853
 4860W        W 8604   6.778   8.367  11.182 -0.0485 -0.2032 -0.0777
 4861W        W 8605   3.916   4.038   9.261 -0.1304 -0.4037 -0.1148
 4862W        W 8606   8.064   3.422   2.854 -0.3148  0.1402 -0.3033
 4863W        W 8607   1.894   8.760   1.271 -0.0051  0.4088 -0.0147
 4864W        W 8608   3.135   4.586   0.077  0.1348  0.0860  0.0098
 4865W        W 8609   5.522   2.056  12.825  0.2887  0.1407 -0.0272
 4866W        W 8610   5.960   3.254  11.975 -0.1884 -0.2599  0.0969
 4867W        W 8611   1.111   3.108   9.260 -0.0668  0.4717 -0.4328
 4868W        W 8612   9.936   1.454   0.800  0.0944  0.0402  0.0714
 4869W        W 8613   3.940   6.482   0.059  0.0345 -0.1672  0.1310
 4870W        W 8614   2.612   9.479  11.892  0.2845  0.1149  0.0388
 4871W        W 8615   6.264   0.903  10.634  0.0152  0.0076 -0.1490
 4872W        W 8616   5.134   9.425   0.517  0.0044 -0.2533  0.0518
 4873W        W 8617   5.731   8.965   8.498  0.0169 -0.0682  0.0827
 4874W        W 8618   1.262   2.238   3.941  0.0742  0.1667  0.2775
 4875W        W 8619   8.105   3.317   0.325  0.0708 -0.2117 -0.1181
 4876W        W 8620   2.130   0.844   0.290 -0.0242 -0.0359 -0.0081
 4877W        W 8621   7.075   2.380  12.340  0.0883 -0.2750 -0.2806
 4878W        W 8622   2.803   2.976  10.067  0.0699  0.0285  0.0734
 4879W        W 8623   1.302   2.683   1.166  0.0946  0.1780  0.1144
 4880W        W 8624   8.188   1.612   9.560 -0.1581 -0.2409 -0.2345
 4881W        W 8625   0.757   6.069  10.077  0.0410 -0.1485  0.2878
 4882W        W 8626   1.654   3.797   0.003 -0.0447 -0.1270  0.0456
 4883W        W 8627   3.378   5.051   0.109  0.5371 -0.2628  0.0101
 4884W        W 8628   7.739   4.247  12.332 -0.1505 -0.2746  0.1532
 4885W        W 8629   3.676   6.820  11.832  0.0143 -0.3382  0.0669
 4886W        W 8630   9.144   6.397  12.044  0.1520 -0.0917 -0.0386
 4887W        W 8631   1.578   0.413   0.928 -0.0082  0.4914 -0.4327
 4888W        W 8632   8.169   7.970   0.771 -0.2155  0.0602 -0.4585
 4889W        W 8633   2.933   4.858   3.003 -0.2856  0.2337 -0.0605
 4890W        W 8634   2.123   8.330  10.040 -0.2552  0.0195  0.0547
 4891W        W 8635   7.474   6.529  10.780  0.0136  0.0985 -0.1900
 4892W        W 8636   7.561   3.796   3.532  0.1823 -0.3090  0.3093
 4893W        W 8637   0.936   7.174  10.796 -0.0373 -0.1811 -0.1624
 4894W        W 8638   3.691   5.694   9.839  0.0394  0.1570  0.5860
 4895W        W 8639   2.068   0.173   2.721 -0.1186 -0.0570  0.0322
 4896W        W 8640   6.665   8.919  11.982  0.2021 -0.0386 -0.1692
 4897W        W 8641   6.720   7.675   0.636  0.2253  0.1642  0.2357
 4898W        W 8642   4.034   4.743   0.341 -0.0532  0.1476 -0.0045
 4899W        W 8643   7.006   4.871   0.116  0.2572 -0.1518  0.0826
 4900W        W 8644   1.441   3.316   3.557 -0.2199  0.0482 -0.1816
 4901W        W 8645   3.926   4.441  11.756 -0.0730 -0.1205 -0.0145
 4902W        W 8646   3.799   5.842   3.725 -0.0923 -0.3084  0.5365
 4903W        W 8647   7.644   0.685  12.558  0.0285  0.0488  0.0641
 4904W        W 8648   3.988   5.916  10.956  0.3522  0.1275  0.1023
 4905W        W 8649   1.771   7.551  10.400 -0.0907 -0.4017 -0.0688
 4906W        W 8650   3.978   3.084   4.285 -0.2552  0.2571 -0.4247
 4907W        W 8651   1.358   4.686  10.749 -0.1844  0.0921 -0.1087
 4908W        W 8652   5.894   0.074  12.360 -0.0177  0.1017  0.0084
 4909W        W 8653   3.762   3.226  10.913 -0.1593  0.1252  0.0209
 4910W        W 8654   2.742   9.910   0.813  0.0493 -0.1691  0.4168
 4911W        W 8655   5.023   3.314   9.960  0.1202  0.0338  0.0833
 4912W        W 8656   9.389   4.575   7.937  0.3106  0.1051  0.2132
 4913W        W 8657   0.748   5.068  11.179  0.1489  0.1333  0.0567
 4914W        W 8658   2.259   2.973  10.171  0.1236 -0.1549 -0.1023
 4915W        W 8659   8.595   0.140   8.710  0.0473 -0.0411  0.3737
 4916W        W 8660   8.404   2.398  12.421 -0.0103  0.2318  0.0785
 4917W        W 8661   3.322   4.173   0.754 -0.0149  0.1058 -0.0453
 4918W        W 8662   1.739   5.094  11.515 -0.0223  0.2151  0.0212
 4919W        W 8663   3.964   8.336   1.530  0.1752 -0.1366  0.0067
 4920W        W 8664   5.712   1.415   1.814 -0.1623  0.3115  0.0255
 4921W        W 8665   2.680   8.637   1.504  0.1992  0.3821  0.0161
 4922W        W 8666   0.600   5.888  10.754 -0.0891  0.0256  0.0964
 4923W        W 8667   4.290   0.308   3.894 -0.1646 -0.3670  0.0109
 4924W        W 8668   2.754   1.175   3.253 -0.1622 -0.3268  0.1947
 4925W        W 8669   7.218   3.013   9.942  0.1405  0.2283  0.0378
 4926W        W 8670   6.659   9.470   4.330  0.0488 -0.0526  0.2023
 4927W        W 8671   1.148   4.047   2.951  0.0067  0.4172  0.2225
 4928W        W 8672   3.004   6.277  11.846  0.0236  0.0816 -0.1343
 4929W        W 8673   3.197   1.661  12.631 -0.0613  0.3027  0.0953
 4930W        W 8674   2.292   4.026   8.696 -0.1162 -0.0531 -0.3140
 4931W        W 8675   5.805   0.540   2.258  0.1888  0.2627 -0.0267
 4932W        W 8676   0.955   4.585   3.408 -0.3147 -0.0472  0.1073
 4933W        W 8677   0.903   8.429  12.749  0.1459  0.1122 -0.0179
 4934W        W 8678   4.189   9.749   0.417 -0.0288  0.0620  0.1686
 4935W        W 8679   9.150   4.193  10.241  0.0062 -0.0965 -0.3171
 4936W        W 8680   3.240   0.051   2.413 -0.0293  0.0182  0.1936
 4937W        W 8681   0.961   1.016   2.738  0.0526  0.0015 -0.2042
 4938W        W 8682   8.699   3.860   1.860  0.0275  0.2444 -0.0557
 4939W        W 8683   2.305   0.735   4.013  0.0383 -0.3242 -0.0063
 4940W        W 8684   7.947   4.399   0.719  0.1337  0.5054 -0.1083
 4941W        W 8685   8.053   1.454  10.683 -0.1267 -0.1293  0.2054
 4942W        W 8686   5.381   9.828   3.379 -0.1322  0.2417 -0.2687
 4943W        W 8687   5.768   4.475   4.160 -0.0411 -0.0119 -0.0618
 4944W        W 8688   9.464   5.927  10.692  0.5697 -0.2262  0.3346
 4945W        W 8689   4.690   8.559   2.321  0.2318  0.0454  0.0543
 4946W        W 8690   3.959   3.856  12.719  0.0625  0.0042 -0.1516
 4947W        W 8691   1.548   9.574  10.337  0.1506  0.1721  0.2645
 4948W        W 8692   8.208   5.248   1.330  0.2001  0.2200 -0.0543
 4949W        W 8693   2.644   0.815  12.143  0.1427  0.0915  0.0589
 4950W        W 8694   8.001   4.931   3.069  0.3440 -0.0782 -0.0859
 4951W        W 8695   9.558   6.051   0.653  0.1044 -0.1539 -0.1230
 4952W        W 8696   2.753   6.770   8.456  0.0565  0.0005 -0.0650
 4953W        W 8697   7.786   3.516  12.504  0.3962 -0.1856  0.0313
 4954W        W 8698   6.942   3.558  11.923  0.0784  0.2435  0.0258
 4955W        W 8699   2.552   2.314   0.624  0.1287  0.0396 -0.1658
 4956W        W 8700   3.269   6.687   0.854  0.1884 -0.1525  0.1857
 4957W        W 8701   5.878   0.710   3.493 -0.1157 -0.1499 -0.2405
 4958W        W 8702   8.120   2.258   2.637 -0.1275 -0.2476 -0.2567
 4959W        W 8703   8.874   9.129   1.587 -0.1656 -0.2412 -0.3254
 4960W        W 8704   9.461   1.098  11.668  0.0682 -0.2469 -0.4218
 4961W        W 8705   6.326   7.225  11.179  0.0998  0.1355  0.0315
 4962W        W 8706   1.107   3.260  10.820  0.0269  0.1613 -0.1356
 4963W        W 8707   8.795   7.942  11.796  0.1115 -0.0804  0.4531
 4964W        W 8708   1.674   7.939   0.229 -0.2407 -0.0502  0.2546
 4965W        W 8709   9.535   5.034   1.558  0.0882 -0.0157  0.1302
 4966W        W 8710   0.683   0.334  10.876 -0.0868  0.0228  0.1114
 4967W        W 8711   6.519   7.555  11.542  0.1071  0.0253  0.0433
 4968W        W 8712   0.126   5.115   7.998  0.2026  0.3693  0.1923
 4969W        W 8713   3.914   4.424   9.692 -0.1688 -0.3068 -0.0397
 4970W        W 8714   0.512   2.135  11.266  0.2132 -0.2726 -0.1633
 4971W        W 8715   7.078   6.158   0.344 -0.1672 -0.1203 -0.0288
 4972W        W 8716   4.666   9.478   2.068  0.1520 -0.0995 -0.0997
 4973W        W 8717   4.746   9.914  11.055  0.0994 -0.2388  0.3044
 4974W        W 8718   7.281   2.309   0.512 -0.3544 -0.2363 -0.3917
 4975W        W 8719   1.952   5.394  11.929 -0.0766 -0.0233  0.1079
 4976W        W 8720   7.765   4.166   3.999  0.0772  0.0294  0.3251
 4977W        W 8721   5.305   8.711  12.040  0.0062  0.0812  0.0077
 4978W        W 8722   7.125   4.447  12.807  0.0788  0.1081  0.0240
 4979W        W 8723   2.976   3.586  10.625 -0.0822 -0.3025  0.0737
 4980W        W 8724   8.102   5.297   3.434  0.2078 -0.0999 -0.0979
 4981W        W 8725   1.085   2.920  12.025 -0.0463  0.1634 -0.0634
 4982W        W 8726   0.521   3.707   9.013  0.0503  0.0577 -0.2100
 4983W        W 8727   2.248   6.697  12.371 -0.3086 -0.3344 -0.1622
 4984W        W 8728   7.059   5.703   2.389 -0.3232  0.1980 -0.0357
 4985W        W 8729   7.542   1.577  10.847  0.1260  0.1672 -0.0298
 4986W        W 8730   2.973   0.787  10.307 -0.1657 -0.0381 -0.2344
 4987W        W 8731   8.959   8.979  10.770 -0.0245 -0.4252  0.1150
 4988W        W 8732   0.690   0.698   9.893  0.0796  0.0911 -0.0474
 4989W        W 8733   4.662   4.727   1.293  0.0975  0.2609  0.2010
 4990W        W 8734   3.679   7.245  11.206  0.0527  0.0410  0.3041
 4991W        W 8735   5.493   9.830   1.875  0.1219  0.2699  0.0122
 4992W        W 8736   3.876   9.375   8.690 -0.0819  0.4298  0.0059
 4993W        W 8737   1.352   9.480   9.320 -0.4152  0.0852 -0.0588
 4994W        W 8738   1.823   6.825  11.823  0.1216  0.0662  0.1879
 4995W        W 8739   6.374   5.415   3.610 -0.2850  0.0646  0.1176
 4996W        W 8740   0.948   2.731  10.651 -0.0174  0.1502 -0.1064
 4997W        W 8741   6.596   0.784   1.289 -0.2084 -0.1942 -0.0261
 4998W        W 8742   2.647   4.962  10.283  0.0954  0.2310  0.0088
 4999W        W 8743   6.021   4.280   2.817 -0.0929 -0.3461  0.1551
 5000W        W 8744   3.273   6.661   8.509  0.1479  0.1154  0.0236
 5001W        W 8745   2.231   5.752   9.190  0.3535  0.2085 -0.1659
 5002W        W 8746   5.851   3.831  11.947  0.0563  0.0458  0.0041
 5003W        W 8747   8.815   0.326   0.944 -0.2475  0.0505 -0.3339
 5004W        W 8748   5.085   9.792   0.917  0.1116 -0.3405 -0.0095
 5005W        W 8749   2.821   1.381   3.705 -0.2874 -0.3002  0.3943
 5006W        W 8750   7.456   2.874  10.483 -0.1110  0.3277 -0.1686
 5007W        W 8751   0.014   3.668   4.465  0.0030  0.0444 -0.2452
 5008W        W 8752   6.133   8.956  10.361 -0.1507  0.1222  0.0267
 5009W        W 8753   2.465   9.453   8.712 -0.0619  0.3556 -0.2437
 5010W        W 8754   3.263   2.303   2.896 -0.3613  0.1762  0.0581
 5011W        W 8755   2.127   6.353  11.619  0.4812  0.2891  0.1744
 5012W        W 8756   3.558   4.947   8.077 -0.2231 -0.1439 -0.3548
 5013W        W 8757   8.591   3.844   0.653  0.1806  0.0292 -0.1239
 5014W        W 8758   0.680   8.879   9.427  0.2105 -0.3349  0.0603
 5015W        W 8759   8.524   7.694  10.509  0.1781  0.0933 -0.1913
 5016W        W 8760   2.818   4.243   0.388 -0.0644  0.2731 -0.2826
 5017W        W 8761   9.893   7.754   1.211 -0.1458  0.3812 -0.0022
 5018W        W 8762   9.323   6.916   0.783  0.0128 -0.0865  0.0429
 5019W        W 8763   0.664   2.787  10.248 -0.0405  0.0403 -0.0325
 5020W        W 8764   7.255   2.228  11.381 -0.0738 -0.3249 -0.0456
 5021W        W 8765   2.518   3.057  12.722  0.2300  0.1714  0.1013
 5022W        W 8766   8.262   3.152  10.672  0.0949 -0.4820  0.3030
 5023W        W 8767   5.271   7.187   0.337 -0.0392  0.1454  0.0097
 5024W        W 8768   9.358   0.804  11.171  0.1440  0.0705 -0.1037
 5025W        W 8769   0.678   6.795  12.839 -0.0143  0.0237 -0.2133
 5026W        W 8770   6.310   5.248   2.857 -0.2202 -0.0440 -0.1425
 5027W        W 8771   4.930   5.419  10.443 -0.2627  0.2001 -0.2261
 5028W        W 8772   7.547   0.330   2.666  0.3655 -0.0585 -0.3242
 5029W        W 8773   5.232   2.195  10.300 -0.2586  0.1834  0.2534
 5030W        W 8774   1.993   5.889   8.688 -0.0422  0.1832 -0.1946
 5031W        W 8775   4.547   3.342   4.088  0.0177  0.0894  0.0737
 5032W        W 8776   0.702   0.928   8.928 -0.0666 -0.1504  0.1596
 5033W        W 8777   6.997   2.929   8.336 -0.2110  0.1921 -0.0221
 5034W        W 8778   0.469   9.686   2.480  0.0343  0.0232 -0.0983
 5035W        W 8779   8.758   7.171  11.687 -0.1371 -0.0006  0.1304
 5036W        W 8780   8.719   7.522  12.036 -0.1316 -0.2553 -0.0590
 5037W        W 8781   1.239   6.883   9.188 -0.0185  0.1229 -0.1138
 5038W        W 8782   2.799   4.476  11.553  0.0760  0.1530 -0.1339
 5039W        W 8783   4.932   2.860   1.577 -0.2411  0.1252  0.0509
 5040W        W 8784   8.936   9.432   1.994 -0.2983  0.0407 -0.2794
 5041W        W 8785   5.160   6.785   3.511 -0.0363  0.0921  0.2015
 5042W        W 8786   7.936   7.535  12.500  0.0989  0.2129  0.3226
 5043W        W 8787   6.139   9.079  10.832 -0.3308  0.2660 -0.3610
 5044W        W 8788   1.871   0.580  12.304  0.0941 -0.3461 -0.1957
 5045W        W 8789   7.786   7.493   9.808  0.3026  0.2068 -0.1267
 5046W        W 8790   9.297   3.857   9.225 -0.4805 -0.1091 -0.2829
 5047W        W 8791   1.253   6.785   1.386 -0.1836  0.1450  0.1302
 5048W        W 8792   6.155   8.315   0.358  0.0994 -0.3029  0.0782
 5049W        W 8793   5.924   1.387   2.324 -0.0089  0.1221 -0.3420
 5050W        W 8794   2.739   1.601   9.051  0.1229 -0.2155 -0.1084
 5051W        W 8795   5.602   6.047   9.512  0.0705 -0.1376  0.0487
 5052W        W 8796   2.275   1.617   0.508  0.0746  0.0637  0.0815
 5053W        W 8797   8.041   0.457   3.029  0.1207  0.0445  0.4528
 5054W        W 8798   5.190   0.252   1.608 -0.1689  0.2366 -0.1536
 5055W        W 8799   7.414   5.754  11.707 -0.0129 -0.0209  0.1949
 5056W        W 8800   3.722   8.457   3.792  0.1473 -0.1715  0.2427
 5057W        W 8801   2.438   1.251   1.788  0.0314  0.1840 -0.2708
 5058W        W 8802   1.862   9.276   9.467 -0.0950 -0.0800 -0.2286
 5059W        W 8803   9.260   1.691  10.628 -0.2149  0.2079 -0.0507
 5060W        W 8804   4.507   0.410  11.892  0.2908 -0.2258 -0.1796
 5061W        W 8805   2.952   0.960   2.795 -0.0435 -0.0019  0.0730
 5062W        W 8806   2.654   9.884   4.224  0.1824 -0.3597  0.1077
 5063W        W 8807   0.390   7.270   0.008 -0.0515 -0.2514  0.0262
 5064W        W 8808   6.855   2.362   9.124  0.1605  0.1728 -0.0331
 5065W        W 8809   2.912   3.114   8.792  0.2556 -0.0639  0.0098
 5066W        W 8810   5.212   0.324  10.087  0.1541 -0.2199 -0.0509
 5067W        W 8811   9.220   7.473   3.019  0.2291  0.1446 -0.1607
 5068W        W 8812   9.580   2.292  11.038 -0.4642  0.0482 -0.0521
 5069W        W 8813   3.604   7.578   7.691  0.1797  0.1341 -0.2467
 5070W        W 8814   8.620   1.597   9.994 -0.0886 -0.0012 -0.0524
 5071W        W 8815   9.043   2.353   4.445 -0.1620  0.2536  0.1919
 5072W        W 8816   5.341   8.059   1.778  0.2647 -0.4266 -0.0102
 5073W        W 8817   1.202   3.976  12.819 -0.1070 -0.4963 -0.2466
 5074W        W 8818   2.528   3.950   9.170 -0.1405  0.2250  0.0620
 5075W        W 8819   3.081   1.783  11.344 -0.1249 -0.4256 -0.1917
 5076W        W 8820   2.961   5.456   1.792  0.1096 -0.1535 -0.2171
 5077W        W 8821   9.312   9.702   3.875 -0.4152 -0.0388  0.2539
 5078W        W 8822   3.805   7.830  12.753  0.1821  0.5493 -0.1325
 5079W        W 8823   1.794   1.980  12.577 -0.0518 -0.1178 -0.1469
 5080W        W 8824   6.159   9.894   1.004  0.0581 -0.0768 -0.0425
 5081W        W 8825   2.361   4.571  11.219  0.1447  0.2023  0.0068
 5082W        W 8826   9.883   5.012  10.536  0.0953  0.1841 -0.0191
 5083W        W 8827   7.585   7.953   9.884 -0.0011 -0.2604  0.2046
 5084W        W 8828   2.897   5.206  11.805  0.0680 -0.2553  0.0424
 5085W        W 8829   0.995   4.140   3.535  0.0679  0.0113 -0.1429
 5086W        W 8830   2.672   2.385   8.733  0.2877 -0.1934 -0.1223
 5087W        W 8831   5.840   8.053   1.127  0.1382  0.1012 -0.0242
 5088W        W 8832   0.028   6.029   9.944  0.0802 -0.0207 -0.1171
 5089W        W 8833   7.884   3.322   9.227  0.0948  0.3269 -0.0132
 5090W        W 8834   3.549   7.488  10.352  0.0869 -0.3216 -0.1696
 5091W        W 8835   1.591   9.399   1.911 -0.0490  0.0483  0.0822
 5092W        W 8836   8.821   6.057  11.223  0.0136 -0.0209  0.2718
 5093W        W 8837   4.795   3.785   8.942 -0.1039  0.0119  0.0293
 5094W        W 8838   7.346   1.031   2.500 -0.0596 -0.3617  0.0412
 5095W        W 8839   3.460   9.612   1.816 -0.2212 -0.3185 -0.2430
 5096W        W 8840   1.210   7.563   0.880 -0.2874  0.0454 -0.0022
 5097W        W 8841   0.528   4.046   2.652 -0.1364 -0.0155  0.0332
 5098W        W 8842   1.018   6.682   2.648  0.2169 -0.1286  0.3085
 5099W        W 8843   3.464   1.607   1.973  0.2479  0.0357  0.0455
 5100W        W 8844   9.469   4.974   3.011 -0.2640 -0.3113  0.0707
 5101W        W 8845   3.508   6.689   9.476  0.1895 -0.0007 -0.3651
 5102W        W 8846   1.083   7.716   3.327 -0.2638 -0.2180  0.2391
 5103W        W 8847   7.882   3.919   3.121 -0.1000  0.0166  0.1176
 5104W        W 8848   1.514   7.309  10.031 -0.1116  0.0459 -0.2899
 5105W        W 8849   0.367   6.965   0.989  0.0568  0.0510 -0.1684
 5106W        W 8850   3.799   4.836   9.029  0.0836 -0.0932  0.1669
 5107W        W 8851   2.185   3.924  12.014 -0.4550 -0.1342 -0.2763
 5108W        W 8852   0.662   8.103   1.270  0.1918  0.0595  0.2028
 5109W        W 8853   1.540   1.154   2.855 -0.2765 -0.1200  0.0819
 5110W        W 8854   3.445   6.985   3.073 -0.1211 -0.2546  0.2065
 5111W        W 8855   7.057   4.700   1.687  0.2055 -0.5697 -0.0533
 5112W        W 8856   0.804   9.198  10.734  0.0344  0.0860 -0.2365
 5113W        W 8857   3.159   5.494   8.799  0.3064 -0.0745  0.2793
 5114W        W 8858   1.584   7.296   0.509  0.0168 -0.0163 -0.0067
 5115W        W 8859   6.418   0.034   2.198 -0.0070 -0.0173  0.0823
 5116W        W 8860   9.607   8.668  11.080 -0.1234 -0.3178  0.0303
 5117W        W 8861   1.196   2.643   3.111  0.1365  0.0959 -0.1641
 5118W        W 8862   8.081   9.324   9.261 -0.0009 -0.0213 -0.2464
 5119W        W 8863   6.981   6.839   1.732  0.3195 -0.0660  0.2116
 5120W        W 8864   8.044   7.873  10.939  0.1723 -0.1050  0.0743
 5121W        W 8865   6.473   6.285  10.050 -0.2337 -0.0326  0.2956
 5122W        W 8866   0.307   2.375   3.126  0.0181  0.2321  0.0999
 5123W        W 8867   1.719   4.935  12.844 -0.2520  0.0003  0.0752
 5124W        W 8868   8.788   4.728   1.847  0.1071  0.1030 -0.0960
 5125W        W 8869   9.283   4.130   4.058  0.1021  0.0478  0.2261
 5126W        W 8870   5.380   8.340  11.081 -0.0688  0.0329  0.0945
 5127W        W 8871   9.609   2.175   8.652 -0.1982  0.0146  0.0360
 5128W        W 8872   2.321   4.873  10.670  0.2979 -0.0683  0.0488
 5129W        W 8873   2.430   8.166   4.311 -0.0757 -0.1448 -0.0886
 5130W        W 8874   2.997   2.134  10.172 -0.0375  0.3345  0.3277
 5131W        W 8875   4.042   3.636   1.754 -0.0409 -0.1477 -0.2600
 5132W        W 8876   2.306   4.049   3.196 -0.1667 -0.0840 -0.1340
 5133W        W 8877   2.040   1.404  11.744  0.3185  0.1013  0.4129
 5134W        W 8878   2.239   4.451   2.275  0.0070  0.3537  0.0678
 5135W        W 8879   0.811   9.042  11.309  0.1266  0.0823 -0.2732
 5136W        W 8880   0.538   3.586  12.128 -0.1730 -0.1249  0.0943
 5137W        W 8881   8.674   9.826   2.138  0.0487 -0.0808 -0.2559
 5138W        W 8882   3.637   4.047  10.082 -0.0891 -0.0287 -0.2080
 5139W        W 8883   6.030   2.521   3.505 -0.2049  0.0979 -0.0752
 5140W        W 8884   9.304   2.312   9.052  0.1402 -0.3687 -0.2143
 5141W        W 8885   5.053   5.534   1.632  0.0367 -0.2598 -0.2720
 5142W        W 8886   2.844   1.846   4.093 -0.1917 -0.1216  0.2213
 5143W        W 8887   1.621   3.821  11.960 -0.1934 -0.0969 -0.0448
 5144W        W 8888   6.323   7.688   1.802  0.4195 -0.2699 -0.0356
 5145W        W 8889   9.417   0.693  11.945 -0.0600 -0.1834 -0.1520
 5146W        W 8890   5.467   8.374   9.963  0.1383 -0.0735 -0.0661
 5147W        W 8891   8.920   0.770  12.081  0.0467 -0.2377 -0.1195
 5148W        W 8892   9.697   3.744   3.652 -0.3354 -0.0851  0.1544
 5149W        W 8893   4.237   3.628   1.198  0.1366 -0.0210  0.1687
 5150W        W 8894   4.741   9.892   9.688  0.0591  0.1313  0.2237
 5151W        W 8895   7.358   3.849   1.664 -0.2606  0.0235 -0.0039
 5152W        W 8896   1.330   9.910   0.914  0.1780  0.3593  0.0186
 5153W        W 8897   8.791   9.906   9.089  0.1561 -0.2508 -0.0085
 5154W        W 8898   3.817   9.617   5.122  0.0743 -0.0668  0.2532
 5155W        W 8899   0.261   2.929   8.858  0.1247  0.2648  0.0018
 5156W        W 8900   9.795   9.070   3.609 -0.0970  0.1387  0.0393
 5157W        W 8901   2.420   4.335   2.816  0.0854 -0.2532  0.0526
 5158W        W 8902   2.287   2.142  12.600 -0.0677 -0.2061 -0.1467
 5159W        W 8903   7.419   2.150  10.878  0.1074  0.0841 -0.0098
 5160W        W 8904   5.778   6.406   0.630  0.3313  0.3624  0.0475
 5161W        W 8905   0.375   5.023   8.670 -0.0882  0.0661  0.3273
 5162W        W 8906   4.420   5.202  11.690 -0.0592 -0.1645 -0.3230
 5163W        W 8907   2.620   9.151   3.250 -0.1109 -0.2307 -0.0584
 5164W        W 8908   9.074   9.028  12.679  0.0631  0.0430  0.2300
 5165W        W 8909   2.323   2.521  10.502  0.2824 -0.0351 -0.0949
 5166W        W 8910   5.045   1.509   2.926 -0.1604 -0.0373  0.0642
 5167W        W 8911   3.309   2.124   1.880  0.1284  0.2377 -0.1774
 5168W        W 8912   3.279   3.290   1.278 -0.2904  0.0496  0.0910
 5169W        W 8913   9.052   0.749  12.540  0.1274 -0.2129  0.3536
 5170W        W 8914   3.809   3.547   0.536  0.0934  0.2520  0.0001
 5171W        W 8915   5.877   2.735   0.378  0.2486  0.0707  0.0750
 5172W        W 8916   2.363   1.961   0.989 -0.0529 -0.1687  0.2399
 5173W        W 8917   9.215   1.458  11.464  0.0064  0.0508 -0.3209
 5174W        W 8918   4.747   7.788   0.092  0.1724  0.3112  0.1409
 5175W        W 8919   9.156   7.026   9.859  0.0498  0.2086  0.0283
 5176W        W 8920   2.427   4.132  11.602 -0.0429  0.2108 -0.2482
 5177W        W 8921   4.022   2.606   1.524  0.0286 -0.1148  0.0977
 5178W        W 8922   4.208   8.415   2.436 -0.1021  0.0856  0.3392
 5179W        W 8923   2.282   2.076   3.212  0.0570  0.0766  0.0118
 5180W        W 8924   4.081   1.444   2.969 -0.0026  0.0474 -0.1679
 5181W        W 8925   8.115   0.445  12.612  0.1575  0.1931  0.2559
 5182W        W 8926   7.201   0.753   0.701  0.1221  0.0765  0.1600
 5183W        W 8927   7.616   7.864   2.054  0.0083 -0.0425  0.0870
 5184W        W 8928   8.711   5.968  10.324  0.0952  0.1497  0.0468
 5185W        W 8929   5.603   3.540   8.676  0.1424 -0.0356 -0.3065
 5186W        W 8930   7.818   2.665  11.655 -0.1106  0.0913 -0.1056
 5187W        W 8931   0.765   0.518   1.445 -0.0176  0.4372 -0.3420
 5188W        W 8932   0.828   1.672  12.402 -0.1327  0.1197  0.0171
 5189W        W 8933   6.167   8.319   9.491 -0.0864  0.1898 -0.1563
 5190W        W 8934   4.179   5.429  11.191  0.0555 -0.0628 -0.0120
 5191W        W 8935   6.969   2.741   9.616  0.3499  0.2053  0.1107
 5192W        W 8936   1.834   7.760   8.766 -0.4613  0.1509  0.2555
 5193W        W 8937   6.375   6.201   3.006 -0.2855 -0.2672  0.2096
 5194W        W 8938   5.754   3.357   3.400 -0.2274 -0.2888 -0.0590
 5195W        W 8939   5.601   3.940   2.140 -0.1253 -0.1055  0.4252
 5196W        W 8940   3.799   2.365   4.206  0.1937 -0.2971  0.1336
 5197W        W 8941   5.736   0.317   3.046 -0.0365  0.2424 -0.0206
 5198W        W 8942   6.853   5.993   3.015 -0.1988  0.3648 -0.1707
 5199W        W 8943   9.106   8.840   9.993 -0.1349 -0.1368  0.0473
 5200W        W 8944   2.215   1.788  10.908  0.1023 -0.0624  0.1388
 5201W        W 8945   9.046   6.956   0.266  0.0714 -0.1235  0.0918
 5202W        W 8946   2.465   2.722  12.363 -0.0364  0.3307  0.0418
 5203W        W 8947   8.565   2.345  11.693  0.0055  0.2126  0.1387
 5204W        W 8948   8.092   1.030   3.626 -0.3790  0.1147 -0.2213
 5205W        W 8949   3.206   9.898   9.714 -0.2407  0.2588 -0.0837
 5206W        W 8950   5.759   3.272   2.800  0.1469 -0.1140  0.0998
 5207W        W 8951   4.426   1.677   4.692  0.0370 -0.0295  0.2639
 5208W        W 8952   5.792   1.925   4.979  0.2327 -0.2017 -0.0998
 5209W        W 8953   1.284   1.870  12.784 -0.0261 -0.0436  0.0979
 5210W        W 8954   4.018   9.007   3.168  0.4106  0.0197  0.2764
 5211W        W 8955   0.469   2.695   0.538  0.3576 -0.0941  0.0393
 5212W        W 8956   4.418   3.059  12.245  0.1872 -0.1860 -0.0178
 5213W        W 8957   1.521   5.737  12.059  0.1784 -0.3035 -0.3144
 5214W        W 8958   7.195   5.308   9.583 -0.0196  0.1360 -0.0996
 5215W        W 8959   2.081   3.687   2.405  0.1081  0.0084  0.1394
 5216W        W 8960   4.351   2.127   0.416 -0.0722  0.4064 -0.2828
 5217W        W 8961   3.030   1.827   3.539 -0.0504 -0.1928 -0.2176
 5218W        W 8962   7.376   0.248  12.189  0.2341 -0.0206 -0.1141
 5219W        W 8963   4.563   2.240  11.007 -0.0267  0.1629  0.3081
 5220W        W 8964   1.815   7.891   3.140  0.0019 -0.1335  0.1676
 5221W        W 8965   3.488   3.182  12.507 -0.2039  0.2017 -0.1202
 5222W        W 8966   0.493   8.790   0.464  0.0515 -0.0233  0.2777
 5223W        W 8967   3.968   3.991  11.492  0.0444 -0.0574 -0.2472
 5224W        W 8968   7.360   6.355   9.926  0.3191  0.4397 -0.1098
 5225W        W 8969   4.252   6.098   9.220  0.0558 -0.2185  0.1633
 5226W        W 8970   8.608   6.987   3.275 -0.0199  0.0938  0.2514
 5227W        W 8971   6.378   8.241   3.334  0.1561  0.1176  0.0025
 5228W        W 8972   2.128   5.031   9.737 -0.1929 -0.1667 -0.1001
 5229W        W 8973   1.209   6.216   1.373  0.1944  0.0263 -0.2873
 5230W        W 8974   8.421   4.828   0.553  0.1443  0.0684  0.1937
 5231W        W 8975   3.401   1.530   9.310 -0.0385 -0.1160  0.4407
 5232W        W 8976   5.793   7.919   2.587 -0.0420 -0.1456 -0.2618
 5233W        W 8977   5.506   1.565  12.841  0.0730  0.0497  0.3769
 5234W        W 8978   4.469   2.315  10.070  0.0501  0.3171 -0.0472
 5235W        W 8979   4.726   7.106   2.602  0.2659 -0.0658  0.1920
 5236W        W 8980   4.165   2.518   2.015  0.2627  0.1348  0.1082
 5237W        W 8981   3.156   3.415  12.233  0.2400 -0.1768 -0.2450
 5238W        W 8982   9.271   3.019   4.203  0.1407 -0.1075 -0.0789
 5239W        W 8983   8.783   6.578  11.172  0.0014 -0.0513  0.1068
 5240W        W 8984   4.818   3.733  12.240 -0.0286  0.2519  0.4605
 5241W        W 8985   5.406   1.246   0.865 -0.0405  0.0120 -0.1559
 5242W        W 8986   6.985   3.719  12.421  0.2509  0.1411  0.3143
 5243W        W 8987   6.203   2.350   3.959  0.1041 -0.2485  0.2585
 5244W        W 8988   9.874   9.590   0.614 -0.0980 -0.0427 -0.1014
 5245W        W 8989   1.723   2.075  11.689 -0.0418 -0.0462 -0.2457
 5246W        W 8990   5.224   4.312  12.719 -0.1354 -0.0633 -0.2987
 5247W        W 8991   5.331   3.652   4.277  0.2400 -0.5485 -0.0582
 5248W        W 8992   5.715   8.569  11.316 -0.0196  0.0437 -0.3371
 5249W        W 8993   7.277   2.620   2.877  0.0746  0.0541 -0.0348
 5250W        W 8994   4.450   7.305   2.985  0.0457  0.3471  0.2118
 5251W        W 8995   1.014   8.381   0.696 -0.1355 -0.0082 -0.0744
 5252W        W 8996   7.421   0.144  10.406  0.1346 -0.0603  0.1056
 5253W        W 8997   3.698   6.797   4.492 -0.1183 -0.2749  0.1029
 5254W        W 8998   3.937   2.161   8.639  0.1873 -0.1995  0.0330
 5255W        W 8999   7.089   4.490   8.999  0.1170  0.2598  0.3853
 5256W        W 9000   9.817   5.525   2.335 -0.0506  0.3254  0.1085
 5257W        W 9001   1.042   3.732  10.010  0.0656 -0.5112  0.1265
 5258W        W 9002   0.642   8.846   3.617  0.1000 -0.1278 -0.0968
 5259W        W 9003   5.633   6.263  10.241  0.1377 -0.0971  0.0916
 5260W        W 9004   1.743   0.587  10.890  0.2831  0.1191  0.1158
 5261W        W 9005   9.618   8.907   2.495 -0.4001  0.0532  0.4519
 5262W        W 9006   7.579   6.788   2.794 -0.2313  0.0791 -0.3825
 5263W        W 9007   1.737   0.765   3.838 -0.1884  0.0069 -0.0870
 5264W        W 9008   7.904   0.277   0.962  0.0302 -0.0686 -0.0829
 5265W        W 9009   1.777   8.607  10.400 -0.1346 -0.0021 -0.1591
 5266W        W 9010   8.012   0.973  10.375 -0.2989  0.1987  0.1613
 5267W        W 9011   8.627   7.067  11.161 -0.1208  0.1875 -0.0589
 5268W        W 9012   9.071   5.000  11.641  0.5233 -0.2087  0.0125
 5269W        W 9013   6.017   2.151   2.310 -0.1227  0.4146  0.1333
 5270W        W 9014   5.881   5.426   0.096  0.1323  0.3828 -0.2826
 5271W        W 9015   6.569   4.009   2.277 -0.0463 -0.1704 -0.1310
 5272W        W 9016   4.125   9.637  11.232  0.2973 -0.4729 -0.1264
 5273W        W 9017   3.550   0.648  12.710 -0.2050 -0.2140  0.2549
 5274W        W 9018   8.677   6.106   8.909 -0.2537 -0.0096  0.0192
 5275W        W 9019   2.452   7.027   9.756  0.4081 -0.0910  0.0737
 5276W        W 9020   2.308   6.920   2.190  0.3206  0.5116  0.1291
 5277W        W 9021   7.705   6.643  12.189 -0.3590 -0.0313 -0.5934
 5278W        W 9022   1.261   4.224  11.013  0.0808 -0.1213  0.1304
 5279W        W 9023   7.431   0.173   1.801 -0.2483  0.0666  0.1671
 5280W        W 9024   6.244   9.748   3.477 -0.1463 -0.0868 -0.0789
 5281W        W 9025   7.990   9.398   0.369  0.0952 -0.1367  0.0818
 5282W        W 9026   0.984   0.419  12.353 -0.0319 -0.2096  0.0142
 5283W        W 9027   4.644   1.909   9.260 -0.2465  0.2468 -0.1540
 5284W        W 9028   8.158   1.408  10.145  0.1957 -0.0842  0.0774
 5285W        W 9029   3.072   9.855   3.754  0.1564 -0.1449  0.2304
 5286W        W 9030   1.865   4.844   3.286 -0.1463  0.0961  0.1301
 5287W        W 9031   2.514   1.168  11.749  0.0156 -0.0343 -0.1323
 5288W        W 9032   6.813   4.049  11.934 -0.2385 -0.2022  0.2438
 5289W        W 9033   3.032   5.933  12.766  0.1114 -0.2860  0.1246
 5290W        W 9034   6.162   6.418   3.404  0.1430 -0.0619  0.1217
 5291W        W 9035   2.929   4.287   1.005  0.0362  0.3536 -0.0332
 5292W        W 9036   4.592   8.382   2.756 -0.1115  0.1540  0.2306
 5293W        W 9037   2.576   1.510   0.892 -0.1745 -0.3503  0.0426
 5294W        W 9038   1.437   3.733   9.411 -0.0458  0.0817  0.0854
 5295W        W 9039   8.270   1.082   3.114  0.0414  0.2707 -0.3414
 5296W        W 9040   6.322   6.718  10.951 -0.1335 -0.1862 -0.1387
 5297W        W 9041   1.187   9.158   0.225  0.0152  0.0375 -0.0664
 5298W        W 9042   1.129   1.419   8.778  0.2854 -0.2310  0.3080
 5299W        W 9043   9.887   9.686   1.599 -0.2249 -0.0540 -0.1223
 5300W        W 9044   7.425   2.385   8.885 -0.0432 -0.2173 -0.2057
 5301W        W 9045   4.871   0.316  11.361 -0.0220  0.0934 -0.1925
 5302W        W 9046   1.086   9.439   4.881 -0.1731 -0.0708  0.4382
 5303W        W 9047   3.521   3.217   3.099 -0.1298  0.1239  0.1399
 5304W        W 9048   9.509   0.491   2.545 -0.0567  0.2237 -0.2434
 5305W        W 9049   8.401   4.717  12.516  0.1196  0.1289  0.2466
 5306W        W 9050   0.063   2.522  10.305 -0.0512 -0.0173 -0.0438
 5307W        W 9051   6.742   2.574  11.345  0.0762  0.0542  0.0366
 5308W        W 9052   3.125   5.533   2.262 -0.0123 -0.0684 -0.3230
 5309W        W 9053   2.490   8.692   4.391 -0.0094  0.0919 -0.0369
 5310W        W 9054   7.568   2.407   2.589 -0.1831  0.1327 -0.0721
 5311W        W 9055   7.808   2.533   1.745  0.4809  0.1455  0.0584
 5312W        W 9056   0.280   4.260  12.636  0.5454  0.1678  0.2394
 5313W        W 9057   5.960   7.637   0.157  0.4879  0.0113 -0.0693
 5314W        W 9058   5.024   5.629   0.740  0.2187 -0.2202 -0.0788
 5315W        W 9059   3.339   3.026  10.181  0.2404  0.0357  0.5353
 5316W        W 9060   9.157   8.636  11.200 -0.0159 -0.0099 -0.0315
 5317W        W 9061   2.108   9.758   8.838  0.1322 -0.1497  0.4030
 5318W        W 9062   1.173   6.577   3.542 -0.1795  0.1236 -0.0604
 5319W        W 9063   4.084   4.155   8.055 -0.1591 -0.1206 -0.0710
 5320W        W 9064   3.931   6.183   8.822  0.1222  0.0572 -0.0199
 5321W        W 9065   6.452   1.266  11.895 -0.0265  0.2494 -0.0933
 5322W        W 9066   9.201   0.041   1.126  0.0262  0.2718 -0.1346
 5323W        W 9067   2.189   5.943   0.456  0.3458  0.0762  0.0283
 5324W        W 9068   2.519   8.296   3.053  0.1717  0.3582  0.3081
 5325W        W 9069   7.966   3.916  10.041  0.0258  0.1647 -0.1808
 5326W        W 9070   0.709   7.500   2.953 -0.0506  0.0663  0.0670
 5327W        W 9071   0.059   2.732   4.774 -0.1921 -0.0297 -0.0408
 5328W        W 9072   8.534   7.727   0.377 -0.3185  0.0451 -0.2556
 5329W        W 9073   8.983   5.905   9.836 -0.0638 -0.1565 -0.0040
 5330W        W 9074   8.198   4.505  10.856 -0.1117  0.0342  0.2724
 5331W        W 9075   5.421   9.295   9.236  0.1112 -0.1534 -0.2055
 5332W        W 9076   4.096   2.731   3.558 -0.3756 -0.1512  0.0976
 5333W        W 9077   9.419   8.890   0.191 -0.3368  0.0217 -0.1311
 5334W        W 9078   8.667   8.029   0.811  0.3564  0.2538 -0.0208
 5335W        W 9079   8.532   8.322   3.636 -0.0484 -0.0287  0.1414
 5336W        W 9080   3.615   8.634   8.964  0.5502  0.0372 -0.0498
 5337W        W 9081   9.541   4.549   1.801 -0.0348  0.2184  0.0571
 5338W        W 9082   5.374   2.956   0.215  0.0127  0.0567 -0.1239
 5339W        W 9083   1.271   8.693  10.249 -0.0805  0.1272  0.1763
 5340W        W 9084   3.044   7.489  10.469  0.2642  0.0947  0.0839
 5341W        W 9085   8.205   0.356   0.349 -0.0806  0.0875  0.2473
 5342W        W 9086   0.508   6.395   0.386  0.0662  0.1568 -0.2562
 5343W        W 9087   4.211   6.285   0.635  0.1495 -0.0046 -0.1119
 5344W        W 9088   8.388   8.414   0.671  0.1614 -0.0755  0.1937
 5345W        W 9089   2.748   7.704   1.471 -0.0978 -0.0598  0.0454
 5346W        W 9090   7.127   5.741  10.363  0.0243 -0.2126  0.0801
 5347W        W 9091   3.858   8.448   9.584  0.0034  0.1968  0.0100
 5348W        W 9092   0.188   5.932   8.613 -0.1581  0.2917  0.2181
 5349W        W 9093   9.004   2.898  12.278 -0.2191  0.0266  0.0032
 5350W        W 9094   2.475   9.671   2.158 -0.0354  0.0393 -0.0465
 5351W        W 9095   9.468   3.380   1.984  0.2163 -0.2668  0.2010
 5352W        W 9096   1.076   0.184  11.108  0.1145  0.0980 -0.0315
 5353W        W 9097   7.434   2.469   9.408 -0.0401  0.2003 -0.1017
 5354W        W 9098   5.079   1.707   9.638  0.0423  0.2743  0.0059
 5355W        W 9099   5.579   4.606   0.275 -0.0978  0.4200 -0.0630
 5356W        W 9100   0.524   7.588  12.407  0.1224 -0.1121  0.1378
 5357W        W 9101   0.785   1.991   7.998  0.2437 -0.1742 -0.1623
 5358W        W 9102   0.149   5.041   3.727  0.0981  0.0664 -0.1645
 5359W        W 9103   7.297   2.697  10.938 -0.1416  0.2837  0.2513
 5360W        W 9104   9.039   2.286  11.468 -0.2188  0.1755 -0.3999
 5361W        W 9105   0.517   5.839   1.797  0.6509 -0.3594  0.0654
 5362W        W 9106   5.498   3.867  11.233 -0.2106 -0.0528  0.2412
 5363W        W 9107   1.563   3.314   0.212 -0.0481 -0.0441  0.2720
 5364W        W 9108   1.950   2.447  10.148  0.2773 -0.0124  0.2234
 5365W        W 9109   5.361   4.665   2.744 -0.0168  0.0144  0.1636
 5366W        W 9110   4.236   1.153   3.353  0.2227 -0.1344 -0.0989
 5367W        W 9111   2.596   6.362   4.127 -0.0081 -0.1639  0.1437
 5368W        W 9112   4.840   7.150   0.732  0.0087 -0.1279 -0.0172
 5369W        W 9113   6.962   6.068   1.087 -0.0382 -0.2172  0.1492
 5370W        W 9114   5.746   8.020   9.365  0.1293 -0.0529 -0.3510
 5371W        W 9115   2.680   4.243   4.640  0.1001  0.2567 -0.2370
 5372W        W 9116   9.036   1.824   2.959  0.2059  0.2815 -0.0062
 5373W        W 9117   1.825   9.171   1.513 -0.2422 -0.0890 -0.0234
 5374W        W 9118   7.140   5.373   0.159 -0.2490  0.2249 -0.1233
 5375W        W 9119   7.216   2.588   4.372  0.0527 -0.1593 -0.0334
 5376W        W 9120   0.326   0.347  11.206  0.3331 -0.0679 -0.1887
 5377W        W 9121   8.156   7.402   0.545 -0.0533 -0.1078  0.0940
 5378W        W 9122   9.358   2.416   1.810 -0.1577 -0.0961 -0.1488
 5379W        W 9123   4.977   9.644  10.134 -0.0213 -0.1497  0.0358
 5380W        W 9124   3.643   0.895   1.448  0.7031  0.0171  0.0304
 5381W        W 9125   1.908   2.864   9.776 -0.1610 -0.0269 -0.2976
 5382W        W 9126   1.740   6.821   2.153  0.0823 -0.0734  0.1078
 5383W        W 9127   1.084   8.650   2.458  0.1704  0.3211  0.1055
 5384W        W 9128   8.812   6.722   0.794  0.1364  0.1951 -0.0651
 5385W        W 9129   8.703   6.903  12.669  0.0250 -0.0821  0.3304
 5386W        W 9130   6.584   6.653   0.077  0.0562  0.0855  0.2744
 5387W        W 9131   7.886   4.492   3.437 -0.1582 -0.0815 -0.2688
 5388W        W 9132   3.921   3.918   4.360  0.1201  0.0669  0.3754
 5389W        W 9133   8.239   2.514   0.392  0.2745  0.3547 -0.2609
 5390W        W 9134   9.357   0.582  10.676 -0.1424 -0.1888  0.0747
 5391W        W 9135   2.214   8.196   8.109  0.0109 -0.0300  0.1707
 5392W        W 9136   7.921   5.316  12.736  0.1521  0.2537  0.2183
 5393W        W 9137   2.046   7.082  12.770  0.0164  0.0931  0.0245
 5394W        W 9138   4.880   2.074   9.910  0.0120 -0.0512  0.1436
 5395W        W 9139   5.227   4.557  12.320 -0.3355 -0.2991 -0.1152
 5396W        W 9140   2.861   3.618   9.010 -0.1807 -0.1509 -0.2257
 5397W        W 9141   1.529   9.560   0.267 -0.1977  0.0976 -0.1205
 5398W        W 9142   0.152   9.422   1.182  0.2495  0.2931  0.1092
 5399W        W 9143   6.577   8.034  12.183  0.0723  0.1286 -0.1248
 5400W        W 9144   5.031   1.811  12.167 -0.2290 -0.0016  0.0012
 5401W        W 9145   2.243   1.692   0.005 -0.1168 -0.2042  0.0756
 5402W        W 9146   5.585   5.460   2.436 -0.0833  0.1223 -0.0725
 5403W        W 9147   0.822   9.833  10.804 -0.1805  0.1895  0.2417
 5404W        W 9148   3.647   5.100  12.378 -0.2016 -0.1745 -0.0383
 5405W        W 9149   5.011   2.497   4.908 -0.1073  0.1222 -0.0157
 5406W        W 9150   0.251   4.903   9.972  0.1292 -0.1811  0.0068
 5407W        W 9151   9.389   6.762   9.480 -0.0605  0.1856 -0.2363
 5408W        W 9152   2.729   7.833   2.329 -0.4618 -0.0987  0.2428
 5409W        W 9153   8.316   0.051   2.987 -0.0291  0.4264 -0.2673
 5410W        W 9154   8.784   2.220   4.035 -0.0033  0.0667  0.2567
 5411W        W 9155   0.135   6.644   2.217 -0.2104  0.0705 -0.0052
 5412W        W 9156   1.858   9.771   9.278 -0.0213  0.0618 -0.0948
 5413W        W 9157   7.480   9.444   0.653 -0.1312 -0.0197 -0.1268
 5414W        W 9158   4.666   3.955   3.645  0.3354 -0.1986  0.1770
 5415W        W 9159   3.140   0.720  11.073  0.0673 -0.1831  0.1059
 5416W        W 9160   5.890   8.176  12.733  0.0082 -0.2124  0.3888
 5417W        W 9161   1.983   3.602   0.422 -0.1879 -0.1197  0.2146
 5418W        W 9162   6.985   8.670   1.159 -0.1074 -0.0249  0.1548
 5419W        W 9163   2.922   0.626   3.213 -0.2697 -0.0955  0.2678
 5420W        W 9164   4.192   3.556   8.618  0.2008 -0.1438  0.3704
 5421W        W 9165   7.944   4.018   2.549 -0.1593 -0.0974  0.0464
 5422W        W 9166   9.057   3.235   3.770  0.2019  0.1341 -0.0362
 5423W        W 9167   4.412   5.140   9.789 -0.0818  0.3866 -0.0828
 5424W        W 9168   4.151   6.866  11.088 -0.1889 -0.2108  0.1686
 5425W        W 9169   3.978   0.333   9.364 -0.0597  0.2111  0.1192
 5426W        W 9170   6.136   9.385   3.136 -0.1509 -0.1676 -0.0581
 5427W        W 9171   1.720   6.099  11.345 -0.1249  0.0127 -0.4358
 5428W        W 9172   5.086   1.895  12.688  0.0947  0.0893  0.1859
 5429W        W 9173   1.103   0.994   9.731 -0.0683 -0.2379 -0.0474
 5430W        W 9174   0.131   3.096  10.475 -0.0431 -0.3217  0.0775
 5431W        W 9175   5.384   9.627   2.631  0.4965 -0.0889 -0.3433
 5432W        W 9176   4.353   1.353   3.800  0.3730  0.3952 -0.1233
 5433W        W 9177   8.739   3.307  11.257 -0.3276  0.1686  0.0428
 5434W        W 9178   8.837   1.872  11.627 -0.1771  0.2482  0.0889
 5435W        W 9179   9.024   8.539   2.497 -0.2858 -0.1713  0.1235
 5436W        W 9180   5.972   3.808   1.864 -0.2837  0.1701 -0.0689
 5437W        W 9181   3.613   9.673  10.137  0.0692 -0.2108  0.0498
 5438W        W 9182   0.487   4.824   3.424  0.0407 -0.2352 -0.0840
 5439W        W 9183   5.230   3.506   1.203 -0.0442 -0.2664 -0.0086
 5440W        W 9184   0.985   1.834  10.953 -0.1070  0.1779  0.0871
 5441W        W 9185   0.082   4.286  12.124  0.2354  0.2737 -0.2579
 5442W        W 9186   4.656   0.686  10.470 -0.0017 -0.2340 -0.2558
 5443W        W 9187   2.758   4.928   1.638 -0.0804  0.1231  0.1968
 5444W        W 9188   2.655   0.935  11.182 -0.0446  0.0729 -0.1340
 5445W        W 9189   3.785   6.266  10.040 -0.0291  0.1921 -0.2121
 5446W        W 9190   0.386   0.648  11.666 -0.0996  0.0383  0.2400
 5447W        W 9191   3.005   8.777  10.341 -0.0576  0.1941  0.3049
 5448W        W 9192   3.965   0.067   3.558 -0.4236 -0.0029 -0.1504
 5449W        W 9193   6.177   3.682  10.619  0.1697 -0.1052 -0.0196
 5450W        W 9194   2.011   4.698   1.393 -0.2771  0.2459 -0.1998
 5451W        W 9195   8.521   0.890  10.420 -0.0671 -0.0376 -0.2215
 5452W        W 9196   4.855   5.259   1.040  0.1865  0.3039  0.0126
 5453W        W 9197   3.959   4.372  12.781 -0.0538  0.1113 -0.0464
 5454W        W 9198   7.276   2.033   9.195  0.2881  0.0599 -0.2554
 5455W        W 9199   4.036   0.613   3.495 -0.0761  0.0544  0.0440
 5456W        W 9200   1.988   8.044   1.470 -0.1650 -0.1155 -0.1332
 5457W        W 9201   7.561   3.153   2.157  0.1812 -0.2909 -0.1540
 5458W        W 9202   8.676   6.295   9.939 -0.2548  0.0494 -0.2056
 5459W        W 9203   5.164   0.150   2.766 -0.0995  0.1216  0.2795
 5460W        W 9204   8.063   4.960  10.715  0.0668  0.0204 -0.3104
 5461W        W 9205   2.266   2.037   8.346 -0.0123 -0.2233 -0.1173
 5462W        W 9206   2.828   2.696   0.928  0.0783 -0.0304 -0.2205
 5463W        W 9207   3.678   0.959  12.028 -0.0198  0.1302 -0.1326
 5464W        W 9208   7.420   1.970   9.932 -0.3468 -0.0862 -0.0877
 5465W        W 9209   1.978   8.450  12.589 -0.3160 -0.2623  0.1019
 5466W        W 9210   5.571   9.772  10.291 -0.3994  0.2922 -0.2712
 5467W        W 9211   3.573   8.841  12.104  0.2385 -0.2274  0.1742
 5468W        W 9212   1.847   9.647   3.758 -0.0339 -0.0763 -0.2067
 5469W        W 9213   1.257   0.066  10.027  0.0829  0.0586  0.1472
 5470W        W 9214   9.900   4.516  10.748 -0.1504 -0.2319  0.1051
 5471W        W 9215   2.217   4.479  10.256  0.0702  0.0554  0.1134
 5472W        W 9216   6.595   3.365  10.404 -0.3574 -0.0023 -0.2428
 5473W        W 9217   8.457   8.816  10.106  0.3328 -0.0356  0.2728
 5474W        W 9218   5.299   5.047  12.195 -0.1860  0.0757  0.4291
 5475W        W 9219   1.365   0.625   8.175 -0.1704  0.0988  0.4676
 5476W        W 9220   2.889   6.609   8.930  0.0203  0.1262  0.1743
 5477W        W 9221   1.676   6.076   2.475 -0.1991  0.1021 -0.1499
 5478W        W 9222   9.041   1.904  11.113 -0.0185 -0.2329 -0.3348
 5479W        W 9223   8.811   8.423   2.062  0.1201 -0.0208 -0.0790
 5480W        W 9224   9.357   9.732   0.655 -0.3930 -0.0557  0.0826
 5481W        W 9225   5.794   2.620   1.382  0.4372  0.0510  0.2378
 5482W        W 9226   7.058   6.126  10.767  0.5131 -0.2958 -0.0801
 5483W        W 9227   7.333   8.892   3.275  0.2567  0.0098 -0.1062
 5484W        W 9228   4.118   4.357  11.117  0.2383 -0.0495 -0.2008
 5485W        W 9229   2.154   5.437   8.546 -0.0674  0.3566  0.1964
 5486W        W 9230   1.890   0.345   8.919  0.0498 -0.2433 -0.1592
 5487W        W 9231   9.756   6.652   9.128 -0.0974 -0.0924  0.2601
 5488W        W 9232   5.664   0.240   4.400  0.1392 -0.0466 -0.4679
 5489W        W 9233   3.705   3.068   0.443  0.1303 -0.4233 -0.1270
 5490W        W 9234   5.991   7.677   3.592 -0.0310  0.1057  0.1500
 5491W        W 9235   6.454   4.027   1.767 -0.3311 -0.0902  0.4031
 5492W        W 9236   0.823   8.884   1.822  0.0405 -0.0467 -0.0835
 5493W        W 9237   7.843   3.471   9.779  0.0780  0.1249  0.3248
 5494W        W 9238   6.131   3.104   1.830 -0.1716  0.0260  0.0065
 5495W        W 9239   9.618   9.541   9.131 -0.1111 -0.0713 -0.3638
 5496W        W 9240   7.778   8.318  10.836 -0.0266 -0.0143  0.0848
 5497W        W 9241   1.208   8.042   8.391 -0.1568 -0.0049 -0.1110
 5498W        W 9242   2.314   6.659   3.161  0.2333 -0.1353 -0.0276
 5499W        W 9243   9.103   5.052   1.040 -0.0113 -0.2831 -0.0729
 5500W        W 9244   0.277   2.040   0.040 -0.2770  0.1980 -0.1080
 5501W        W 9245   5.072   0.434  12.712 -0.2073  0.0583 -0.1551
 5502W        W 9246   3.842   5.443  11.707  0.1552 -0.0551  0.2606
 5503W        W 9247   4.610   0.287  12.393  0.0354 -0.1628 -0.0074
 5504W        W 9248   6.011   2.491  12.723 -0.3009 -0.0174  0.0192
 5505W        W 9249   2.606   5.947   0.126  0.3571 -0.0694 -0.1704
 5506W        W 9250   1.586   1.375   8.650  0.2514  0.3240 -0.1305
 5507W        W 9251   1.026   0.044   4.237 -0.3563  0.0114 -0.1003
 5508W        W 9252   0.666   5.087   2.531 -0.0813  0.0696 -0.0611
 5509W        W 9253   8.863   2.701   9.858  0.4347  0.2452  0.2536
 5510W        W 9254   3.460   6.485   2.945 -0.1859  0.1788  0.3551
 5511W        W 9255   2.571   7.831  10.478  0.1923 -0.0520  0.1534
 5512W        W 9256   8.021   3.802  11.536  0.1117 -0.2228  0.0778
 5513W        W 9257   6.811   1.824  12.757 -0.3519  0.0489  0.0893
 5514W        W 9258   6.672   8.365   1.551  0.0512 -0.1676 -0.1565
 5515W        W 9259   6.075   7.128  10.770  0.2448  0.1629  0.1241
 5516W        W 9260   0.950   7.166   2.691  0.2346 -0.1967  0.0946
 5517W        W 9261   7.488   7.541   0.162  0.1855 -0.1044  0.4150
 5518W        W 9262   9.891   1.492   2.205 -0.3910 -0.0206  0.1793
 5519W        W 9263   8.929   5.428  11.859 -0.2482 -0.0624 -0.1381
 5520W        W 9264   5.295   0.552   4.506 -0.1061 -0.1732  0.1665
 5521W        W 9265   4.192   5.877  10.252  0.1167  0.0562  0.0065
 5522W        W 9266   9.168   9.503   3.074 -0.0712  0.0492  0.3160
 5523W        W 9267   7.205   6.849   9.757  0.1175  0.0190  0.1062
 5524W        W 9268   5.518   2.873   9.439 -0.1026  0.1327 -0.1184
 5525W        W 9269   0.127   6.079  11.226  0.0841 -0.2337  0.0504
 5526W        W 9270   3.512   5.211   9.914  0.1442 -0.3376  0.3617
 5527W        W 9271   9.785   6.164  12.167  0.0978 -0.1939 -0.4823
 5528W        W 9272   6.413   4.434   4.143 -0.2450  0.2329  0.2310
 5529W        W 9273   5.984   6.853   0.601 -0.1759  0.2962 -0.0804
 5530W        W 9274   9.178   4.116   8.790 -0.4030 -0.2123 -0.3025
 5531W        W 9275   7.543   3.976  12.678 -0.0275 -0.2494  0.1207
 5532W        W 9276   3.850   4.782   3.925  0.0424 -0.0587 -0.2004
 5533W        W 9277   4.722   2.061  10.456  0.0439 -0.1100 -0.0337
 5534W        W 9278   0.093   8.646   0.818 -0.2445  0.0223  0.2876
 5535W        W 9279   9.307   8.937   3.424  0.0331 -0.1794 -0.0857
 5536W        W 9280   2.428   2.765  11.835  0.1389  0.0511 -0.2114
 5537W        W 9281   7.003   4.653  12.105 -0.0113 -0.2512 -0.0337
 5538W        W 9282   9.795   4.472   4.118  0.2196  0.1277  0.0940
 5539W        W 9283   3.657   6.577  10.433 -0.0314  0.1001 -0.0505
 5540W        W 9284   0.151   6.218   1.708 -0.4083  0.1258 -0.0280
 5541W        W 9285   8.067   3.054   4.565 -0.2889  0.1566  0.0456
 5542W        W 9286   7.470   2.850  12.573 -0.1167 -0.0680  0.1286
 5543W        W 9287   7.329   2.020   1.343  0.2147  0.0029 -0.0892
 5544W        W 9288   4.648   0.204  10.615  0.0866  0.0418 -0.1682
 5545W        W 9289   1.571   3.022   1.418 -0.0201 -0.1547  0.3005
 5546W        W 9290   9.871   4.109   3.296  0.1904 -0.1023  0.1536
 5547W        W 9291   9.266   1.555   4.315 -0.3766  0.1459 -0.1849
 5548W        W 9292   2.543   3.339   0.566 -0.2581 -0.0323  0.1054
 5549W        W 9293   5.963   7.964   1.947  0.5067  0.1670  0.3295
 5550W        W 9294   1.030   6.016  11.106  0.0140 -0.0161  0.2245
 5551W        W 9295   6.365   0.562   0.133  0.2164  0.1356  0.1980
 5552W        W 9296   3.955   7.350   3.715 -0.1013 -0.1233 -0.0357
 5553W        W 9297   0.403   6.401   3.282 -0.2700  0.0831  0.2554
 5554W        W 9298   3.259   2.427   1.034 -0.2408  0.2103 -0.0749
 5555W        W 9299   1.935   3.909  11.560 -0.2426 -0.0933 -0.3659
 5556W        W 9300   1.653   5.619  10.382  0.0251 -0.2677  0.0334
 5557W        W 9301   0.026   2.403   9.082  0.1257  0.1460  0.5083
 5558W        W 9302   4.269   6.602   9.165 -0.0232  0.2410 -0.2470
 5559W        W 9303   5.647   4.176   3.759  0.1527  0.3206  0.1986
 5560W        W 9304   0.053   2.074   3.478 -0.3373  0.1105  0.1119
 5561W        W 9305   4.120   0.986   0.024  0.0190  0.2175 -0.2055
 5562W        W 9306   1.431   9.826   8.935 -0.2641  0.1053  0.4882
 5563W        W 9307   8.187   4.600   8.937 -0.3631 -0.1176  0.1959
 5564W        W 9308   3.202   3.134   3.561 -0.0921  0.4977  0.1763
 5565W        W 9309   4.475   9.379  10.148  0.1452  0.0601  0.2631
 5566W        W 9310   6.767   4.455   9.515 -0.0692 -0.1044  0.0650
 5567W        W 9311   6.608   3.112   4.509  0.0993 -0.1775  0.2438
 5568W        W 9312   9.296   9.234  10.179  0.2338 -0.0884 -0.1076
 5569W        W 9313   5.630   6.495   9.725 -0.1459 -0.1474  0.1064
 5570W        W 9314   1.988   3.213   9.113 -0.0297  0.0074 -0.0666
 5571W        W 9315   7.369   5.004   2.149  0.2386 -0.0672  0.1062
 5572W        W 9316   2.356   0.958   9.464  0.0219  0.2371 -0.0639
 5573W        W 9317   4.751   9.581  10.571 -0.3012 -0.2503 -0.3022
 5574W        W 9318   3.803   9.700  10.884  0.3826  0.1633 -0.1845
 5575W        W 9319   1.402   7.006   0.938 -0.2174  0.0344 -0.3520
 5576W        W 9320   2.367   0.042   1.707  0.0224  0.0977  0.1580
 5577W        W 9321   1.378   8.553   1.028  0.5008 -0.4189  0.0180
 5578W        W 9322   6.866   4.245   3.019  0.2597  0.1581  0.0162
 5579W        W 9323   6.217   4.140  11.908 -0.0869 -0.3417  0.0570
 5580W        W 9324   0.950   0.104   2.888  0.1540  0.0736  0.2934
 5581W        W 9325   7.252   9.335  11.520  0.0082  0.0731  0.2828
 5582W        W 9326   5.586   9.422   3.114  0.0175 -0.1290 -0.1958
 5583W        W 9327   0.277   8.470   1.229 -0.4852 -0.1032 -0.0203
 5584W        W 9328   9.428   3.168   0.256 -0.0289 -0.3911 -0.1535
 5585W        W 9329   5.125   6.896  12.749 -0.1067 -0.2548 -0.0658
 5586W        W 9330   9.606   4.157   0.176 -0.3299 -0.0690  0.0920
 5587W        W 9331   0.897   0.796   4.136 -0.0420  0.4011  0.2859
 5588W        W 9332   3.330   9.315  11.126 -0.1114  0.0628  0.2959
 5589W        W 9333   2.659   5.952  11.621 -0.2552 -0.0918  0.1131
 5590W        W 9334   6.779   4.770  10.907 -0.2335 -0.0511  0.0959
 5591W        W 9335   0.780   8.577  10.015  0.3591  0.0368  0.0759
 5592W        W 9336   9.436   3.927  11.347 -0.1266 -0.3428 -0.2411
 5593W        W 9337   0.847   6.742   9.523  0.0776  0.0921  0.0589
 5594W        W 9338   2.967   6.741   1.770  0.2271 -0.0835 -0.0967
 5595W        W 9339   9.740   7.289   4.009 -0.3730 -0.1719  0.1965
 5596W        W 9340   5.117   1.433  12.483 -0.3943 -0.0813 -0.1845
 5597W        W 9341   0.567   3.782   3.687 -0.2118 -0.1415 -0.3939
 5598W        W 9342   3.981   9.764  11.847 -0.0154  0.1534  0.2661
 5599W        W 9343   8.116   9.131  11.833  0.2112  0.2221 -0.1350
 5600W        W 9344   8.274   1.450   0.419  0.1487  0.1180  0.1048
 5601W        W 9345   3.498   7.524   3.862 -0.2019  0.1565 -0.1493
 5602W        W 9346   7.128   4.771   9.356  0.0152 -0.0263 -0.3118
 5603W        W 9347   0.155   2.269   8.484  0.1233  0.0242 -0.2146
 5604W        W 9348   6.626   3.552   3.524  0.1646 -0.4430 -0.1724
 5605W        W 9349   2.139   0.511   4.755 -0.1743  0.2639 -0.0605
 5606W        W 9350   6.640   9.376   3.136 -0.0941 -0.0584  0.1716
 5607W        W 9351   5.999   3.486   4.991  0.4920 -0.2093 -0.1528
 5608W        W 9352   1.942   1.562   3.007 -0.0138  0.0519 -0.0261
 5609W        W 9353   8.606   5.122  10.235  0.1994 -0.1279  0.0148
 5610W        W 9354   8.676   4.766   9.058  0.0804  0.0194 -0.0250
 5611W        W 9355   1.139   6.029  11.653 -0.2155 -0.0865  0.1552
 5612W        W 9356   8.104   6.498   9.471  0.0512 -0.2576  0.3947
 5613W        W 9357   9.077   5.030   9.223  0.0466 -0.3581 -0.0208
 5614W        W 9358   7.162   0.259   2.983 -0.0625  0.1830 -0.1915
 5615W        W 9359   6.691   5.314  11.606 -0.3804 -0.0321 -0.0845
 5616W        W 9360   1.727   4.306   0.003 -0.1732  0.1562  0.0399
 5617W        W 9361   4.265   5.556   3.696  0.1732 -0.1555 -0.3341
 5618W        W 9362   9.338   3.871   3.243 -0.1571  0.0781 -0.1078
 5619W        W 9363   6.200   1.697   0.210 -0.0358 -0.0820  0.2388
 5620W        W 9364   4.060   5.280   2.699  0.0825  0.2441  0.2830
 5621W        W 9365   8.565   5.525  12.409 -0.0855 -0.1361  0.0278
 5622W        W 9366   4.718   5.009   1.975 -0.2505 -0.0557  0.0001
 5623W        W 9367   6.977   1.417   9.368  0.0846 -0.2366  0.0916
 5624W        W 9368   4.995   4.193   9.161  0.2641 -0.0831  0.1681
 5625W        W 9369   1.552   8.596   2.211  0.2687 -0.1172 -0.1280
 5626W        W 9370   9.337   7.333   0.522  0.0213  0.1099  0.0445
 5627W        W 9371   3.700   3.570   9.454 -0.0194 -0.4499 -0.3484
 5628W        W 9372   3.794   3.002   4.727 -0.0280 -0.0551  0.1406
 5629W        W 9373   2.412   1.719  11.833 -0.1069 -0.4665  0.0528
 5630W        W 9374   0.095   5.274   0.087 -0.0120  0.3732  0.7030
 5631W        W 9375   3.656   9.636   0.421  0.0603 -0.0771  0.2075
 5632W        W 9376   9.606   3.816   8.835 -0.1761  0.0684 -0.2348
 5633W        W 9377   0.675   6.283   8.290  0.0230 -0.0255  0.3824
 5634W        W 9378   3.262   1.116   3.311 -0.0828  0.3482 -0.3036
 5635W        W 9379   5.008   1.091  12.192  0.0229  0.1233  0.3236
 5636W        W 9380   4.476   9.300   1.366 -0.1287 -0.0804  0.1880
 5637W        W 9381   0.718   8.999  10.262  0.3022  0.1650  0.1581
 5638W        W 9382   4.572   1.044  10.805 -0.0899  0.0069 -0.0068
 5639W        W 9383   8.865   2.626   0.298  0.1917 -0.1946  0.1164
 5640W        W 9384   2.775   1.333  12.177  0.1679  0.3929 -0.0701
 5641W        W 9385   4.632   5.420   9.165 -0.0227 -0.0051 -0.3403
 5642W        W 9386   1.034   7.125   0.069 -0.1734 -0.0166  0.0667
 5643W        W 9387   3.316   4.544  11.779 -0.2648  0.3220 -0.1454
 5644W        W 9388   3.181   3.180  10.679 -0.1115  0.0947 -0.1069
 5645W        W 9389   0.961   2.442  10.024  0.1336 -0.1135  0.3468
 5646W        W 9390   4.750   8.441  11.320 -0.2715 -0.0730  0.0928
 5647W        W 9391   3.400   9.311   8.658  0.1525  0.0361 -0.0946
 5648W        W 9392   8.979   4.228  11.180  0.1007  0.1786  0.0719
 5649W        W 9393   6.128   1.014  11.539 -0.0815  0.0168 -0.0186
 5650W        W 9394   8.003   6.405   0.339 -0.3431 -0.4252  0.0961
 5651W        W 9395   5.418   0.855  10.243 -0.2238  0.3727 -0.1406
 5652W        W 9396   4.764   6.930   1.794 -0.0267  0.0727 -0.0517
 5653W        W 9397   7.141   0.653   3.379  0.5542  0.1088  0.1591
 5654W        W 9398   0.181   5.585   9.248  0.2037  0.2350  0.1305
 5655W        W 9399   2.988   8.274   2.083 -0.1050 -0.1743  0.0459
 5656W        W 9400   1.714   2.543   8.505 -0.2318 -0.0497 -0.1808
 5657W        W 9401   8.138   7.869  10.050  0.0715 -0.0814  0.1863
 5658W        W 9402   9.182   0.362  12.264  0.0923  0.0054 -0.1377
 5659W        W 9403   0.914   2.358  11.381  0.3518 -0.0962  0.3924
 5660W        W 9404   1.879   7.217   4.291  0.0306 -0.0023  0.2222
 5661W        W 9405   6.078   4.170   1.263 -0.0316  0.0230 -0.3946
 5662W        W 9406   8.359   7.309   1.323  0.0609  0.4706  0.0280
 5663W        W 9407   6.627   1.516  12.354 -0.1691 -0.2239  0.2400
 5664W        W 9408   8.855   3.475   8.457  0.3285  0.0343  0.0416
 5665W        W 9409   2.138   9.681  10.615  0.1314 -0.2829  0.0797
 5666W        W 9410   6.019   4.344   1.770  0.2333  0.2556 -0.3764
 5667W        W 9411   8.537   0.090  11.512 -0.2065  0.3288 -0.0216
 5668W        W 9412   6.488   8.691   1.226  0.0496  0.0931 -0.1580
 5669W        W 9413   9.546   1.376   2.919  0.0861 -0.1160  0.0985
 5670W        W 9414   1.829   7.368   1.028  0.0232  0.5484  0.0614
 5671W        W 9415   4.546   3.468   3.565  0.1180  0.1271  0.0803
 5672W        W 9416   7.175   7.446   0.640  0.1840 -0.0549  0.0721
 5673W        W 9417   5.678   7.325  10.509 -0.0992 -0.2102  0.2059
 5674W        W 9418   7.558   5.767  12.360 -0.1218  0.0490  0.1331
 5675W        W 9419   5.596   8.376  11.893  0.1083 -0.2876 -0.2109
 5676W        W 9420   9.920   9.171   9.009 -0.4920  0.0282 -0.0416
 5677W        W 9421   5.278   7.825   2.660  0.2260  0.1758  0.1754
 5678W        W 9422   5.290   7.388   0.930 -0.1642 -0.0027  0.2594
 5679W        W 9423   2.381   9.336  10.120 -0.0033 -0.0351 -0.3343
 5680W        W 9424   3.805   0.959   3.141 -0.0088 -0.0500 -0.3704
 5681W        W 9425   2.990   6.429   3.722 -0.2017  0.0362  0.0857
 5682W        W 9426   2.282   4.347  10.707 -0.3178 -0.1569 -0.4646
 5683W        W 9427   1.115   5.956  10.580  0.0322 -0.0486  0.1321
 5684W        W 9428   1.076   0.616   3.005 -0.2963  0.1445  0.0916
 5685W        W 9429   6.294   2.127  11.293 -0.2297  0.0847  0.1603
 5686W        W 9430   3.134   0.528   8.124  0.0913 -0.0194  0.0312
 5687W        W 9431   2.197   9.633   9.655  0.1827 -0.3178 -0.1814
 5688W        W 9432   9.070   6.714  12.392  0.0509 -0.0992 -0.1714
 5689W        W 9433   6.402   3.576   2.115 -0.0901 -0.2729  0.0545
 5690W        W 9434   1.592   9.358   2.599  0.0540  0.0733 -0.5190
 5691W        W 9435   9.113   5.969   0.442 -0.2709  0.0236 -0.2162
 5692W        W 9436   5.010   8.981  12.319  0.1512  0.0955  0.0884
 5693W        W 9437   5.212   2.367  12.391 -0.1726  0.0984 -0.1697
 5694W        W 9438   5.845   4.474  10.713 -0.0488  0.0507  0.0680
 5695W        W 9439   2.641   6.447  11.582  0.0520 -0.4630  0.0848
 5696W        W 9440   6.589   0.152   9.799 -0.0412 -0.2767  0.3827
 5697W        W 9441   9.529   3.022   0.712  0.1242  0.3843 -0.0410
 5698W        W 9442   1.260   8.982   2.111  0.1628  0.0200 -0.0590
 5699W        W 9443   6.668   3.379  11.539 -0.1979  0.1307 -0.1425
 5700W        W 9444   0.376   4.878  10.952  0.2137  0.0159  0.1814
 5701W        W 9445   6.299   0.684   3.296  0.0651 -0.3127  0.1598
 5702W        W 9446   9.745   5.116   9.965  0.1557  0.3932  0.2986
 5703W        W 9447   2.888   8.071   4.529  0.1551  0.1294 -0.2921
 5704W        W 9448   0.581   9.878   8.872 -0.1666 -0.0518 -0.1909
 5705W        W 9449   3.122   0.490   5.346  0.2986  0.1028  0.0250
 5706W        W 9450   6.180   1.044   1.907 -0.0915  0.0973  0.0740
 5707W        W 9451   1.824   0.713  10.410  0.0238  0.0895  0.1815
 5708W        W 9452   2.392   6.210  12.510  0.2187 -0.0374  0.0535
 5709W        W 9453   0.599   3.270   9.312 -0.1061 -0.0608 -0.1891
 5710W        W 9454   1.596   0.697   1.994 -0.1437 -0.0843  0.0387
 5711W        W 9455   4.128   5.484   1.826 -0.2114 -0.2394  0.0627
 5712W        W 9456   5.575   8.996   2.020 -0.3203 -0.1464 -0.3104
 5713W        W 9457   0.120   2.763   8.398 -0.1426 -0.1897  0.0799
 5714W        W 9458   8.093   4.333  12.692  0.2936  0.2882  0.1182
 5715W        W 9459   5.134   8.832  11.177 -0.0572  0.1857  0.0056
 5716W        W 9460   1.145   5.598   9.689 -0.1264 -0.1452 -0.1302
 5717W        W 9461   8.025   4.983   4.345 -0.2368  0.1473  0.1362
 5718W        W 9462   5.916   9.835   3.085  0.0588  0.4243 -0.2070
 5719W        W 9463   9.499   7.778  11.377 -0.2063  0.0494  0.2196
 5720W        W 9464   6.334   3.548   2.657 -0.0045  0.2077  0.1545
 5721W        W 9465   1.522   4.655  11.258  0.2265  0.0060  0.0531
 5722W        W 9466   9.742   2.171   1.281 -0.0306  0.1309 -0.0540
 5723W        W 9467   4.067   2.247  11.256 -0.2998  0.0418 -0.0933
 5724W        W 9468   6.527   0.200   1.680 -0.2467  0.1962 -0.1048
 5725W        W 9469   6.121   4.455   4.557  0.0043 -0.1748 -0.1900
 5726W        W 9470   7.632   5.210   4.019 -0.0178 -0.3809 -0.1509
 5727W        W 9471   6.164   3.977   0.801  0.0965 -0.3993  0.0455
 5728W        W 9472   9.131   7.419  11.405 -0.1716  0.0814 -0.0118
 5729W        W 9473   6.996   1.203   8.923 -0.0054 -0.0965 -0.1151
 5730W        W 9474   6.694   1.741   0.845  0.1227  0.2942 -0.2445
 5731W        W 9475   7.628   8.856   1.520  0.5151 -0.0342  0.0913
 5732W        W 9476   2.765   5.295  12.278 -0.1360  0.1331 -0.4192
 5733W        W 9477   0.441   0.118   2.838  0.3574  0.0124 -0.3436
 5734W        W 9478   0.507   2.048   8.817 -0.2475 -0.0656 -0.3357
 5735W        W 9479   4.910   2.708  12.145  0.0258 -0.0800  0.2570
 5736W        W 9480   9.307   1.221   9.029  0.2430 -0.3057  0.0369
 5737W        W 9481   3.382   3.593   2.654  0.2198  0.1985  0.1583
 5738W        W 9482   0.087   6.324   4.167 -0.0004 -0.2327 -0.0350
 5739W        W 9483   2.662   3.125  10.563 -0.1833 -0.1621  0.2599
 5740W        W 9484   0.222   1.397   8.446  0.0831  0.0756 -0.1147
 5741W        W 9485   5.294   3.068   3.088  0.2996  0.3906  0.1869
 5742W        W 9486   4.425   9.254   8.921 -0.1039  0.0400  0.3975
 5743W        W 9487   6.119   2.830   1.112 -0.0345  0.1913 -0.0188
 5744W        W 9488   6.269   2.306   1.056  0.2044 -0.1793  0.1005
 5745W        W 9489   0.740   8.358  12.158  0.1335  0.0111 -0.2636
 5746W        W 9490   5.868   0.424   8.152  0.2879 -0.0588  0.0083
 5747W        W 9491   4.808   2.020   4.574 -0.2602  0.0722 -0.0243
 5748W        W 9492   4.148   3.447   9.112 -0.1015  0.4357 -0.3572
 5749W        W 9493   7.068   3.774   0.530  0.0909 -0.1876 -0.1383
 5750W        W 9494   9.797   9.476   4.585  0.3623 -0.0624  0.0836
 5751W        W 9495   8.694   5.721   0.467 -0.1177  0.1530  0.0741
 5752W        W 9496   4.970   7.412   2.973 -0.1139  0.1819 -0.0488
 5753W        W 9497   1.952   0.174   1.152 -0.1888  0.1848 -0.0361
 5754W        W 9498   1.055   4.572   9.050  0.0229  0.1608  0.0203
 5755W        W 9499   4.596   7.000  11.812  0.1132 -0.0637  0.0339
 5756W        W 9500   6.757   4.014   3.948 -0.2071 -0.0982  0.2222
 5757W        W 9501   8.089   0.228   3.518  0.0539 -0.1056  0.0213
 5758W        W 9502   8.380   8.873   2.227  0.1874 -0.2427  0.1379
 5759W        W 9503   8.530   7.120   0.213  0.0251  0.2583 -0.1157
 5760W        W 9504   0.450   2.899   1.326  0.4801 -0.1122  0.1960
 5761W        W 9505   5.062   4.263   3.108 -0.0541 -0.0578 -0.0064
 5762W        W 9506   5.863   2.839  12.293  0.0789 -0.0947  0.3818
 5763W        W 9507   8.426   1.073   9.882  0.0995  0.1503 -0.1532
 5764W        W 9508   2.729   9.240  11.413  0.0049  0.2402  0.2113
 5765W        W 9509   1.913   7.840   0.655 -0.3979  0.0352  0.1017
 5766W        W 9510   7.643   3.967   0.752 -0.2852  0.0464 -0.2638
 5767W        W 9511   9.368   8.655   2.100  0.4083 -0.0621 -0.2591
 5768W        W 9512   6.958   1.109   5.607 -0.0372 -0.1306 -0.3126
 5769W        W 9513   6.805   5.813   1.454  0.0462  0.2257  0.1918
 5770W        W 9514   2.765   3.220   4.077  0.1008  0.0214  0.2708
 5771W        W 9515   4.259   3.971   8.881 -0.1605 -0.3744  0.2142
 5772W        W 9516   5.350   8.724   2.346  0.0713  0.1615 -0.1156
 5773W        W 9517   4.977   1.962   3.870 -0.3009 -0.2891  0.0358
 5774W        W 9518   8.828   9.479   4.561  0.2627 -0.1480  0.2233
 5775W        W 9519   9.391   8.812   1.330 -0.2360  0.1525 -0.0144
 5776W        W 9520   9.023   3.741  11.148 -0.0132  0.0502 -0.1394
 5777W        W 9521   9.760   3.210  10.845  0.1207  0.4073  0.0136
 5778W        W 9522   0.085   4.693  11.836 -0.2627 -0.4557  0.0935
 5779W        W 9523   2.405   0.800   3.041 -0.3878 -0.0796  0.1956
 5780W        W 9524   3.843   1.130  11.512  0.3421  0.2037 -0.2073
 5781W        W 9525   4.935   7.818   1.020  0.2256  0.3088 -0.0934
 5782W        W 9526   1.226   4.819  12.679 -0.2597 -0.2011  0.1231
 5783W        W 9527   4.560   1.445   2.602  0.4002 -0.1251  0.3160
 5784W        W 9528   3.135   5.516  12.502  0.1285 -0.2477 -0.3533
 5785W        W 9529   0.174   6.552   1.213 -0.0985  0.2887 -0.1080
 5786W        W 9530   3.543   8.493   1.782  0.1443 -0.1282 -0.1519
 5787W        W 9531   1.376   9.543   3.498  0.1648  0.0270  0.1296
 5788W        W 9532   2.839   8.042  10.865  0.1559 -0.0538 -0.1071
 5789W        W 9533   0.514   5.171   9.146  0.0333 -0.0719  0.3055
 5790W        W 9534   3.572   4.848   9.549  0.1108 -0.0786  0.1020
 5791W        W 9535   4.193   3.135   1.179  0.0726  0.0830  0.3789
 5792W        W 9536   3.698   7.314  11.773 -0.1603  0.2324  0.0816
 5793W        W 9537   2.669   0.882   3.721  0.0684  0.2003 -0.0097
 5794W        W 9538   0.032   3.221   2.645  0.0488 -0.1424  0.0993
 5795W        W 9539   6.287   1.869   8.899  0.1446 -0.0798 -0.1666
 5796W        W 9540   3.906   8.727   0.847  0.0140 -0.3154  0.1659
 5797W        W 9541   4.180   3.225  11.705  0.1598  0.1440 -0.1179
 5798W        W 9542   1.448   4.971   9.071 -0.0943  0.2032 -0.0416
 5799W        W 9543   2.294   2.571   8.406  0.1882 -0.0263 -0.1526
 5800W        W 9544   6.366   6.119  11.921 -0.1021  0.2728  0.0524
 5801W        W 9545   2.588   7.335  12.715  0.0658 -0.0785 -0.0336
 5802W        W 9546   4.290   2.574   1.003  0.1515  0.0459 -0.0392
 5803W        W 9547   1.970   1.677  12.218 -0.5293  0.1827  0.0787
 5804W        W 9548   6.006   4.227   3.321 -0.0549 -0.0971 -0.2798
 5805W        W 9549   5.881   1.927   0.970 -0.0208  0.0784 -0.0741
 5806W        W 9550   1.609   0.974   9.912  0.1163  0.0915 -0.0129
 5807W        W 9551   5.814   9.245   3.995 -0.1641  0.2554  0.0524
 5808W        W 9552   9.362   5.278  12.067 -0.4057  0.0520 -0.0919
 5809W        W 9553   9.571   5.248  11.587 -0.1016 -0.1379  0.0033
 5810W        W 9554   4.643   1.186   8.565  0.2630 -0.0245 -0.3333
 5811W        W 9555   3.512   4.871   3.546 -0.1456 -0.1339 -0.3217
 5812W        W 9556   6.680   1.219   0.767  0.2589  0.0237 -0.4511
 5813W        W 9557   9.328   8.310   0.218 -0.1572 -0.0266 -0.0892
 5814W        W 9558   0.556   3.308   8.639  0.0190  0.3307  0.1880
 5815W        W 9559   2.355   7.537   8.816  0.0013 -0.1067 -0.0334
 5816W        W 9560   7.284   1.991  12.809 -0.0015  0.0793  0.3178
 5817W        W 9561   6.180   7.345   2.179  0.3976 -0.0901 -0.3264
 5818W        W 9562   9.255   3.411  10.773 -0.1630 -0.2159 -0.0437
 5819W        W 9563   2.587   4.923  11.565  0.0266 -0.1416  0.3553
 5820W        W 9564   8.920   8.816   0.274 -0.0118 -0.0399  0.1055
 5821W        W 9565   1.438   8.889   8.911 -0.3833  0.1070 -0.1820
 5822W        W 9566   2.169   9.735   1.324 -0.2324  0.2028  0.0268
 5823W        W 9567   0.093   1.860   9.718 -0.0853 -0.0167 -0.1130
 5824W        W 9568   2.814   8.632   3.380  0.2323  0.3633 -0.0566
 5825W        W 9569   0.496   8.363   3.537 -0.0773 -0.3340 -0.0342
 5826W        W 9570   1.470   9.596   9.875 -0.1436 -0.1611 -0.1036
 5827W        W 9571   5.944   7.686  10.691 -0.2357  0.1564 -0.2078
 5828W        W 9572   1.526   8.843   2.624 -0.2557 -0.1157 -0.2726
 5829W        W 9573   0.204   2.391  12.571 -0.0002 -0.2115  0.0108
 5830W        W 9574   9.757   0.627   9.866  0.1887 -0.0053 -0.1921
 5831W        W 9575   3.682   1.299  12.477  0.1603  0.2491  0.1537
 5832W        W 9576   0.125   9.634   2.866 -0.2726 -0.0357  0.4269
 5833W        W 9577   0.097   0.441   4.480  0.2765 -0.0069  0.3942
 5834W        W 9578   5.001   8.972   9.330  0.2048 -0.1783  0.0045
 5835W        W 9579   1.252   2.848   2.221  0.1426 -0.0078 -0.3063
 5836W        W 9580   2.459   6.600   1.484  0.0681 -0.3576  0.1568
 5837W        W 9581   8.656   8.617   9.107 -0.1073  0.0365  0.0434
 5838W        W 9582   8.725   8.663   9.704  0.2201 -0.1669 -0.2244
 5839W        W 9583   7.769   3.619   0.116 -0.1674 -0.0580  0.1072
 5840W        W 9584   7.854   9.577   9.686  0.2416 -0.2301  0.0495
 5841W        W 9585   6.437   7.826   2.263  0.0753 -0.4405 -0.0839
 5842W        W 9586   0.176   0.382   0.724  0.0336  0.2808  0.3958
 5843W        W 9587   0.243   0.420  10.119  0.0275  0.2493  0.2582
 5844W        W 9588   1.530   1.947   9.415  0.0934 -0.2769 -0.2054
 5845W        W 9589   1.483   3.301  11.251 -0.1649 -0.2147  0.1733
 5846W        W 9590   6.177   2.665   2.559 -0.1360 -0.1335  0.0124
 5847W        W 9591   4.032   0.316   1.881  0.0567 -0.1243 -0.1176
 5848W        W 9592   3.274   2.111   3.915  0.0413 -0.1000  0.0521
 5849W        W 9593   2.263   3.313   3.914  0.0541 -0.2329 -0.1010
 5850W        W 9594   7.655   9.700   2.107 -0.0148 -0.1673 -0.2888
 5851W        W 9595   0.873   5.543  10.992 -0.0768 -0.0351  0.0010
 5852W        W 9596   9.182   8.460   3.505 -0.1961 -0.0456  0.1932
 5853W        W 9597   8.066   2.216   3.585  0.1224  0.2756 -0.0635
 5854W        W 9598   2.193   2.723  11.239 -0.2040  0.1827  0.3740
 5855W        W 9599   7.561   9.675  11.204 -0.0734  0.1454 -0.0968
 5856W        W 9600   3.560   0.937   4.160 -0.0077  0.0113  0.1948
 5857W        W 9601   0.667   4.322   1.315 -0.0720  0.0003  0.1751
 5858W        W 9602   6.727   0.469   3.078 -0.0824 -0.0890  0.4152
 5859W        W 9603   6.403   0.490   2.584 -0.2726  0.3887 -0.1266
 5860W        W 9604   2.620   5.211   3.871  0.3238 -0.0831  0.1324
 5861W        W 9605   9.737   6.363  10.861  0.2268 -0.0663  0.2103
 5862W        W 9606   0.319   6.118   2.171  0.1360  0.1598  0.2544
 5863W        W 9607   1.594   1.919   1.621  0.2369 -0.0813  0.0999
 5864W        W 9608   0.876   7.642   1.436 -0.1549  0.2097 -0.0726
 5865W        W 9609   2.002   0.164   8.459 -0.0409 -0.1258  0.4631
 5866W        W 9610   2.144   8.078   2.769 -0.0016  0.3472  0.1517
 5867W        W 9611   5.755   3.511  11.556 -0.0133  0.0257  0.2260
 5868W        W 9612   1.869   0.099  12.156 -0.1963  0.0517 -0.0185
 5869W        W 9613   3.719   2.418   2.285  0.3154  0.1626 -0.0276
 5870W        W 9614   5.476   7.829   9.758 -0.0321 -0.3069  0.1505
 5871W        W 9615   2.649   7.611  12.322 -0.2585  0.2633  0.1188
 5872W        W 9616   7.099   9.717   2.756 -0.0300  0.2712 -0.1015
 5873W        W 9617   9.400   8.212  11.075 -0.0137 -0.1677  0.1346
 5874W        W 9618   7.078   9.342  11.983  0.0982 -0.1264 -0.0364
 5875W        W 9619   9.699   1.143   0.442  0.0037  0.2248 -0.0002
 5876W        W 9620   3.604   0.160   0.704  0.1726 -0.1443  0.0431
 5877W        W 9621   2.465   4.384  12.326  0.1087 -0.1153 -0.0267
 5878W        W 9622   5.188   1.157   9.703  0.0038  0.3774 -0.1822
 5879W        W 9623   1.547   4.590   1.171 -0.3969 -0.5284 -0.1286
 5880W        W 9624   6.063   9.740   0.511  0.1970 -0.5467 -0.0619
 5881W        W 9625   3.307   3.294   4.031 -0.2676  0.0709  0.2269
 5882W        W 9626   0.202   0.224   4.033  0.1054  0.1403 -0.0667
 5883W        W 9627   6.211   8.434  11.068  0.0778  0.0194  0.1746
 5884W        W 9628   7.954   7.216   0.068  0.0706  0.0320 -0.2011
 5885W        W 9629   0.952   5.144  12.485 -0.0768 -0.1566 -0.0988
 5886W        W 9630   7.284   3.307  12.435  0.1651 -0.0332 -0.0128
 5887W        W 9631   6.270   3.135   0.510  0.0403 -0.0103 -0.0925
 5888W        W 9632   9.311   2.284   3.174  0.1305 -0.0677  0.0329
 5889W        W 9633   9.496   3.455  11.232 -0.0709 -0.4141  0.1445
 5890W        W 9634   5.424   1.727   1.000 -0.2604 -0.0757  0.2935
 5891W        W 9635   8.718   2.775   9.002  0.1917 -0.2086 -0.0824
 5892W        W 9636   7.428   0.992   8.971  0.0837 -0.0147 -0.2923
 5893W        W 9637   4.717   1.380   9.748  0.0218  0.0835  0.0411
 5894W        W 9638   9.535   3.705  11.749  0.1842 -0.0670  0.1233
 5895W        W 9639   5.835   8.497   2.053 -0.3065  0.0349 -0.0083
 5896W        W 9640   3.321   1.980  10.924  0.4100 -0.2297  0.2466
 5897W        W 9641   9.160   4.527  12.021 -0.0427 -0.2335  0.0017
 5898W        W 9642   4.232   7.334  11.016 -0.0616  0.0900  0.0402
 5899W        W 9643   5.014   1.090   1.201 -0.2124 -0.0962 -0.2905
 5900W        W 9644   5.128   0.173   0.505  0.2903  0.2365  0.1242
 5901W        W 9645   4.514   4.270   9.271 -0.0309  0.2399  0.1602
 5902W        W 9646   8.266   3.700  10.679  0.0433  0.3088 -0.0916
 5903W        W 9647   2.313   3.455  11.932 -0.1242  0.2598 -0.0222
 5904W        W 9648   7.600   5.489   2.024  0.0244  0.0908  0.4455
 5905W        W 9649   1.718   2.886  12.817  0.2518 -0.2314 -0.2793
 5906W        W 9650   1.056   5.095   1.630  0.2423  0.1501 -0.3074
 5907W        W 9651   1.902   4.837   0.529 -0.1905 -0.1249 -0.1585
 5908W        W 9652   8.772   3.471  10.724  0.2800  0.2289 -0.1072
 5909W        W 9653   2.290   9.257  11.067  0.0096 -0.1415  0.0592
 5910W        W 9654   7.490   7.318   1.920 -0.3537 -0.0406  0.0086
 5911W        W 9655   7.993   2.388   5.367  0.1202 -0.1007  0.4054
 5912W        W 9656   0.795   7.360   2.244 -0.0687 -0.0293 -0.0272
 5913W        W 9657   6.532   8.798  10.119 -0.0732 -0.2491 -0.1508
 5914W        W 9658   0.825   1.426   9.186  0.4333  0.0087 -0.2136
 5915W        W 9659   4.927   0.848   9.994 -0.1292 -0.0565  0.0607
 5916W        W 9660   1.338   0.357  11.520  0.0898 -0.1753  0.3244
 5917W        W 9661   1.718   1.940  10.917 -0.0995  0.2274 -0.4102
 5918W        W 9662   8.023   5.888  11.179  0.0961 -0.1872  0.0222
 5919W        W 9663   6.263   4.675   9.530 -0.0272  0.0584 -0.0807
 5920W        W 9664   2.547   2.046   9.959  0.0899  0.2922  0.0381
 5921W        W 9665   1.080   6.888  11.162  0.1144  0.3493 -0.1334
 5922W        W 9666   8.035   4.416   1.656 -0.0171  0.1894  0.1360
 5923W        W 9667   5.103   7.375   8.413  0.0257  0.3580 -0.0802
 5924W        W 9668   5.591   1.865  10.370 -0.0573 -0.2276  0.0694
 5925W        W 9669   9.874   3.359   0.367  0.1617 -0.0073  0.0945
 5926W        W 9670   0.820   4.325   8.231  0.1129 -0.1467  0.1110
 5927W        W 9671   8.990   2.245   9.557  0.2742  0.2968 -0.0290
 5928W        W 9672   0.168   5.377  10.270  0.4124  0.0750 -0.4206
 5929W        W 9673   3.515   6.314   3.548  0.1596 -0.3835 -0.0066
 5930W        W 9674   8.537   2.241   2.372 -0.3014  0.3121  0.0350
 5931W        W 9675   9.897   9.645   2.269 -0.1018 -0.3761  0.0146
 5932W        W 9676   7.034   8.138   2.728 -0.4444 -0.1765 -0.3611
 5933W        W 9677   6.784   6.056  12.197  0.0452  0.1582 -0.1777
 5934W        W 9678   1.471   0.944   3.295  0.1175 -0.1312 -0.1246
 5935W        W 9679   3.438   9.013   2.991  0.2267  0.0728 -0.0281
 5936W        W 9680   8.052   0.208   2.558 -0.0364  0.1842  0.0598
 5937W        W 9681   9.478   7.789  12.693 -0.1535 -0.1319  0.0667
 5938W        W 9682   4.218   7.976   0.173  0.1673 -0.0501  0.2000
 5939W        W 9683   6.426   4.572  10.405  0.0622  0.0006 -0.1153
 5940W        W 9684   4.422   4.642  11.685 -0.0343 -0.0609 -0.2564
 5941W        W 9685   3.103   3.936  10.311 -0.2967 -0.2341 -0.1607
 5942W        W 9686   0.242   9.940   3.329 -0.0964 -0.0474 -0.3322
 5943W        W 9687   2.881   6.342   2.021  0.1357  0.1997  0.0623
 5944W        W 9688   0.759   3.865   2.238  0.1885  0.2853 -0.3919
 5945W        W 9689   5.446   1.573   9.947 -0.0995  0.0470  0.0191
 5946W        W 9690   3.533   6.023   1.566 -0.0462  0.0253 -0.1589
 5947W        W 9691   6.592   4.715   9.905  0.1383 -0.0218  0.1188
 5948W        W 9692   2.173   5.555  10.141  0.2284  0.0638 -0.2852
 5949W        W 9693   1.325   1.502  12.339  0.3762  0.1151  0.5006
 5950W        W 9694   4.483   7.923   9.093 -0.1057 -0.1170  0.3344
 5951W        W 9695   9.518   5.543   9.824  0.0194  0.3598  0.0364
 5952W        W 9696   5.567   8.137  12.336 -0.0500  0.0421 -0.0051
 5953W        W 9697   0.145   3.340   1.295 -0.0215  0.1326 -0.1503
 5954W        W 9698   2.471   6.818   0.048 -0.0195 -0.1744  0.0816
 5955W        W 9699   8.453   3.070   2.013  0.0416  0.1086  0.0804
 5956W        W 9700   8.188   4.799   1.995 -0.4022 -0.3930  0.0488
 5957W        W 9701   3.842   3.518  10.046 -0.0308  0.0251  0.0432
 5958W        W 9702   7.768   0.748   3.783 -0.1809  0.3335  0.0940
 5959W        W 9703   7.435   9.752   3.755  0.3769 -0.1346 -0.3410
 5960W        W 9704   9.036   0.388   1.510 -0.0827 -0.1238  0.0720
 5961W        W 9705   1.134   2.209   0.912 -0.2042  0.2434 -0.1790
 5962W        W 9706   4.194   2.038   4.391  0.1037 -0.0825  0.1634
 5963W        W 9707   6.889   4.548   1.073 -0.0608 -0.4700 -0.1703
 5964W        W 9708   2.924   0.182   3.368 -0.1243  0.0852 -0.1315
 5965W        W 9709   2.526   2.520   5.277  0.2629  0.3135 -0.0754
 5966W        W 9710   9.486   2.490  11.539  0.0949 -0.1395 -0.1170
 5967W        W 9711   6.196   5.122  11.562 -0.0869 -0.1586 -0.0054
 5968W        W 9712   5.731   5.831  12.646  0.4513  0.1269  0.1560
 5969W        W 9713   1.361   5.916   1.773 -0.1179  0.0609  0.2733
 5970W        W 9714   2.861   0.948   4.186  0.2409 -0.0346 -0.1167
 5971W        W 9715   9.725   1.499  11.558  0.1188 -0.1799  0.0365
 5972W        W 9716   4.598   2.764   1.962 -0.0093  0.1083 -0.2885
 5973W        W 9717   3.170   7.501   2.795  0.1197  0.0242 -0.2161
 5974W        W 9718   2.412   9.896  10.180 -0.1487  0.3928 -0.0727
 5975W        W 9719   9.777   8.169   2.953  0.0029  0.0281 -0.4848
 5976W        W 9720   2.049   9.110   2.687  0.1686 -0.1010 -0.4494
 5977W        W 9721   0.747   7.756  10.300 -0.1483 -0.1094  0.3436
 5978W        W 9722   7.078   8.694   9.846 -0.1621 -0.0762 -0.1349
 5979W        W 9723   7.344   4.199  11.980 -0.1885 -0.2638  0.0091
 5980W        W 9724   7.918   0.004   0.541 -0.1637  0.0923  0.0219
 5981W        W 9725   8.994   9.894  11.523  0.3045 -0.3283 -0.2488
 5982W        W 9726   4.366   9.905  12.053 -0.1742  0.0268 -0.1843
 5983W        W 9727   0.272   8.063  12.347  0.0852 -0.1895 -0.1482
 5984W        W 9728   2.345   1.377  10.689 -0.2022  0.3136 -0.2018
 5985W        W 9729   4.546   2.400  11.962 -0.0095  0.1848 -0.2347
 5986W        W 9730   2.076   1.966  11.330  0.1768 -0.3522  0.1081
 5987W        W 9731   6.509   3.309   9.074  0.3115 -0.0837  0.1202
 5988W        W 9732   0.283   6.341  12.072 -0.1055  0.0410 -0.1328
 5989W        W 9733   1.095   3.127   3.194  0.2111  0.1383 -0.1663
 5990W        W 9734   7.197   1.974   0.867  0.1672  0.3389 -0.0378
 5991W        W 9735   7.346   7.855  11.647  0.1035 -0.0068  0.0307
 5992W        W 9736   8.982   5.896   0.976  0.2882  0.0164  0.3379
 5993W        W 9737   4.204   8.859   9.665  0.1158  0.1596  0.1344
 5994W        W 9738   5.058   8.088   0.332 -0.1727  0.1215  0.1396
 5995W        W 9739   5.406   3.359  12.751 -0.2527  0.0755 -0.2867
 5996W        W 9740   4.522   9.297   0.497 -0.0736  0.3415 -0.0582
 5997W        W 9741   6.551   3.319  12.017  0.2429 -0.0338 -0.2179
 5998W        W 9742   3.381   9.110   4.236 -0.0159  0.0160  0.1933
 5999W        W 9743   9.931   8.459   3.432 -0.0568 -0.0724 -0.1119
 6000W        W 9744   0.233   2.792  11.620  0.0163  0.1280 -0.0390
 6001W        W 9745   2.150   2.195   9.689 -0.1857 -0.0588  0.0512
 6002W        W 9746   8.865   4.278   1.594 -0.0124  0.0971  0.2786
 6003W        W 9747   0.846   4.731   2.314  0.2530  0.0152 -0.0109
 6004W        W 9748   7.008   1.445  10.725 -0.0200 -0.3375  0.5282
 6005W        W 9749   4.262   9.814   9.639 -0.0738 -0.2005  0.0865
 6006W        W 9750   1.345   1.776  10.484 -0.2267 -0.0942  0.0574
 6007W        W 9751   2.929   8.930  12.504 -0.1931  0.1535 -0.0390
 6008W        W 9752   6.053   5.535  12.450 -0.2097  0.5880  0.3195
 6009W        W 9753   3.442   5.901   2.772 -0.1658 -0.0195 -0.3939
 6010W        W 9754   2.010   2.059   1.360  0.0544  0.2007  0.0286
 6011W        W 9755   1.358   4.870   3.709 -0.2960 -0.2076 -0.0735
 6012W        W 9756   6.443   0.894   2.886 -0.0217  0.1568 -0.0839
 6013W        W 9757   5.946   1.885   4.172  0.1098 -0.2078  0.3837
 6014W        W 9758   5.727   0.830   8.576 -0.1306  0.1150  0.2642
 6015W        W 9759   6.463   9.356   9.399  0.1526 -0.0560  0.0518
 6016W        W 9760   8.700   3.299   8.945 -0.0284 -0.1425  0.3625
 6017W        W 9761   7.351   6.636   0.987 -0.0268  0.0970  0.0734
 6018W        W 9762   2.236   1.689  10.217  0.0394  0.1528 -0.0999
 6019W        W 9763   2.005   9.675  11.126 -0.1492  0.2192  0.1128
 6020W        W 9764   6.256   9.171  11.770 -0.0514 -0.1939  0.3145
 6021W        W 9765   1.740   2.870  11.282  0.1491 -0.1095  0.1207
 6022W        W 9766   5.875   2.998   2.329  0.3042 -0.1265 -0.2453
 6023W        W 9767   0.262   9.057  10.541  0.1210 -0.0280  0.3664
 6024W        W 9768   4.278   8.965  12.142  0.0895 -0.0140  0.0006
 6025W        W 9769   6.859   7.710  11.886 -0.0970 -0.2371 -0.3319
 6026W        W 9770   8.179   6.019   2.380  0.0728 -0.0015 -0.2191
 6027W        W 9771   2.850   8.574   4.778  0.0241  0.0423 -0.1948
 6028W        W 9772   3.584   9.369  11.908 -0.2698 -0.1069  0.1172
 6029W        W 9773   7.032   2.300   2.489  0.1928  0.2809  0.1272
 6030W        W 9774   8.960   8.467  11.977 -0.0945 -0.0212 -0.2903
 6031W        W 9775   7.902   5.593  10.763 -0.0125  0.1390 -0.1151
 6032W        W 9776   1.070   0.397   9.653 -0.3111  0.0378  0.2732
 6033W        W 9777   4.255   8.703  10.742  0.3605  0.0952 -0.1776
 6034W        W 9778   3.521   7.203   1.445 -0.0911  0.0734 -0.1895
 6035W        W 9779   7.506   1.705   3.211  0.2143  0.0281 -0.0933
 6036W        W 9780   6.535   6.397  12.469  0.1958 -0.0998 -0.0918
 6037W        W 9781   4.422   7.467   1.291 -0.0307 -0.1643 -0.0359
 6038W        W 9782   6.575   0.399   9.307  0.0315  0.1902 -0.1011
 6039W        W 9783   0.583   4.305   2.184 -0.0840 -0.2268 -0.1110
 6040W        W 9784   3.146   7.661   4.246  0.0027  0.1877 -0.4085
 6041W        W 9785   7.466   9.011   2.663 -0.2895 -0.1584  0.2940
 6042W        W 9786   9.850   2.939   1.084  0.0212 -0.1855 -0.2234
 6043W        W 9787   9.205   1.183   1.377  0.0618 -0.0380  0.2938
 6044W        W 9788   0.625   5.221  10.157  0.0788 -0.1299 -0.3461
 6045W        W 9789   3.815   8.937   9.338 -0.2580 -0.2571 -0.1377
 6046W        W 9790   1.688   2.979  10.254 -0.1102  0.1999  0.3669
 6047W        W 9791   0.081   1.282  11.120  0.0583 -0.0689  0.0856
 6048W        W 9792   8.229   3.524   1.817  0.2696 -0.1746  0.0074
 6049W        W 9793   7.490   6.564   0.456  0.1183  0.2512  0.3180
 6050W        W 9794   7.494   6.885   2.342 -0.1696  0.0415  0.0274
 6051W        W 9795   6.516   1.292  10.456  0.0818  0.2118 -0.3592
 6052W        W 9796   1.177   2.270   1.495  0.1969 -0.1402  0.1997
 6053W        W 9797   0.580   3.133  10.698  0.1934  0.1787  0.3947
 6054W        W 9798   5.211   0.802   8.744 -0.1763 -0.0943 -0.0857
 6055W        W 9799   2.289   8.883  12.535  0.1228 -0.0335  0.1870
 6056W        W 9800   5.138   5.656  11.360 -0.1592 -0.1316 -0.0797
 6057W        W 9801   3.111   9.057   3.387  0.2849 -0.2491  0.1897
 6058W        W 9802   1.851   9.159   2.208 -0.1828  0.1397  0.0545
 6059W        W 9803   6.774   0.400   2.139  0.1614  0.1506  0.2569
 6060W        W 9804   8.646   9.510   3.127  0.0058 -0.3785  0.3243
 6061W        W 9805   7.913   2.879   3.930  0.0135  0.0245 -0.1887
 6062W        W 9806   1.733   0.690  11.387  0.2574  0.1786  0.0339
 6063W        W 9807   1.187   2.457   2.624  0.0109 -0.2068 -0.2898
 6064W        W 9808   8.237   6.679  12.093  0.0101  0.0766  0.0369
 6065W        W 9809   3.100   1.183   9.017  0.3840  0.4662 -0.1011
 6066W        W 9810   4.912   0.826   3.342  0.0572  0.0852  0.0127
 6067W        W 9811   2.295   5.708   1.428  0.0586 -0.1366  0.1056
 6068W        W 9812   0.388   0.497  12.131 -0.1027  0.2136 -0.1066
 6069W        W 9813   3.615   0.563   9.616  0.2444  0.2097 -0.0640
 6070W        W 9814   6.534   1.173  12.823  0.0211 -0.1436 -0.1935
 6071W        W 9815   7.494   4.532   0.952 -0.1029 -0.2885 -0.0010
 6072W        W 9816   1.361   7.785   1.535  0.0950  0.0526  0.3521
 6073W        W 9817   5.372   0.592   1.864  0.0712 -0.1864 -0.1466
 6074W        W 9818   0.000   6.827   3.943  0.1004  0.0588  0.0112
 6075W        W 9819   5.849   9.459   2.674  0.0922  0.0889 -0.5571
 6076W        W 9820   2.793   9.095   1.836 -0.0673  0.0331 -0.1194
 6077W        W 9821   5.125   3.663   0.278  0.0732  0.1224  0.0961
 6078W        W 9822   1.027   5.002  11.625 -0.0725  0.2796  0.0320
 6079W        W 9823   6.699   0.928   3.439  0.0161  0.2854 -0.1053
 6080W        W 9824   3.176   5.826   9.169 -0.1801  0.0552 -0.1150
 6081W        W 9825   6.376   2.770  12.533  0.2276 -0.0913  0.3752
 6082W        W 9826   1.180   2.681   4.534 -0.0769  0.1720 -0.2429
 6083W        W 9827   6.052   6.569   1.458  0.0826 -0.1264 -0.0091
 6084W        W 9828   1.181   8.576   2.934 -0.1767 -0.0180 -0.3027
 6085W        W 9829   4.618   4.160  10.343  0.0012  0.4680 -0.0075
 6086W        W 9830   2.602   6.746   9.341 -0.1777 -0.1395 -0.0535
 6087W        W 9831   1.272   1.222   2.432  0.1755  0.1400 -0.2730
 6088W        W 9832   9.729   2.024   2.982 -0.0625  0.0473  0.0986
 6089W        W 9833   7.398   6.594   1.919  0.2002 -0.2881  0.1520
 6090W        W 9834   7.410   8.371  10.346  0.1019 -0.3660  0.1040
 6091W        W 9835   9.841   2.462   2.153 -0.1067 -0.2117 -0.0392
 6092W        W 9836   7.154   9.823  12.705  0.4005 -0.1922 -0.0572
 6093W        W 9837   3.614   2.712   2.755  0.1272 -0.0081 -0.1561
 6094W        W 9838   0.116   9.281   9.915 -0.2730 -0.1898 -0.0298
 6095W        W 9839   5.928   1.547   9.688  0.0814 -0.2402 -0.1370
 6096W        W 9840   2.771   0.160   0.355  0.0893 -0.1272 -0.0045
 6097W        W 9841   7.287   0.588   2.066  0.3008  0.5906  0.1402
 6098W        W 9842   4.309   9.916   3.234  0.3542  0.4702 -0.0365
 6099W        W 9843   0.419   9.809   2.017 -0.0276 -0.0316  0.2204
 6100W        W 9844   9.192   7.090  10.450  0.0389 -0.1236 -0.1593
 6101W        W 9845   4.785   5.263   3.182 -0.0797 -0.2429  0.1408
 6102W        W 9846   9.818   5.665  11.524  0.1073 -0.0873  0.1630
 6103W        W 9847   7.081   1.311  11.350  0.0963  0.3496 -0.0604
 6104W        W 9848   2.270   3.704  12.549 -0.0957  0.1943  0.1316
 6105W        W 9849   8.421   9.730   0.426  0.4590 -0.3325  0.2777
 6106W        W 9850   5.201   3.760  12.586 -0.0564  0.4263  0.0653
 6107W        W 9851   1.213   9.579  10.702  0.0895 -0.1377  0.0272
 6108W        W 9852   8.076   7.045   9.583 -0.0752  0.1713 -0.1028
 6109W        W 9853   0.821   1.747  11.461  0.1401  0.1248 -0.0119
 6110W        W 9854   2.391   9.128   0.461  0.2780 -0.1555  0.0870
 6111W        W 9855   2.338   6.945  10.232  0.0135  0.0081 -0.4593
 6112W        W 9856   4.940   0.005   9.195  0.0404  0.2752 -0.3601
 6113W        W 9857   9.003   7.593   1.784 -0.0049 -0.0135 -0.2658
 6114W        W 9858   7.890   4.246   9.137  0.0968 -0.2977  0.1733
 6115W        W 9859   4.201   9.928   2.758  0.1405  0.1574  0.0048
 6116W        W 9860   6.997   1.609   9.825 -0.2084 -0.0335 -0.0749
 6117W        W 9861   7.777   8.948   0.589  0.1789  0.0617  0.1317
 6118W        W 9862   2.188   9.112   4.449 -0.0470 -0.1130  0.1065
 6119W        W 9863   2.915   4.946   4.217 -0.0002 -0.1686 -0.0313
 6120W        W 9864   1.728   0.914   0.591  0.2545 -0.1229 -0.0482
 6121W        W 9865   1.226   2.216   9.685 -0.0609  0.0033  0.0813
 6122W        W 9866   6.953   1.573   2.989  0.0060 -0.1548  0.5773
 6123W        W 9867   6.696   5.260  11.099 -0.2064  0.1177 -0.0305
 6124W        W 9868   1.607   2.799   2.666  0.0082  0.0615 -0.2082
 6125W        W 9869   1.701   0.640   1.376 -0.0326 -0.0687  0.0268
 6126W        W 9870   2.667   0.146  10.591  0.2621  0.2353 -0.1264
 6127W        W 9871   6.462   4.371   0.822 -0.1326  0.3029 -0.0838
 6128W        W 9872   9.189   8.561   9.028  0.0409 -0.0782 -0.1285
 6129W        W 9873   7.185   0.828   1.593 -0.0631 -0.0723 -0.0471
 6130W        W 9874   8.386   1.822   0.092  0.3151 -0.1261  0.1708
 6131W        W 9875   8.688   4.604  12.046  0.2366  0.0352 -0.0740
 6132W        W 9876   4.934   8.111   8.842 -0.3743  0.0750  0.1382
 6133W        W 9877   7.400   0.725   4.182  0.1498  0.1246  0.1662
 6134W        W 9878   7.299   3.256  10.908  0.1144  0.0595  0.1330
 6135W        W 9879   2.682   2.495  11.405  0.1836 -0.1104  0.0231
 6136W        W 9880   7.647   2.588   3.585 -0.1232  0.2574 -0.2466
 6137W        W 9881   9.260   8.006  12.220 -0.1492 -0.0400  0.1461
 6138W        W 9882   7.429   8.279   0.070  0.2759  0.1409  0.0124
 6139W        W 9883   4.322   3.398   0.679  0.0145 -0.1364  0.0445
 6140W        W 9884   4.685   4.382   8.809 -0.0206 -0.0655  0.4253
 6141W        W 9885   2.474   0.404   9.681 -0.0536  0.0540 -0.0215
 6142W        W 9886   3.322   1.812   2.711  0.0991 -0.0175 -0.0836
 6143W        W 9887   6.937   0.320   4.837  0.0492 -0.1852 -0.0385
 6144W        W 9888   6.337   5.372   1.255 -0.0164 -0.0435 -0.2239
 6145W        W 9889   8.975   3.800   1.370  0.1663  0.0582  0.1214
 6146W        W 9890   2.206   4.038  11.175  0.1326 -0.0043 -0.0553
 6147W        W 9891   0.719   5.927  12.506  0.3931  0.1224 -0.1629
 6148W        W 9892   3.984   9.694   1.841 -0.0515 -0.0580 -0.0284
 6149W        W 9893   2.281   4.559   3.663  0.1156 -0.4053  0.1909
 6150W        W 9894   9.794   4.625   4.628 -0.1112  0.0136  0.0390
 6151W        W 9895   4.216   2.105  10.541  0.1526 -0.3493 -0.2234
 6152W        W 9896   1.394   8.601  10.723 -0.3913 -0.0647 -0.0174
 6153W        W 9897   3.709   2.974   3.869  0.0543  0.1180  0.1128
 6154W        W 9898   4.664   9.601   0.127 -0.2904 -0.0117 -0.3964
 6155W        W 9899   7.432   7.050  12.013  0.0346 -0.1982 -0.1263
 6156W        W 9900   4.502   6.839   8.689  0.0560  0.4687  0.0096
 6157W        W 9901   4.438   3.666   2.651 -0.1569 -0.0899 -0.1496
 6158W        W 9902   4.182   9.597   2.344 -0.0224 -0.2880  0.3218
 6159W        W 9903   1.556   1.199   1.161  0.0580 -0.2801  0.0793
 6160W        W 9904   6.510   4.903   0.030  0.1119  0.1592 -0.0792
 6161W        W 9905   9.284   0.793   9.806 -0.0372  0.0505  0.1986
 6162W        W 9906   2.554   1.444   4.222 -0.3806 -0.0362 -0.0014
 6163W        W 9907   1.745   6.198   2.033  0.2855 -0.1780 -0.2407
 6164W        W 9908   4.210   2.520   0.066  0.0215  0.1991 -0.1257
 6165W        W 9909   7.788   0.565   4.431 -0.3361 -0.0882  0.0449
 6166W        W 9910   1.048   9.157   9.106 -0.0873 -0.1423 -0.1344
 6167W        W 9911   7.216   1.588  12.542 -0.3572 -0.2343  0.2629
 6168W        W 9912   4.729   8.976  10.492  0.1519  0.1127  0.0875
 6169W        W 9913   6.789   1.660  10.295  0.2190 -0.1566  0.2236
 6170W        W 9914   6.828   3.459   0.204 -0.1282 -0.1267 -0.0977
 6171W        W 9915   9.401   6.199  12.478  0.1291 -0.1386 -0.0985
 6172W        W 9916   9.110   2.720   9.383 -0.3147  0.1241 -0.0366
 6173W        W 9917   6.997   1.412   4.269 -0.1911  0.0515 -0.3091
 6174W        W 9918   4.573   5.446  10.854  0.1303 -0.0673  0.0662
 6175W        W 9919   4.957   6.112  12.153  0.0124 -0.0619  0.3002
 6176W        W 9920   9.197   4.215  12.486  0.2512 -0.1552 -0.3637
 6177W        W 9921   1.141   4.256   8.574 -0.0419  0.3618 -0.1334
 6178W        W 9922   5.019   1.276   5.125 -0.1353  0.2034 -0.1261
 6179W        W 9923   9.416   1.721   8.858 -0.0196  0.0242 -0.1142
 6180W        W 9924   9.478   2.506   4.224  0.1411  0.4490 -0.0398
 6181W        W 9925   9.574   5.621   1.471 -0.0901 -0.2083 -0.0296
 6182W        W 9926   7.671   1.363  10.368 -0.0095 -0.0535  0.0223
 6183W        W 9927   3.115   0.130   8.868 -0.2376  0.1609  0.0001
 6184W        W 9928   7.727   3.814   8.000  0.3571  0.0835  0.4320
 6185W        W 9929   2.381   3.579   1.095 -0.1214  0.2550  0.1613
 6186W        W 9930   9.837   3.846   0.564  0.0292  0.0496  0.0484
 6187W        W 9931   1.677   1.588   2.568 -0.1896 -0.2846  0.0736
 6188W        W 9932   3.879   0.539   4.113 -0.1667 -0.3353 -0.0890
 6189W        W 9933   5.785   3.786   1.264  0.1340  0.0899  0.0387
 6190W        W 9934   4.590   8.225  11.738 -0.1577 -0.1001  0.2849
 6191W        W 9935   1.918   0.888   3.088  0.0844 -0.3436 -0.1134
 6192W        W 9936   5.523   3.897   8.332 -0.0733 -0.1664  0.2306
 6193W        W 9937   4.945   1.028  11.216  0.0551  0.0674  0.2151
 6194W        W 9938   1.070   8.087  10.089 -0.2563 -0.1358 -0.1311
 6195W        W 9939   6.696   8.218  10.659  0.0232 -0.0099 -0.2751
 6196W        W 9940   6.460   2.928  11.164 -0.1089 -0.0805 -0.1009
 6197W        W 9941   1.530   4.316   2.814  0.0738  0.0099  0.1246
 6198W        W 9942   3.821   9.129   3.599  0.0697 -0.2339 -0.0728
 6199W        W 9943   2.542   5.181   2.603 -0.2352  0.1854 -0.0897
 6200W        W 9944   9.024   8.089   1.695  0.0531 -0.3617 -0.0374
 6201W        W 9945   3.133   2.815   3.138  0.0488 -0.6862 -0.0271
 6202W        W 9946   9.887   9.500  12.472  0.0084 -0.1933  0.1835
 6203W        W 9947   4.143   2.075   2.237  0.4640 -0.1436 -0.3385
 6204W        W 9948   7.649   7.850  12.204  0.1489 -0.0433  0.1720
 6205W        W 9949   6.848   5.334   9.159  0.0162 -0.1584  0.3283
 6206W        W 9950   0.840   7.880   0.653 -0.2372  0.2298  0.2507
 6207W        W 9951   8.307   4.522  11.683  0.0112 -0.1702  0.3068
 6208W        W 9952   4.259   6.236  10.589 -0.1285  0.1737 -0.2469
 6209W        W 9953   2.492   8.949   3.639  0.2446  0.3198 -0.2473
 6210W        W 9954   1.496   3.380   3.011  0.3155  0.0769  0.1822
 6211W        W 9955   8.310   5.581   0.123 -0.0238 -0.2422 -0.2636
 6212W        W 9956   9.348   9.087   1.793 -0.0417  0.1782  0.0828
 6213W        W 9957   8.388   2.431  10.299  0.0641  0.0964 -0.1175
 6214W        W 9958   1.707   3.481   1.698 -0.2384  0.1485  0.2277
 6215W        W 9959   3.030   4.365   1.503 -0.3775 -0.0122 -0.3176
 6216W        W 9960   4.826   1.229  11.692 -0.2452  0.0954  0.0075
 6217W        W 9961   8.911   8.874   1.212 -0.1924  0.1042 -0.3861
 6218W        W 9962   7.903   1.554   0.741 -0.1408  0.2746 -0.1922
 6219W        W 9963   6.284   8.727   2.218 -0.2329 -0.2057  0.2956
 6220W        W 9964   1.006   7.085   3.206 -0.2421 -0.1980  0.0411
 6221W        W 9965   4.385   1.469  11.696 -0.0185 -0.1669 -0.2304
 6222W        W 9966   0.963   5.050   8.930  0.0213  0.2747  0.1057
 6223W        W 9967   6.472   5.491   8.779  0.0889 -0.2922  0.1258
 6224W        W 9968   1.253   4.892   2.055 -0.6064 -0.1436 -0.1723
 6225W        W 9969   4.002   5.926  11.565  0.0035 -0.0514 -0.3066
 6226W        W 9970   5.497   2.513  10.666 -0.2397  0.3806 -0.1407
 6227W        W 9971   5.881   0.754   0.185  0.0631  0.1708  0.0278
 6228W        W 9972   2.302   7.657  10.850  0.2978 -0.0365  0.0963
 6229W        W 9973   9.094   4.228   2.634  0.2820  0.2909 -0.0120
 6230W        W 9974   6.946   3.119   8.810  0.0799 -0.2268  0.3471
 6231W        W 9975   1.756   3.813   3.208 -0.0052 -0.0834 -0.0792
 6232W        W 9976   7.685   7.772   1.561  0.2677 -0.2323 -0.1335
 6233W        W 9977   9.335   5.505   2.742  0.2188  0.1351 -0.0843
 6234W        W 9978   2.719   2.904   0.462  0.0284 -0.1027  0.4739
 6235W        W 9979   3.534   4.691  12.646  0.0387 -0.1047 -0.1928
 6236W        W 9980   1.906   5.672   3.319  0.1254 -0.0483 -0.0176
 6237W        W 9981   9.291   3.116  11.776  0.0059  0.0479  0.1959
 6238W        W 9982   4.874   5.931   1.960  0.1306  0.1505 -0.1251
 6239W        W 9983   1.398   7.424   9.032  0.1410 -0.3199 -0.0706
 6240W        W 9984   6.225   8.698   1.691  0.2721  0.0587 -0.0572
 6241W        W 9985   5.841   0.232   0.385 -0.0653 -0.0742  0.2073
 6242W        W 9986   8.766   5.795  12.836 -0.2810  0.1357  0.0669
 6243W        W 9987   6.743   0.743  12.635  0.1859 -0.0661 -0.0045
 6244W        W 9988   8.046   9.455  11.005  0.0867  0.0471 -0.0559
 6245W        W 9989   7.963   8.808  10.015 -0.0734 -0.1585  0.2058
 6246W        W 9990   5.432   2.814  12.554  0.0827  0.1525  0.2529
 6247W        W 9991   7.505   2.218   4.565 -0.1349  0.0367  0.0771
 6248W        W 9992   0.973   3.923  11.839 -0.3210  0.1363 -0.1674
 6249W        W 9993   6.481   7.330   3.386 -0.2205  0.0155  0.2152
 6250W        W 9994   0.948   4.421   9.519  0.3046  0.0856 -0.0336
 6251W        W 9995   2.769   3.401   3.570  0.0243  0.0710  0.3862
 6252W        W 9996   5.470   1.970  11.832  0.0740 -0.1426  0.0420
 6253W        W 9997   2.902   0.890   2.294  0.0674  0.0988  0.0655
 6254W        W 9998   5.558   3.820   0.089  0.2158 -0.2529  0.0605
 6255W        W 9999   3.884   4.159   2.136 -0.2935 -0.1335  0.1186
 6256W        W10000   7.944   0.999   1.942 -0.3449 -0.0962 -0.0799
 6257W        W10001   1.806   6.180   0.730  0.0079 -0.2711 -0.2610
 6258W        W10002   6.449   4.657   1.892  0.0030  0.1391 -0.1370
 6259W        W10003   0.909   3.904   9.482  0.0226 -0.1099  0.0201
 6260W        W10004   6.202   4.482   0.288 -0.0700  0.1396 -0.1744
 6261W        W10005   5.482   5.481   1.026  0.0628  0.2176  0.4209
 6262W        W10006   0.485   0.263  12.630  0.2461  0.1057  0.2780
 6263W        W10007   8.769   0.449   1.967 -0.2089  0.1107 -0.0798
 6264W        W10008   0.857   3.044   3.647 -0.2101  0.2800 -0.1744
 6265W        W10009   0.886   9.020  12.681 -0.0541  0.0095 -0.1301
 6266W        W10010   1.877   0.585   8.090 -0.2054 -0.2955 -0.1116
 6267W        W10011   6.262   5.644   9.337  0.0114 -0.0658  0.0224
 6268W        W10012   6.287   1.888   3.796 -0.0310  0.0677  0.3546
 6269W        W10013   4.787   3.336  10.788 -0.1176 -0.2864 -0.1415
 6270W        W10014   4.472   9.678   9.221 -0.3199  0.0371  0.0146
 6271W        W10015   4.012   2.760   2.430 -0.0965  0.1295 -0.0271
 6272W        W10016   8.606   8.785   2.673  0.1634 -0.3297 -0.1606
 6273W        W10017   8.969   1.414  10.976  0.0193 -0.0247  0.0256
 6274W        W10018   6.063   7.787  11.384  0.0274 -0.2157 -0.0877
 6275W        W10019   0.620   6.789  10.886 -0.0188 -0.1361 -0.0225
 6276W        W10020   5.558   4.141   1.024  0.1288 -0.2059 -0.1186
 6277W        W10021   3.173   3.865   1.351  0.4122  0.1482  0.1701
 6278W        W10022   9.041   2.253  10.101 -0.4403  0.3656 -0.0154
 6279W        W10023   3.552   8.400  11.926 -0.2725  0.1611 -0.0311
 6280W        W10024   9.705   5.768  10.269 -0.1592 -0.1949  0.3024
 6281W        W10025   9.807   4.647   9.739 -0.3069  0.0986  0.2456
 6282W        W10026   5.434   0.836  12.203  0.1070 -0.2566  0.0872
 6283W        W10027   6.052   2.297  10.543 -0.0072  0.1647  0.1690
 6284W        W10028   6.786   9.573   9.823 -0.2387 -0.0327 -0.1056
 6285W        W10029   6.153   3.657   0.343 -0.2836  0.2792 -0.0404
 6286W        W10030   3.697   6.443   8.476  0.2806 -0.1066 -0.1367
 6287W        W10031   0.350   8.758   1.897  0.1073  0.0114  0.0619
 6288W        W10032   9.880   4.707   8.747 -0.0919  0.0123 -0.1405
 6289W        W10033   4.760   0.271   3.030 -0.1052 -0.0593  0.3312
 6290W        W10034   4.944   8.833   1.059  0.2714  0.0380 -0.5188
 6291W        W10035   9.744   7.546   2.252 -0.0841 -0.0265  0.0795
 6292W        W10036   6.927   8.543  11.729  0.0570 -0.0651  0.2400
 6293W        W10037   4.605   5.497   1.910  0.1157 -0.0312  0.0268
 6294W        W10038   6.815   1.821   8.988 -0.1320  0.0112 -0.2807
 6295W        W10039   2.688   2.339   8.218 -0.0087  0.1437  0.0097
 6296W        W10040   1.320   4.960   8.383  0.3512 -0.1223  0.4776
 6297W        W10041   8.761   0.646   0.533  0.1925  0.0192  0.4208
 6298W        W10042   6.368   7.867   0.367 -0.0586  0.2207 -0.0179
 6299W        W10043   5.542   2.035   0.537  0.1163 -0.0630  0.1787
 6300W        W10044   9.866   8.963   0.425  0.1849  0.1821 -0.0626
 6301W        W10045   3.067   8.399   3.014 -0.3435  0.0163  0.0351
 6302W        W10046   1.592   0.458   9.784 -0.2024 -0.1673 -0.1724
 6303W        W10047   9.219   5.753   3.771 -0.0236 -0.3289 -0.0404
 6304W        W10048   2.612   8.336  11.944  0.1918  0.0318  0.2488
 6305W        W10049   7.887   7.631   1.112  0.1304 -0.2208  0.0829
 6306W        W10050   9.715   5.024  12.540 -0.3862 -0.0893  0.0856
 6307W        W10051   4.490   8.437  12.216  0.0082 -0.0770  0.0959
 6308W        W10052   7.740   1.540   9.809  0.0961  0.0169  0.1641
 6309W        W10053   8.674   6.370   1.128 -0.3337 -0.0968 -0.1264
 6310W        W10054   9.611   2.384  12.545  0.0302  0.0700  0.0231
 6311W        W10055   7.098   8.096  12.217  0.2516  0.0829 -0.0993
 6312W        W10056   3.301   2.930   0.887 -0.0152 -0.1765 -0.0036
 6313W        W10057   8.199   6.349  10.159 -0.0940 -0.1144  0.1104
 6314W        W10058   1.131   8.157   2.328 -0.0394  0.1215  0.0066
 6315W        W10059   0.120   3.266  12.091 -0.3420 -0.0925 -0.4343
 6316W        W10060   3.186   3.378   2.246  0.0542  0.0094 -0.0334
 6317W        W10061   7.443   1.842   4.196 -0.1758  0.0107  0.4449
 6318W        W10062   7.099   2.520   5.111  0.0289  0.1705  0.1416
 6319W        W10063   5.867   8.986   3.085 -0.1445 -0.1389 -0.0423
 6320W        W10064   4.105   6.803   9.820  0.0587 -0.0013 -0.2294
 6321W        W10065   3.757   9.183  10.911  0.1007 -0.0805 -0.1108
 6322W        W10066   3.719   3.952   2.636 -0.0901 -0.3053  0.0916
 6323W        W10067   3.190   0.086   4.203 -0.0260 -0.0117  0.0597
 6324W        W10068   0.658   2.064   9.823  0.1690  0.0739  0.0922
 6325W        W10069   8.286   6.733  11.018 -0.2221 -0.1449 -0.1656
 6326W        W10070   5.444   0.700   9.781  0.2193 -0.2513 -0.1620
 6327W        W10071   1.410   6.030   9.610  0.1029  0.1063  0.1879
 6328W        W10072   3.977   3.634   2.402  0.0449  0.0870  0.0969
 6329W        W10073   6.160   2.370  12.233 -0.1904  0.2011  0.2268
 6330W        W10074   1.360   3.325  12.003 -0.0343 -0.1573 -0.4449
 6331W        W10075   0.280   5.726  12.807 -0.1798  0.0091 -0.0720
 6332W        W10076   0.610   6.742  11.945 -0.2319 -0.0563 -0.3571
 6333W        W10077   9.014   4.909  10.552 -0.0467  0.2986 -0.0332
 6334W        W10078   6.457   6.721   2.612  0.0553  0.3133  0.0803
 6335W        W10079   5.231   8.469  12.533 -0.0745 -0.0024 -0.1724
 6336W        W10080   5.395   6.782   9.015  0.2964 -0.3209  0.1919
 6337W        W10081   1.547   4.633  12.280 -0.2564  0.1351 -0.1560
 6338W        W10082   4.044   8.438  11.814  0.2327 -0.0956  0.2578
 6339W        W10083   7.588   6.036   0.416 -0.0972  0.1285 -0.1352
 6340W        W10084   8.686   2.232   3.037 -0.0326  0.0940 -0.0782
 6341W        W10085   4.143   4.117  10.692 -0.0463  0.2219 -0.0119
 6342W        W10086   8.890   8.922   2.057  0.1116 -0.0227 -0.0665
 6343W        W10087   1.137   3.657   3.267  0.2294 -0.0363  0.1289
 6344W        W10088   9.264   4.070   1.874 -0.1277 -0.0050  0.2759
 6345W        W10089   1.330   0.080   3.192 -0.0545 -0.0226  0.1216
 6346W        W10090   7.053   9.719   0.724  0.1219 -0.2036 -0.0335
 6347W        W10091   7.397   1.411   0.175 -0.1318 -0.2731  0.1827
 6348W        W10092   0.641   4.695  12.431 -0.2274 -0.0120  0.0890
 6349W        W10093   8.226   2.407   0.861 -0.1766  0.0888 -0.0261
 6350W        W10094   6.163   9.075   1.251  0.1141 -0.0482 -0.3272
 6351W        W10095   9.915   5.772   1.825 -0.0890 -0.1634 -0.0076
 6352W        W10096   2.179   7.351   8.379 -0.1328  0.0245  0.2212
 6353W        W10097   4.219   1.000   2.807 -0.5099  0.0488  0.0015
 6354W        W10098   5.414   1.119   0.318  0.2121 -0.2830 -0.1557
 6355W        W10099   0.472   7.314   1.286  0.1305 -0.0800 -0.3240
 6356W        W10100   4.936   9.677   4.220  0.2605 -0.1579  0.3795
 6357W        W10101   1.950   8.139   2.307  0.2180 -0.2806 -0.0729
 6358W        W10102   4.193   0.253   4.426  0.1660  0.0779 -0.3635
 6359W        W10103   9.569   6.923  12.367  0.0158  0.3184 -0.0906
 6360W        W10104   0.110   7.992   3.376 -0.2513  0.1177 -0.1955
 6361W        W10105   2.208   2.551   3.683 -0.4084 -0.0001  0.1120
 6362W        W10106   7.575   7.429   2.376  0.1325 -0.2387 -0.2339
 6363W        W10107   0.667   2.234   0.381  0.1734  0.1793  0.1392
 6364W        W10108   6.883   1.379   3.503  0.0376 -0.2528  0.2374
 6365W        W10109   8.789   8.315   0.357  0.2165  0.2315  0.0581
 6366W        W10110   4.363   7.275   3.463 -0.2544 -0.0470  0.1757
 6367W        W10111   4.610   3.440  11.901  0.0399  0.0662 -0.0965
 6368W        W10112   5.557   8.169   3.063 -0.2255 -0.1651 -0.2804
 6369W        W10113   2.073   1.221   0.906  0.0238  0.2314 -0.0070
 6370W        W10114   1.856   4.717   2.469 -0.1319  0.0431 -0.1066
 6371W        W10115   9.643   7.975   0.389  0.1822  0.1179 -0.1661
 6372W        W10116   9.731   3.574   3.081 -0.0639 -0.1700  0.0177
 6373W        W10117   3.325   1.491  12.151  0.1486  0.0243 -0.1154
 6374W        W10118   5.682   1.557   0.479 -0.2358 -0.1102 -0.0863
 6375W        W10119   9.578   6.053  11.258 -0.0106 -0.0525 -0.1987
 6376W        W10120   4.361   9.328  10.873  0.2146  0.1466  0.1153
 6377W        W10121   5.585   0.964   4.530 -0.0203  0.0462  0.0900
 6378W        W10122   4.395   2.562  12.481 -0.5575 -0.0958  0.2729
 6379W        W10123   3.231   1.122   9.740 -0.1730  0.1506  0.3563
 6380W        W10124   4.985   6.999   8.778 -0.0006 -0.1353 -0.0663
 6381W        W10125   6.974   7.634   1.043 -0.2798  0.0211  0.1087
 6382W        W10126   9.331   5.013   9.667  0.0173 -0.1407  0.1814
 6383W        W10127   6.072   9.305   8.403 -0.2069  0.0092  0.1178
 6384W        W10128   7.681   0.612  10.609  0.1357 -0.4033  0.1080
 6385W        W10129   3.494   8.157   1.343 -0.2419  0.2322 -0.0330
 6386W        W10130   7.044   0.250   9.637 -0.1953 -0.0773 -0.0744
 6387W        W10131   3.198   9.338  11.596  0.3969 -0.0781  0.0086
 6388W        W10132   4.578   8.864  11.165  0.2685 -0.3316 -0.0656
 6389W        W10133   1.139   5.482   4.194  0.3606 -0.0861 -0.1435
 6390W        W10134   3.894   6.360   9.495  0.0389  0.0901  0.2797
 6391W        W10135   5.631   3.477   0.918  0.0463  0.1622 -0.0652
 6392W        W10136   3.005   6.866   9.840 -0.1524  0.0314  0.2764
 6393W        W10137   1.985   0.867  11.863  0.1105  0.0593  0.1403
 6394W        W10138   3.581   4.053  10.555  0.0693  0.0717  0.0936
 6395W        W10139   3.537   6.287   2.456 -0.0613  0.1052  0.3737
 6396W        W10140   3.484   7.000   9.060 -0.0790  0.2551 -0.1755
 6397W        W10141   0.614   5.210   2.019 -0.0778  0.0169  0.1390
 6398W        W10142   0.372   5.005   0.428  0.4973  0.1416 -0.1631
 6399W        W10143   6.719   8.962  12.609  0.5124 -0.0658  0.0810
 6400W        W10144   0.144   6.402   9.267  0.0908 -0.1303  0.1955
 6401W        W10145   5.224   9.012   1.485 -0.1359 -0.1304  0.3265
 6402W        W10146   7.852   1.945  11.701  0.1437  0.2490  0.1780
 6403W        W10147   4.958   1.436   9.235 -0.2711 -0.1364  0.0741
 6404W        W10148   0.648   7.409   0.755 -0.0198  0.1766 -0.2706
 6405W        W10149   1.260   6.785  11.643  0.4481  0.0171 -0.0305
 6406W        W10150   7.504   0.910   0.201 -0.1683  0.1842 -0.0188
 6407W        W10151   3.675   3.439   0.088  0.1005 -0.2066 -0.1603
 6408W        W10152   5.239   6.226  11.743 -0.1759  0.0871 -0.0403
 6409W        W10153   8.847   7.897   1.271  0.0448 -0.0176 -0.0310
 6410W        W10154   5.376   5.136   4.320  0.5128  0.0652  0.2347
 6411W        W10155   0.420   6.820  10.376 -0.3878 -0.2530  0.1864
 6412W        W10156   7.110   2.410   3.686 -0.0126 -0.2125  0.3816
 6413W        W10157   7.031   0.032  10.075 -0.1543  0.1220  0.5778
 6414W        W10158   2.006   0.618   9.497 -0.2196  0.3658 -0.1127
 6415W        W10159   3.491   0.858   8.789 -0.0603 -0.0317  0.1711
 6416W        W10160   8.746   7.015  12.162 -0.1410 -0.0166 -0.0603
 6417W        W10161   8.539   6.894   2.435  0.1404  0.1966  0.0697
 6418W        W10162   2.842   5.255   1.252 -0.0594  0.1914  0.1389
 6419W        W10163   9.037   4.028  11.645  0.1773  0.1963 -0.1842
 6420W        W10164   3.885   6.079   2.935  0.3731  0.3635 -0.1657
 6421W        W10165   8.312   2.544   9.821 -0.0408  0.1923 -0.0443
 6422W        W10166   1.534   0.305   8.592  0.3520  0.2413  0.1443
 6423W        W10167   2.995   0.430   2.563 -0.1000 -0.4692 -0.3485
 6424W        W10168   5.038   2.478   2.086  0.1610 -0.2106 -0.0198
 6425W        W10169   7.624   1.111   9.463  0.0457  0.0530 -0.1665
 6426W        W10170   6.948   1.063   0.356  0.2782  0.1883 -0.1514
 6427W        W10171   4.914   0.858   0.292  0.1083 -0.1156 -0.2342
 6428W        W10172   9.540   1.769   2.584  0.0717  0.3743 -0.0747
 6429W        W10173   2.438   9.939  11.023 -0.1811  0.1263 -0.0494
 6430W        W10174   8.981   9.479   9.165  0.1445  0.3260 -0.3744
 6431W        W10175   6.038   4.006   4.300  0.0845 -0.0655  0.0792
 6432W        W10176   0.173   4.568   3.714 -0.1531  0.3098 -0.1140
 6433W        W10177   6.680   1.529   0.373 -0.0703 -0.1750  0.1192
 6434W        W10178   4.754   7.781   1.960 -0.1842 -0.0954  0.4655
 6435W        W10179   9.761   4.722   2.253 -0.0750 -0.1608 -0.1414
 6436W        W10180   1.009   4.392  11.514 -0.0858  0.1378 -0.0388
 6437W        W10181   9.553   0.839   3.026 -0.3009  0.0432  0.1325
 6438W        W10182   3.072   4.789  10.061  0.2445  0.0670 -0.0115
 6439W        W10183   0.723   3.474  11.128  0.0149  0.4005  0.1950
 6440W        W10184   6.620   0.680   0.738 -0.0285  0.0858 -0.0316
 6441W        W10185   9.806   4.100   7.826  0.1476 -0.1812 -0.1542
 6442W        W10186   9.598   4.219  10.495  0.0076 -0.1964 -0.0482
 6443W        W10187   5.575   1.370   8.448 -0.1943 -0.2189 -0.1153
 6444W        W10188   5.580   4.023  10.461 -0.0000  0.1040 -0.0703
 6445W        W10189   3.841   8.668   2.806 -0.2092  0.0537  0.1463
 6446W        W10190   8.993   0.693  10.352  0.4480 -0.0307  0.1562
 6447W        W10191   5.441   0.146   4.807 -0.0395  0.0371  0.2500
 6448W        W10192   8.427   4.359   1.959  0.1995  0.0054  0.0671
 6449W        W10193   8.586   9.308   9.452 -0.0884  0.0885 -0.1990
 6450W        W10194   3.384   0.698   2.840 -0.2153  0.1160  0.0686
 6451W        W10195   4.720   2.875   4.176  0.0120  0.1528 -0.0267
 6452W        W10196   1.979   1.346  11.068 -0.1569  0.1601 -0.3094
 6453W        W10197   4.324   5.172   2.203 -0.1051 -0.0740  0.0090
 6454W        W10198   1.347   8.062   9.638 -0.4217  0.1404  0.0815
 6455W        W10199   8.417   8.940   1.113  0.0746 -0.2531 -0.3389
 6456W        W10200   0.016   4.261   2.583 -0.0421 -0.2964 -0.1063
 6457W        W10201   6.768   2.034  11.461 -0.1639 -0.2223 -0.1063
 6458W        W10202   8.194   9.911   1.311  0.0114  0.4694 -0.0756
 6459W        W10203   6.514   4.408   8.258  0.2932 -0.3150  0.0616
 6460W        W10204   2.697   0.435   3.937 -0.0333 -0.1271  0.0927
 6461W        W10205   1.159   2.914  10.230  0.1254 -0.0255 -0.0428
 6462W        W10206   8.541   1.524  12.329 -0.1390 -0.1397 -0.1023
 6463W        W10207   3.210   3.765   3.557  0.0180  0.1367 -0.5001
 6464W        W10208   9.234   4.731   2.172  0.0195 -0.0893  0.0470
 6465W        W10209   8.452   7.473  12.711 -0.2392  0.2425 -0.0309
 6466W        W10210   1.227   3.600   0.432  0.2273 -0.0938 -0.0223
 6467W        W10211   2.842   3.782   0.890 -0.2235 -0.1727 -0.1850
 6468W        W10212   3.244   0.520   1.257 -0.0314  0.3775  0.0646
 6469W        W10213   8.160   6.863   1.235  0.3374 -0.0784 -0.1208
 6470W        W10214   1.390   0.055   9.493 -0.1834 -0.0186 -0.1030
 6471W        W10215   4.922   3.164  12.706 -0.0517  0.1123  0.0738
 6472W        W10216   2.151   5.995   1.041  0.0313  0.0818 -0.0144
 6473W        W10217   4.386   3.785   9.363  0.1496  0.0201 -0.0156
 6474W        W10218   8.606   2.526   9.398  0.1768 -0.2057 -0.2880
 6475W        W10219   8.776   5.085   1.420  0.2333 -0.0179  0.1310
 6476W        W10220   9.885   0.673   1.137 -0.0293  0.1111 -0.3141
 6477W        W10221   9.313   1.672   0.099 -0.0933 -0.2447 -0.1305
 6478W        W10222   2.243   0.900   3.508  0.0153 -0.1554 -0.0251
 6479W        W10223   3.247   7.023   3.766 -0.0226 -0.1044 -0.4721
 6480W        W10224   1.512   8.923   9.404  0.0292 -0.2136 -0.1278
 6481W        W10225   1.094   9.837  11.635  0.0460 -0.2556 -0.2422
 6482W        W10226   3.174   7.498   8.591 -0.0732  0.2538 -0.1246
 6483W        W10227   7.239   7.189   2.721  0.1230  0.0089  0.2741
 6484W        W10228   0.496   9.352  12.615  0.1103  0.2875  0.3426
 6485W        W10229   7.256   5.063  10.978  0.0702 -0.3701  0.0122
 6486W        W10230   5.988   8.190   8.975 -0.2529 -0.2291 -0.0783
 6487W        W10231   5.552   5.831   9.986 -0.1197 -0.2430 -0.0767
 6488W        W10232   7.860   2.114   4.201 -0.2890  0.1630 -0.1870
 6489W        W10233   6.535   2.311  12.625  0.2645 -0.1191 -0.0568
 6490W        W10234   6.918   5.160  12.314  0.1582  0.1506  0.3634
 6491W        W10235   7.036   9.816   4.073 -0.0294  0.2806  0.0290
 6492W        W10236   2.581   7.797  11.850  0.4420  0.0934  0.3272
 6493W        W10237   0.688   7.868  12.000  0.2844 -0.0565  0.0521
 6494W        W10238   6.710   8.715   1.917  0.1277 -0.0160 -0.0054
 6495W        W10239   2.814   4.989   8.907  0.0450  0.0797  0.1670
 6496W        W10240   8.150   8.118  10.493  0.0507  0.4281  0.0565
 6497W        W10241   4.418   0.035  11.557 -0.0213 -0.0554 -0.1574
 6498W        W10242   8.643   9.274   2.686  0.2831  0.1117  0.0157
 6499W        W10243   4.266   0.965  11.743 -0.0116  0.1260  0.0110
 6500W        W10244   2.029   6.854   9.451 -0.3417  0.3452  0.2624
 6501W        W10245   7.692   7.873  10.496 -0.2927 -0.2384 -0.1706
 6502W        W10246   6.976   9.288   1.883 -0.1696  0.0768 -0.2543
 6503W        W10247   8.373   6.549   2.714 -0.0149  0.0718  0.4598
 6504W        W10248   2.747   7.418  10.972 -0.2189  0.1921  0.0014
 6505W        W10249   7.946   8.337   9.684  0.1156 -0.2819  0.2751
 6506W        W10250   5.858   8.743   0.455 -0.0981 -0.1460 -0.1349
 6507W        W10251   8.415   7.990   2.890  0.1749 -0.0782  0.2204
 6508W        W10252   6.618   8.551   0.083  0.2433 -0.0056 -0.1243
 6509W        W10253   5.835   3.425   9.833  0.0172  0.2780 -0.0994
 6510W        W10254   9.413   2.141   0.481  0.2167 -0.0942  0.1947
 6511W        W10255   5.011   4.265   0.894  0.1832  0.1390  0.0137
 6512W        W10256   3.169   7.212  12.846 -0.1231  0.2358 -0.0083
 6513W        W10257   2.867   1.284   0.392 -0.0424  0.0940 -0.2702
 6514W        W10258   0.208   3.685   3.377 -0.1288 -0.2101 -0.0785
 6515W        W10259   2.991   6.630   2.981  0.2338 -0.1444  0.3483
 6516W        W10260   5.067   8.000  11.519 -0.1894 -0.1282  0.1085
 6517W        W10261   6.409   5.675   0.524 -0.0720 -0.2322 -0.2131
 6518W        W10262   2.916   0.653  11.519 -0.0349  0.4068 -0.3138
 6519W        W10263   4.081   2.685  11.891 -0.1018 -0.0577 -0.4880
 6520W        W10264   1.725   6.004   8.302  0.2558 -0.1028 -0.0151
 6521W        W10265   3.677   1.617   0.607 -0.0131  0.2142  0.1548
 6522W        W10266   3.292   5.014   2.132  0.1748 -0.0585  0.2484
 6523W        W10267   5.927   2.128   0.256  0.1133 -0.0919  0.0308
 6524W        W10268   3.787   0.834   2.623  0.0551 -0.2997  0.0226
 6525W        W10269   1.997   1.586   3.533  0.2395  0.0838 -0.3181
 6526W        W10270   4.227   4.970   1.710  0.0048 -0.1216 -0.0375
 6527W        W10271   1.267   5.272   0.025  0.0881  0.1350 -0.0890
 6528W        W10272   7.533   0.205  11.363  0.0112  0.0779 -0.1144
 6529W        W10273   6.496   4.511  12.111 -0.0219 -0.1534  0.0087
 6530W        W10274   4.014   3.048   9.945  0.3733 -0.0986 -0.2402
 6531W        W10275   8.782   7.250   2.762  0.3206 -0.1535 -0.0112
 6532W        W10276   6.532   2.392   9.534 -0.0077 -0.1443 -0.0216
 6533W        W10277   6.067   8.344  11.655  0.1957  0.2387 -0.0432
 6534W        W10278   5.582   6.636  11.946  0.0324 -0.2009  0.2975
 6535W        W10279   9.694   9.209   3.086  0.0657  0.0062  0.0527
 6536W        W10280   9.742   3.034   3.112 -0.3479  0.0440  0.3431
 6537W        W10281   3.361   7.299  10.823 -0.1587  0.1456  0.3959
 6538W        W10282   5.304   3.272  10.998 -0.1383 -0.2234 -0.1473
 6539W        W10283   2.073   5.497  10.627  0.1996  0.1079 -0.1763
 6540W        W10284   1.671   8.546   0.646 -0.0068 -0.4430 -0.1528
 6541W        W10285   2.954   3.209   0.092 -0.2627  0.2577  0.3486
 6542W        W10286   0.011   9.521  10.830 -0.1739  0.2306  0.0408
 6543W        W10287   2.033   3.911   0.847  0.0554  0.1619 -0.0779
 6544W        W10288   3.644   9.145  12.847  0.0185  0.4016 -0.3244
 6545W        W10289   8.587   6.502   3.177  0.2233  0.1458  0.3674
 6546W        W10290   3.940   3.465   2.938 -0.0042  0.2372 -0.3397
 6547W        W10291   8.728   9.844  12.042 -0.2584  0.0666  0.0959
 6548W        W10292   1.466   2.522  12.047 -0.0090 -0.2044  0.0703
 6549W        W10293   0.599   4.091  12.214  0.1076 -0.1403 -0.2975
 6550W        W10294   1.096   1.844   1.726  0.1695 -0.2586 -0.0556
 6551W        W10295   1.738   9.640   1.087  0.2021 -0.3343  0.1366
 6552W        W10296   8.794   5.463  10.573 -0.0681  0.3383 -0.1336
 6553W        W10297   7.069   4.795   0.718 -0.0729 -0.1114  0.5190
 6554W        W10298   0.959   7.590   8.261  0.1934 -0.0356  0.0878
 6555W        W10299   0.461   4.419  10.786  0.0344  0.2303  0.1220
 6556W        W10300   5.372   0.753   3.527  0.0507 -0.4009 -0.2048
 6557W        W10301   7.288   4.539  11.546 -0.1339 -0.1180  0.0394
 6558W        W10302   4.790   0.029   1.354 -0.0920  0.0909  0.1070
 6559W        W10303   4.330   6.043   3.867 -0.1080  0.0215  0.0137
 6560W        W10304   8.584   2.121   0.622  0.0650  0.0964 -0.1245
 6561W        W10305   2.801   9.934   1.337  0.2401 -0.2976 -0.0370
 6562W        W10306   0.222   7.296  11.636  0.1994 -0.1563  0.0438
 6563W        W10307   1.327   5.644   0.419 -0.2159  0.0082 -0.0639
 6564W        W10308   5.422   5.432  10.288 -0.3447  0.3301 -0.1439
 6565W        W10309   2.116   8.418  12.118 -0.0728 -0.2752 -0.0354
 6566W        W10310   0.795   2.294   3.088  0.1399  0.1845  0.0781
 6567W        W10311   9.907   7.492  12.622  0.0035 -0.2965  0.2014
 6568W        W10312   5.690   4.446  12.706 -0.1621  0.1397 -0.2954
 6569W        W10313   0.138   1.537  10.648 -0.2616 -0.0481  0.0209
 6570W        W10314   5.904   3.520   2.313 -0.2038 -0.3618 -0.0495
 6571W        W10315   1.082   7.212   0.542  0.1291  0.2248 -0.2782
 6572W        W10316   2.594   1.829  11.367  0.1576  0.6746  0.4263
 6573W        W10317   0.180   8.369  11.949 -0.1102  0.0822 -0.0996
 6574W        W10318   9.693   9.434  11.395  0.0036 -0.2506 -0.0319
 6575W        W10319   6.682   1.701   1.955 -0.4586  0.2442  0.0478
 6576W        W10320   0.761   4.426   0.381 -0.0922  0.0540 -0.0509
 6577W        W10321   7.095   7.105   2.217 -0.0749  0.1359  0.1620
 6578W        W10322   3.658   3.672   1.414 -0.1012  0.0612 -0.0483
 6579W        W10323   7.522   0.219  10.866  0.2192 -0.0487 -0.0218
 6580W        W10324   5.233   6.696   2.451  0.1281 -0.1198 -0.1606
 6581W        W10325   5.662   7.396   9.953 -0.0008 -0.0157  0.3161
 6582W        W10326   8.813   9.167   0.666  0.6111 -0.0253 -0.1124
 6583W        W10327   3.094   6.373   9.352 -0.5042  0.1637  0.1490
 6584W        W10328   9.447   8.765   4.306 -0.0721  0.0338  0.2143
 6585W        W10329   7.316   6.660  10.339  0.0384  0.0521  0.0504
 6586W        W10330   7.595   0.626  11.134 -0.0735 -0.0100  0.3279
 6587W        W10331   5.911   7.733  11.875 -0.0056  0.0909 -0.2201
 6588W        W10332   2.328   6.500   3.719 -0.0426 -0.0734  0.0829
 6589W        W10333   1.674   9.854  10.731 -0.2924 -0.2226  0.2596
 6590W        W10334   2.834   0.918  12.571  0.1459 -0.0115  0.2154
 6591W        W10335   2.003   7.283  10.026 -0.3407 -0.1148 -0.0331
 6592W        W10336   5.445   3.360   9.557  0.1431  0.0186 -0.3610
 6593W        W10337   4.237   5.338   4.756 -0.1157  0.0272  0.0953
 6594W        W10338   8.196   1.846   2.356 -0.4787 -0.1781 -0.0714
 6595W        W10339   9.826   4.245  11.623  0.0987 -0.4632 -0.1047
 6596W        W10340   2.403   5.783   3.147 -0.0777 -0.0200 -0.3249
 6597W        W10341   5.758   2.141  12.400 -0.0207 -0.0839  0.3609
 6598W        W10342   5.487   0.031   8.207 -0.1144  0.3553 -0.2638
 6599W        W10343   7.365   5.200   1.683 -0.0709  0.0734  0.1885
 6600W        W10344   6.953   7.815  10.860 -0.0681 -0.3042  0.1137
 6601W        W10345   5.503   3.698  10.113 -0.1323  0.4124  0.0273
 6602W        W10346   3.805   5.457   0.931 -0.2794 -0.1541 -0.0740
 6603W        W10347   2.727   9.374   3.699  0.1534 -0.0775 -0.1243
 6604W        W10348   5.215   1.022   1.737 -0.0887  0.0111 -0.1285
 6605W        W10349   9.663   5.901   2.837 -0.2756 -0.1351 -0.2418
 6606W        W10350   1.162   8.053   1.135  0.0301 -0.0020 -0.1803
 6607W        W10351   0.452   4.616   9.621  0.0022 -0.0050 -0.0443
 6608W        W10352   6.022   5.135   3.724 -0.0142 -0.0483 -0.2175
 6609W        W10353   0.337   2.587   1.714  0.0101 -0.2435  0.4044
 6610W        W10354   1.148   0.894  11.544  0.2120 -0.1567 -0.4628
 6611W        W10355   6.442   6.884  12.179  0.4415 -0.0472  0.0178
 6612W        W10356   0.102   5.003   9.458  0.1942  0.0905 -0.2487
 6613W        W10357   3.671   1.773   0.021 -0.1009 -0.1431 -0.1912
 6614W        W10358   4.508   5.138  10.381  0.1343  0.2667  0.1109
 6615W        W10359   8.560   0.623  11.647  0.0589 -0.1434  0.3523
 6616W        W10360   5.802   2.820  11.748  0.2655  0.2311 -0.0992
 6617W        W10361   3.224   1.334   4.239 -0.0745 -0.0684 -0.1268
 6618W        W10362   0.200   3.022   0.178 -0.4080 -0.1339 -0.2058
 6619W        W10363   3.682   6.385   0.675 -0.1607  0.4571 -0.0544
 6620W        W10364   4.658   1.449  12.103 -0.1084 -0.0116  0.0962
 6621W        W10365   2.531   0.660   2.509 -0.1162  0.0855  0.2980
 6622W        W10366   0.661   0.443   3.157 -0.3876  0.1500 -0.3415
 6623W        W10367   6.976   3.981   0.062 -0.5700 -0.3180 -0.0831
 6624W        W10368   5.198   1.563   1.980  0.0282 -0.1447 -0.2225
 6625W        W10369   7.254   3.429   4.482  0.3285  0.2024  0.0155
 6626W        W10370   2.686   4.732   2.607  0.0166  0.0071  0.0502
 6627W        W10371   0.495   4.575   0.847 -0.1815  0.2929 -0.3595
 6628W        W10372   9.208   1.873   9.296  0.0765  0.1386 -0.1277
 6629W        W10373   8.180   4.736   0.989  0.2697 -0.0749  0.0577
 6630W        W10374   1.173   0.671  12.802 -0.0103  0.1105 -0.1174
 6631W        W10375   4.196   0.661   4.762 -0.3550 -0.1155 -0.0230
 6632W        W10376   9.242   2.338   1.337 -0.0128 -0.1718  0.0262
 6633W        W10377   8.396   5.147   8.751 -0.2393 -0.1270  0.2334
 6634W        W10378   9.404   3.247   3.387  0.2370 -0.1770 -0.1098
 6635W        W10379   4.678   0.743   5.153 -0.1111 -0.0361 -0.1891
 6636W        W10380   7.322   2.234   3.193  0.0876  0.0216 -0.1509
 6637W        W10381   0.499   5.170  12.687 -0.0317 -0.1770  0.1156
 6638W        W10382   0.736   9.367   8.213  0.5440  0.0777  0.1746
 6639W        W10383   0.863   0.544   2.527 -0.0135  0.0277  0.2111
 6640W        W10384   8.381   9.932   0.868 -0.1444  0.0193 -0.1862
 6641W        W10385   6.541   4.440   1.418 -0.1762  0.0302 -0.0904
 6642W        W10386   7.906   7.029  11.318 -0.1894  0.0265 -0.0861
 6643W        W10387   3.477   5.109   1.042  0.1014 -0.0193  0.1459
 6644W        W10388   8.101   4.556  12.119  0.2726 -0.1578  0.2010
 6645W        W10389   8.845   4.497  11.580 -0.0682 -0.2459 -0.2395
 6646W        W10390   9.873   0.942   0.043 -0.0738 -0.2483  0.2557
 6647W        W10391   9.261   8.361   1.299 -0.2161  0.2257  0.0264
 6648W        W10392   3.981   4.850   9.926  0.0685 -0.6077 -0.3419
 6649W        W10393   1.020   8.727  12.315  0.0153 -0.0367 -0.1324
 6650W        W10394   3.310   3.122   1.758 -0.2374  0.0380  0.1387
 6651W        W10395   8.471   1.905   3.559  0.2985 -0.0299 -0.2214
 6652W        W10396   4.459   8.705  10.098  0.0899 -0.0414  0.0858
 6653W        W10397   1.742   0.278   2.322  0.1522 -0.0947 -0.1468
 6654W        W10398   0.820   2.434   9.549  0.2252 -0.3459  0.2011
 6655W        W10399   2.262   1.409   9.265 -0.2888 -0.0117 -0.2260
 6656W        W10400   2.464   1.379   9.940  0.0506  0.1453 -0.0524
 6657W        W10401   3.530   4.475   9.191  0.2432  0.0591 -0.1253
 6658W        W10402   8.280   1.180  12.847  0.0334 -0.2065 -0.0901
 6659W        W10403   0.417   1.699  10.066  0.2316 -0.0992 -0.1688
 6660W        W10404   1.243   4.143   9.192 -0.4266  0.3241 -0.1111
 6661W        W10405   9.847   8.773  11.864 -0.0320 -0.1894 -0.2167
 6662W        W10406   3.752   3.183  10.393 -0.1146 -0.3512  0.1286
 6663W        W10407   2.133   6.878   8.455  0.0431 -0.1281 -0.3217
 6664W        W10408   4.505   5.043  11.205  0.1686  0.1532  0.1780
 6665W        W10409   7.004   4.734   3.239  0.1235  0.1621  0.1320
 6666W        W10410   2.612   4.647   0.005  0.3117 -0.1235  0.3626
 6667W        W10411   9.337   2.541  12.118 -0.2348 -0.0796  0.0715
 6668W        W10412   3.439   6.717   8.049 -0.3009 -0.0370 -0.1745
 6669W        W10413   3.130   7.028  11.194  0.0705  0.2831 -0.0557
 6670W        W10414   7.147   6.427  11.161 -0.0445  0.0884 -0.1207
 6671W        W10415   2.887   1.681   9.852 -0.3012  0.0242  0.2952
 6672W        W10416   9.140   6.926  11.419  0.1191 -0.0083 -0.0073
 6673W        W10417   3.169   4.859  11.404 -0.1956 -0.1575  0.0064
 6674W        W10418   2.288   8.426   1.724 -0.0966  0.1988 -0.0759
 6675W        W10419   9.742   1.566   1.754 -0.1798  0.3362  0.0303
 6676W        W10420   9.530   8.100   3.469 -0.0125  0.0919 -0.0037
 6677W        W10421   3.335   9.597   8.254  0.1592  0.1058 -0.0374
 6678W        W10422   4.813   0.792   1.917  0.3359  0.0504 -0.0239
 6679W        W10423   9.813   8.722   1.613  0.2032 -0.0862 -0.1519
 6680W        W10424   8.183   2.003   8.626  0.0316  0.1629  0.3971
 6681W        W10425   7.016   3.018  11.295  0.0286  0.0669 -0.1824
 6682W        W10426   2.358   2.232  10.962 -0.1659  0.3617 -0.1531
 6683W        W10427   5.510   7.575   0.486 -0.2637  0.1197  0.0163
 6684W        W10428   7.467   8.861  10.139 -0.2248 -0.0157 -0.2156
 6685W        W10429   0.472   5.769   1.095 -0.0119 -0.2296  0.2105
 6686W        W10430   7.149   7.653   1.587  0.0700  0.3398  0.0338
 6687W        W10431   8.250   4.785  10.322  0.3179  0.2059  0.1547
 6688W        W10432   4.172   5.235   0.472 -0.0510  0.1220 -0.2020
 6689W        W10433   3.483   5.038  11.804  0.0509  0.2479  0.2707
 6690W        W10434   3.244   1.600   0.835  0.2331  0.0329  0.0795
 6691W        W10435   6.684   8.674   2.536 -0.2773 -0.1367  0.0217
 6692W        W10436   3.782   9.570   1.269 -0.0718 -0.1917  0.0863
 6693W        W10437   1.742   2.023   3.348  0.0204 -0.2521 -0.0100
 6694W        W10438   5.136   0.066  10.541 -0.1199 -0.1477 -0.0639
 6695W        W10439   8.968   6.031  12.379 -0.0762 -0.0807 -0.2608
 6696W        W10440   6.094   7.660  10.147 -0.0354 -0.0891  0.1378
 6697W        W10441   8.396   3.033   9.926  0.2098 -0.1910  0.4194
 6698W        W10442   9.833   1.210   8.812  0.2244  0.2006  0.0226
 6699W        W10443   9.735   2.825   2.551  0.1371 -0.0535 -0.0527
 6700W        W10444   2.028   2.514   2.717 -0.3964  0.3124 -0.0671
 6701W        W10445   3.462   3.727  11.393 -0.0132  0.1376 -0.4010
 6702W        W10446   1.189   4.689   9.849 -0.1599  0.1380  0.0297
 6703W        W10447   9.227   5.631  10.313 -0.1982  0.0281 -0.3210
 6704W        W10448   8.227   9.695  11.773 -0.1137 -0.0452 -0.1759
 6705W        W10449   9.740   5.869   3.754 -0.2324 -0.2581  0.1770
 6706W        W10450   9.774   1.699   4.854 -0.2398  0.3406  0.1063
 6707W        W10451   3.956   0.304   2.443  0.2098  0.1141  0.1685
 6708W        W10452   0.263   4.210   8.114  0.2537  0.3896  0.0921
 6709W        W10453   8.738   9.207   9.896 -0.1770  0.0867 -0.1203
 6710W        W10454   4.734   5.052   2.486 -0.1477  0.3209 -0.1995
 6711W        W10455   3.117   9.622   8.933 -0.2008  0.0203 -0.2239
 6712W        W10456   2.303   8.500   1.062  0.1562  0.3371  0.0970
 6713W        W10457   6.205   5.396  11.942 -0.0748 -0.1062 -0.1345
 6714W        W10458   9.635   1.064  12.308 -0.3740  0.1430  0.1531
 6715W        W10459   1.425   5.027   9.604 -0.0758  0.0049 -0.1858
 6716W        W10460   3.828   3.795   0.962 -0.2403  0.2397 -0.1235
 6717W        W10461   4.186   5.087   3.766  0.0907 -0.0020 -0.0316
 6718W        W10462   2.439   8.332   2.241  0.0145  0.1159 -0.0229
 6719W        W10463   0.989   9.546  12.664 -0.2241  0.2491 -0.1746
 6720W        W10464   4.376   0.573   2.145 -0.1655  0.0323  0.1649
 6721W        W10465   0.714   0.975   1.792  0.2049 -0.1154  0.0560
 6722W        W10466   7.206   1.040  10.955 -0.0116  0.3058 -0.2522
 6723W        W10467   6.633   7.676   1.398 -0.1333  0.1473 -0.1134
 6724W        W10468   6.735   2.892  11.721 -0.0480 -0.4341  0.2441
 6725W        W10469   3.203   5.918   1.907 -0.0431 -0.2847 -0.1901
 6726W        W10470   2.177   0.223   3.820  0.1041 -0.0979  0.1575
 6727W        W10471   1.840   7.573   1.473  0.2217 -0.2404 -0.2841
 6728W        W10472   0.491   7.017   2.020 -0.3096 -0.0900 -0.1373
 6729W        W10473   0.226   5.962   0.508 -0.0301  0.2618  0.2383
 6730W        W10474   4.712   4.047   0.002 -0.0414  0.1153  0.0680
 6731W        W10475   2.396   0.813  10.404 -0.0901  0.2521 -0.3817
 6732W        W10476   7.009   2.815   4.734  0.4291  0.0348  0.0334
 6733W        W10477   6.662   3.119   3.232  0.0041 -0.0846  0.0826
 6734W        W10478   6.654   9.139  10.649  0.0215 -0.1507 -0.4991
 6735W        W10479   6.377   3.517   1.329 -0.2131  0.2255 -0.1960
 6736W        W10480   7.443   2.731  12.105  0.0454  0.0159 -0.2130
 6737W        W10481   9.212   4.548   9.821  0.1545  0.2220 -0.0214
 6738W        W10482   9.934   9.048  10.975  0.3143  0.3240  0.0142
 6739W        W10483   4.657   8.521   3.555 -0.0747  0.0580  0.5601
 6740W        W10484   3.233   0.098   1.632 -0.3354 -0.1485 -0.1005
 6741W        W10485   0.277   1.158   2.563 -0.0324 -0.1799  0.0286
 6742W        W10486   4.807   9.321   0.911 -0.1393  0.2319  0.0611
 6743W        W10487   1.120   0.105  12.803  0.5559  0.0516  0.0406
 6744W        W10488   2.126   0.637   8.561 -0.2874  0.0364 -0.0750
 6745W        W10489   4.648   7.871  11.253 -0.0407  0.1684  0.1145
 6746W        W10490   9.251   0.105   0.175  0.0286 -0.0926  0.4015
 6747W        W10491   0.690   6.956   0.528 -0.0890  0.2369  0.0267
 6748W        W10492   5.142   5.845   9.511  0.2030 -0.0348  0.1964
 6749W        W10493   6.977   3.312   9.253  0.0238 -0.1836 -0.2094
 6750W        W10494   8.320   5.390  11.040  0.3274  0.0753  0.0709
 6751W        W10495   7.965   1.591   4.399  0.3878  0.3335  0.1153
 6752W        W10496   0.879   6.090   9.590  0.2340 -0.5589 -0.3701
 6753W        W10497   7.383   1.392   2.868 -0.1618  0.1737  0.2733
 6754W        W10498   2.252   7.401   0.702  0.1406 -0.0119  0.3917
 6755W        W10499   4.765   3.388   1.287 -0.2142  0.1444 -0.3887
 6756W        W10500   6.095   3.404   0.869 -0.0786  0.2877  0.3064
 6757W        W10501   2.726   6.831   3.982 -0.0810 -0.0040 -0.0172
 6758W        W10502   1.647   6.033   9.197 -0.1344  0.1920  0.3214
 6759W        W10503   4.815   0.403   2.469  0.1524  0.1167 -0.0363
 6760W        W10504   5.980   4.774   9.122 -0.1193  0.0930  0.1554
 6761W        W10505   7.657   3.136   0.203  0.1788 -0.4003 -0.1050
 6762W        W10506   0.296   6.381  10.189 -0.0877  0.1115  0.1764
 6763W        W10507   9.174   5.538   1.203 -0.0637  0.1782  0.0960
 6764W        W10508   3.251   2.850   0.285 -0.0184 -0.2183 -0.0820
 6765W        W10509   9.837   5.344   2.852  0.2582 -0.0814  0.0674
 6766W        W10510   6.687   5.364  12.785 -0.1842  0.0923  0.0563
 6767W        W10511   1.766   0.622  12.838 -0.2128 -0.0735  0.0041
 6768W        W10512   1.755   9.346   0.696  0.3556  0.0858 -0.3696
 6769W        W10513   1.820   5.443   0.255 -0.3176  0.0611  0.0899
 6770W        W10514   0.244   4.074   0.307 -0.1178  0.1581  0.2097
 6771W        W10515   7.189   6.068   2.012  0.0521  0.0067 -0.1641
 6772W        W10516   4.726   6.730   2.276  0.0151  0.0258  0.1622
 6773W        W10517   1.107   7.987   9.230 -0.3721  0.0358  0.0801
 6774W        W10518   1.592   2.073  12.155 -0.2609 -0.0072 -0.1633
 6775W        W10519   8.397   2.850   4.132  0.2910 -0.2701 -0.1563
 6776W        W10520   0.367   5.027   2.954  0.1376 -0.0603  0.1888
 6777W        W10521   6.245   0.531   2.046 -0.1633  0.1973 -0.0596
 6778W        W10522   2.878   1.262   1.391 -0.0130 -0.1551  0.1442
 6779W        W10523   2.581   9.943   3.712 -0.0800 -0.2840  0.1320
 6780W        W10524   4.846   4.425   4.164  0.1948  0.1239  0.2971
 6781W        W10525   7.461   6.702   8.991  0.0034  0.2207 -0.1228
 6782W        W10526   8.733   5.085  12.172 -0.0881 -0.2627 -0.1101
 6783W        W10527   3.775   3.043   9.400  0.1658  0.1495 -0.0504
 6784W        W10528   3.557   8.181   9.071 -0.0726 -0.1309 -0.0361
 6785W        W10529   4.666   3.383   8.321 -0.0423 -0.2633 -0.0038
 6786W        W10530   9.577   2.891  12.362  0.0581  0.1989  0.1859
 6787W        W10531   2.392   9.551  11.460 -0.2593 -0.0777 -0.0665
 6788W        W10532   7.946   2.673  12.388  0.2162  0.1292 -0.0206
 6789W        W10533   9.234   0.966   2.673 -0.1727  0.2362  0.4434
 6790W        W10534   3.107   3.488   3.177 -0.3253  0.1881 -0.0584
 6791W        W10535   5.029   1.406   0.157  0.0032  0.2266  0.3989
 6792W        W10536   4.992   4.584  10.039 -0.1584  0.2269 -0.0957
 6793W        W10537   0.093   0.456   3.087  0.0926  0.3050  0.1544
 6794W        W10538   1.411   5.785   0.871  0.0290  0.1199  0.3775
 6795W        W10539   3.702   3.911   3.585  0.4363 -0.0033 -0.0893
 6796W        W10540   3.006   9.653   1.968  0.0227 -0.0265 -0.1265
 6797W        W10541   5.523   0.065  12.668 -0.1623  0.3336 -0.1242
 6798W        W10542   6.884   6.380   1.689  0.1005  0.1225 -0.0855
 6799W        W10543   0.073   8.986  12.311  0.1808  0.0709  0.1429
 6800W        W10544   7.226   0.585  10.766  0.1350  0.0251  0.1108
 6801W        W10545   1.718   4.656   8.405 -0.1950 -0.2977  0.1753
 6802W        W10546   8.663   6.412  12.232  0.0633 -0.1480 -0.2475
 6803W        W10547   8.876   3.415   2.053 -0.0218 -0.2914 -0.0782
 6804W        W10548   8.994   0.188   2.370 -0.3972 -0.1780 -0.1498
 6805W        W10549   7.671   1.324   3.670  0.0742 -0.4242 -0.0866
 6806W        W10550   6.269   2.647   0.689  0.1445 -0.0325 -0.0976
 6807W        W10551   8.122   9.840   3.910  0.0687  0.2042 -0.3637
 6808W        W10552   7.501   0.330   1.315 -0.0207  0.2508 -0.0753
 6809W        W10553   2.933   8.867   2.928 -0.0034  0.0544 -0.0118
 6810W        W10554   2.724   4.699   0.651 -0.3004 -0.1167  0.0745
 6811W        W10555   4.962   2.280   9.429 -0.1074 -0.1037 -0.0364
 6812W        W10556   7.884   8.196   1.200 -0.2887 -0.0287  0.1052
 6813W        W10557   9.608   2.302   2.571  0.0610 -0.2857  0.1045
 6814W        W10558   9.836   4.137   1.591 -0.3738 -0.1172 -0.1248
 6815W        W10559   1.679   7.171   8.509  0.3325 -0.0614 -0.3290
 6816W        W10560   6.298   2.471  10.047 -0.0983 -0.2632 -0.2863
 6817W        W10561   4.855   3.050   3.739  0.2472 -0.1246 -0.0751
 6818W        W10562   6.197   8.132  10.576 -0.2145 -0.1435  0.1296
 6819W        W10563   0.243   2.818   9.375  0.0739  0.1748  0.0129
 6820W        W10564   8.033   4.686   9.389  0.0729 -0.4676  0.1738
 6821W        W10565   2.269   0.079   3.212  0.2824 -0.0149  0.0736
 6822W        W10566   5.796   7.415   1.812  0.0455  0.1950 -0.3100
 6823W        W10567   3.698   1.686   1.063 -0.1577  0.1462  0.0656
 6824W        W10568   1.384   5.459   1.341 -0.1970  0.2527  0.0120
 6825W        W10569   3.737   3.189   8.868  0.1784 -0.2200 -0.3687
 6826W        W10570   9.154   3.919  10.633 -0.1988  0.2423 -0.3073
 6827W        W10571   0.973   8.715   0.267 -0.2566  0.2181  0.1485
 6828W        W10572   6.704   5.936   1.904 -0.1437  0.0137 -0.1527
 6829W        W10573   1.317   7.326   1.318  0.1697  0.3294 -0.0638
 6830W        W10574   9.517   6.046  11.758 -0.3233 -0.1865 -0.2014
 6831W        W10575   2.242   1.245   3.859  0.0060 -0.0624  0.0959
 6832W        W10576   8.553   3.683  12.039  0.3159  0.1857  0.2928
 6833W        W10577   7.177   0.689  11.354  0.1789 -0.2007 -0.1962
 6834W        W10578   6.613   5.781  11.135  0.0345  0.1191  0.1106
 6835W        W10579   4.869   8.969  11.563  0.1144  0.0555  0.0517
 6836W        W10580   5.308   8.913  12.720  0.1356 -0.1128 -0.2531
 6837W        W10581   5.059   0.973  12.670 -0.2757  0.2187 -0.0181
 6838W        W10582   0.339   5.477   8.774 -0.3298  0.2050  0.0660
 6839W        W10583   9.549   7.783  10.870  0.0156  0.0823  0.1460
 6840W        W10584   6.848   2.722  12.646  0.2376  0.0207  0.0720
 6841W        W10585   4.107   2.301   3.807 -0.0314  0.2320  0.3057
 6842W        W10586   6.637   7.363  12.136 -0.2026  0.4035  0.2028
 6843W        W10587   2.371   9.161   2.260  0.2260  0.0104  0.0801
 6844W        W10588   9.555   8.000   9.913  0.2940 -0.1289 -0.1290
 6845W        W10589   9.515   4.225   3.638  0.1722  0.3615  0.1869
 6846W        W10590   7.154   3.728   2.755  0.2748 -0.0350  0.0855
 6847W        W10591   6.190   3.179  10.686  0.2666 -0.1843  0.0735
 6848W        W10592   4.747   3.072  10.310 -0.2474 -0.2314  0.0739
 6849W        W10593   4.236   5.264  12.500 -0.0174  0.2414 -0.1375
 6850W        W10594   7.794   6.202   9.958  0.1322  0.3397  0.1122
 6851W        W10595   3.739   5.550   0.379  0.0801 -0.0588  0.0255
 6852W        W10596   3.528   4.015  11.871 -0.0658 -0.0456 -0.0280
 6853W        W10597   4.962   7.686   9.847 -0.0898  0.0380 -0.2398
 6854W        W10598   3.334   6.807  12.641 -0.1469  0.2065 -0.1963
 6855W        W10599   2.212   2.512   8.906 -0.1286  0.2020  0.4613
 6856W        W10600   3.577   6.263  11.202 -0.0931 -0.0733  0.1994
 6857W        W10601   7.995   5.199   0.399  0.0310 -0.0872  0.0214
 6858W        W10602   0.252   9.855   9.930  0.0506 -0.0732  0.2356
 6859W        W10603   0.423   7.772   1.029 -0.0598  0.1767  0.4840
 6860W        W10604   7.681   4.984   3.573  0.2869  0.0842 -0.0411
 6861W        W10605   6.044   0.010  10.129 -0.3753  0.0858 -0.0422
 6862W        W10606   5.409   4.882  12.667  0.1068 -0.0181 -0.3051
 6863W        W10607   2.460   8.822  12.048 -0.1929 -0.0164 -0.0999
 6864W        W10608   8.304   0.931   0.496  0.2514 -0.3588 -0.3650
 6865W        W10609   3.702   4.655  11.307  0.0382  0.2364 -0.1068
 6866W        W10610   0.922   3.519   0.037 -0.0549  0.3344 -0.0230
 6867W        W10611   7.392   2.627   1.139 -0.2763 -0.0526 -0.0787
 6868W        W10612   8.876   2.749   4.037 -0.2116  0.1733  0.0451
 6869W        W10613   9.073   4.851   0.162 -0.1036  0.2125  0.1136
 6870W        W10614   6.686   2.625   2.836 -0.2894  0.3170 -0.0660
 6871W        W10615   0.611   5.639   9.911 -0.0451 -0.0178 -0.0663
 6872W        W10616   4.838   5.343   4.325 -0.0120  0.2795  0.0471
 6873W        W10617   9.033   3.516   9.367 -0.1261  0.0970  0.0873
 6874W        W10618   4.828   8.920   0.501 -0.1073 -0.0131 -0.2660
 6875W        W10619   7.877   7.387  10.802 -0.1107 -0.2034  0.0493
 6876W        W10620   8.597   1.536   2.464  0.3277  0.0210 -0.1163
 6877W        W10621   7.351   5.760   2.833 -0.1862 -0.4853  0.0297
 6878W        W10622   9.897   8.138   0.842  0.0933  0.3674 -0.1400
 6879W        W10623   6.223   3.619   9.619  0.0871  0.0017  0.1527
 6880W        W10624   6.312   9.517   2.429 -0.0732  0.2239  0.0618
 6881W        W10625   9.849   0.140   1.950  0.2614  0.3300 -0.0309
 6882W        W10626   9.520   6.483   1.378 -0.1600 -0.1902  0.1348
 6883W        W10627   2.819   2.096   1.886 -0.0823 -0.1288 -0.1433
 6884W        W10628   6.414   6.239   1.604  0.3081 -0.0889 -0.2065
 6885W        W10629   6.241   0.927   3.744 -0.3728 -0.1914 -0.1031
 6886W        W10630   1.298   7.134  12.482 -0.1879  0.0695  0.1100
 6887W        W10631   8.497   0.897   2.170 -0.3490  0.0266  0.1673
 6888W        W10632   2.292   4.416   0.371 -0.0286 -0.0488 -0.0476
 6889W        W10633   5.572   5.852   8.239 -0.2607 -0.0704 -0.0621
 6890W        W10634   1.128   4.558   0.781 -0.2308 -0.4636 -0.0633
 6891W        W10635   7.755   5.772   9.002 -0.1474 -0.3065 -0.0120
 6892W        W10636   7.920   5.180  10.200 -0.1616 -0.0869  0.0344
 6893W        W10637   5.185   6.749   2.975  0.1422 -0.0220  0.3020
 6894W        W10638   8.380   2.262   1.416  0.1221  0.0774 -0.3186
 6895W        W10639   3.375   6.974  10.417  0.0079 -0.1902  0.4521
 6896W        W10640   1.599   7.667  11.799 -0.1547 -0.3304 -0.1223
 6897W        W10641   5.100   6.154   9.106  0.0264 -0.2378  0.0089
 6898W        W10642   2.257   8.485   8.530 -0.0320 -0.0390 -0.2247
 6899W        W10643   2.874   1.542  11.726 -0.1266 -0.2193 -0.0570
 6900W        W10644   7.433   9.640  12.204  0.1105 -0.0997  0.2306
 6901W        W10645   4.258   5.353   3.252 -0.0197 -0.2130 -0.0529
 6902W        W10646   9.893   0.166  12.804  0.1552  0.2447 -0.0374
 6903W        W10647   8.299   0.912   1.173 -0.2161  0.1248 -0.1428
 6904W        W10648   2.978   8.202   1.584 -0.2806 -0.0839  0.2273
 6905W        W10649   0.712   3.085   0.207 -0.2003  0.1102  0.2299
 6906W        W10650   0.324   4.502   8.534 -0.2044  0.2951  0.2018
 6907W        W10651   2.129   9.912   0.178  0.1046 -0.2129 -0.0578
 6908W        W10652   8.978   2.033   0.338  0.1670  0.0482 -0.0914
 6909W        W10653   2.401   7.564   9.829 -0.4048 -0.0062 -0.4819
 6910W        W10654   5.231   1.308   3.340  0.0758  0.2490  0.2003
 6911W        W10655   0.194   1.355   9.682 -0.1089 -0.0992  0.1968
 6912W        W10656   0.668   2.777   3.270 -0.0836  0.3275  0.0348
 6913W        W10657   8.727   4.488   2.765 -0.1840  0.2273 -0.0543
 6914W        W10658   4.588   9.361  11.307  0.1572 -0.0522  0.1344
 6915W        W10659   3.582   6.568   3.978  0.0278 -0.2104 -0.0974
 6916W        W10660   4.707   4.782   8.568 -0.0013 -0.4060  0.0896
 6917W        W10661   7.010   3.116  10.546  0.0351  0.0439  0.0311
 6918W        W10662   6.076   7.242  12.694 -0.0908 -0.0093  0.2616
 6919W        W10663   2.514   5.971   9.515  0.2795  0.1969  0.0600
 6920W        W10664   3.377   5.460  12.109  0.1479  0.0310  0.1459
 6921W        W10665   1.943   4.894  11.879  0.2913 -0.0867 -0.0123
 6922W        W10666   4.369   3.077   4.665 -0.1936  0.2180  0.1350
 6923W        W10667   6.224   3.199  12.380 -0.0614 -0.1020  0.1510
 6924W        W10668   2.104   7.510  12.514 -0.5824 -0.2522 -0.1970
 6925W        W10669   4.783   7.526  12.497  0.6234 -0.0676 -0.1274
 6926W        W10670   9.756   3.315  12.709  0.2842  0.4112 -0.3564
 6927W        W10671   8.918   8.163   3.199 -0.1756  0.2710  0.0565
 6928W        W10672   0.235   5.927  12.341 -0.0136 -0.0876  0.0524
 6929W        W10673   1.967   8.133  11.332  0.0702  0.2593 -0.1519
 6930W        W10674   9.145   4.409  10.711  0.1711 -0.2009  0.5469
 6931W        W10675   9.855   0.426  10.981  0.2546 -0.0233  0.0880
 6932W        W10676   9.245   1.952  12.448  0.0233  0.1521 -0.1510
 6933W        W10677   1.351   4.639   2.487 -0.1130 -0.0203  0.2203
 6934W        W10678   5.529   2.268   4.214 -0.0212  0.2201  0.0130
 6935W        W10679   5.501   5.153   0.329  0.0663  0.2838  0.0035
 6936W        W10680   2.980   6.068   8.744 -0.2257  0.2787 -0.1514
 6937W        W10681   0.655   6.789   2.992 -0.1437 -0.1295 -0.3051
 6938W        W10682   8.134   3.997   2.018 -0.3698  0.1695 -0.0972
 6939W        W10683   9.196   3.699   3.678  0.0852  0.0423 -0.0351
 6940W        W10684   4.793   7.049   3.288  0.0933  0.1298  0.1441
 6941W        W10685   0.941   5.638   0.864  0.0068  0.2742  0.1348
 6942W        W10686   4.734   4.223   2.021  0.0710  0.1176  0.1187
 6943W        W10687   2.717   3.856   9.927  0.0219 -0.3310  0.4202
 6944W        W10688   7.409   2.941   3.318 -0.4298  0.0401  0.1515
 6945W        W10689   7.028   4.902  11.392 -0.0063 -0.1165  0.1673
 6946W        W10690   8.017   8.447   3.082 -0.4696  0.0584 -0.1398
 6947W        W10691   8.620   1.862   1.954 -0.1651  0.0597 -0.0281
 6948W        W10692   4.419   1.775  10.069 -0.0271  0.1888  0.0806
 6949W        W10693   6.143   4.139  12.426 -0.1986  0.2963  0.0420
 6950W        W10694   7.448   3.061   9.502  0.0680  0.1503 -0.1324
 6951W        W10695   1.437   9.697  11.208  0.0916  0.1038  0.0003
 6952W        W10696   5.558   0.309   3.709  0.0652  0.1696  0.1587
 6953W        W10697   3.753   9.327  11.409 -0.1440  0.1070  0.0273
 6954W        W10698   6.956   6.228  12.707 -0.2636  0.1128  0.0629
 6955W        W10699   5.535   7.053  11.006  0.1025 -0.1218  0.1947
 6956W        W10700   2.376   3.066   9.677  0.2184 -0.0471 -0.0973
 6957W        W10701   5.810   8.267   1.584 -0.2075  0.0794 -0.0886
 6958W        W10702   5.054   4.230  11.319 -0.1156  0.1372  0.2053
 6959W        W10703   1.269   0.902   3.774 -0.0913  0.2654 -0.1814
 6960W        W10704   0.733   5.822  11.474 -0.0009  0.1782 -0.5361
 6961W        W10705   1.578   6.888   0.225 -0.1279  0.4815  0.0784
 6962W        W10706   1.844   2.898   3.594  0.0098  0.2737  0.0691
 6963W        W10707   8.068   5.721  12.290  0.1887  0.0545 -0.0029
 6964W        W10708   9.313   6.763   1.793  0.2002 -0.2841 -0.0536
 6965W        W10709   3.357   1.591   3.823 -0.0109  0.0813  0.0121
 6966W        W10710   1.522   6.470   1.086  0.0468  0.0816  0.2147
 6967W        W10711   0.068   6.996  11.201 -0.3038 -0.0031 -0.1863
 6968W        W10712   6.443   3.007   8.328  0.0072  0.1036  0.2828
 6969W        W10713   7.641   3.689   1.239 -0.2354  0.1383  0.1658
 6970W        W10714   7.876   1.174   0.330  0.2247 -0.2181  0.1659
 6971W        W10715   0.012   9.874  11.318  0.0101 -0.1711 -0.0731
 6972W        W10716   9.348   1.087  12.784 -0.0989 -0.1216  0.0638
 6973W        W10717   0.013   0.738   2.619 -0.0058  0.1991  0.3900
 6974W        W10718   3.518   0.213  10.091  0.0100  0.2922 -0.2062
 6975W        W10719   8.479   3.459   1.041 -0.1224 -0.2107 -0.1199
 6976W        W10720   1.718   6.493   9.475  0.1238  0.0528  0.0041
 6977W        W10721   3.842   2.308  12.698  0.0933  0.1286 -0.1902
 6978W        W10722   6.702   3.309  10.992  0.2489  0.2970  0.2440
 6979W        W10723   5.203   7.006   1.271  0.1479 -0.0266  0.0632
 6980W        W10724   4.296   9.116   4.340  0.1747  0.1020 -0.0924
 6981W        W10725   5.648   8.820  10.179 -0.0577  0.2902  0.3560
 6982W        W10726   4.504   8.208   2.013 -0.1778  0.2431  0.0126
 6983W        W10727   3.671   2.649   9.915 -0.2943  0.3163 -0.0487
 6984W        W10728   9.124   4.812   3.406 -0.0528  0.1363 -0.0647
 6985W        W10729   9.714   2.657   1.485 -0.2184  0.1738 -0.3608
 6986W        W10730   8.902   5.979  10.739 -0.3382 -0.0691  0.0296
 6987W        W10731   8.071   7.358   2.390  0.0592  0.1009 -0.0595
 6988W        W10732   2.635   9.545   1.617  0.1622  0.1837  0.1755
 6989W        W10733   6.520   8.112   2.759  0.0497 -0.2355 -0.1218
 6990W        W10734   1.642   1.148  11.638  0.3272 -0.2117 -0.5469
 6991W        W10735   3.323   3.735   9.182 -0.2553  0.0087  0.1159
 6992W        W10736   8.867   5.357   3.849 -0.0753  0.2079 -0.3222
 6993W        W10737   9.238   8.505   4.683 -0.0735 -0.0752  0.2759
 6994W        W10738   8.460   6.620   0.279 -0.3158 -0.2293  0.0829
 6995W        W10739   1.320   5.018   1.024  0.2315 -0.2299  0.0641
 6996W        W10740   1.842   1.697   1.007 -0.0772 -0.0682  0.1141
 6997W        W10741   1.795   8.923  10.890 -0.0250 -0.1442 -0.3893
 6998W        W10742   4.717   2.805   9.249 -0.3809  0.1593 -0.0933
 6999W        W10743   7.497   2.949  11.388 -0.2281 -0.0394  0.2173
 7000W        W10744   9.569   0.590  12.618  0.1592  0.0027 -0.1267
 7001W        W10745   4.889   8.303   1.135 -0.2616  0.1004 -0.4359
 7002W        W10746   2.441   1.731   2.818  0.1424  0.0967 -0.1736
 7003W        W10747   1.641   3.820  11.225  0.1774  0.2271 -0.3104
 7004W        W10748   2.838   3.681   0.250  0.2393  0.1521  0.1140
 7005W        W10749   2.134   0.696   0.898 -0.2366 -0.1831  0.2444
 7006W        W10750   1.911   7.316   2.303  0.1762 -0.1376  0.1639
 7007W        W10751   7.409   1.577   9.421 -0.1652  0.1566  0.0299
 7008W        W10752   5.299   4.170   8.758  0.1017  0.2175 -0.1571
 7009W        W10753   6.450   3.028   1.412 -0.1093 -0.2076 -0.1114
 7010W        W10754   0.155   0.340   9.631 -0.0836  0.1415 -0.2375
 7011W        W10755   1.621   5.583   9.458 -0.0187  0.2158 -0.1752
 7012W        W10756   6.925   6.838   2.592 -0.1150 -0.1391 -0.1212
 7013W        W10757   7.758   4.744  11.498 -0.2124 -0.0795  0.2166
 7014W        W10758   5.130   9.194   2.362  0.0866  0.4244 -0.0075
 7015W        W10759   9.600   3.726  12.460  0.3224 -0.0252  0.0724
 7016W        W10760   4.580   3.309  11.384 -0.2252  0.0970  0.1565
 7017W        W10761   5.019   2.599  12.836 -0.2485 -0.2475  0.0248
 7018W        W10762   4.853   8.702  12.692  0.1513 -0.2492  0.0260
 7019W        W10763   6.658   0.786   1.803  0.3345 -0.1829  0.4916
 7020W        W10764   2.295   6.379   0.211 -0.0621 -0.1951 -0.2371
 7021W        W10765   2.104   5.051  10.244 -0.5580 -0.0354 -0.1562
 7022W        W10766   9.172   4.679  11.201  0.1411 -0.0702 -0.3153
 7023W        W10767   3.597   0.719   3.661 -0.1823  0.2267 -0.2619
 7024W        W10768   4.681   6.160  12.562 -0.1318  0.3081 -0.1338
 7025W        W10769   5.490   3.040   9.956  0.0934  0.1876 -0.1035
 7026W        W10770   8.203   3.474   4.747 -0.1302 -0.1551 -0.1209
 7027W        W10771   0.042   8.263   1.839  0.1927 -0.2122 -0.0378
 7028W        W10772   2.388   3.012   8.863 -0.1977 -0.3463  0.0343
 7029W        W10773   0.944   3.571   4.281 -0.1271  0.1642  0.1055
 7030W        W10774   9.203   6.391  11.544 -0.0804 -0.3409  0.1943
 7031W        W10775   4.672   5.754   1.409 -0.0655  0.1084 -0.1012
 7032W        W10776   6.265   2.827  11.981 -0.1401 -0.0676  0.2853
 7033W        W10777   0.211   4.904  12.378  0.0798  0.2096  0.0988
 7034W        W10778   3.203   5.525   0.143  0.0923 -0.0665 -0.1421
 7035W        W10779   1.321   0.394   9.040  0.0543  0.0253 -0.0655
 7036W        W10780   4.299   7.741  12.475 -0.1625 -0.2255  0.0844
 7037W        W10781   7.283   4.013   1.145 -0.0968  0.2712 -0.2427
 7038W        W10782   8.732   2.539   1.031  0.1551 -0.1475 -0.1190
 7039W        W10783   3.453   4.081   8.877 -0.1120 -0.1206 -0.0382
 7040W        W10784   9.563   4.094   2.840 -0.0749 -0.2046 -0.0589
 7041W        W10785   6.653   9.770   3.742 -0.0803  0.0250 -0.1878
 7042W        W10786   9.127   7.852   0.393  0.2071 -0.1205  0.1101
 7043W        W10787   4.190   5.967   3.398 -0.1420  0.0231  0.0223
 7044W        W10788   0.696   7.256  10.274 -0.0573  0.0328  0.0551
 7045W        W10789   2.203   6.805  11.381 -0.0081  0.2166 -0.1821
 7046W        W10790   6.509   1.528   4.377  0.0079 -0.2669 -0.0729
 7047W        W10791   1.461   9.313  12.684  0.0425 -0.0386 -0.0571
 7048W        W10792   3.797   2.919  12.828 -0.1342 -0.1641  0.1983
 7049W        W10793   4.257   8.830   1.467  0.1354 -0.1047 -0.1289
 7050W        W10794   6.708   8.288   2.193 -0.0421  0.0434 -0.0483
 7051W        W10795   4.185   6.962   4.250  0.1115  0.0420  0.2064
 7052W        W10796   1.500   7.379   0.023  0.0312  0.2301 -0.1219
 7053W        W10797   3.040   0.803   4.695  0.1906  0.1291  0.0695
 7054W        W10798   5.449   9.480  12.759 -0.0924  0.2122  0.0545
 7055W        W10799   1.584   4.825   2.881 -0.2980  0.0293 -0.1829
 7056W        W10800   0.322   4.808   2.209 -0.3749 -0.0345  0.2452
 7057W        W10801   8.478   4.361   3.770  0.1465 -0.1146 -0.0262
 7058W        W10802   5.918   4.774   2.026 -0.0710 -0.1721  0.0559
 7059W        W10803   3.868   1.762   4.960 -0.2011 -0.0197  0.6254
 7060W        W10804   3.436   3.891   3.998  0.2804 -0.0170 -0.0260
 7061W        W10805   2.373   5.215   8.957  0.0566  0.0084 -0.0582
 7062W        W10806   5.007   9.258   0.086 -0.0106 -0.0156  0.0127
 7063W        W10807   8.310   6.807  11.559  0.1250  0.1253  0.2438
 7064W        W10808   5.523   5.455   8.821  0.2194 -0.1023 -0.3705
 7065W        W10809   2.358   8.282  10.977  0.0266  0.0454  0.0303
 7066W        W10810   7.627   8.371   2.791  0.1048 -0.0877 -0.1720
 7067W        W10811   0.764   7.532   0.267 -0.4293  0.2160 -0.1228
 7068W        W10812   0.602   0.829  12.561 -0.0429  0.3564  0.1463
 7069W        W10813   2.166   0.353  10.606 -0.2462  0.0372 -0.2872
 7070W        W10814   2.569   6.477   2.402 -0.0240  0.2479  0.0122
 7071W        W10815   6.133   4.326   9.080  0.1629 -0.2107 -0.2192
 7072W        W10816   1.998   3.847   1.931  0.0760 -0.3458 -0.0025
 7073W        W10817   2.333   0.323   4.306  0.0421  0.2453  0.0527
 7074W        W10818   3.483   7.784   0.960 -0.0334  0.1871  0.0271
 7075W        W10819   3.806   1.472  11.975  0.1915 -0.1076 -0.1824
 7076W        W10820   7.297   8.526   2.472 -0.3874 -0.0767  0.2032
 7077W        W10821   2.491   5.811   4.148 -0.0844 -0.0613  0.0925
 7078W        W10822   7.011   4.632   2.200 -0.0040 -0.2971  0.0827
 7079W        W10823   1.595   6.514   1.681 -0.1438 -0.0946 -0.0698
 7080W        W10824   7.525   4.509   2.321  0.1641 -0.1378 -0.0606
 7081W        W10825   5.566   2.153   1.286 -0.0614  0.2050 -0.0939
 7082W        W10826   1.182   3.044  11.506  0.1295  0.1362 -0.0714
 7083W        W10827   3.495   2.202  11.995  0.2548  0.0579 -0.0669
 7084W        W10828   7.375   4.176   0.352 -0.1023 -0.1241  0.2001
 7085W        W10829   2.329   6.498   9.691  0.1613  0.2092  0.0977
 7086W        W10830   9.420   0.431   8.489 -0.0178  0.0001 -0.2514
 7087W        W10831   1.731   1.448   9.294  0.0386  0.0353  0.0873
 7088W        W10832   6.256   9.498  10.637  0.0364 -0.2460 -0.3774
 7089W        W10833   0.448   1.896   3.031  0.2380  0.4628  0.1894
 7090W        W10834   3.949   6.339   7.998  0.0610 -0.0137 -0.2523
 7091W        W10835   4.659   3.337   0.315 -0.0665  0.0363  0.2065
 7092W        W10836   5.224   6.233   9.855 -0.1832 -0.2374  0.1110
 7093W        W10837   4.145   1.457  12.706 -0.2352  0.3097  0.1420
 7094W        W10838   5.156   1.759  10.660 -0.1499  0.3541 -0.0310
 7095W        W10839   9.129   6.871  10.951 -0.2437  0.2120 -0.0180
 7096W        W10840   6.832   5.064   1.947  0.0222  0.1184  0.0438
 7097W        W10841   3.862   6.511   2.163  0.1428  0.2101  0.2468
 7098W        W10842   8.160   5.995   8.724 -0.1384  0.0954  0.0013
 7099W        W10843   9.634   7.324  11.296 -0.1334 -0.0396 -0.0026
 7100W        W10844   9.057   3.310   1.501 -0.1126  0.0800  0.0627
 7101W        W10845   0.475   4.671   0.077  0.0418  0.3141 -0.2411
 7102W        W10846   1.687   2.914   0.490 -0.0925 -0.0659 -0.2882
 7103W        W10847   3.723   0.025   9.677 -0.0752 -0.2618 -0.0255
 7104W        W10848   3.726   8.958   1.708 -0.0796 -0.2738  0.3936
 7105W        W10849   5.446   6.948   9.989 -0.3574  0.2981  0.0366
 7106W        W10850   1.239   1.390   1.557  0.1014  0.3010  0.1418
 7107W        W10851   2.993   7.729   1.900  0.1675 -0.0877 -0.2061
 7108W        W10852   4.209   3.525  12.161  0.0295  0.1432 -0.0525
 7109W        W10853   8.086   2.037   0.486  0.3869 -0.0073  0.0087
 7110W        W10854   3.195   1.609   8.826 -0.2226 -0.1103  0.0441
 7111W        W10855   3.095   5.254   9.236 -0.1003 -0.0461  0.0119
 7112W        W10856   9.183   0.015   9.905 -0.5089  0.0791  0.1481
 7113W        W10857   7.863   3.589   2.179  0.0919 -0.0932  0.0636
 7114W        W10858   0.710   9.150   4.540 -0.1240  0.0597 -0.0260
 7115W        W10859   1.906   2.532  12.232 -0.0371 -0.0313  0.0135
 7116W        W10860   0.611   8.245   0.274  0.1242  0.3848  0.0831
 7117W        W10861   1.820   5.441  11.116 -0.0661  0.0658  0.1764
 7118W        W10862   6.994   3.441  10.149  0.2772 -0.0704  0.0752
 7119W        W10863   6.029   0.082  11.130 -0.0712 -0.1164  0.1733
 7120W        W10864   5.076   3.779   9.942  0.2249  0.1035  0.0872
 7121W        W10865   1.202   5.327   2.910  0.0850 -0.0830 -0.1237
 7122W        W10866   3.336   1.441   1.331 -0.3726  0.0645  0.3049
 7123W        W10867   4.894   3.169   1.986  0.0952  0.2040  0.2007
 7124W        W10868   2.902   5.993  10.935  0.1903 -0.1600  0.1076
 7125W        W10869   7.132   6.529  12.094  0.0277  0.2424  0.2306
 7126W        W10870   2.282   0.932   5.025  0.0150  0.0528  0.3034
 7127W        W10871   7.952   4.643   9.965 -0.2947  0.0277  0.2072
 7128W        W10872   1.389   6.410  11.156  0.0903  0.1088 -0.1918
 7129W        W10873   1.195   2.721   1.717  0.5298  0.0227 -0.0947
 7130W        W10874   0.452   5.257   9.640  0.0187 -0.1016  0.0893
 7131W        W10875   0.084   9.876  10.436  0.1103 -0.1582  0.2534
 7132W        W10876   9.035   3.436   7.957 -0.2394 -0.3009 -0.2966
 7133W        W10877   2.540   8.578  10.217  0.1546 -0.0458  0.0518
 7134W        W10878   9.365   2.858  10.888  0.0444 -0.2496 -0.1983
 7135W        W10879   2.615   6.920   2.697  0.0215  0.0935 -0.1352
 7136W        W10880   7.997   3.043   1.873  0.0762 -0.0241  0.1969
 7137W        W10881   4.864   5.986   8.716  0.0652  0.0837  0.3149
 7138W        W10882   1.395   8.853   1.557 -0.0408 -0.2603  0.1067
 7139W        W10883   4.983   2.005   2.006  0.0491  0.0944 -0.1649
 7140W        W10884   4.670   1.139   2.992  0.0886  0.0530  0.4048
 7141W        W10885   6.969   4.435  10.258  0.2339 -0.2053 -0.1094
 7142W        W10886   5.385   8.573   1.707 -0.0126  0.1264 -0.0524
 7143W        W10887   6.963   7.229  11.563  0.1805  0.1793  0.0511
 7144W        W10888   7.883   0.940   2.790  0.0985  0.0569 -0.0270
 7145W        W10889   1.978   5.196   2.625 -0.3147  0.2973  0.4791
 7146W        W10890   8.454   5.864  10.825  0.0735  0.1022  0.0286
 7147W        W10891   5.749   8.915   1.569  0.2967  0.3859 -0.2095
 7148W        W10892   8.016   1.445  12.271 -0.2749 -0.0946 -0.0660
 7149W        W10893   2.294   8.961   8.333 -0.2022  0.0411 -0.1135
 7150W        W10894   5.140   7.679  11.139  0.1612 -0.2435  0.2282
 7151W        W10895   2.441   1.778   9.515  0.0280  0.0958 -0.1278
 7152W        W10896   2.719   1.780   4.793  0.0115 -0.0266 -0.0570
 7153W        W10897   2.870   3.295  11.074 -0.0276  0.1794  0.0026
 7154W        W10898   3.079   1.667   8.253  0.0037  0.1706  0.2980
 7155W        W10899   9.064   1.150  10.549  0.0772  0.1071  0.0977
 7156W        W10900   7.544   2.005   1.798 -0.1293  0.0026  0.2235
 7157W        W10901   8.567   9.480  12.679  0.4004  0.1107 -0.0063
 7158W        W10902   8.530   8.194   1.679  0.2235 -0.1697 -0.1342
 7159W        W10903   0.137   5.989  11.789  0.0448 -0.2382 -0.2106
 7160W        W10904   8.364   3.581   2.358  0.0260 -0.0774  0.0924
 7161W        W10905   6.049   3.151   9.382 -0.0159 -0.0516 -0.0037
 7162W        W10906   1.037   6.792   4.447  0.3651  0.0730 -0.1292
 7163W        W10907   6.939   9.727  11.364  0.0314  0.0322 -0.1102
 7164W        W10908   0.594   8.992   1.364 -0.3249 -0.0409 -0.1961
 7165W        W10909   0.791   8.003  12.496 -0.0075 -0.1428 -0.1997
 7166W        W10910   5.854   6.615   9.227 -0.2222 -0.0563  0.2827
 7167W        W10911   5.930   3.535  12.673 -0.2403  0.0761 -0.2292
 7168W        W10912   7.538   9.249   0.111  0.0152 -0.0887  0.3293
 7169W        W10913   7.893   6.948  11.801  0.1447  0.1752  0.0666
 7170W        W10914   3.130   5.976   3.588 -0.1946  0.0640 -0.0493
 7171W        W10915   3.356   9.479   2.407  0.1213 -0.2785 -0.1920
 7172W        W10916   4.281   8.019  12.093  0.1053 -0.0026  0.2027
 7173W        W10917   9.388   3.849   1.082 -0.1067 -0.1140  0.4303
 7174W        W10918   5.872   6.506  12.276  0.1484  0.0896  0.2060
 7175W        W10919   6.743   1.798   4.784 -0.0109 -0.0112 -0.0109
 7176W        W10920   7.957   2.920   3.240 -0.1172 -0.0172 -0.0569
 7177W        W10921   5.962   9.483   9.331  0.0012  0.2372  0.0992
 7178W        W10922   7.902   2.307  10.242  0.2302 -0.0335 -0.0198
 7179W        W10923   0.950   4.279  10.010 -0.2386  0.3270  0.2476
 7180W        W10924   2.810   9.464   9.931 -0.2472  0.0667 -0.1015
 7181W        W10925   0.940   8.553   8.355  0.1274 -0.2177 -0.0659
 7182W        W10926   1.202   2.080  11.751 -0.2102 -0.0878  0.0509
 7183W        W10927   9.103   5.960   2.847  0.0703 -0.0696 -0.0711
 7184W        W10928   3.957   5.694   4.185 -0.2469  0.1630  0.2794
 7185W        W10929   1.954   7.571   0.142 -0.2790  0.0049  0.2530
 7186W        W10930   5.212   1.667   1.523  0.2245  0.0628  0.2401
 7187W        W10931   8.304   6.491   8.859 -0.2154 -0.1246  0.4229
 7188W        W10932   6.245   4.352  11.318 -0.3191 -0.0268 -0.3440
 7189W        W10933   7.220   1.001  12.591 -0.0520  0.0876 -0.2439
 7190W        W10934   6.939   9.293  11.078 -0.1403  0.0307 -0.2133
 7191W        W10935   7.343   3.062   0.937 -0.1697  0.1762  0.0876
 7192W        W10936   9.123   6.183   2.015  0.1169 -0.1749  0.2169
 7193W        W10937   8.389   7.042   0.808  0.0586 -0.0422 -0.0849
 7194W        W10938   1.473   4.686  11.742 -0.0240 -0.2025  0.0404
 7195W        W10939   0.664   0.996  11.286  0.0530 -0.2531 -0.1490
 7196W        W10940   8.871   5.404   0.781  0.1725  0.0895  0.1311
 7197W        W10941   1.254   1.764   1.218  0.0091 -0.0008  0.1334
 7198W        W10942   7.980   4.435   2.281 -0.2271 -0.0720 -0.0397
 7199W        W10943   4.086   1.756   3.483  0.0092  0.2206  0.1901
 7200W        W10944   5.343   9.684  11.778 -0.1370  0.4676 -0.1251
 7201W        W10945   5.167   7.302  10.695 -0.3387  0.0941 -0.2132
 7202W        W10946   4.376   3.046  10.627 -0.2024 -0.1108 -0.5205
 7203W        W10947   5.587   4.480  11.131 -0.1730  0.1400 -0.0907
 7204W        W10948   6.995   1.004   2.087  0.0401  0.0364 -0.0778
 7205W        W10949   2.540   4.507   1.400 -0.1930  0.0108 -0.3909
 7206W        W10950   8.799   8.432  10.945  0.0157 -0.0741 -0.3344
 7207W        W10951   9.496   3.631   0.131  0.0009 -0.1579 -0.4053
 7208W        W10952   9.016   2.711  11.776 -0.0192  0.2835 -0.0491
 7209W        W10953   6.295   5.698   9.912 -0.1770 -0.1580 -0.0070
 7210W        W10954   6.990   1.883   0.416  0.1105  0.1478  0.1971
 7211W        W10955   2.663   8.998   0.935  0.1765 -0.1173  0.0714
 7212W        W10956   5.342   3.627  11.883 -0.2124 -0.1690  0.2449
 7213W        W10957   9.220   9.231   0.459  0.0331  0.1106  0.0987
 7214W        W10958   3.293   7.848  10.758  0.2549  0.2391 -0.1842
 7215W        W10959   8.278   5.391  10.519  0.1502  0.1792 -0.0394
 7216W        W10960   2.608   4.041  10.491 -0.1926  0.3338  0.0170
 7217W        W10961   1.310   2.194   4.456 -0.0315 -0.1453  0.0527
 7218W        W10962   9.614   2.507   9.483 -0.1372 -0.0528 -0.2911
 7219W        W10963   1.061   8.957   4.189  0.1371  0.1481 -0.1325
 7220W        W10964   2.310   8.323   9.055 -0.0333  0.2560 -0.2301
 7221W        W10965   4.222   6.446   8.415  0.1784  0.1130  0.0527
 7222W        W10966   6.693   7.038   0.564 -0.1711  0.0660 -0.2515
 7223W        W10967   3.433   9.595  12.764 -0.2148 -0.0075 -0.0950
 7224W        W10968   1.928   1.444   1.947 -0.0325 -0.0098 -0.0252
 7225W        W10969   8.612   9.345  11.755 -0.1227  0.0620  0.3679
 7226W        W10970   0.688   9.246   3.985  0.1733 -0.1871  0.2245
 7227W        W10971   1.213   0.698  11.102 -0.0979 -0.2056 -0.1497
 7228W        W10972   4.391   7.439   2.287  0.5185 -0.2424 -0.1620
 7229W        W10973   8.055   5.668   9.550 -0.2766  0.0237  0.0884
 7230ION    NA+10974   5.794   9.403   1.184 -0.1099  0.0118  0.1667
 7231ION    NA+10975   0.123   8.726   3.810  0.2624 -0.2190 -0.3468
 7232ION    NA+10976   3.879   6.554  10.893 -0.0991  0.2499 -0.0626
 7233ION    NA+10977   9.293   5.878  12.841 -0.0806  0.1811 -0.4319
 7234ION    NA+10978   7.156   8.575   1.657 -0.3115  0.1126  0.3649
 7235ION    NA+10979   2.329   3.535   8.946  0.0031 -0.1377  0.0189
 7236ION    NA+10980   3.242   8.160  11.268 -0.0868  0.0225  0.2483
 7237ION    NA+10981   0.953   6.895   2.168 -0.0996 -0.0983 -0.1045
 7238ION    NA+10982   8.568   1.058  11.430  0.0463 -0.4648 -0.3204
 7239ION    NA+10983   1.947   4.680   7.937 -0.1017  0.0859  0.1296
 7240ION    NA+10984   9.412   4.626  10.319 -0.2367  0.1028  0.1777
 7241ION    NA+10985   3.697   5.521   2.966 -0.2302  0.3311 -0.0813
 7242ION    NA+10986   3.765   8.737  10.629 -0.0427 -0.2640 -0.0911
 7243ION    NA+10987   3.534   6.528  12.178 -0.2814  0.2125 -0.2439
 7244ION    NA+10988   7.742   2.808   9.054 -0.0927 -0.1463  0.0359
 7245ION    NA+10989   6.374   9.773  12.453 -0.1169  0.1379  0.2386
 7246ION    NA+10990   9.539   9.361   8.665 -0.0846 -0.3105  0.2303
 7247ION    NA+10991   5.484   6.395  10.683  0.0781  0.0273 -0.0563
 7248ION    NA+10992   0.083   1.018   3.797  0.4877  0.1358 -0.0119
 7249ION    NA+10993   8.726   3.155  11.983  0.0533  0.1225  0.0663
 7250ION    NA+10994   0.462   4.566   2.652  0.0299 -0.0695 -0.0758
 7251ION    NA+10995   6.907   1.643   1.276 -0.2618 -0.4989  0.0700
 7252ION    NA+10996   3.792   6.801   1.106 -0.0428 -0.1055  0.0603
 7253ION    NA+10997   3.333   1.279   8.458  0.0313  0.3740 -0.0721
 7254ION    NA+10998   4.544   2.830  11.069  0.1839 -0.0232  0.0625
 7255ION    NA+10999   7.812   4.460   8.599  0.1284  0.3364 -0.1603
 7256ION    NA+11000   4.525   4.655   2.236 -0.0737  0.2217  0.0671
 7257ION    NA+11001   1.657   8.836  12.179  0.1207 -0.5493 -0.0010
 7258ION    NA+11002   5.521   5.856   3.472  0.1914 -0.0803 -0.2191
 7259ION    NA+11003   2.985   2.889   1.390  0.2455  0.1492 -0.0275
 7260ION    NA+11004   8.924   6.861   2.956 -0.0542  0.3326 -0.0692
 7261ION    NA+11005   5.085   8.933   8.406  0.1037  0.1485 -0.1557
 7262ION    NA+11006   6.590   6.377   1.159 -0.1344  0.3790 -0.0094
 7263ION    NA+11007   2.761   5.235   8.126  0.0442  0.0347  0.3224
 7264ION    NA+11008   4.494   3.898   1.547  0.2808  0.1577 -0.0633
 7265ION    NA+11009   9.551   2.892   8.339 -0.1419  0.0303  0.0668
 7266ION    NA+11010   6.363   2.394   9.083  0.0286 -0.2436 -0.1494
 7267ION    NA+11011   4.830   6.885   8.311 -0.1702 -0.0237  0.0336
 7268ION    NA+11012   4.136   6.857   3.713 -0.2466 -0.0446  0.3255
 7269ION    NA+11013   3.233   3.061   2.718  0.1779  0.1040 -0.1832
 7270ION    NA+11014   9.791   4.131   4.517  0.1460  0.2130  0.0526
 7271ION    NA+11015   0.762   5.857   2.440 -0.0848 -0.1759 -0.4988
 7272ION    NA+11016   6.152   3.328   3.071  0.1190 -0.1261 -0.3049
 7273ION    NA+11017   2.255   3.155   8.345  0.1800  0.1383  0.1350
 7274ION    NA+11018   0.548   8.077   9.919  0.1454  0.1186  0.2001
 7275ION    NA+11019   0.839   0.702   3.558 -0.0206  0.2120  0.1770
 7276ION    NA+11020   1.863   4.261   9.508  0.0053  0.0728  0.4975
 7277ION    NA+11021   7.109   7.967  10.405  0.3851  0.1296  0.1674
 7278ION    NA+11022   1.138   9.252  10.198 -0.2126 -0.2034 -0.0759
 7279ION    NA+11023   3.313   5.790   4.412 -0.1364 -0.0860 -0.2896
 7280ION    NA+11024   5.925   2.748   8.529 -0.1063 -0.1381 -0.0014
 7281ION    NA+11025   4.379   6.673   0.216  0.0031  0.1884 -0.1462
 7282ION    NA+11026   7.264   4.363   4.241 -0.0441 -0.0885  0.1370
 7283ION    NA+11027   4.616   6.708   9.990  0.1677 -0.0779 -0.0126
 7284ION    NA+11028   6.053   8.981  11.316 -0.3234 -0.1109  0.0559
 7285ION    NA+11029   4.822   4.263  12.359  0.1576 -0.1683  0.5127
 7286ION    NA+11030   0.719   4.000   4.363 -0.0277  0.0432 -0.1465
 7287ION    NA+11031   8.041   5.809   0.554  0.1767  0.6753  0.2854
 7288ION    NA+11032   3.959   6.974   9.313 -0.1026 -0.2250 -0.0942
 7289ION    NA+11033   3.185   1.018   3.811 -0.0188  0.0461 -0.1421
 7290ION    NA+11034   0.931   1.830   2.987  0.2381 -0.0605  0.0043
 7291ION    NA+11035   3.688   5.088   0.542 -0.1078 -0.3016  0.1800
 7292ION    NA+11036   8.582   5.041   0.929 -0.0042 -0.3278  0.0893
 7293ION    NA+11037   4.992   1.669   2.447  0.0118  0.0521 -0.3196
 7294ION    NA+11038   4.594   2.244   2.218 -0.3390  0.0050  0.0683
 7295ION    NA+11039   8.834   5.181   9.740  0.1713 -0.0155 -0.1236
 7296ION    NA+11040   2.925   9.231  10.883  0.0870  0.1913  0.0741
 7297ION    NA+11041   2.695   8.988   9.954  0.0642  0.0831  0.0451
 7298ION    NA+11042   4.119   8.324  10.357  0.0478  0.0250 -0.2427
 7299ION    NA+11043   0.316   5.832  10.302 -0.0109 -0.2113  0.0117
 7300ION    NA+11044   8.499   5.154   1.907  0.1834 -0.0590 -0.1591
 7301ION    NA+11045   3.508   9.399   3.318 -0.1984  0.0291 -0.0211
 7302ION    NA+11046   7.605   1.168  11.297 -0.0104  0.0132  0.0160
 7303ION    NA+11047   9.717   4.974   4.226  0.0964  0.0721  0.2236
 7304ION    NA+11048   5.818   4.638   3.626  0.0518 -0.1886  0.0027
 7305ION    NA+11049   4.969   4.760   3.126 -0.1105  0.1046 -0.0809
 7306ION    CL-11050   0.399   8.444   9.618 -0.1014 -0.0015 -0.0748
 7307ION    CL-11051   5.075   9.414   3.486  0.0755 -0.2128  0.0325
 7308ION    CL-11052   4.880   3.723   1.727 -0.2200  0.0380  0.2092
 7309ION    CL-11053   8.315   5.456   0.730  0.0293 -0.0290  0.0121
 7310ION    CL-11054   5.953   8.800  11.903  0.1959  0.0118 -0.2200
 7311ION    CL-11055   7.158   2.781   9.118  0.3053 -0.0027  0.0761
 7312ION    CL-11056   9.408   0.992  10.219 -0.2734  0.2260 -0.1076
 7313ION    CL-11057   1.629   7.502   3.404  0.0137 -0.3967  0.2389
 7314ION    CL-11058   8.464   3.374  11.640  0.2525 -0.0800 -0.1757
 7315ION    CL-11059   3.285   7.471   9.120  0.1640  0.1745  0.0120
 7316ION    CL-11060   1.829   5.061   8.728  0.0891  0.0653  0.0016
 7317ION    CL-11061   6.957   8.259  10.002 -0.3263 -0.2289 -0.2137
 7318ION    CL-11062   3.090   8.874  11.280 -0.0938 -0.2644 -0.1283
 7319ION    CL-11063   7.173   7.074  10.747  0.2616  0.1018 -0.2649
 7320ION    CL-11064   3.170   8.856   8.648  0.0591  0.2252  0.2178
 7321ION    CL-11065   6.128   4.960   3.293 -0.1321 -0.0448 -0.2119
 7322ION    CL-11066   9.860   6.444   9.736 -0.1232  0.0417  0.1709
 7323ION    CL-11067   0.489   5.421  10.720  0.0490  0.1401 -0.1330
 7324ION    CL-11068   5.850   2.878   3.826  0.2396 -0.2074 -0.0436
 7325ION    CL-11069   0.359   3.925   1.906 -0.1121  0.4785 -0.0705
 7326ION    CL-11070   2.609   4.800   9.778  0.0893 -0.1926  0.0604
 7327ION    CL-11071   9.637   4.304   8.955  0.0355  0.3924  0.0174
 7328ION    CL-11072   5.719   9.441  11.561  0.0148 -0.0443  0.0476
 7329ION    CL-11073   0.103   5.582   9.834 -0.4506  0.0988 -0.0636
 7330ION    CL-11074   6.580   0.495  10.796 -0.2539 -0.1157  0.2250
 7331ION    CL-11075   0.404   0.627   3.853  0.0347  0.1129 -0.0495
 7332ION    CL-11076   3.113   2.305   9.198 -0.0752 -0.1351  0.0798
 7333ION    CL-11077   0.936   9.755  10.335  0.0629  0.0734  0.1363
 7334ION    CL-11078   9.086   5.258   2.277  0.2714  0.1541  0.0131
 7335ION    CL-11079   8.334   4.795   1.449  0.2044  0.0709 -0.0371
 7336ION    CL-11080   0.899   6.073   2.017  0.2044  0.1895  0.0718
 7337ION    CL-11081   9.225   5.108  10.184  0.0788 -0.3134  0.1879
 7338ION    CL-11082   4.021   6.779   0.544  0.3335  0.0780  0.2510
 7339ION    CL-11083   3.615   9.785   8.694 -0.0040  0.2892 -0.1004
 7340ION    CL-11084   2.643   9.590  10.502  0.3244  0.3255  0.1994
 7341ION    CL-11085   8.043   0.819  11.242  0.2991 -0.0676 -0.0992
 7342ION    CL-11086   0.251   4.526   3.089 -0.0083  0.2461  0.1830
 7343ION    CL-11087   5.018   5.457   2.233 -0.0427 -0.3874  0.0054
 7344ION    CL-11088   8.659   8.363  12.727  0.1191  0.0858 -0.3324
 7345ION    CL-11089   6.833   2.598   4.057  0.1235 -0.1354 -0.0450
 7346ION    CL-11090   5.828   7.000  12.235  0.2043  0.0876 -0.2074
 7347ION    CL-11091   3.876   8.689  10.125 -0.2276  0.4067 -0.3095
 7348ION    CL-11092   1.288   8.507  12.022 -0.1030 -0.0659  0.3648
 7349ION    CL-11093   4.411   4.989   2.913  0.0140 -0.0718  0.3645
 7350ION    CL-11094   7.857   2.271   9.100 -0.0126  0.0217  0.1823
 7351ION    CL-11095   7.152   1.485   0.657 -0.1249  0.1483 -0.1474
 7352ION    CL-11096   3.208   0.603   4.186  0.0144 -0.0579  0.0048
 7353ION    CL-11097   8.997   3.126  10.094  0.0536  0.0588  0.1520
 7354ION    CL-11098   1.429   9.300   3.949  0.1071  0.2697  0.1109
 7355ION    CL-11099   6.825   2.766  10.824 -0.3343  0.0224 -0.0828
 7356ION    CL-11100   9.770   7.240   3.502 -0.1599  0.0396 -0.1255
 7357ION    CL-11101   5.664   4.898   9.511 -0.0231  0.2059  0.0318
 7358ION    CL-11102   3.829   8.325  10.910  0.1169  0.3145 -0.1914
 7359ION    CL-11103   7.626   5.519   9.409  0.0963 -0.1227  0.0436
 7360ION    CL-11104   3.666   8.449   2.254  0.1393 -0.3010  0.1237
 7361ION    CL-11105   3.727   5.349   3.643  0.0083  0.0816  0.1655
 7362ION    CL-11106   1.441   8.393   9.262  0.0650 -0.3132  0.1799
 7363ION    CL-11107   0.896   9.549   2.107 -0.1444 -0.0569 -0.3161
 7364ION    CL-11108   7.945   3.617   3.857 -0.3124 -0.0625 -0.1354
 7365ION    CL-11109   5.992   4.035   0.042 -0.0677 -0.3954 -0.0489
 7366ION    CL-11110   3.633   3.415   2.044 -0.0340 -0.1308  0.2673
 7367ION    CL-11111   3.404   3.193  11.259 -0.0015  0.3798 -0.1971
 7368ION    CL-11112   2.928   3.264   0.886  0.1947  0.2885  0.1104
 7369ION    CL-11113   6.520   1.925   1.543 -0.2320  0.0203  0.0059
 7370ION    CL-11114   0.057   1.114   3.081 -0.2081  0.0521  0.1855
 7371ION    CL-11115   3.883   8.861   4.026  0.0852 -0.1123  0.5945
 7372ION    CL-11116   4.471   6.973   9.522 -0.3079 -0.0422  0.0639
 7373ION    CL-11117   0.544   7.550   1.833 -0.1154  0.1085 -0.1219
 7374ION    CL-11118   6.023   0.218   3.496 -0.0574 -0.0036  0.3314
 7375ION    CL-11119   5.061   6.785  10.802  0.0104  0.1213  0.0951
 7376ION    CL-11120   2.251   4.337   9.156  0.0166 -0.0277  0.0345
 7377ION    CL-11121   4.521   1.920   2.610 -0.0979 -0.2474  0.0215
 7378ION    CL-11122   5.668   2.673   8.945 -0.0339 -0.0211  0.1320
 7379ION    CL-11123   1.433   1.867   2.922  0.1677  0.0443 -0.0392
 7380ION    CL-11124   6.499   4.157   3.474  0.0066  0.3193 -0.0843
 7381ION    CL-11125   2.716   1.438   2.501 -0.1583  0.2453  0.0753
   9.94668   9.94668  12.84936
